default_name
127297
  76.3804350  33.1148209  48.2156691  75.9042779  33.2568283  47.3363459
  75.7769740  33.4222626  48.9649453  76.7664646  32.1815958  48.2287683
  77.5831314  34.0484797  48.2587213  77.4754297  34.7963002  49.0443829
  78.9604984  33.3405237  48.4026184  79.7416862  34.0657120  48.1746976
  79.1746366  32.7885259  49.8045286  78.3940434  32.0628732  50.0330086
  80.1488795  32.3027918  49.8594289  79.1345809  33.6039796  50.5266989
  79.1205987  32.2731023  47.3236094  78.2143459  32.2784720  46.7179885
  79.2163278  31.3099151  47.8248151  80.3083444  32.4970416  46.4443385
  81.2150819  32.4913391  47.0492306  80.3642624  31.7034340  45.6992484
  80.2131010  33.4598977  45.9424055  77.7490988  34.9334270  47.0539009
  77.2577892  34.6833539  45.9465742  78.5461882  35.9413282  47.2898831
  79.1162584  35.9374002  48.1236120  78.6465947  37.0402260  46.4191000
  78.7648079  36.7082260  45.3876443  77.3485874  37.8646535  46.5254736
  76.5516675  37.1702917  46.7917058  77.4917589  38.5802951  47.3350779
  76.9740653  38.5983282  45.2696166  76.9205974  39.6650715  45.4871039
  77.7402688  38.4198224  44.5151831  75.6514475  38.1278856  44.7569267
  74.8723644  38.3819499  45.4756615  75.4382199  38.6126300  43.8042168
  75.6495803  36.7021541  44.5595255  76.4218366  36.1628604  44.9240551
  74.6613987  36.0636529  43.9665876  73.6280846  36.7486281  43.4795527
  73.6067119  37.7546092  43.5669900  72.8706587  36.2589058  43.0250444
  74.7236671  34.7488199  43.8130856  75.5288123  34.2415334  44.1514667
  73.9656934  34.2600913  43.3584222  79.8698361  37.8955096  46.8537083
  79.8764800  38.4594598  47.9496641  80.8627943  38.0105987  45.9661034
  80.7812642  37.5354528  45.0785852  82.0372532  38.7944494  46.2118134
  81.9062334  39.4339615  47.0847150  83.1831307  37.8439043  46.4767940
  82.9358544  37.4280073  47.4535147  83.1410369  37.0553400  45.7254655
  84.5959817  38.4358376  46.5168952  84.9459687  38.5011537  45.4866799
  84.6770353  39.8132625  47.1697358  84.3276228  39.7486490  48.2001895
  85.7099259  40.1612571  47.1580125  84.0515162  40.5148618  46.6178438
  85.5139769  37.4572191  47.2450880  85.5257702  36.5054536  46.7139544
  86.5242730  37.8647090  47.2818964  85.1482491  37.3017866  48.2600673
  82.3235595  39.6240724  44.9817388  82.7854008  39.0870486  44.0026484
  81.9876124  40.9304577  45.0122179  80.8595663  41.5443921  45.7319688
  81.1970076  41.8658592  46.7173076  80.0636592  40.8080432  45.8434196
  80.4504946  42.7109381  44.8451629  80.0249789  43.5185075  45.4408701
  79.7253473  42.3911600  44.0968282  81.7034439  43.1156714  44.2166330
  82.2877627  43.7238755  44.9071099  81.5616086  43.6609917  43.2835691
  82.4293165  41.7937936  43.9444639  82.1222700  41.3418360  43.0013016
  83.9078258  41.9977231  43.9395529  84.4898787  42.5248044  44.9314409
  84.4848805  41.5490301  42.8122817  83.8631286  41.2863535  42.0609330
  85.9034034  41.4726173  42.5822600  86.4241950  41.0894557  43.4597920
  86.1882347  40.5652756  41.3841306  85.5543998  40.8685567  40.5508394
  87.6539274  40.6694113  40.9721055  88.2884125  40.3658264  41.8047912
  87.8390948  40.0174910  40.1183997  87.8826471  41.6994020  40.6984163
  85.8259150  39.1191373  41.7332745  86.5313790  38.7907382  42.4965407
  84.8198863  39.1364654  42.1524468  85.8681832  38.1519514  40.5512632
  86.8740862  38.1337339  40.1318265  85.5980665  37.1516766  40.8897694
  85.1625947  38.4794627  39.7877313  86.3638995  42.8476304  42.2410908
  85.8660935  43.4184108  41.2649561  87.3823557  43.3334814  42.9603631
  87.8120447  42.7746171  43.6836454  87.9369634  44.6501371  42.6849997
  87.1450926  45.2921846  42.2992346  88.5657798  45.3231406  43.8680810
  89.5431965  44.8879255  44.0762728  88.7295366  46.8027800  43.5300930
  87.7524218  47.2388252  43.3222174  89.1857581  47.3204245  44.3738978
  89.3675227  46.9070921  42.6524858  87.7116868  45.1422550  45.1001454
  87.6042229  44.0791594  45.3155086  88.1855696  45.6379833  45.9473692
  86.7278670  45.5788635  44.9281786  89.0327394  44.5944130  41.7051758
  89.0922447  45.4119884  40.8138787  89.9967947  43.7210188  41.9500961
  90.0920411  43.2949877  42.8608787  91.0406793  43.4713014  40.9544324
  90.6117831  43.4828879  39.9524279  92.1355973  44.5782122  41.0406073
  91.7141485  45.4185360  41.5922740  92.9744998  44.1621080  41.5984604
  92.6262156  45.0635665  39.6605805  91.8184530  45.0002732  38.7066123
  93.8147572  45.5069125  39.5500262  91.6570443  42.0252891  41.0128079
  91.6283199  41.3118248  42.0509430  92.2194543  41.6424614  39.8707957
  92.1451254  42.2679147  39.0812498  92.9184610  40.3856993  39.6885330
  92.7644170  39.7342204  40.5487334  92.3702225  39.6861801  38.4400213
  92.8351969  38.7006941  38.4132729  91.2972311  39.5769315  38.5976737
  92.6222638  40.4108520  37.0986356  93.6686208  40.7160485  37.0889896
  92.4483810  39.6860885  36.3032836  91.7305616  41.6374501  36.8755792
  90.7458582  41.2936597  36.5589305  91.6411258  42.1738611  37.8202293
  92.3048877  42.5626558  35.8222659  91.6365545  43.4151605  35.7011578
  93.2818059  42.9120970  36.1563631  92.4496739  41.8564132  34.5184694
  91.5444872  41.5329080  34.2085000  92.8334156  42.4909006  33.8327085
  93.0692669  41.0666785  34.6303742  94.4114876  40.6962673  39.5310655
  94.7936473  41.5228848  38.6693726  95.2407793  40.1633295  40.4293915
  94.8967561  39.6345243  41.2181325  96.6765235  40.4353046  40.3495275
  96.8559979  41.0734810  39.4842998  97.2388598  41.1316286  41.5982484
  98.2109176  41.3958814  41.1818673  96.6992770  42.0403448  41.8650543
  97.4345699  40.2794045  42.8352023  96.3421499  39.8460957  43.5860424
  95.3387268  40.0206755  43.1977597  96.5142132  39.1985569  44.8153270
  95.6428749  38.8729876  45.3835488  97.8064320  38.9663878  45.3161085
  97.9936536  38.3077235  46.5394389  97.1683044  38.0543123  46.9591783
  98.8991234  39.4010349  44.5817649  99.9094603  39.2047485  44.9406402
  98.7044963  40.0941834  43.3755810  99.5599091  40.5030469  42.8378082
  97.3746856  39.1704487  40.0623374  97.7886973  38.4814965  40.9702080
  97.4520395  38.8262261  38.7891413  97.1857159  39.4369859  38.0301001
  97.9658638  37.5355429  38.4695547  97.2363546  36.7639373  38.7156042
  98.2594153  37.4688709  36.9810953  97.3902637  37.8785706  36.4664879
  99.1237107  38.1073138  36.7981090  98.5425225  36.0763551  36.4617620
  99.2085556  35.5777501  37.1659594  97.5990182  35.5332082  36.4079738
  99.1927197  36.1051678  35.0794135  99.5644996  37.1163875  34.9141458
 100.0311361  35.4088846  35.0980411  98.2411506  35.7237231  33.9522448
  98.8242129  35.1716938  33.2150863  97.4842627  35.0673194  34.3816095
  97.5772466  36.8815388  33.2932332  98.2784048  37.4896796  32.8949347
  96.9663047  36.5475676  32.5615822  97.0365712  37.3929495  33.9760424
  99.2185274  37.4241269  39.2593745 100.1308158  38.2179647  39.1271719
  99.2376457  36.4045488  40.0939331  98.4591873  35.7620338  40.0582077
 100.3427826  36.0916957  40.9656855 101.2815671  36.3336280  40.4674370
 100.2583036  36.8865375  42.2499062 100.6333022  37.8861983  42.0304666
  99.2140552  36.9498326  42.5559112 101.0740254  36.2767257  43.3664941
 100.8170074  35.1250644  43.7797930 101.9774009  36.9696951  43.8572355
 100.0232590  34.6741755  41.2532462  98.8916910  34.2706802  41.0538087
 100.9997420  33.8868892  41.6985959 101.9219536  34.2766107  41.8317960
 100.7919422  32.4689069  42.0123021 101.7078150  31.9023104  42.1803633
  99.8894030  32.3059831  43.2270357 100.3969861  32.6905687  44.1116558
  98.9641706  32.8603657  43.0698576  99.5686077  30.8286378  43.4274494
  99.0605656  30.4434349  42.5433607 100.4933798  30.2736372  43.5851615
  98.4951538  30.6183316  44.8695195  98.2978218  28.8493843  44.8526102
  99.2732321  28.3734843  44.9535708  97.6588026  28.5466161  45.6821200
  97.8404196  28.5432794  43.9117678 100.1397816  31.9017464  40.7685221
 100.5038420  32.3162339  39.6644428  99.1468665  31.0344862  40.9248591
  98.8601711  30.6690419  41.8217178  98.4388407  30.5903250  39.7460350
  99.1100263  30.2772275  38.9462980  97.7298560  29.7902067  39.9587571
  97.6706306  31.8262845  39.2933527  97.7042209  32.2265584  38.1341510
  96.9863458  32.4411858  40.2571139  97.0222387  32.0471355  41.1863800
  96.2034555  33.6535083  40.0502177  96.8369454  34.3993726  39.5701383
  94.9844341  33.3993497  39.1581414  94.3933411  32.5901552  39.5869929
  94.1380325  34.6398236  39.0579073  94.7283501  35.4493851  38.6286813
  93.2762661  34.4417800  38.4205405  93.7956286  34.9279630  40.0518066
  95.4212696  33.0426336  37.8476768  94.6576398  32.8832306  37.2881587
  95.7021641  34.1598677  41.3885801  95.7400366  33.4329011  42.3740983
  95.2036708  35.3876302  41.4301110  95.2438583  36.0154859  40.6399961
  94.6222952  35.8900290  42.6984603  93.9388597  35.1359965  43.0889089
  95.6994501  36.2158238  43.8051039  96.0743256  37.2219477  43.6172678
  95.1364944  36.1380901  45.2293888  94.7618219  35.1320604  45.4181361
  95.9243935  36.3720769  45.9453257  94.3225447  36.8548014  45.3385320
  96.8525508  35.2472772  43.7195338  97.3194376  35.3232597  42.7375229
  97.5861802  35.4860423  44.4895200  96.4865142  34.2316054  43.8696298
  93.7900591  37.1277587  42.4239368  94.0552612  37.8997966  41.4687559
  92.8475235  37.3307664  43.3477076  92.9146070  36.7954124  44.2015197
  91.7355860  38.2010604  43.1835478  91.9245943  39.0387025  42.5121830
  90.5666325  37.3860141  42.6305765  90.8114005  36.3293946  42.7389416
  89.2667770  37.6791252  43.3503255  89.0210949  38.7355383  43.2420077
  88.4682246  37.0749169  42.9198062  89.3741348  37.4381828  44.4079278
  90.4266590  37.6405521  41.1377363  91.3451785  37.3452238  40.6305824
  89.5926053  37.0583237  40.7459912  90.2417328  38.7008008  40.9651794
  91.3905463  38.8689902  44.5098096  91.4007806  38.2495387  45.5678649
  90.9700873  40.1144361  44.4050773  90.8235627  40.4909867  43.4794210
  90.6613175  40.9648365  45.5579668  91.0040895  40.5164229  46.4904537
  91.3948165  42.2636995  45.3503923  91.4166950  42.3861257  44.2675108
  90.8419829  43.0897107  45.7978078  92.7979258  42.2560838  45.8808405
  93.0095491  41.2833576  46.3248227  93.7825875  42.5222527  44.7480968
  93.5718714  43.4950742  44.3038942  94.7993991  42.5152509  45.1407110
  93.6816037  41.7470354  43.9885306  92.8612364  43.2953208  47.0141102
  92.1538466  43.0230395  47.7974121  93.8691234  43.3209839  47.4283645
  92.6056442  44.2790588  46.6203702  89.1737785  41.3353512  45.7340453
  88.4901783  41.6570822  44.7650458  88.7551109  41.5651992  46.9608473
  89.2629975  41.2799939  47.7859585  87.5089179  42.2589432  47.1339524
  87.6134187  43.2335882  46.6572492  86.7435929  41.6815653  46.6152891
  87.0913719  42.4546195  48.5519116  87.8850397  42.2523607  49.4685515
  85.8783017  42.9927989  48.7105413  85.4909912  43.5558795  47.9668813
  85.0737727  42.7876522  49.9174502  85.7196266  42.4311220  50.7198579
  84.3934784  44.0745540  50.3745336  85.1697987  44.8157232  50.5645186
  83.7514408  44.4210536  49.5647029  83.5581469  43.8779854  51.6371437
  82.5883211  43.4787652  51.3402231  84.0704093  43.1533805  52.2701026
  83.3575900  45.1763172  52.4111157  83.0209874  45.9405253  51.7105561
  82.5861255  45.0078182  53.1624811  84.6471551  45.6453896  53.0986787
  85.0330289  44.7946289  53.6602908  85.3498546  45.9066255  52.3074339
  84.4752089  46.8144824  54.0193603  83.8244366  46.5724788  54.7528652
  85.3672029  47.0561133  54.4268663  84.1180611  47.6030515  53.4990687
  84.0001256  41.7853250  49.6463433  83.3100292  41.8667562  48.6235966
  83.7469753  40.9635566  50.6597961  84.1430865  41.1827357  51.5626558
  82.9415409  39.7522833  50.5328330  82.8637175  39.4438704  49.4902765
  83.6313089  38.6325293  51.3256331  84.6302030  38.7179648  50.8978356
  83.6544087  38.9514259  52.3676846  83.1645948  37.1707337  51.2479765
  84.0154097  36.5439756  50.9807890  82.5969123  36.7122710  52.5819279
  81.7457136  37.3383085  52.8495781  82.2732020  35.6745038  52.5022307
  83.3642848  36.7948732  53.3516140  82.1837250  36.9090563  50.1196963
  82.6522120  37.1533408  49.1663105  81.8963869  35.8576190  50.1238985
  81.2971494  37.5280152  50.2574374  81.5333080  39.9972203  51.0707178
  81.3373038  40.0248210  52.2913527  80.5722743  40.1939684  50.1630360
  80.7672863  40.0317179  49.1854142  79.2740797  40.8072849  50.5278629
  79.3534239  41.2288762  51.5298930  78.8557333  41.9337112  49.5481409
  78.3599148  41.4398779  48.7124425  78.1345998  42.5500128  50.0850197
  80.0008288  42.8276239  49.0131209  80.8743383  42.1831072  49.1115085
  79.8251763  43.0422349  47.9589922  80.2496768  44.1558166  49.7766738
  79.3866651  44.6295787  50.5667846  81.3070649  44.7830915  49.5164169
  78.0913752  39.8018380  50.7370245  77.2394732  40.0356148  51.5775798
  78.0782194  38.6709713  50.0393630  78.6543562  38.5525472  49.2183018
  77.1629534  37.5814944  50.4120685  76.5315981  37.9194401  51.2338241
  76.2601977  37.1449866  49.2461916  75.7011794  38.0174177  48.9078695
  76.9005221  36.7890101  48.4391194  75.3392923  36.1014257  49.6247213
  74.7985475  35.8620460  48.8684857  77.9408188  36.3756729  50.9373143
  78.6557723  35.7163466  50.1919103  77.7635163  36.0722588  52.2184422
  77.4959889  36.7946205  52.8716818  77.9450243  34.7041074  52.7274439
  77.2735568  34.5908887  53.5785680  77.6384717  34.0262673  51.9307899
  79.3602930  34.3495532  53.1623575  80.2118906  35.2171502  53.3182611
  79.5574682  33.0660611  53.4593418  78.7962801  32.4138150  53.3357822
  80.8134776  32.5659628  53.9905172  81.4665662  33.4048149  54.2311446
  80.5838472  31.7368305  55.2710853  79.8221183  32.2336168  55.8719777
  80.2299453  30.7470655  54.9826089  81.7739364  31.6101068  56.0286232
  81.5979696  31.0905008  56.8164335  81.4845792  31.7244265  52.9249092
  80.8331090  31.1571558  52.0487194  82.7985161  31.6500684  53.0102645
  83.2862767  32.0621878  53.7927903  83.5822876  31.1212225  51.9147690
  83.0415059  30.4144856  51.2853428  84.1382459  32.2594097  51.0453702
  83.3032106  32.8167591  50.6208962  85.0069559  33.1978014  51.8701791
  85.8425204  32.6412272  52.2946290  85.3886936  33.9950347  51.2323734
  84.4128043  33.6302756  52.6751941  84.8567295  31.6912595  49.8199875
  85.9300947  31.7284090  50.0060195  84.5462495  30.6541987  49.6926827
  84.5364224  32.4693522  48.5670916  84.8470613  33.5064782  48.6934759
  85.0673263  32.0320661  47.7215024  83.4632151  32.4322697  48.3801404
  84.6753707  30.1430926  52.3859287  85.6707270  30.5326132  53.0184668
  84.4186600  28.8560375  52.1255775  83.6471033  28.6306939  51.5140060
  85.2012011  27.7579782  52.6862559  85.5493133  28.0304534  53.6825863
  84.3495261  26.4645199  52.7948292  84.1191531  26.1135816  51.7889118
  84.9319994  25.7067938  53.3189246  82.7370228  26.5723654  53.6801742
  82.4035540  25.2951348  53.5177581  86.3759218  27.5387700  51.7431291
  86.2571857  27.8650472  50.5505479  87.5261070  27.0994794  52.2990569
  87.5549654  26.9600684  53.2989725  88.7772247  26.8592345  51.5124739
  89.0280589  27.7649746  50.9603721  89.9681487  26.4882525  52.4169921
  90.1587193  27.3001334  53.1188693  89.7355992  25.5779740  52.9696346
  91.2068401  26.2583806  51.5576744  91.0171773  25.4462761  50.8558090
  91.4402999  27.1684353  51.0050453  92.3855479  25.8912021  52.4529134
  92.5761182  26.7030814  53.1547923  92.1529980  24.9809227  53.0055538
  93.6242397  25.6613323  51.5935948  93.4345774  24.8492287  50.8917284
  93.8576993  26.5713877  51.0409693  94.7604356  25.3073945  52.4565466
  94.5444799  24.4639020  52.9683898  95.5808156  25.1551539  51.8874250
  94.9366183  26.0599589  53.1067046  88.5280694  25.7529002  50.4919682
  87.8189629  24.7872766  50.7899500  89.0050311  25.9562675  49.2624633
  89.5792043  26.7690905  49.0900011  88.7293783  25.0398468  48.1338758
  89.3417777  25.4211045  47.3167413  89.1209643  24.0770172  48.4620813
  87.2825507  24.8485187  47.6304094  87.0334949  23.9228178  46.8429971
  86.3510186  25.7432329  48.0192981  86.6629135  26.5689046  48.5103042
  84.8795331  25.5770430  47.7688575  84.6033541  24.5399230  47.9591374
  84.0641938  26.4892057  48.7202360  84.2960832  26.2357591  49.7546882
  84.3231316  27.5317300  48.5353184  82.5742327  26.2835182  48.4685756
  82.3414820  26.5372232  47.4343794  82.3144319  25.2412536  48.6537512
  81.7370396  27.1637443  49.3855239  82.2781326  27.9138968  50.1948009
  80.4115169  27.0704884  49.2570080  79.8097448  27.6329649  49.8414667
  80.0165249  26.4378871  48.5759072  84.4866732  25.9336843  46.3303899
  84.2963076  27.0958388  46.0443497  84.3171161  24.9497103  45.4380719
  84.3706160  23.9827887  45.7249510  84.0515852  25.2468070  44.0028866
  84.9805987  25.5331068  43.5098699  83.4806797  24.0247549  43.2939707
  82.8057100  23.5334012  43.9947464  82.9130080  24.3870037  42.4368682
  84.5348186  23.0292381  42.8211034  85.4202200  23.1337467  43.4481944
  84.1332745  22.0212762  42.9253970  84.9374103  23.2432900  41.3745756
  86.1384162  23.3076109  41.0498470  83.9349566  23.3555533  40.4858859
  84.1444956  23.4992393  39.5083639  82.9768397  23.2956975  40.7997817
  83.0617031  26.3826607  43.8522744  82.1019337  26.4439338  44.6139116
  83.3078384  27.2758396  42.8821844  84.0892920  27.1154240  42.2627519
  82.4831154  28.4855105  42.6718266  81.4784779  28.3035060  43.0535034
  83.0669952  29.7066987  43.3918743  84.0642188  29.7703827  42.9564563
  82.4894166  30.5857383  43.1058810  83.1790836  29.6449923  44.9099015
  83.7961482  28.7911483  45.1896917  83.8119107  30.9208518  45.4370937
  83.1951269  31.7751499  45.1580752  83.8878868  30.8674928  46.5231329
  84.8075797  31.0369704  45.0090050  81.8390325  29.3796122  45.6159103
  81.4340300  28.4247583  45.2807588  81.9956730  29.3488785  46.6941591
  81.1361651  30.1768204  45.3739697  82.3976043  28.8246364  41.2195417
  82.9977402  28.1517573  40.3707393  81.6919704  29.9094020  40.9327348
  81.1911115  30.3983559  41.6608583  81.6088068  30.4219396  39.5760631
  82.4124232  30.0338020  38.9502444  80.2637971  30.0733567  38.9202516
  79.4658103  30.4342116  39.5691738  80.1178735  30.7050465  37.5325166
  80.9152975  30.3442853  36.8828495  79.1520719  30.4312342  37.1078349
  80.1822625  31.7897874  37.6179151  80.1125059  28.5582496  38.8325794
  80.1474293  28.1305174  39.8345412  79.1576106  28.3142748  38.3670141
  80.9242028  28.1456015  38.2334379  81.7635170  31.9151178  39.6146595
  81.6641146  32.5322025  40.6809520  82.0514881  32.4855134  38.4477784
  82.0715066  31.9229545  37.6091927  82.3662316  33.8910330  38.3372464
  81.9055367  34.4545776  39.1485890  83.8599643  34.0570204  38.4238485
  84.2161673  33.4062213  39.2223967  84.2816378  33.7294774  37.4735817
  84.2893195  35.4722396  38.7015150  83.6606667  36.1778712  38.1583938
  84.2372562  35.6869641  39.7688879  85.9562465  35.6434133  38.1568979
  85.7099399  35.4287664  36.3767097  85.0368899  36.2021739  36.0066509
  86.6689884  35.5070247  35.8646528  85.2753943  34.4476458  36.1852059
  81.8601554  34.4849587  37.0339682  82.1630132  33.9954256  35.9308864
  81.1059995  35.5625856  37.1688693  81.2528382  36.2228337  37.9189428
  79.9950235  35.7453364  36.3286811  79.6569885  34.7836447  35.9427009
  78.8468883  36.3900863  37.1090030  79.0831896  36.2904970  38.1684098
  78.8285735  37.4459711  36.8390548  77.4713382  35.7671978  36.8310521
  76.9468887  35.7684730  37.7865896  76.9715243  36.4479532  36.1419510
  77.4438614  34.0757498  36.1318214  76.0626757  34.2258164  34.9901178
  76.2793323  35.0028579  34.2570657  75.9094185  33.2761077  34.4776079
  75.1608816  34.4895760  35.5426571  80.4193524  36.5263232  35.1119213
  81.5805422  36.6112059  34.8207321  79.4785424  37.1992395  34.4784946
  79.6937752  38.6380088  34.6648431  80.7632587  38.8329711  34.7441835
  79.1975608  38.9588716  35.5807674  79.0810234  39.2574399  33.4302949
  79.6877993  40.1047771  33.1110119  78.0718996  39.5997595  33.6596150
  79.0569358  38.1952585  32.4056581  79.9850882  38.0993337  31.8422485
  78.2315253  38.3758898  31.7170585  78.8007275  36.9232166  33.2009699
  77.7438524  36.8236660  33.4483624  79.2636039  35.6773190  32.4051549
  78.5110337  35.1705829  31.5419019  80.4635910  35.1761411  32.6989859
  80.9649886  35.5131491  33.5083840  81.1149113  34.1865613  31.8428459
  80.6907991  34.2047540  30.8389051  82.5965224  34.5268283  31.7514741
  83.0643014  34.3575550  32.7213342  83.0563871  33.8755027  31.0082383
  82.8329982  35.9719108  31.3437453  81.9367807  36.6373568  30.8225181
  84.0407337  36.4662306  31.5882097  84.2522971  37.4214752  31.3375135
  84.7423647  35.8847518  32.0237520  80.9411615  32.7291229  32.3137710
  81.4684568  31.7895992  31.7033588  80.2279493  32.5607945  33.4216865
  79.8606270  33.3734532  33.8957746  79.9258134  31.2573157  33.9638257
  79.4127183  31.3728116  34.9185473  79.0156380  30.4456429  33.0074533
  79.2712726  30.7797307  32.0019010  79.3125388  29.4040606  33.1301578
  77.5204760  30.5721779  33.2164228  77.0158710  29.9988023  32.4387884
  77.2741865  30.1546064  34.1926798  77.0654271  32.0127616  33.1554712
  75.9763392  31.9975206  33.1135876  77.3862215  32.4839532  34.0845400
  77.6117706  32.8094634  31.9630116  77.3931080  33.8558610  32.1759419
  78.6908764  32.6558520  31.9687886  77.0681959  32.4521727  30.6273743
  76.0683410  32.5948518  30.6216755  77.4956355  33.0360652  29.9227716
  77.2710810  31.4827098  30.4296914  81.1951012  30.4747919  34.1383423
  81.1915981  29.3058100  33.8475174  82.3120168  31.0945748  34.4939046
  82.3894801  32.0993400  34.5613263  83.5218419  30.2897310  34.6873950
  83.5047925  29.4617771  33.9786630  84.8077440  31.0865699  34.4762441
  84.4928546  32.1276733  34.5472913  85.6153658  30.9026350  35.1847743
  85.3841357  30.9087998  33.1196885  86.2263398  29.8663133  32.8127563
  86.5661947  29.1842866  33.4756575  86.5127224  29.9058471  31.5222665
  87.1758756  29.1624851  31.0798415  85.8777780  30.9335358  30.9824493
  85.1376451  31.5573085  31.9542290  84.5078396  32.4089729  31.6971027
  83.5303506  29.6172499  36.0507532  83.4861036  30.2893925  37.0900917
  83.5750423  28.2829407  36.0289659  83.3454898  27.7928739  35.1761825
  83.9437135  27.4977717  37.1985321  83.1823427  27.6187011  37.9691096
  84.0628811  26.0149695  36.8593158  84.4202171  25.9139890  35.8345167
  84.7827286  25.5617612  37.5408741  82.7692767  25.2921511  36.9849351
  81.7048172  25.8924211  37.2263452  82.8361319  23.9862700  36.8168104
  81.9977249  23.4275250  36.8873618  83.7254476  23.5506250  36.6182356
  85.2580779  27.9562076  37.7398527  86.0843712  28.5123130  37.0040980
  85.4900406  27.6217280  38.9971907  84.7954090  27.1109748  39.5232301
  86.7177222  27.9640210  39.6480464  87.5860444  27.5468006  39.1381023
  86.8772011  29.4901383  39.7202029  86.7408210  29.8963935  38.7179771
  85.8670062  30.1194257  40.6627572  86.0030802  29.7139770  41.6653520
  86.0137038  31.1992782  40.6850917  84.8579209  29.8974661  40.3155076
  88.2769493  29.8456124  40.1434156  88.9881731  29.4461562  39.4204375
  88.3783644  30.9298344  40.1911357  88.4795840  29.4186773  41.1256409
  86.6843299  27.3941943  41.0387429  85.6523789  27.4406452  41.6868057
  87.7755194  26.7982823  41.4907465  88.5562097  26.5939931  40.8833850
  87.8435291  26.3463965  42.8925150  86.8502276  26.3888958  43.3393317
  88.3937944  24.8965234  43.0393999  87.7325811  24.2021422  42.5210072
  89.3917589  24.8403174  42.6046496  88.4611690  24.5295853  44.5025873
  89.1226101  25.2232949  45.0215898  87.4634330  24.5851174  44.9379471
  89.0005839  23.1083090  44.6465759  90.2488415  22.9741089  44.7535564
  88.1592332  22.1703717  44.6482121  88.6983583  27.3498740  43.6344375
  89.6935282  27.8667026  43.0837369  88.2719266  27.6936725  44.8495768
  87.3454213  27.4472313  45.1673093  89.1645635  28.3719114  45.7815400
  89.4618955  29.3366093  45.3703821  88.5594919  28.5985414  47.1832198
  88.1674956  27.6543822  47.5613752  89.6322978  29.1247036  48.1395304
  90.0244680  30.0691429  47.7622534  89.1953856  29.2813659  49.1257682
  90.4421899  28.3988710  48.2126291  87.3893801  29.5671128  47.1297049
  86.6134856  29.1647536  46.4784010  86.9854545  29.7055182  48.1325946
  87.7288682  30.5266603  46.7396829  90.3391422  27.4637635  45.9788987
  90.1572077  26.2629419  46.2412217  91.5359731  28.0177342  45.7804896
  91.6366231  28.8035888  45.1540700  92.7292441  27.4816156  46.4090325
  92.5830919  26.4226069  46.6217278  93.9548350  27.6342475  45.4944915
  94.2561593  28.6607423  45.7033246  94.7103313  26.9490079  45.8789029
  93.8135760  27.4412553  43.9783906  93.3493605  28.3219246  43.5345141
  95.2023755  27.2417015  43.3782827  95.6670689  26.3608855  43.8213651
  95.1165753  27.1032635  42.3005193  95.8168854  28.1182159  43.5837101
  92.8996343  26.2855424  43.6136247  91.9043351  26.4666748  44.0194204
  92.8387893  26.1981632  42.5288372  93.2985447  25.3606935  44.0303069
  92.9524229  28.2009966  47.7486908  92.7877860  27.6014454  48.8204949
  93.2141209  29.5084486  47.6786300  92.9103149  30.0366502  46.8731461
  93.9352859  30.2148314  48.7410359  94.0104463  29.5423933  49.5955985
  94.9344298  30.4427675  48.3697462  93.2671517  31.5034406  49.1838992
  93.0265019  32.4105833  48.3771992  93.0898234  31.6265055  50.4893503
  93.4649044  30.9333229  51.1209447  92.3458566  32.7102840  51.0400968
  92.0759314  33.4538615  50.2902087  91.0932606  32.1897305  51.7065684
  91.3678719  31.4676099  52.4754838  90.3247712  33.3476372  52.3460879
  90.0493960  34.0699920  51.5776657  89.4230806  32.9655648  52.8247062
  90.9535025  33.8335484  53.0922021  90.2807688  31.4320072  50.6558913
  90.1693015  32.0961763  49.7988293  90.8680441  30.5607753  50.3657841
  88.9210992  30.9866654  51.1255573  88.3330391  31.8574501  51.4154179
  88.4128961  30.4576822  50.3193281  89.0317818  30.3220505  51.9823748
  93.1844413  33.4584635  52.0317732  93.2757864  33.0739114  53.2001930
  93.8053094  34.5315498  51.5394547  93.5789207  34.8255921  50.6001003
  94.8379519  35.2926603  52.2852036  95.2581951  34.6469347  53.0562635
  96.0306451  35.8093717  51.3425764  95.4395289  36.5848111  50.8553655
  96.6935561  36.2663468  52.0773028  96.9023169  35.0361261  50.2464890
  97.4430112  34.2543436  50.7799369  96.1084996  34.4103096  49.0869043
  95.5678706  35.1915944  48.5526636  96.7954296  33.9118135  48.4029967
  95.3989260  33.6834582  49.4822430  98.0150458  35.9144135  49.6367680
  98.6908251  36.2450770  50.4254907  98.5726090  35.3359390  48.9001597
  97.5687940  36.7834830  49.1533670  94.1797872  36.5078448  52.9853671
  94.8362575  37.5502038  53.1234519  92.9762043  36.2985044  53.4962427
  92.5881445  35.3660302  53.4954049  92.1934484  37.3630521  54.0679790
  91.7699619  37.9870821  53.2809943  91.0496955  36.7675303  54.8874406
  90.2533243  36.4874911  54.1978971  91.4253677  35.8758070  55.3892374
  90.5415559  37.6746255  55.8530914  89.8279379  37.2565514  56.3404961
  93.0174199  38.2175888  54.9681590  93.7079310  37.7572480  55.8639083
  92.9446720  39.5004303  54.6462067  92.3617682  39.7671685  53.8657112
  93.6306917  40.5315246  55.3645992  93.4069795  41.5087335  54.9366802
  93.1722569  40.5185564  56.8053099  92.1648574  40.1048842  56.8513613
  93.8555664  39.8717776  57.3556418  93.1785074  41.8845855  57.4158108
  94.2769762  42.4609856  57.5488453  92.0862221  42.3893437  57.7436859
  95.0843501  40.1674772  55.2616594  95.4967357  39.5244945  54.3047690
  95.8635736  40.5385481  56.2623553  95.5321784  41.1056731  57.0295878
  97.2427507  40.1540515  56.2486812  97.7199204  40.3541453  55.2893217
  98.0454694  40.8505916  57.3484919  98.0566737  41.9251083  57.1657696
  97.5850805  40.6519283  58.3163116  99.4771505  40.3195385  57.3476628
 100.3141126  40.9209773  56.6228405  99.7201741  39.3175011  58.0718592
  97.2338364  38.6408544  56.4282059  98.0000736  37.9188323  55.8055545
  96.3432358  38.1703453  57.2934358  95.7343709  38.8119763  57.7809730
  96.2598005  36.7289140  57.6301555  97.2305025  36.2560452  57.7792592
  95.4090764  36.5370070  58.9209496  95.8633971  37.1181727  59.7234072
  93.9679740  36.9947395  58.7148675  93.5128130  36.4136686  57.9128164
  93.4038503  36.8462737  59.6356405  93.9564542  38.0516892  58.4487354
  95.4487831  35.1003001  59.4157190  96.4781993  34.8211859  59.6404403
  94.8430648  35.0090977  60.3173215  95.0536014  34.4389010  58.6446914
  95.6840601  35.8767122  56.4765000  95.0547398  36.4042890  55.5625298
  95.9563114  34.5725070  56.4887185  96.7819727  34.2300541  56.9589405
  95.1133038  33.6119468  55.7825221  94.5055135  34.1289210  55.0399403
  95.9827877  32.5601090  55.0623584  95.6704078  32.5770466  54.0182170
  97.0099496  32.9165831  55.1395900  95.8988783  31.1346835  55.5941924
  96.9114068  30.7477060  55.7088018  95.4218339  31.1980876  56.5722045
  95.0948133  30.1975309  54.6958409  95.5737880  29.0716249  54.4374753
  93.9771530  30.5680069  54.2669866  94.1904391  32.9967130  56.8313325
  94.5554723  32.9377322  57.9993303  92.9652326  32.6401418  56.4408610
  92.5562019  33.0626650  55.6197231  92.1549593  31.6789459  57.2089733
  92.7903938  31.1096587  57.8873790  91.0437572  32.3759160  58.0379778
  90.5516952  31.6264931  58.6579298  91.6273714  33.4853769  58.9384027
  92.1192258  34.2354583  58.3190830  90.8233230  33.9539455  59.5058959
  92.3523054  33.0513477  59.6270173  90.0641886  32.9354913  57.1572384
  89.3784778  33.3657363  57.6732716  91.5268991  30.6450104  56.2507776
  91.6200953  30.7850297  55.0299344  90.9686339  29.5741406  56.8125077
  90.9622015  29.4866401  57.8186894  90.3955837  28.4735656  56.0098757
  91.0316676  28.2874134  55.1445181  90.2920381  27.1761549  56.8326197
  90.4555157  27.4348767  57.8787733  89.2856037  26.7756846  56.7109093
  91.2974855  26.1412006  56.4095804  92.5046268  26.4742340  56.4008406
  90.8815743  25.0042040  56.0816007  89.0188939  28.8364546  55.4686598
  88.7049483  28.5478597  54.3158349  88.1751159  29.3853463  56.3348010
  88.4204012  29.4304827  57.3135232  86.8948585  29.9325229  55.9196241
  86.8537567  30.0118852  54.8332948  85.7073101  29.0613078  56.3973678
  84.8321943  29.3130348  55.7982800  86.0122948  27.5620525  56.2532598
  86.8870731  27.3094618  56.8524764  85.1564278  26.9818508  56.5981608
  86.2100181  27.3299157  55.2067807  85.4040359  29.3544337  57.7694738
  84.6673065  28.8105402  58.0575883  86.7616182  31.3088469  56.5177021
  87.3822961  31.6112867  57.5271792  85.9275391  32.1380784  55.9168186
  85.3992156  31.8499603  55.1056702  85.7840608  33.5065016  56.3814958
  85.7694110  33.5887178  57.4682916  86.9194970  34.4032370  55.8330695
  87.8792049  33.9435286  56.0691375  86.7919999  34.5639740  54.3277509
  85.8326682  35.0240764  54.0909190  87.5989741  35.1976476  53.9598502
  86.8527509  33.5856834  53.8509298  86.9488838  35.7521844  56.5355647
  87.1110354  35.6030353  57.6030681  87.7578055  36.3577285  56.1268329
  85.9988945  36.2637447  56.3808806  84.4330155  34.0338357  55.9498160
  83.9384498  33.6731047  54.8822539  83.8413898  34.8771572  56.7968962
  84.3740365  35.2306129  57.5788526  82.4391568  35.2870930  56.6687349
  81.8882584  34.6302712  55.9955371  81.7804866  35.2405845  58.0410802
  82.3155406  35.9004364  58.7240243  80.7439078  35.5673428  57.9584143
  81.8099169  34.2206403  58.4244169  82.3770549  36.7009896  56.0680403
  83.4116784  37.3496872  55.9434184  81.1694675  37.1789585  55.6833491
  79.8641240  36.6669984  56.1255801  79.7590007  36.8205145  57.1995829
  79.7976567  35.6020215  55.9030823  78.8843522  37.4817476  55.3271341
  77.9497544  37.5733790  55.8805142  78.6942208  36.9909129  54.3726537
  79.5204303  38.7934052  55.1257613  79.3025191  39.4292513  55.9838483
  79.1958966  39.2924542  54.2126744  81.0320751  38.5050579  55.0582205
  81.4212176  38.4347302  54.0424841  81.7661766  39.5830753  55.8009307
  82.0341333  39.4520754  56.9949170  81.9970607  40.6927776  55.1217118
  81.7393519  40.7576456  54.1473004  82.6266767  41.8522193  55.7506026
  82.1499815  42.7622250  55.3862531  82.5038026  41.7861020  56.8316344
  84.0966362  41.9055319  55.4267693  84.5795771  42.8719282  54.8367455
  84.7901244  40.8178199  55.7126814  84.3375044  40.0116013  56.1191862
  86.2142032  40.8066088  55.5926364  86.6401160  41.6223255  56.1768484
  86.7861585  39.4841726  56.1095124  86.2499547  38.6735470  55.6160846
  87.8392569  39.4449390  55.8310443  86.6532038  39.3324624  57.6369311
  86.8220329  40.3338867  58.0328438  85.6391177  39.0133786  57.8775847
  87.6558089  38.3606121  58.2638898  87.2067202  37.4990288  59.0673856
  88.8850854  38.4882194  57.9996972  86.6892442  41.1385809  54.1624474
  85.8937567  41.3186022  53.2152103  87.9974423  41.3257230  54.0636784
  88.5670460  41.1129102  54.8701285  88.6531382  41.8143244  52.8707742
  87.9149633  42.0714271  52.1111063  89.4634190  43.0720124  53.2127261
  89.7923575  42.9491514  54.2446194  90.3335655  43.1743497  52.5642878
  88.6378820  44.3343559  53.1160122  87.9310330  44.5398185  52.1290641
  88.7717142  45.2224911  54.1058631  88.2404564  46.0812277  54.0849752
  89.4034896  45.0308110  54.8702056  89.5818548  40.7372980  52.3392345
  90.7641222  40.7066761  52.6730776  89.0710037  39.9296096  51.4266493
  88.1739676  40.1300747  51.0080334  89.7850835  38.7763806  50.9782913
  90.4325788  38.3994697  51.7699903  88.8105398  37.7036479  50.6063353
  88.2322083  38.1779564  49.8134524  89.3734609  36.8664290  50.1936800
  87.8731120  37.1995657  51.6812842  88.3042710  36.2788116  52.0742404
  87.6424928  38.1817273  52.8258970  87.2108879  39.1026185  52.4337550
  86.9589059  37.7408685  53.5514680  88.5926982  38.4043449  53.3113366
  86.5532003  36.8245662  51.0243539  86.7247616  36.0450758  50.2820191
  85.8608573  36.4578424  51.7821640  86.1269294  37.7017134  50.5375225
  90.6035169  39.0830540  49.7445498  90.1018669  39.6611326  48.7708566
  91.8342800  38.6030434  49.7409438  92.3948711  38.5914475  50.5810048
  92.4268659  38.1207050  48.5158832  91.9322932  38.5852445  47.6628298
  93.9246520  38.4608191  48.4602654  94.3913751  37.9056551  49.2739372
  94.2864790  38.0784602  47.5058112  94.2818188  39.9417784  48.5838148
  93.8527329  40.4627882  47.7279323  93.8316931  40.3198855  49.5017059
  95.8138854  40.1841878  48.6215173  96.2424902  39.5388384  49.3882774
  96.2257826  39.9149618  47.6489138  96.1565069  41.6475008  48.9346558
  95.5878638  42.2606127  48.2354854  95.8118538  41.8411809  49.9504321
  97.6010265  41.9855881  48.8286737  97.9204850  41.8065979  47.8873934
  97.7353885  42.9618602  49.0498968  98.1280744  41.4178764  49.4767654
  92.2072099  36.5925119  48.4280934  92.2382232  35.8677315  49.4503427
  91.9435380  36.1167848  47.2146376  92.0366192  36.7223679  46.4117028
  91.5868565  34.7208562  46.9900410  91.8549679  34.0874500  47.8356248
  90.0737532  34.5491631  46.6733232  89.8560754  35.0402111  45.7248567
  89.6992934  33.0660564  46.5781170  89.9162706  32.5744023  47.5264302
  88.6362693  32.9727205  46.3559262  90.2786441  32.5947503  45.7841885
  89.1675976  35.2876694  47.6936277  89.7317240  36.1584006  48.0278272
  88.2886234  35.6158887  47.1388521  88.7300148  34.4744565  48.9002475
  89.6084938  34.1462550  49.4558177  88.1018034  35.0891700  49.5449001
  88.1653948  33.6037413  48.5668420  92.3252319  34.2271876  45.7768988
  92.1099366  34.7395567  44.6697991  93.1678442  33.2148045  45.9642890
  93.4996846  32.9684597  46.8858613  93.7276572  32.5106541  44.8169867
  93.9332175  33.2357116  44.0294996  95.0331483  31.7654207  45.1528871
  95.5689922  32.3688509  45.8855824  94.7534881  30.8126107  45.6023794
  95.9458411  31.5099569  43.9285256  95.6585819  30.5455997  43.5094814
  95.7382784  32.2969263  43.2034745  97.4408006  31.4989552  44.2549074
  97.7047400  30.5011567  44.6053833  97.9900711  31.7190558  43.3395075
  97.8269885  32.4764475  45.2823998  98.0660195  33.3982758  44.9459534
  97.9085497  32.2353224  46.5952564  97.6235622  31.0303646  47.0898399
  97.3416829  30.2862793  46.4677618  97.6908664  30.8672120  48.0843001
  98.2528325  33.2178552  47.4261996  98.4501473  34.1384412  47.0605655
  98.3149847  33.0377450  48.4180646  92.7119468  31.5655441  44.1924544
  92.1367320  30.7088168  44.8602682  92.5435461  31.7314217  42.8834327
  93.1662814  32.3742431  42.4153721  91.5524849  31.0153394  42.0787901
  90.8590879  30.4745225  42.7228529  90.7542249  32.0274861  41.2365519
  91.4905989  32.8174518  41.0888809  90.5189628  31.5668213  40.2771043
  89.4794993  32.6246172  41.8423565  88.7478042  31.8272341  41.9723692
  89.7664376  33.2760589  43.1918123  90.4977547  34.0739050  43.0625229
  88.8444741  33.6914088  43.5987135  90.1623739  32.5289335  43.8796629
  88.8370818  33.6068473  40.8585588  88.5828866  33.0842578  39.9363959
  87.9322908  34.0245989  41.3000766  89.5381810  34.4117762  40.6379947
  92.2584701  30.0672038  41.1164281  93.3078931  30.4305080  40.5829277
  91.6829579  28.8800607  40.8590940  90.9179023  28.5534741  41.4319208
  92.1288376  28.0286509  39.7293097  92.9465852  28.5179748  39.2002065
  92.6128436  26.6862178  40.2317960  93.5611193  26.8531680  40.7426777
  91.8750092  26.3215148  40.9464233  92.8055056  25.6526270  39.1291390
  92.7007080  26.1583123  38.1692428  93.8134897  25.2473504  39.2175757
  91.7931890  24.5185392  39.2182109  90.8064121  24.9280025  39.0020854
  92.0506731  23.7750690  38.4638546  91.7804892  23.8614304  40.5964317
  92.4147099  24.4521996  41.2573830  90.7557855  23.8767027  40.9677108
  92.2767171  22.4493710  40.5599479  93.2263657  22.4350394  40.2163467
  92.2496142  22.0588546  41.4910024  91.6889137  21.9016822  39.9478831
  91.0219928  27.7578543  38.7674511  90.0545936  27.1309310  39.1494984
  91.2088452  28.1021514  37.4958826  92.1082228  28.4236966  37.1675107
  90.1050974  28.0224255  36.5333845  89.6077543  27.0598021  36.6521500
  89.3984120  28.8245952  36.7460315  90.5827285  28.1546208  35.1134194
  91.7750776  28.3336626  34.8871853  89.6743551  27.9964743  34.1465536
  88.7471598  27.6622497  34.3672392  90.0329252  28.1817824  32.7227827
  91.0351206  27.8078611  32.5132919  88.9954083  27.5128348  31.7151593
  87.9870642  27.7445335  32.0581728  89.1792613  28.0298802  30.2775936
  90.1872911  27.7981219  29.9336974  88.4528719  27.5491569  29.6223348
  89.0280439  29.1091425  30.2569706  89.0637238  25.9499140  31.7577821
  89.5374686  25.6976653  32.7064850  88.0294011  25.6060998  31.7660153
  89.8151280  25.2713566  30.6189527  90.8497216  25.6143467  30.6103669
  89.7922628  24.1908696  30.7608126  89.3416550  25.5227833  29.6698964
  90.2168451  29.6962560  32.4758388  90.9139415  30.0854709  31.5399449
  89.6970132  30.5366570  33.3828365  89.1644800  30.1745105  34.1608839
  89.8005422  32.0059147  33.2259916  90.4019216  32.2471206  32.3494861
  88.4021126  32.6131108  33.0437568  87.7760384  31.8459331  32.5881597
  88.0222527  32.8481304  34.0380265  88.3755996  33.8739667  32.1767128
  87.5626038  34.5231444  32.5018390  89.3302054  34.3627170  32.3715206
  88.2405320  33.6001425  30.6817980  87.1038545  33.3213182  30.2261574
  89.2552992  33.7218823  29.9556928  90.5433143  32.7074179  34.3877923
  89.9711553  32.8601720  35.4977100  91.7724267  33.2014146  34.0950910
  92.0171253  33.3208847  33.1224920  92.8365931  33.4078530  35.1239763
  92.3933555  33.5342703  36.1117305  93.7402402  32.1938979  35.1511029
  94.2863005  32.1618899  34.2082918  94.4440797  32.3187926  35.9739706
  92.9674749  30.8893101  35.3360855  92.4842050  30.7087089  34.3759115
  93.6749200  30.0862933  35.5429298  91.8938630  30.9329925  36.4547934
  92.2614796  31.0103425  37.6428468  90.6712965  30.8424283  36.1539339
  93.6599974  34.7356982  35.0556932  94.3398175  35.1150402  35.9837009
  93.5506263  35.4452918  33.9624339  93.6555108  34.9802797  33.0720058
  93.3238519  36.8805493  33.9675691  92.7955740  37.1707416  34.8757597
  94.6644233  37.6282021  33.9194826  94.5192470  38.5208587  34.5279129
  95.3808666  36.9682716  34.4086663  95.2041980  38.0344241  32.5306399
  94.5734408  38.7564533  32.0120650  96.1081840  38.5303321  32.8841703
  95.5972982  36.8682731  31.5364924  94.8417290  36.6425719  30.5407087
  96.7448017  36.3235030  31.6134037  92.4561159  36.8104630  32.6732480
  92.1147542  35.7034824  32.2828070  91.9828962  37.9397093  32.2077623
  92.3437703  38.8251258  32.5331958  90.9366349  37.9510626  31.2289889
  91.0385355  38.8481227  30.6182528  90.9752126  36.7388243  30.3194565
  91.8898836  36.8004773  29.7298166  91.0118864  35.8536747  30.9544882
  89.7706777  36.6439128  29.3825192  90.1096740  36.0913529  28.5062430
  88.9818254  36.0822244  29.8828364  89.2307828  38.0009180  28.9491783
  90.0339735  38.9410046  28.8138158  88.0020777  38.1300369  28.7749311
  89.6032212  37.9728698  32.0548324  88.5327032  37.6995074  31.5358900
  89.6986494  38.2801729  33.3528540  90.6337203  38.4210547  33.7076695
  88.5815585  38.4313584  34.2730306  87.6596471  38.1985315  33.7401419
  88.7168044  37.5056309  35.4886934  87.7406088  37.3616417  35.9517374
  89.2579118  36.1757104  35.0352672  90.2343660  36.3188412  34.5725022
  89.3571355  35.5114478  35.8937604  88.5745133  35.7327109  34.3108245
  89.6509609  38.0461842  36.5674755  90.6242186  38.2152011  36.1067114
  89.2425822  38.9963613  36.9116989  89.8053205  37.1164830  37.7345907
  90.2141152  36.1661842  37.3911974  90.4816859  37.5594261  38.4656383
  88.8324777  36.9473425  38.1961836  88.6923377  39.8933888  34.6595550
  89.7780584  40.3375943  34.9661638  87.6065127  40.6404974  34.6639019
  86.6943132  40.2480166  34.4796462  87.6986207  42.0586035  34.9590039
  88.7342370  42.3444568  35.1430854  87.1832429  42.8446035  33.7697782
  86.1683081  42.4644033  33.6537854  87.1462395  43.8856106  34.0907690
  87.9111635  42.7507328  32.4460543  88.8229346  43.3447794  32.5083656
  88.2651722  41.3170949  32.1133542  87.3538116  40.7224865  32.0504133
  88.7869374  41.2837156  31.1569298  88.9100459  40.9112748  32.8928080
  87.0300799  43.3537798  31.3717047  86.8263418  44.3973525  31.6115925
  87.5382205  43.2952861  30.4091701  86.0907189  42.8032906  31.3201153
  86.8957796  42.5077488  36.1365674  85.9656241  41.8487554  36.5400019
  87.2465581  43.6475786  36.7000438  88.6304829  44.2026435  36.7400958
  88.7563696  44.9167015  35.9262322  89.3482900  43.3905493  36.6245325
  88.7110001  44.8491731  38.0913443  89.3812572  45.7081279  38.0589222
  89.0730260  44.1341557  38.8301195  87.2838646  45.2703632  38.3982258
  86.9812516  46.2192727  37.9553995  87.1603881  45.3191053  39.4801119
  86.4321827  44.1338341  37.8259275  86.4076961  43.3146828  38.5445998
  84.9878438  44.5828087  37.5082219  84.6897500  45.2605536  36.4809050
  84.1121065  44.2297544  38.4487876  84.4526085  43.9027417  39.3416596
  82.6774162  44.2960544  38.2420457  82.1705213  44.3238288  39.2066106
  82.4312264  45.1949296  37.6767907  82.2108558  43.1055762  37.4846614
  81.3260729  43.2152460  36.6333461  82.9946071  42.0402356  37.6127568
  83.9946997  42.1234741  37.4988026  82.4470290  40.7420175  37.9063311
  81.4134757  40.7190258  37.5608777  83.2247384  39.5764960  37.2270875
  84.2393152  39.4928432  37.6166196  82.6805727  38.6543570  37.4311545
  83.3462309  39.6837371  35.7211655  82.5938569  40.6070191  34.9800686
  81.8566042  41.2229740  35.4950035  82.7791829  40.7443565  33.5948633
  82.2071752  41.4904613  33.0432878  83.6881310  39.9329924  32.9274057
  83.8154307  40.0149112  31.8479688  84.4426629  39.0059242  33.6516797
  85.1689751  38.3787613  33.1347295  84.2686680  38.8806907  35.0365654
  84.8547742  38.1513763  35.5957434  82.5023261  40.5682722  39.4130437
  83.0788689  41.3983215  40.1504558  82.0290856  39.3808064  39.7969167
  81.9390156  38.7016798  39.0547753  81.7083613  38.9617461  41.1659829
  82.3499087  39.5036881  41.8608319  80.2228027  39.2462428  41.5056462
  79.8482352  38.4340195  42.1286174  80.0663508  40.5598740  42.2418866
  80.4403037  41.3726853  41.6193132  79.0128527  40.7287896  42.4648440
  80.6330984  40.5252481  43.1723151  79.3935104  39.3085596  40.2213500
  79.7394329  40.1795197  39.6646931  79.6187728  38.4039893  39.6564528
  77.9001492  39.4090447  40.4368890  77.6740554  40.3136744  41.0013592
  77.3950287  39.4478489  39.4717741  77.5533956  38.5381444  40.9931213
  81.9091599  37.4309777  41.1752671  81.8433654  36.7907596  40.1375731
  82.1846480  36.8415015  42.3160020  82.4865107  37.3503544  43.1345659
  82.0547010  35.4106292  42.4111245  82.3606925  34.9459743  41.4738070
  82.9256003  34.8843744  43.5139039  82.7049254  35.5065065  44.3812869
  82.6901480  33.8451578  43.7434495  84.3918664  35.0038654  43.1686986
  84.5803087  35.9968800  42.7606394  85.2506407  34.7936535  44.4090419
  85.0630772  33.8006081  44.8174286  86.3036214  34.8831857  44.1419908
  85.0006351  35.5465252  45.1565590  84.7755247  34.0279140  42.0687116
  84.1886514  34.2383421  41.1746204  85.8358857  34.1355529  41.8403490
  84.5775959  33.0088773  42.4011079  80.5980269  35.1249037  42.7018863
  79.8741242  36.0153110  43.1487530  80.1308473  33.9198209  42.3988226
  80.6775332  33.2629857  41.8604906  78.7808968  33.5314428  42.8015732
  78.5183681  34.0739973  43.7097652  77.7232966  33.8384708  41.7206191
  77.8447922  33.1277219  40.9031999  76.7326414  33.7205520  42.1597061
  77.7446002  35.5061253  40.9526632  76.7137075  35.2975023  40.1386394
  78.7483657  32.0671241  43.1250672  79.2596537  31.2369643  42.3718359
  78.1459224  31.7654599  44.2681655  78.1042121  32.4737243  44.9869986
  77.5703211  30.4355254  44.5604092  78.3620784  29.7328385  44.8201219
  76.5890351  30.5387621  45.7541784  77.1663155  30.5180839  46.6785263
  76.0819238  31.4994405  45.6645398  75.5483579  29.4116087  45.7762309
  75.9241956  28.2742999  46.1227344  74.3513509  29.6654356  45.4662887
  76.8382615  29.8514034  43.3271390  75.9761217  30.5113582  42.7391767
  77.1515744  28.5977744  42.9652893  78.2423299  27.7783946  43.5275698
  78.0741664  27.6412924  44.5957572  79.1921701  28.2901317  43.3725610
  78.1543910  26.5002024  42.7654980  77.5611453  25.7866256  43.3373081
  79.1592985  26.1033886  42.6212721  77.5134508  26.8157160  41.4558661
  76.9005262  25.9943352  41.0847110  78.2896717  27.0475002  40.7265810
  76.6332629  28.0576646  41.6998373  76.8415617  28.8086030  40.9377341
  75.1138926  27.7119572  41.6857641  74.5093780  27.6200448  40.6085676
  74.4924122  27.5896712  42.8553590  74.9998811  27.7013154  43.7214481
  73.0811938  27.1893802  42.9220125  72.8744023  26.4414473  42.1565500
  72.7552318  26.5923805  44.2875966  72.6506349  27.3600209  45.0543344
  71.8072167  26.0680416  44.1674467  73.7983862  25.6037098  44.7358213
  74.7320341  25.2923267  43.9889029  73.6962307  25.1595768  45.9833020
  74.3696980  24.4947065  46.3361324  72.9455472  25.4887400  46.5734093
  72.1496245  28.3538312  42.5864468  71.6830140  28.4610531  41.4526376
  71.8885563  29.2302485  43.5560396  71.9852069  28.9711725  44.5274497
  71.3931370  30.5613654  43.2434866  70.8072449  30.5202202  42.3252619
  70.5057855  31.1119865  44.3668036  70.6844966  30.5247220  45.2675155
  70.7708209  32.1526315  44.5536573  69.0163292  31.0407390  44.0242111
  68.3934894  29.9568610  44.0066633  68.4383246  32.1968932  43.7413345
  67.4564125  32.2229356  43.5062382  68.9817075  33.0480197  43.7618151
  72.5882958  31.4531122  42.9870900  73.3203006  31.8007395  43.9102050
  72.8972812  31.6235393  41.7042196  72.4129844  31.0720142  41.0104068
  73.9677835  32.5149385  41.2579213  74.6300412  32.7374901  42.0945722
  74.7994779  31.8598967  40.1297455  75.5158361  32.6498671  39.9041861
  75.3181709  31.0218586  40.5953094  74.1307121  31.3891633  38.8296177
  73.4142003  30.6077589  39.0828344  73.4134080  32.5192029  38.1040260
  74.1294077  33.3008308  37.8500554  72.9576247  32.1343392  37.1917529
  72.6389221  32.9326187  38.7500595  75.1685019  30.7557642  37.9149490
  75.6218976  29.9006701  38.4162931  74.6881319  30.4238904  36.9945113
  75.9400279  31.4883067  37.6778239  73.3682803  33.8594829  40.8175394
  72.1835820  34.1061602  41.0267507  74.1880243  34.7256748  40.2258627
  75.0856471  34.4118927  39.8854020  73.8611704  36.1407774  40.1091009
  73.1767381  36.4357401  40.9044930  75.1349479  36.9748438  40.2271386
  75.7876098  36.8246199  39.3671593  74.9055985  38.0356933  40.3276238
  76.1164139  36.5319710  41.6868668  77.0903026  37.4118398  41.4717619
  73.1406286  36.4276062  38.8020746  73.3945056  35.7690523  37.7871622
  72.1531152  37.3241400  38.8708808  71.9155913  37.7370363  39.7614976
  71.4182713  37.7656242  37.6823585  71.1762857  36.8954129  37.0722154
  70.1048565  38.4947677  38.0456164  70.2838411  39.4345102  38.5680603
  69.5768898  38.6930586  37.1128614  69.1735212  37.6988478  38.9036053
  68.7701844  36.4209811  38.5737534  69.0611522  35.9217120  37.7454009
  67.9529976  35.9668291  39.5073125  67.5339112  34.9629967  39.4381309
  67.7962967  36.9119192  40.4199711  68.5203333  38.0172209  40.0494902
  68.4852274  38.9208420  40.6580440  72.3332546  38.7284244  36.9952600
  73.2234908  39.2826450  37.6384124  72.1092736  38.9480861  35.7025507
  71.4063339  38.4159483  35.2097988  72.9263889  39.8891510  34.9402630
  72.9943565  40.8398327  35.4691145  74.3330807  39.3292245  34.7619672
  75.0538308  40.1411489  34.8589071  74.5197797  38.5840864  35.5352800
  74.4648209  38.7403404  33.5103319  75.3542712  38.3926820  33.4122928
  72.2821878  40.2327247  33.5858539  71.0489010  40.2161872  33.4650225
  73.1021444  40.5521023  32.5868639  74.0911094  40.3637477  32.6679198
  72.6127336  41.1766885  31.3553854  73.1980456  40.8585154  30.4926717
  71.5613945  40.9438338  31.1863766  72.7629671  42.6607242  31.5273099
  73.3884534  43.0683466  32.4761033  72.1498334  43.4642565  30.6494865
  71.4139980  43.0777713  30.0756618  72.6349892  44.8449897  30.3447888
  73.2092424  45.2231141  31.1905751  73.5457310  44.8552400  29.0799900
  74.1673133  45.7424401  29.2008652  74.1630748  43.9628864  29.1833904
  72.8927548  44.8705699  27.6771870  72.1975950  45.7087235  27.6286876
  73.6769806  45.0060736  26.9323845  72.1365075  43.5599414  27.3930165
  72.4205613  43.1973364  26.4051248  72.4170124  42.8221925  28.1447764
  70.6596164  43.7391509  27.4286494  70.3047236  44.5140022  26.8866569
  69.7787007  42.9622970  28.0960410  70.1716937  41.9153364  28.8241057
  71.1536131  41.6869938  28.8857007  69.4854269  41.3560401  29.3102385
  68.4776594  43.2480342  28.0470942  68.1580801  44.0427758  27.5119729
  67.8173801  42.6684928  28.5453530  71.5855120  45.9783025  30.2660444
  71.9408307  47.1378826  30.1083591  70.2995743  45.6278197  30.3278092
  70.0375946  44.6574725  30.2283490  69.2407886  46.6122676  30.5671774
  69.6950417  47.5954744  30.4444678  67.9870677  46.5144655  29.6167349
  67.3494572  45.6931603  29.9438601  67.2022953  47.8143405  29.6645189
  67.8391546  48.6360967  29.3370641  66.3368901  47.7413121  29.0058539
  66.8669637  47.9996074  30.6849744  68.3529672  46.2864546  28.2407412
  67.5594019  46.2344603  27.7030136  68.7648405  46.3662898  31.9522757
  68.8049616  45.2328086  32.4186197  68.2718678  47.4295950  32.5944540
  68.4857104  48.3435279  32.2214966  67.5298333  47.3482850  33.8953412
  66.7246228  46.6201333  33.7977181  68.4542342  46.9150214  35.0788064
  67.9262992  46.6706752  36.0005866  68.9920016  46.0355462  34.7246461
  69.4877847  47.9331792  35.4352458  70.6528375  48.0124612  34.7122352
  70.8313095  47.3023940  33.9047377  71.5808304  48.9673378  34.9966186
  72.5120060  48.9983535  34.4308883  71.3493825  49.8880221  35.9894722
  72.0884477  50.6560556  36.2175228  70.1880532  49.8351981  36.6888160
  69.9990720  50.5602703  37.4804325  69.2488521  48.8688312  36.4010633
  68.3052107  48.8465062  36.9461710  66.7670424  48.6582052  34.2643197
  67.0917497  49.7641543  33.7968770  65.7779093  48.4789306  35.1470667
  65.6431532  47.5435422  35.5034215  64.9184615  49.5372366  35.6482523
  64.9144687  50.3862635  34.9647053  63.4944994  48.9975897  35.7644894
  63.6151585  48.1291241  36.4120295  62.8203231  49.7117881  36.2372548
  62.9063758  48.5534815  34.4175329  63.1097303  49.2801583  33.4096431
  62.1454587  47.5357925  34.3955525  65.3827782  49.9586597  37.0282428
  65.7517345  49.1143731  37.8588915  65.3044192  51.2389448  37.3272663
  65.0467517  51.9601140  36.6687667  65.6739344  51.6287801  38.6430003
  65.1774336  50.9595643  39.3456640  67.1600497  51.5071841  38.8322264
  67.6708774  52.1782208  38.1416724  67.4194839  51.7745106  39.8565949
  67.4690471  50.4805150  38.6358327  65.2347297  52.9914023  38.9477644
  64.9252781  53.7829641  38.0485205  65.2911091  53.2663135  40.2409937
  65.8593081  52.6592456  40.8143329  64.6514400  54.3945574  40.8668589
  63.9221460  54.8384882  40.1892492  63.9258516  53.9354147  42.1336294
  63.5294903  52.9465601  41.9030575  64.6973450  53.8477299  42.8986192
  62.8108342  54.8183476  42.6423944  63.2572974  55.6519251  43.1845381
  62.2328159  55.2006889  41.8010787  61.8558399  54.0638637  43.5956739
  62.2081986  53.0335092  44.1847275  60.6280383  54.5776684  43.7294267
  59.9595157  54.1283316  44.3387504  60.3751300  55.4126024  43.2204826
  65.7769061  55.3005413  41.2413135  66.6084954  54.9534205  42.0743954
  65.7557834  56.5001587  40.6960641  64.8726213  56.9123065  40.4310016
  66.9593651  57.2231488  40.4015724  67.8367143  56.8639847  40.9394932
  67.2081069  57.1172426  38.8861172  66.3701698  56.5738292  38.4494668
  67.3417853  58.4924334  38.2006586  68.1798636  59.0362858  38.6364910
  67.5159003  58.3518555  37.1338772  66.4241993  59.0624033  38.3464989
  68.4466624  56.2475430  38.6338775  69.2920316  56.7708773  39.0806133
  68.2814709  55.3082282  39.1616076  68.7470970  55.9581950  37.1571261
  68.9128713  56.8970754  36.6288057  69.6398149  55.3372619  37.0823200
  67.9023090  55.4344280  36.7097992  66.8431714  58.6889504  40.8782083
  66.3684741  59.5462009  40.1437819  67.3103815  59.0040260  42.0784966
  67.7892909  58.3397034  42.6696146  67.0970719  60.3599644  42.5889200
  66.6804768  61.2885947  42.1987999  67.0987653  60.4288031  44.1138722
  66.2105173  61.0017294  44.3800868  67.0965365  59.1241484  44.8626133
  67.9847841  58.5508257  44.5972492  67.0980626  59.3200017  45.9348725
  66.2051442  58.5548940  44.5990401  67.4485990  61.7382125  44.7833290
  66.7391280  62.5058265  44.4742634  67.4033911  61.6170000  45.8656245
  68.4558898  62.0373233  44.4935035  68.1530411  61.3316790  42.0877287
  69.2871445  61.3045072  42.5029496  67.7052353  62.2645971  41.2800408
  66.7279208  62.2391827  41.0264469  68.5134290  63.3275556  40.7627314
  69.4420830  62.9657383  40.3213821  67.7150048  64.0887280  39.7120204
  66.7353525  64.3310666  40.1239109  68.4094889  65.3389739  39.3212952
  69.3890993  65.0973973  38.9088577  67.8189979  65.8637379  38.5702667
  68.5316805  65.9762716  40.1970920  67.4830259  63.1821805  38.5157786
  66.5107471  62.7123111  38.6640940  67.4440941  63.8273491  37.6380877
  68.5360088  62.1100766  38.3085315  68.5752036  61.4641897  39.1856824
  68.2819683  61.5153592  37.4311069  69.5085516  62.5792281  38.1596783
  68.8819608  64.2898414  41.8586709  68.0034208  64.9586027  42.4432382
  70.1681547  64.3342592  42.1764732  70.8211878  63.7110005  41.7234879
  70.6641223  65.2085103  43.2205379  69.7963378  65.5287977  43.7971358
  71.6378497  64.4778767  44.1336182  71.7746316  65.0585961  45.0458441
  71.1052130  63.1152424  44.4823044  70.9685997  62.5337327  43.5705567
  71.8123639  62.6044655  45.1358680  70.1481089  63.2185840  44.9935494
  72.9526585  64.2491992  43.4524659  72.7914901  63.6205260  42.5767402
  73.3593296  65.2106783  43.1389759  73.9207174  63.5755591  44.3799894
  73.5149148  62.6137398  44.6935618  74.8687479  63.4189720  43.8653848
  74.0827525  64.2038917  45.2557992  71.3304290  66.4699190  42.7385634
  71.2061029  67.5134692  43.3558536  72.0700556  66.3641050  41.6528780
  72.1640695  65.4957014  41.1457923  72.7455038  67.5270248  41.1442512
  72.3825184  68.4353644  41.6251461  74.2151060  67.3734201  41.4506727
  74.2736614  66.9472083  42.4521786  74.6027593  66.6556979  40.7276929
  75.0372539  68.6388753  41.3936549  75.2102760  68.8882317  40.3467616
  74.4764018  69.4428840  41.8702197  76.3681071  68.4653050  42.0979397
  77.2167091  69.3644027  41.9952225  76.5780452  67.4266595  42.7554156
  72.6209926  67.6933378  39.6806218  73.0250581  66.8278807  38.9455959
  72.0581315  68.7981039  39.2462991  71.5350429  69.4073787  39.8588853
  72.0247512  69.0603101  37.8336467  73.0421232  69.0263396  37.4439040
  71.2010749  68.0691092  37.0967022  71.6010762  67.0672888  37.2530805
  70.1582992  68.0968534  37.4128495  71.2068909  68.3037171  35.6373916
  70.8073285  69.5001628  35.0874085  70.4846793  70.2998722  35.6132051
  70.9152649  69.4275905  33.7753044  70.6342519  70.2736118  33.1481054
  71.3852967  68.2341321  33.4606743  71.5792248  67.5144307  34.6095567
  71.9699411  66.4982389  34.5566782  71.6459388  70.4661377  37.4915955
  70.7362826  71.0178100  38.0548335  72.3560404  71.0402257  36.5527347
  73.1526976  70.5555268  36.1647867  72.1131854  72.3997518  36.1359455
  72.0343324  72.9451586  37.0763777  73.3095002  72.9323799  35.3644280
  74.2166361  72.7804142  35.9493299  73.3962186  72.4021437  34.4160454
  73.1203509  74.4219898  35.0981401  72.2135934  74.5747165  34.5128485
  73.0340133  74.9529883  36.0461319  74.3206773  74.9564050  34.3240330
  75.2278140  74.8044381  34.9089331  74.4073936  74.4261694  33.3756501
  74.1315280  76.4460158  34.0577474  73.2247703  76.5987435  33.4724567
  74.0451936  76.9770123  35.0057391  75.2885631  76.9611558  33.3115572
  75.3684860  76.4695500  32.4329016  75.1632917  77.9477179  33.1351983
  76.1288363  76.8201188  33.8539118  70.8568895  72.6502757  35.3542375
  70.2927633  73.7226763  35.4046022  70.4477103  71.6764944  34.5751775
  70.9160950  70.7822544  34.5427769  69.3103562  71.8879029  33.7036374
  68.7637698  72.7776742  34.0161266  69.7747746  72.0818584  32.2674829
  68.9089852  72.3522958  31.6630231  70.4980738  72.8971186  32.2504755
  70.3766660  70.9004026  31.7350594  70.6552491  71.0628303  30.8308423
  68.4107565  70.6644983  33.8431414  67.9497981  70.4034253  34.9627375
  68.3062396  69.8284150  32.7913615  69.0530139  69.7958266  32.1121226
  67.1742502  68.8885257  32.6349616  66.7174364  68.6465427  33.5945785
  66.0759061  69.4188261  31.6534980  66.0232056  68.7428996  30.8000072
  64.6986281  69.4979782  32.3293799  64.7504254  70.1741301  33.1827475
  63.9638723  69.8703328  31.6155265  64.4029715  68.5057136  32.6701103
  66.4544405  70.7568945  31.0467381  66.0194697  71.5413642  31.6660187
  67.5411321  70.8392843  31.0670510  65.9620062  70.9089116  29.6175368
  64.8752853  70.8270931  29.5964825  66.2599895  71.8838465  29.2317816
  66.3969464  70.1250112  28.9975150  67.5151370  67.5582253  32.0116102
  66.9904571  67.2742748  30.9100054  68.0233601  66.6312287  32.8201276
  68.2751596  66.8420254  33.7752512  68.2856451  65.2414853  32.3027304
  68.9047972  65.2982238  31.4074480  68.9342033  64.2778882  33.3150430
  69.6665151  63.6689552  32.7849294  69.6127139  65.0131539  34.4377597
  68.8808958  65.6219898  34.9686662  70.0560275  64.2949760  35.1275381
  70.3937149  65.6561903  34.0320001  67.8975581  63.3130960  33.8529992
  67.0040173  63.8728854  34.1292626  67.6479549  62.5926297  33.0740730
  68.4171128  62.5960792  35.0400151  68.6665162  63.3159065  35.8195960
  67.6573264  61.9081756  35.4109767  69.3104557  62.0356524  34.7644066
  67.0468022  64.4684952  31.7720472  66.0159761  64.4280843  32.4181668
  67.2542139  63.6786111  30.7161179  68.1854739  63.3326928  30.5339242
  66.2254418  63.4507150  29.7133057  65.3552489  62.9435738  30.1300445
  65.7946846  64.8420015  29.2223475  64.8878937  65.1352989  29.7513146
  66.5900581  65.5537150  29.4435825  65.4395775  65.0240117  27.5056072
  65.1322781  66.3167275  27.5634972  66.6705449  62.4105202  28.5965460
  67.8014849  62.4315907  28.1359640  65.7795961  61.4464130  28.2465309
  64.4493656  61.8349637  27.7054394  64.5632690  62.7410003  27.1102723
  63.7746427  62.0307449  28.5388168  64.0125560  60.6452170  26.8759763
  64.3237467  60.7704278  25.8388737  62.9294859  60.5300661  26.9184122
  64.6999432  59.4780609  27.5163251  64.8328957  58.7285041  26.7362051
  64.1911132  59.0281451  28.3688316  66.0699631  60.0277746  27.9526990
  66.5166809  59.5717945  28.8362281  66.9916745  59.9029540  26.8205820
  66.8047162  60.5641067  25.8134546  67.9429770  59.0203813  26.9290943
  67.8982161  58.2518066  27.5828442  69.1179872  59.1367163  26.0819189
  69.5844114  58.1529777  26.0289470  68.7798262  59.4318731  25.0886269
  70.1545625  60.1552949  26.5803043  71.0717211  60.5477916  25.8360816
  69.9994115  60.5656669  27.8445638  69.0796842  60.5110374  28.2583471
  71.0972420  61.1014632  28.6574695  71.5347738  61.9587306  28.1458469
  70.6096656  61.5564532  30.0603926  69.7741691  62.2483215  29.9537946
  70.2500523  60.6143433  30.4741645  71.6471560  62.1559753  30.9941168
  72.2243567  63.4007578  30.6845074  71.9340011  63.8938308  29.7567833
  73.1505098  64.0053417  31.5359372  73.5865083  64.9705469  31.2782820
  73.4793875  63.3861201  32.7640435  74.4421979  64.0330454  33.5462097
  74.7716824  64.8400876  33.1440625  72.8852336  62.1435091  33.1211595
  73.1356781  61.6560856  34.0633890  71.9679657  61.5461456  32.2449321
  71.4899060  60.6045888  32.5151724  72.1255149  60.0244490  28.8118303
  71.8379684  58.8932879  29.2914975  73.3418896  60.4194708  28.4680828
  73.4816593  61.2720902  27.9450112  74.4555428  59.5953021  28.7096410
  74.1414918  58.5673796  28.8908775  75.3367280  59.6189990  27.5100693
  74.8233471  60.4401201  27.0097699  76.4010715  59.8441210  27.5778414
  75.1627996  58.3853918  26.6988756  74.4007293  58.4027275  25.7376148
  75.5870922  57.2472027  27.2656094  75.4972471  56.3739209  26.7662031
  75.9947103  57.2680445  28.1894675  75.2059629  59.9286206  29.9752616
  75.3494959  61.1097725  30.3223846  75.6231273  58.8823368  30.7004491
  75.3438064  57.9492871  30.4330591  76.4308507  59.0469607  31.9236498
  77.1933157  59.8004387  31.7261220  75.5643538  59.5229578  33.0878367
  74.8016854  58.7746703  33.3034818  76.1882153  59.6696941  33.9695201
  75.0838911  60.4646942  32.8225308  77.1400598  57.7652846  32.2984483
  76.8662262  56.7274336  31.7450133  78.0437819  57.8613382  33.2613351
  78.1917500  58.7581632  33.7016868  78.7603173  56.6972221  33.7955419
  78.9186584  55.9244486  33.0433129  80.1397638  57.0539479  34.4443677
  79.9639093  57.5488746  35.3994709  80.9713580  55.7892825  34.6710159
  81.1480274  55.2940214  33.7162356  81.9263595  56.0578656  35.1226082
  80.4327945  55.1139740  35.3358538  80.9398503  58.1071517  33.6456811
  80.3620554  59.0289712  33.5785689  81.8844167  58.3070253  34.1515906
  81.1383122  57.7295147  32.6426337  77.9546985  56.1472512  34.9333922
  77.2759070  56.8900383  35.6160858  78.1625188  54.8830160  35.2325795
  78.9255021  54.3723405  34.8116682  77.3133605  54.1965742  36.1445915
  76.7377109  54.9122910  36.7315123  76.3334796  53.2930430  35.3706723
  75.4537820  53.9205930  35.2278001  76.7961265  53.0914459  34.4045375
  75.9149149  51.9652154  36.0255123  76.7696728  51.2892084  36.0479689
  75.4338925  52.2183465  37.4408847  74.5787982  52.8939518  37.4192066
  75.1389537  51.2744005  37.8992272  76.2376166  52.6689287  38.0232107
  74.8272122  51.3054380  35.2129204  75.1948019  51.1068978  34.2061637
  74.5386734  50.3665664  35.6855373  73.9616419  51.9657640  35.1594730
  78.1486134  53.3789213  37.0534905  78.6613129  52.3567580  36.6663106
  78.2568121  53.7735468  38.2940863  77.8061711  54.6048341  38.6490276
  79.0990344  53.0031025  39.2010413  79.8065168  52.4031823  38.6286223
  79.8787307  53.9300026  40.1174773  79.1869963  54.5586101  40.6782404
  80.4934499  53.3576204  40.8121707  80.7936382  54.8448982  39.3969252
  82.1239726  54.9602343  39.7258277  82.5836266  54.4665647  40.4775646
  82.6929248  55.8189418  38.8984682  83.7506276  56.0620111  38.9998635
  81.7809263  56.2476313  38.0377835  80.5739946  55.6836369  38.3526507
  79.6827797  55.9510416  37.7849079  78.2970106  52.0630881  40.0187649
  77.7495853  52.4683543  41.0243184  78.3444965  50.7970301  39.6896342
  78.8909401  50.4624368  38.9088998  77.6904487  49.8374078  40.5179720
  77.0778321  50.3264072  41.2753884  76.8280425  48.9343345  39.6835261
  77.4612964  48.3343764  39.0299665  76.0238825  48.0245918  40.5769667
  75.3899934  48.6238585  41.2305450  75.4005271  47.3721774  39.9655061
  76.6988477  47.4190114  41.1817753  75.9401756  49.7934322  38.8136539
  75.5399835  50.5941838  39.4355412  76.5602351  50.2212590  38.0258785
  74.8092653  49.0269546  38.1979227  74.1884560  48.5991883  38.9851404
  74.2068578  49.6970953  37.5846399  75.2087081  48.2262615  37.5754792
  78.7765035  48.9860559  41.0951080  79.5333316  48.3843954  40.3636745
  78.8816632  48.9620115  42.4077268  78.3797843  49.6528244  42.9471658
  79.8743651  48.1475855  43.0854844  80.1020675  48.6199740  44.0410470
  79.4286204  46.7106029  43.3455415  80.2899269  46.1979685  43.7738597
  78.5884953  46.6484184  44.0372227  79.0373092  45.9435211  42.1295123
  79.5353855  44.6913780  41.8632518  80.2058266  44.2063126  42.4423199
  79.0028873  44.2358137  40.7466615  79.2832819  43.2581461  40.3546870
  78.1613204  45.1413027  40.2902312  78.1490781  46.2091544  41.1489704
  77.4910871  47.0563923  40.9557431  81.2389615  48.2615794  42.4475470
  81.6812899  49.3520567  42.1443690  81.8903490  47.1358849  42.2085154
  81.4985298  46.2323646  42.4326318  83.1897965  47.1821066  41.5939995
  83.8543709  47.8252704  42.1708708  83.8322199  45.8070315  41.4674266
  84.8694283  45.9321399  41.1565461  83.7876376  45.0746285  42.7686261
  82.7506567  44.9487236  43.0799427  84.2526318  44.0957932  42.6513180
  84.3270468  45.6441983  43.5254144  83.1592782  45.0558006  40.4569066
  83.5653816  44.1894751  40.3784173  83.0749190  47.7396902  40.2087956
  83.8934197  48.5190127  39.7937377  82.0473844  47.3513407  39.4872789
  81.3698779  46.6990399  39.8555015  81.9113900  47.7781452  38.1107891
  82.8283472  47.5624274  37.5623782  80.7725519  47.0482178  37.4499112
  81.0053595  45.9914222  37.3192102  79.8531353  47.1485506  38.0267184
  80.4050434  47.6816371  35.8154453  79.4056861  46.8413763  35.5621766
  81.7322005  49.2468010  37.8763825  81.2672850  49.9541971  38.7251318
  82.1197987  49.6753808  36.6824512  82.5729918  49.0296633  36.0517657
  82.0091008  51.0422883  36.2870161  81.1170483  51.4499851  36.7625420
  83.2747586  51.8562139  36.7592592  84.0715544  51.1574008  37.0139689
  83.7456946  52.7764464  35.6661620  82.9495398  53.4759032  35.4112144
  84.6196746  53.3306157  36.0084426  84.0095474  52.1904796  34.7857509
  82.9658667  52.7667155  37.9874737  83.4295358  53.7276658  37.7645693
  81.8820467  52.8816328  38.0025632  83.4463455  52.2732867  39.3575810
  84.5301990  52.1585672  39.3434062  83.1681403  52.9975260  40.1232039
  82.9827113  51.3125324  39.5813991  81.7890657  51.1331204  34.7827073
  82.7482802  51.2434382  34.0167971  80.5505183  50.9744002  34.3409423
  79.7852842  50.7630644  34.9653246  80.2901085  50.9872287  32.9128523
  81.2325927  51.1397911  32.3869746  79.6601222  49.6878324  32.4178929
  80.2060644  48.8607474  32.8717395  78.6251036  49.6700946  32.7592458
  79.6970338  49.5474818  30.8893781  78.7001682  49.8669210  30.5855387
  80.4398059  50.2214084  30.4625154  79.9566508  48.0955964  30.3770055
  81.0302633  47.4882922  30.7161983  79.1281417  47.5961912  29.5615074
  79.4628826  52.1443112  32.4838460  78.6618575  52.6364642  33.2113116
  79.7275932  52.6188610  31.2866907  80.4357616  52.1830720  30.7133804
  79.0355356  53.7561102  30.7623840  79.0421964  54.5671397  31.4905914
  79.7205424  54.2386374  29.4900192  80.7192344  54.5742365  29.7694592
  79.7996825  53.3810531  28.8218980  78.9923584  55.3581423  28.7869808
  78.1916562  55.6952209  29.4452776  79.6874136  56.1791854  28.6112372
  78.4037204  54.9048526  27.4682986  79.2110969  54.5929986  26.5571569
  77.1480200  54.8759185  27.3348992  77.6436984  53.2899693  30.4866544
  77.4268687  52.0941945  30.3287502  76.6889208  54.2145829  30.5517349
  76.9571366  55.1793228  30.6837826  75.2473833  53.8841443  30.5305966
  75.0255078  53.0645703  29.8470992  74.7255721  53.5025143  31.9544901
  75.3441713  52.6913839  32.3385497  74.7809486  54.6780772  32.9130991
  74.1621753  55.4894907  32.5299169  74.4094505  54.3687404  33.8900333
  75.8110451  55.0213862  33.0087120  73.3258008  52.9571576  31.8829954
  73.3139739  52.0664577  31.2548108  72.9843472  52.6987529  32.8853606
  72.6631454  53.7104499  31.4569210  74.4006490  55.0341328  29.9360273
  74.8576431  56.1980895  29.8098371  73.1920383  54.6683126  29.5239681
  72.9313990  53.6971121  29.6184982  72.2109184  55.5977111  28.9709028
  72.5241479  56.6294221  29.1307747  72.0968497  55.3497336  27.4690601
  73.0559698  55.6439510  27.0428864  71.9624136  54.2744000  27.3520784
  70.9842525  56.0764421  26.7529259  70.0426493  55.8501114  27.2531844
  71.1816522  57.1464382  26.8180472  70.8916835  55.6613011  25.2738688
  71.9254449  55.2136911  24.7006326  69.7760363  55.7777321  24.6819160
  70.8822824  55.3092181  29.6349534  70.5662286  54.1579219  29.9308655
  70.1209152  56.3363362  29.9479861  70.4386296  57.2937808  29.8984208
  68.8035372  56.0808117  30.4669046  68.7289432  55.0345288  30.7632609
  68.4466519  56.9672994  31.6466941  67.6165990  56.5135091  32.1881613
  69.6330669  57.1286157  32.5818762  70.4634211  57.5828036  32.0412046
  69.3522572  57.7677694  33.4189719  69.9359308  56.1511758  32.9573544
  67.9784403  58.3281611  31.1787031  68.7159568  58.7074921  30.4713996
  67.0237470  58.1936476  30.6702089  67.8099930  59.3243125  32.3195824
  68.7644461  59.4597043  32.8282948  67.4726397  60.2808996  31.9205421
  67.0722375  58.9458584  33.0271057  67.8795185  56.2551050  29.2983805
  67.8090447  57.3117032  28.6802547  67.2875079  55.1358989  28.9295415
  67.0857142  54.4397913  29.6329709  66.8908872  54.8675325  27.5672396
  67.5897112  55.3501907  26.8840228  66.8763711  53.3591493  27.2705475
  66.3318350  53.1758029  26.3442836  68.2763539  52.8668757  27.1293068
  68.8214218  53.0494694  28.0554062  68.2665091  51.7974155  26.9189329
  68.7662445  53.3932856  26.3101606  66.2332442  52.6432226  28.3317161
  66.2330830  51.7045833  28.1303299  65.5132228  55.3660659  27.2944276
  65.2850312  55.9443737  26.2279578  64.5510839  54.9617990  28.1414571
  64.3572064  53.9783289  28.2651398  63.6391354  55.9332842  28.7560262
  64.1259140  56.8822714  28.5311503  62.2230582  55.9431728  28.1303747
  61.7195471  55.0028482  28.3547989  61.6477478  56.7708164  28.5452533
  62.3034583  56.0628249  27.0499496  63.5803123  55.8160837  30.2699697
  64.0840056  54.8554506  30.8987066  63.2105659  56.9652673  30.8175002
  63.4657668  57.8102468  30.3266016  62.5560772  57.0888672  32.0971114
  62.8543836  56.2723622  32.7547070  62.9575117  58.4171578  32.7516397
  62.2256600  58.5637039  33.5460052  63.9445171  58.2703047  33.1902221
  62.9805773  59.6525138  31.8443252  63.8370662  59.5443970  31.1788642
  61.7096538  59.8461754  31.0125502  60.8527408  59.9548361  31.6773749
  61.8090475  60.7418809  30.3994162  61.5611712  58.9798633  30.3679134
  63.1878453  60.8577342  32.6998886  64.1345894  60.7674362  33.2324496
  63.2075357  61.7495706  32.0735169  62.3729996  60.9376522  33.4194291
  61.0077943  56.9494686  31.9626940  60.4163049  57.1944308  30.8701383
  60.4034798  56.6061319  33.1164175  60.7823053  57.0235641  33.9544752
  59.1800920  55.7556984  33.2388688  58.8318283  55.4387792  32.2558256
  59.3681433  54.4970871  34.1577524  59.6011563  54.8093443  35.1757410
  58.0749933  53.7059481  34.1557273  57.8415476  53.3929273  33.1380723
  58.1857287  52.8261216  34.7895598  57.2665850  54.3291448  34.5380899
  60.5600577  53.6359238  33.7516760  61.1584456  54.2329158  33.0634659
  61.1330205  53.4452989  34.6591314  60.1984728  52.3103340  33.0916056
  59.6258546  52.5001763  32.1837685  61.1102103  51.7690389  32.8389527
  59.6004271  51.7125601  33.7794337  58.0674665  56.5315245  33.9437776
  57.1075335  56.9666758  33.3335916  58.2157968  56.6501939  35.2487764
  59.0721331  56.3384377  35.6842021  57.2431590  57.2404898  36.0524526
  56.5393114  57.8005937  35.4368380  56.4909731  56.1884496  36.8006104
  56.4999833  55.2310533  36.2796399  56.8731082  56.0544368  37.8125952
  54.7700363  56.6411308  36.9763466  54.4079433  55.5525263  37.6491967
  57.9402993  58.0896361  37.0234125  58.6473012  57.5984055  37.8752656
  57.6454864  59.3655339  36.9759140  57.1650898  59.7395301  36.1700324
  58.0085953  60.2777540  38.0454525  59.0840998  60.4534251  38.0684539
  57.3110501  61.5896299  37.7760956  57.1425354  61.5587121  36.6996449
  56.3582398  61.7212756  38.2888548  58.2217944  62.7400296  38.1078835
  58.7510811  62.5004857  39.0301498  59.2487661  63.0125439  36.9789605
  58.7201967  63.2526298  36.0564249  59.8855623  63.8510236  37.2609946
  59.8636241  62.1258529  36.8245934  57.3318695  63.9288420  38.4879897
  56.7197655  63.6641186  39.3501669  57.9569886  64.7865116  38.7364454
  56.6851462  64.1824382  37.6480272  57.6004922  59.7351816  39.4393119
  56.8264003  58.8282558  39.4873668  58.1667949  60.2340473  40.5501361
  59.0814528  60.6596846  40.5018345  57.5519186  60.0381695  41.8858082
  56.4739064  60.1823118  41.9580018  57.9153600  58.6791909  42.5403780
  56.9987306  58.0979258  42.6404812  58.9231130  57.8956886  41.7252474
  59.8402409  58.4761603  41.6250980  59.1431171  56.9533566  42.2269535
  58.5122757  57.6928740  40.7362172  58.2701836  58.7950804  44.0366717
  57.4191445  59.2032358  44.5818724  58.5137984  57.8082762  44.4303327
  59.1287556  59.4557610  44.1569049  57.7887969  61.1415780  42.8859003
  58.9336877  61.5650937  43.0956183  56.7083608  61.5729641  43.5459653
  55.8041772  61.1780642  43.3300825  56.7707489  62.6883050  44.4937050
  57.5313626  63.3961889  44.1643627  55.4211110  63.4270144  44.5952123
  55.3532156  64.2050739  43.8348749  54.6781339  62.6556894  44.3923755
  55.1529726  64.0513672  46.0057014  56.0616518  64.7092287  46.5970425
  53.9825103  63.9420372  46.4909456  57.2654084  62.1934225  45.8515733
  56.9900338  61.0521462  46.3077347  58.0885802  63.0507894  46.4426233
  58.1679258  63.9881960  46.0751012  58.9341217  62.6764490  47.5592584
  59.3114941  61.6637545  47.4173460  60.1393116  63.6436012  47.6638084
  59.7425068  64.6585478  47.6408182  60.6168260  63.4624593  48.6267558
  61.1545861  63.4755510  46.5596046  61.3721135  62.4147232  46.4353991
  60.7402152  63.8719079  45.6326203  62.4287860  64.2144934  46.8979427
  62.1709828  65.2567000  47.0862026  62.8404625  63.7729383  47.8054950
  63.4723199  64.1407655  45.7745896  63.3673683  63.1545254  45.3224655
  63.1953285  64.9044107  45.0478016  64.9066851  64.3487549  46.2012569
  65.1636849  63.6409856  46.8743940  65.5109354  64.2815713  45.3947411
  65.0042420  65.2627388  46.6198440  58.1221063  62.6598737  48.8525895
  58.2401491  61.7624467  49.6665794  57.2826854  63.6528909  49.0242477
  57.2058816  64.4079889  48.3578938  56.4919463  63.7124814  50.2049063
  57.1258817  63.8563740  51.0798463  55.5331391  64.8780241  50.1058103
  55.1824555  64.9188252  49.0745705  54.6936562  64.6605481  50.7661682
  56.1435383  66.2181108  50.4867976  56.6791728  66.1107773  51.4300240
  56.8398498  66.5273621  49.7073004  55.0469544  67.2761608  50.6403751
  55.1139668  67.9517416  49.7876155  54.0849324  66.7640049  50.6227821
  55.1736974  68.0779880  51.9368620  56.0404931  67.6966527  52.4766298
  55.3451275  69.1194398  51.6646689  53.9522867  67.9831507  52.8167000
  53.7935096  67.0182470  53.0693863  54.0964432  68.5308506  53.6529677
  53.1490599  68.3368515  52.3168785  55.7216242  62.3935933  50.4418074
  55.7653879  61.8338796  51.5342310  55.0743531  61.8757171  49.3918087
  55.1639490  62.3176706  48.4880670  54.1295233  60.7562605  49.5302916
  53.7579928  60.7268763  50.5545966  52.9105491  60.9006143  48.5602994
  52.4762227  59.9085062  48.4370868  52.1870526  61.5556885  49.0456144
  53.2491830  61.4311340  47.2851908  52.4587099  61.4923402  46.7438906
  54.8155745  59.3927912  49.3656278  54.9501594  58.6468700  50.3368479
  55.3180602  59.1188106  48.1499993  55.6651901  59.8844473  47.5901773
  55.3894825  57.7381629  47.5838405  56.4346468  57.4640639  47.4403121
  54.9240507  57.0412518  48.2808251  54.6610209  57.6560902  46.2333415
  54.6410220  56.5909129  45.5374346  54.0322283  58.7776489  45.8809398
  54.2704941  59.6623793  46.3058880  53.0029718  58.7566804  44.8973558
  52.3466997  57.9087434  45.0933379  52.1564710  60.0467824  44.9021505
  51.5248924  60.0228762  45.7902024  52.8430329  60.8908314  44.9678315
  51.2750725  60.1993024  43.6503712  51.9225135  60.5639007  42.8528820
  50.9192270  59.1998047  43.4004159  50.0845683  61.1376459  43.8066572
  49.4870731  61.4438529  42.7493008  49.7405585  61.5638208  44.9561098
  53.7031779  58.6055337  43.6008601  54.2926267  59.5520866  43.1067754
  53.6673592  57.4140462  43.0360313  53.4319441  56.5735393  43.5441920
  54.0131347  57.2953182  41.6404096  55.0667915  57.5352800  41.4978445
  53.7702037  55.8880597  41.1585651  53.1651745  55.3856945  41.9133286
  53.2067938  55.9555938  40.2279156  55.0411337  55.0981227  40.9228423
  54.8431100  54.3679993  40.1381084  55.8114752  55.7921457  40.5866754
  55.5228671  54.3725962  42.1863379  55.8368873  55.1148745  42.9201724
  54.6976591  53.7875390  42.5923419  56.7042137  53.4383505  41.8637138
  57.5500120  54.0758536  41.6061956  56.9298722  52.8874527  42.7767795
  56.4476524  52.4636576  40.7382667  56.2389552  52.9739360  39.8920036
  57.2682714  51.8929133  40.5935761  55.6642221  51.8725543  40.9768730
  53.2151443  58.2612609  40.7913071  52.3158695  58.9187752  41.2629825
  53.5987336  58.4011518  39.5451490  54.2514869  57.7744600  39.0965180
  53.0752175  59.4739557  38.7915531  52.5596737  60.1654159  39.4580338
  54.1559511  60.2169701  38.0758531  54.8732213  60.6208285  38.7903608
  54.6710114  59.5556061  37.3791390  53.5566281  61.2753120  37.3628670
  54.2333726  61.7686155  36.8935393  52.1272586  58.9901914  37.7846494
  52.1333958  57.8348709  37.4018114  51.4160380  59.9317892  37.2125168
  51.7399879  60.8884266  37.2132871  50.1719574  59.6321069  36.5489567
  49.6841063  58.7761381  37.0152377  49.2495586  60.8418680  36.6649936
  49.6689791  61.6393607  36.0516495  48.2747008  60.5552828  36.2705050
  49.0907915  61.3384804  38.1134473  48.1672630  61.9153598  38.1624990
  49.0043628  60.4601934  38.7531692  50.2553781  62.2018630  38.5900083
  50.8906557  61.6106688  39.2495618  50.8338911  62.5283075  37.7257999
  49.7404561  63.4115195  39.3376690  48.7786139  63.1750108  39.7926675
  50.4519313  63.6874775  40.1159680  49.5746471  64.5516033  38.3886937
  48.9150894  64.2962544  37.6676665  49.2307777  65.3587812  38.8890113
  50.4658817  64.7711955  37.9672920  50.5075361  59.3768206  35.1457287
  50.4769335  58.2462160  34.6717133  51.0940405  60.4051975  34.5797678
  51.0722076  61.3042893  35.0393944  51.6863563  60.3217657  33.2898581
  51.1930299  59.5747940  32.6679566  51.5874331  61.7064919  32.5787177
  52.5501259  61.9439382  32.1260126  50.4698600  61.6697261  31.4545648
  49.5067333  61.4327797  31.9066079  50.4121770  62.6428360  30.9668877
  50.7213021  60.9082499  30.7163024  51.2881384  62.7355560  33.5466788
  51.2286336  63.5847360  33.1028851  53.1562909  59.8153230  33.3711483
  53.7259141  59.6207806  34.4559117  53.6943398  59.5015661  32.1915628
  53.0602608  59.3675395  31.4169145  55.1458278  59.4471292  31.9256334
  55.6098237  58.6997931  32.5692915  55.4163169  59.0669708  30.4536499
  54.4350435  58.9205907  30.0022358  55.8945329  59.9389218  30.0074315
  56.2740619  57.8388893  30.2082560  57.3076709  58.0853476  30.4511790
  55.9281005  57.0394189  30.8634352  56.1881068  57.3727628  28.7380152
  55.2452008  57.7185097  28.3143571  57.0175692  57.8095633  28.1818706
  56.2528839  55.9277396  28.6114616  55.6010997  55.4967541  27.9715176
  57.0807225  55.1360894  29.3129965  58.0063292  55.6408986  30.1304602
  58.0948044  56.6419527  30.2312712  58.6143579  55.0197052  30.6447748
  57.0204786  53.8122911  29.1666617  56.3511820  53.4078922  28.5274407
  57.6444110  53.2198983  29.6956965  55.6598657  60.8067506  32.0862712
  54.9331579  61.7550071  31.8085818  56.9581189  60.9131470  32.3659916
  57.8087506  59.9878120  33.1368579  58.5858453  59.5687750  32.4976146
  57.2065685  59.1801209  33.5529236  58.3608453  60.8928677  34.1960500
  59.4088696  60.6386422  34.3545221  57.8035038  60.7253637  35.1176867
  58.2032728  62.3311624  33.7190328  59.2162533  62.7154673  33.5995368
  57.6385143  62.9944501  34.3741639  57.5201710  62.2382512  32.3584831
  56.7264407  62.9695433  32.2058321  58.5179158  62.3495503  31.2530004
  59.2684236  61.4077272  31.0099094  58.4717391  63.4676083  30.5385607
  57.7135830  64.1165097  30.6942063  59.4097319  63.7407346  29.4352383
  59.3573736  62.8769122  28.7725402  58.9334554  64.9930107  28.6553336
  57.9037707  64.8482127  28.3284054  58.9888273  65.8679118  29.3030851
  59.8278402  65.2045219  27.4383852  60.8576860  65.3498605  27.7645678
  59.7726284  64.3301634  26.7898862  59.3593241  66.4363995  26.6711856
  58.3296388  66.2916033  26.3442586  59.4146980  67.3112999  27.3189374
  60.2059377  66.6735136  25.4806297  60.9686171  66.0373045  25.2971704
  60.0083048  67.6861060  24.6412855  59.0254198  68.5648985  24.8161029
  58.4033185  68.4715821  25.6062814  58.9056350  69.3215287  24.1578765
  60.8298158  67.8052076  23.6021342  61.5752030  67.1361498  23.4722896
  60.7045095  68.5641640  22.9476251  60.9426505  63.8702058  29.9036323
  61.8681184  63.8001942  29.0686463  61.1726352  63.9511472  31.2292014
  60.4088349  63.7637532  31.8629143  62.4867309  64.2457704  31.7961216
  63.1800990  63.4259375  31.6084676  63.0168387  65.4712047  31.1523611
  63.9883288  65.7506907  31.5600300  63.1087292  65.3016422  30.0795589
  62.1455612  66.6293977  31.3187205  62.1590142  67.3493279  32.5026586
  62.7911700  67.0075473  33.3222103  61.3960837  68.4711427  32.6513956
  61.4241738  69.0370266  33.5825707  60.5970003  68.8823037  31.6289088
  59.9761085  69.7715030  31.7380781  60.5756969  68.1622981  30.4422568
  59.9482864  68.5045987  29.6192826  61.3359869  67.0280080  30.3000310
  61.2889019  66.4527331  29.3754004  62.4651689  64.5430481  33.2913456
  61.4749164  64.9428899  33.8358561  63.5981553  64.5095191  33.9236916
  64.4841202  64.4071144  33.4496885  63.6060976  64.7132003  35.3232747
  63.0754631  65.3279097  36.0503639  64.1087047  63.4294561  36.0326780
  63.3459697  63.2037721  36.7779305  64.3637676  62.2291954  35.2106938
  65.1267835  62.4539843  34.4654572  64.7093482  61.4169612  35.8501860
  63.4436775  61.9295703  34.7089363  64.7228554  63.5341072  37.3863774
  63.9998530  63.9601243  38.0819916  65.0164448  62.5423594  37.7303847
  65.6021315  64.1764985  37.3383367  64.6112042  65.7927226  35.5653624
  65.7711376  65.5682698  35.2134528  64.2484845  66.8657750  36.3072963
  63.2652938  67.0193949  36.4800286  65.2424663  67.8864791  36.8403988
  66.0891366  67.9604891  36.1579245  64.5994170  69.2637222  36.9705645
  64.0599425  69.2649802  37.9176996  65.4166145  69.9835016  37.0175314
  63.6512279  69.6473258  35.8477129  64.1858869  70.3064664  35.1637726
  63.3625969  68.7367324  35.3227234  62.3766951  70.3689648  36.3728530
  61.5565767  70.0970077  35.7083652  62.1772869  69.9824216  37.3723130
  62.5024572  71.9050623  36.4317212  61.6182375  72.2868593  36.9421005
  63.3900179  72.1388286  37.0196740  62.6156383  72.5487286  35.0749432
  61.7931059  72.3325945  34.5301256  62.6945599  73.5498472  35.1827986
  63.4351506  72.1954012  34.6020176  65.8862845  67.5271171  38.2184634
  65.8779571  66.3858277  38.6707798  66.4633052  68.5121459  38.8816453
  66.4200411  69.4736279  38.5754101  67.2572235  68.1966983  40.0792786
  67.9641566  67.4011449  39.8438224  68.0548712  69.4403261  40.5797635
  68.3257960  69.9912579  39.6791120  67.3427587  70.0249012  41.1622305
  69.3264359  69.1804996  41.4284739  69.0989733  68.9050092  42.4582635
  69.8463563  68.3569823  40.9389801  70.2584501  70.4157538  41.4413867
  70.9644483  70.6960478  40.4695067  70.1862914  71.1855030  42.4968465
  70.7713463  72.0063394  42.5604073  69.5458675  70.9553037  43.2431486
  66.3374776  67.6841477  41.1287395  65.1393352  67.7446711  40.9733757
  66.8895050  67.3221549  42.2661124  67.8201507  66.9315243  42.3036033
  66.1465315  67.4831914  43.5316541  66.7215252  67.0586841  44.3546213
  65.8940632  68.9971865  43.8274320  66.1916534  69.4916977  42.9027709
  64.8393751  69.1932531  44.0205405  66.7456072  69.5448696  45.0038630
  66.6414617  68.9430024  46.1082006  67.4347736  70.6265341  44.8391888
  64.7819658  66.7826942  43.4886547  63.9009060  67.1329950  44.3167205
  64.7077900  65.7063998  42.6505709  65.5990603  65.2784478  42.4441884
  63.4618687  65.0963788  42.0459218  62.6056660  65.2496815  42.7028192
  63.1771819  65.7604251  40.7185839  63.1127381  66.8265196  40.9362736
  64.0567689  65.5680927  40.1042266  61.9269522  65.3192713  39.9673083
  61.9985841  64.2785813  39.6511848  61.0717488  65.4383335  40.6325552
  61.7081246  66.1958788  38.7246950  62.5798890  66.9666442  38.3658309
  60.5934149  66.0568204  38.0582822  60.4253861  66.6212827  37.2377640
  59.9046911  65.3854784  38.3666015  63.6800080  63.5978657  41.7952196
  64.7802945  63.1849650  41.6284631  62.6493046  62.7772283  41.7924235
  61.7034889  63.1205600  41.8799178  62.8568224  61.3097000  41.6408582
  63.9135361  61.0911809  41.4868945  62.3584906  60.5007987  42.8532192
  61.2713961  60.5671746  42.8970273  62.7753384  59.0328125  42.7372872
  63.8623985  58.9655946  42.6938916  62.4121017  58.4818316  43.6048007
  62.3488267  58.6039892  41.8304797  62.8828481  61.0782223  44.1473089
  62.5401858  62.1076885  44.2516356  62.5145384  60.4865464  44.9853824
  63.9726269  61.0575756  44.1397792  62.0981205  60.7958079  40.4362753
  61.0849320  61.3694569  40.0761476  62.6006296  59.7376661  39.7895810
  63.4704293  59.3397260  40.1139135  61.9154303  59.0919957  38.6313968
  60.8464511  59.2971660  38.6887351  62.4435478  59.6172012  37.2928632
  61.9228937  59.1370945  36.4643005  62.3093034  60.6970057  37.2288260
  64.2616293  59.3042912  37.0124134  64.3181183  59.8777806  35.8137403
  62.2166937  57.6315404  38.7140083  62.9770784  57.1997265  39.5910789
  61.5945918  56.8609685  37.8347942  60.8546486  57.2394755  37.2609337
  61.9582037  55.4360201  37.6616287  62.8629203  55.2276582  38.2327437
  60.8432990  54.4347717  38.0743476  60.6543729  53.7410027  37.2551456
  61.2947808  53.6545781  39.3082228  61.4834659  54.3476825  40.1280429
  60.5145082  52.9515402  39.5997929  62.2088782  53.1071930  39.0782345
  59.5524157  55.2073568  38.3284764  59.8249208  56.0333511  38.9854202
  59.2457917  55.6006126  37.3592338  58.4158246  54.4369193  38.9382664
  58.7215638  54.0437176  39.9078105  57.5577081  55.0963146  39.0683941
  58.1424361  53.6109773  38.2816247  62.2443176  55.2788396  36.2145201
  61.6617781  55.9874831  35.4059653  63.2996554  54.5500419  35.9010030
  63.7887210  53.9745906  36.5716520  63.7989204  54.6167241  34.5942015
  62.9855827  54.6783279  33.8711621  64.6527036  55.8282303  34.4541734
  65.4769196  55.7767161  35.1655905  65.0507804  55.8776574  33.4406685
  64.0564156  56.7186078  34.6535916  64.5448675  53.3973422  34.2909582
  64.9662814  52.6850944  35.2141756  64.5744124  53.0874627  32.9926058
  64.0746582  53.6767839  32.3421862  65.2582744  51.9286289  32.4777913
  65.5307163  51.2681654  33.3009939  64.3687004  51.1606391  31.5125656
  63.4019833  51.0294496  31.9987205  64.2467233  51.7793587  30.6235168
  64.9304874  49.7836178  31.1067508  65.9069484  49.9671859  30.6585015
  65.0554917  49.2159686  32.0288411  64.0497710  48.9731817  30.1152410
  64.6180373  48.8381461  29.1949487  63.8484806  48.0001943  30.5634343
  62.7681390  49.6151675  29.7876274  62.8227733  50.4774315  29.2645449
  61.5681605  49.1669511  30.1499087  61.4527684  48.0101838  30.7977668
  62.2792749  47.4716899  31.0145874  60.5392191  47.6760990  31.0696396
  60.4707116  49.8670300  29.8321328  60.5585241  50.7323851  29.3187620
  59.5606971  49.5261718  30.1074289  66.5410974  52.3347074  31.7734937
  66.6377598  53.4246927  31.2052557  67.5250404  51.4381806  31.8067671
  67.2938841  50.4597148  31.9030521  68.9313216  51.8086650  31.6940573
  69.0355270  52.7605892  31.1734032  69.5249431  51.9525122  33.1034723
  68.8535111  51.3856864  33.7484428  70.4908981  51.4499156  33.0541999
  69.7106766  53.3552756  33.6713065  70.1468649  53.9920889  32.9016901
  68.4092957  53.9236431  34.1044520  67.9726856  53.2875780  34.8744466
  68.5651917  54.9248097  34.5062763  67.7332158  53.9764125  33.2510870
  70.6402243  53.3478031  34.8737312  71.6159078  52.9629926  34.5769788
  70.7510990  54.3631989  35.2542301  70.2212646  52.7118506  35.6535621
  69.6939358  50.6942672  30.9295640  69.6388780  49.5345777  31.3436482
  70.3856050  51.0420755  29.8225969  70.2393181  51.9626740  29.4337554
  71.2886582  50.0898331  29.0832536  71.2074324  49.1023350  29.5375102
  70.9217346  49.9758509  27.5806392  70.9141150  50.9863335  27.1720244
  71.7085456  49.3955355  27.0987032  69.5581651  49.3068672  27.3209006
  69.3056516  48.7575023  28.2278383  68.8407280  50.1142410  27.1741578
  69.5108488  48.3558038  26.1171712  69.8440607  47.3712661  26.4454310
  68.4792268  48.2928862  25.7709100  70.3572223  48.7901250  24.9980349
  71.1777669  48.2312070  24.8125176  70.1331842  49.8643812  24.2381233
  69.0745858  50.6470385  24.4420297  68.4249114  50.4293656  25.1840821
  68.9265459  51.4544859  23.8536314  70.9679108  50.1442772  23.2468823
  71.7627739  49.5451171  23.0757106  70.8051135  50.9553780  22.6674763
  72.7700406  50.4453198  29.2253670  73.2337138  51.4914707  28.7761905
  73.5092677  49.5195071  29.7956372  73.0651357  48.6893000  30.1611537
  74.9503059  49.6274950  29.8944187  75.2451747  50.6491147  30.1340952
  75.4952520  48.6841531  30.9947499  76.4816159  49.0321243  31.3015115
  74.5784411  48.6708477  32.1821224  73.5919388  48.3225185  31.8762146
  74.9792622  48.0020791  32.9438246  74.4970420  49.6782659  32.5902686
  75.6367012  47.3433112  30.4857990  75.9749749  46.7719145  31.1791078
  75.5835443  49.2087079  28.5687866  75.4913895  48.0453503  28.1764569
  76.3138124  50.1100746  27.9235956  76.4750516  51.0263395  28.3167367
  76.8096668  49.8362332  26.5594880  75.9156717  49.6290623  25.9713110
  77.5101093  51.0634093  25.9694032  78.4122648  51.2779580  26.5422768
  77.7778836  50.8655097  24.9315048  76.8394844  51.9215416  26.0137918
  77.7276249  48.6010747  26.4599512  78.3245683  48.3549381  25.3892691
  77.8431441  47.8401652  27.5549084  77.6316321  48.2278958  28.4632184
  78.2720644  46.4440776  27.4798033  78.3085274  46.1610111  26.4278323
  79.2720696  46.3773935  27.9083383  77.3514391  45.4842237  28.2192515
  76.2673621  45.1282349  27.7105087  77.8331834  44.9912905  29.3682816
  78.7204836  45.3326465  29.7092710  77.1360500  43.9640379  30.1503187
  76.0611361  44.1444909  30.1405173  77.4035830  42.5370104  29.6084601
  77.9897667  42.6347234  28.6947090  78.1675821  41.6323996  30.6208783
  77.5817608  41.5338349  31.5347700  78.3240483  40.6469333  30.1821602
  79.1322424  42.0826060  30.8550691  76.1573899  41.9307396  29.2801149
  76.3113546  41.0451677  28.9429833  77.5921826  44.0343456  31.5659601
  78.7644797  44.2876810  31.8466821  76.6865260  43.7418776  32.4605788
  75.7907254  43.3623551  32.1892797  76.9217707  43.9968717  33.8434714
  77.9427504  44.3510954  33.9856872  75.9306910  45.0821135  34.3149332
  74.9471892  44.8355706  33.9148819  75.8519191  45.1787455  35.8168887
  76.8350159  45.4257351  36.2176599  75.1409321  45.9568536  36.0946406
  75.5227593  44.2236349  36.2261767  76.3398139  46.4513843  33.8060087
  76.2057446  46.4531233  32.7242864  75.6686057  47.1829020  34.2559652
  77.7747430  46.8114927  34.1376419  78.4466124  46.0806328  33.6876029
  78.0012255  47.8026952  33.7448028  77.9094740  46.8104092  35.2192824
  76.7498015  42.6802012  34.5710037  76.5980439  41.6505209  33.9273041
  76.8695412  42.6844091  35.8966699  77.5863733  43.2407819  36.3401790
  76.0887651  41.7496668  36.7349542  75.2640483  41.3340213  36.1560067
  76.9697431  40.6062703  37.2162807  76.8540529  40.4318363  38.2859946
  76.7636926  39.6835572  36.6738383  78.7166883  40.9605683  36.9539179
  79.1680973  39.8163223  37.4597135  75.2855484  42.4010060  37.9190345
  75.7990817  42.5753511  39.0489306  73.9946155  42.6612174  37.6403677
  73.6451000  42.3751600  36.7369800  73.0730419  43.3066012  38.5641555
  73.5521245  44.1536314  39.0551941  71.8767296  43.8111816  37.7879471
  71.5773654  42.9550078  37.1834253  71.0597791  44.0883090  38.4541996
  72.2063903  44.9790366  36.8807031  73.2852639  45.0339593  36.7353891
  71.5205126  44.7831587  35.5303103  70.4415068  44.7286041  35.6747713
  71.7570834  45.6228823  34.8768584  71.8727252  43.8579874  35.0741253
  71.8265050  46.3075391  37.5520638  72.3817304  46.4162228  38.4837355
  72.0705518  47.1348394  36.8856430  70.7573073  46.3155160  37.7638458
  72.5486391  42.3793684  39.6304515  72.5200840  41.1682854  39.4383227
  72.0943598  42.9796717  40.7366148  72.5594186  43.8196973  41.0499462
  70.9641659  42.4753762  41.5242657  70.4826491  41.6564526  40.9898456
  71.4335167  41.9616150  42.8843849  71.9150845  42.7984092  43.3903169
  70.5412808  41.6681095  43.4374396  72.4007423  40.7832333  42.8176216
  73.1909638  41.0653262  42.1218670  72.8232317  40.6561209  43.8143384
  71.7672350  39.4709230  42.3626851  70.5427215  39.2554004  42.6170189
  72.5349571  38.6625010  41.7495646  69.9462736  43.5793359  41.7415057
  70.2735671  44.7487307  41.6815663  68.7150753  43.2043903  42.0571961
  68.4493119  42.2309090  42.0147297  67.6948371  44.1895828  42.4492355
  67.8170747  45.0874275  41.8434038  66.2581895  43.6563946  42.2570923
  65.5596796  44.4901304  42.3282888  66.1096967  42.9795769  40.8844439
  66.8076143  42.1453946  40.8126763  65.0904776  42.6108682  40.7689219
  66.3255866  43.7020002  40.0972992  65.9524319  42.7044218  43.2734259
  65.0585460  42.3777839  43.1474263  67.9086339  44.5492040  43.8927345
  68.3058030  43.7164717  44.6812461  67.6324108  45.7898563  44.2051377
  67.1962625  46.4125470  43.5402089  67.8150424  46.2461810  45.5308566
  68.8631152  46.1540722  45.8157398  67.4116868  47.6940967  45.6403751
  67.7950373  48.2263991  44.7698604  66.3277795  47.8010905  45.6827687
  67.9572538  48.3922479  46.8424864  68.5688235  47.7036870  47.8513409
  68.6674496  46.6208385  47.7751044  69.0539866  48.3577489  48.9467868
  69.5555456  47.7988358  49.7368219  68.9111585  49.7124699  49.0532771
  69.2946054  50.2361891  49.9289407  68.2872027  50.4094250  48.0608580
  68.1640522  51.4895564  48.1399169  67.8156259  49.7469838  46.9639287
  67.3167791  50.2984220  46.1669546  66.7664805  45.3786116  46.1149509
  66.0438358  44.7524992  45.3648517  66.7197940  45.2624622  47.4294161
  67.3622252  45.7747272  48.0167542  65.7339891  44.4124153  48.0673111
  65.6625631  44.5764394  49.1425291  64.3488615  44.5986675  47.4522422
  63.9998933  45.6136750  47.6421906  64.4024046  44.4286934  46.3769088
  63.3774477  43.6023880  48.0762667  63.7255322  42.5870755  47.8863234
  63.3230181  43.7720575  49.1516046  61.9940897  43.7884003  47.4619826
  61.6451213  44.8034080  47.6519287  62.0476336  43.6184243  46.3866498
  61.0226758  42.7921215  48.0860094  61.3707600  41.7768088  47.8960675
  60.9682454  42.9617942  49.1613455  59.6892104  42.9714243  47.4938780
  59.7393431  42.8138235  46.4975104  59.0458470  42.3115950  47.9071682
  59.3663025  43.9120420  47.6701391  66.1882030  43.0101300  47.8469896
  66.4093201  42.2804857  48.7947952  66.3584027  42.6237383  46.5945402
  66.1805913  43.2353520  45.8106964  66.8337896  41.2825345  46.3249059
  66.1531816  40.5582185  46.7723858  66.9084552  41.0201835  44.8342799
  66.0042954  41.4155098  44.3713420  67.7773152  41.5504238  44.4443728
  67.0326718  39.5578520  44.5200527  67.3130416  38.7748602  45.4449638
  66.8455071  39.1858682  43.3491759  68.2127560  41.2287651  46.9360570
  68.5989126  40.2575027  47.5601936  68.9377454  42.3182136  46.7467633
  68.5207906  43.0714177  46.2186234  70.2707453  42.5094097  47.2803000
  70.3515775  41.9838004  48.2317726  71.3345652  41.9843407  46.3473826
  70.9257742  41.7449008  45.3657219  72.1234427  42.7288342  46.2401359
  71.9787562  40.7563312  46.8468629  72.5920845  40.7579148  48.0727874
  72.6066900  41.6763083  48.6596774  73.1830838  39.6213414  48.5629361
  73.6697579  39.6334650  49.5381807  73.1604009  38.4649184  47.8205856
  73.6297869  37.5584583  48.2028250  72.5429090  38.4538571  46.5918613
  72.5217563  37.5407341  45.9970007  71.9510463  39.5993367  46.1142798
  71.4538212  39.5922044  45.1443230  70.4031608  43.9913800  47.4024926
  69.6468376  44.7014616  46.7542879  71.3648962  44.4658163  48.2754739
  72.3167517  43.9769808  49.3508511  73.3325987  43.9296194  48.9585350
  72.0149868  42.9883855  49.6968515  72.1563975  45.0286229  50.4115039
  73.1475955  45.3690319  50.7110827  71.6526466  44.5801283  51.2677685
  71.3472870  46.1431458  49.8421071  71.8085381  47.0975928  50.0958340
  70.3046434  46.1482035  50.1598623  71.4307255  45.9125374  48.3502771
  70.6046352  46.3026539  47.7557334  72.7295180  46.4982815  47.8512481
  72.7289364  47.3518469  46.9842674  73.8404578  46.0190368  48.3718423
  73.8096957  45.2977502  49.0781699  75.1306042  46.5801791  48.0175269
  75.1274155  47.6548246  48.1998072  76.2342160  45.9500364  48.8494554
  77.1177913  45.8982510  48.2132854  76.4260346  46.6263614  49.6824561
  75.9161865  44.5714841  49.3829129  75.0788419  44.1629903  48.8171500
  76.7866139  43.9272338  49.2588176  75.5428025  44.6004190  50.8421032
  75.6237829  45.6353924  51.4892046  75.1393734  43.4621967  51.3701373
  74.8770275  43.4261155  52.3448036  75.0944347  42.6313210  50.7976625
  75.4715991  46.4727206  46.5569349  76.2797962  47.2193598  46.0406759
  74.8666768  45.5173334  45.8988388  74.2056122  44.9194309  46.3738184
  75.1351019  45.2675255  44.5062122  76.0532663  45.7705510  44.2028334
  75.2988700  43.8004048  44.2833182  74.3401756  43.4069028  43.9454415
  76.0434621  43.6648741  43.4988986  75.7398055  43.0555856  45.5349256
  76.4699677  43.6744144  46.0564762  74.8649055  42.9140534  46.1694495
  76.4725805  41.4550599  45.1735282  76.0904557  41.2187587  43.4150310
  76.5380289  42.0250176  42.8338909  76.4937948  40.2630636  43.0802697
  75.0097266  41.2260810  43.2733541  74.0420015  45.7763029  43.6026669
  74.1318307  45.6545690  42.3774724  73.0316193  46.3943189  44.1993384
  72.9605146  46.3909952  45.2068266  71.9963933  47.0944054  43.4314745
  72.2768817  46.9968549  42.3827088  71.0668571  46.5539329  43.6102239
  71.7815830  48.5744252  43.7537581  70.8019745  49.1665323  43.3151405
  72.5804001  49.1288582  44.6525108  73.1687918  48.5743658  45.2578476
  72.6000177  50.5577017  44.8054796  71.6606220  50.9544315  44.4204597
  72.7690186  51.0220950  46.2695245  72.3655972  52.0336635  46.3151266
  72.1500049  50.3571313  46.8718079  74.2083077  51.0187275  46.8167944
  74.8693373  50.6597698  46.0279407  74.4745318  52.0437509  47.0747748
  74.3577047  50.1243963  48.0555011  73.8365660  49.1914254  47.8408415
  75.4221628  49.9251898  48.1793766  73.8370259  50.6744063  49.3020770
  73.3854210  51.5771190  49.2665500  73.9177389  50.0487579  50.4777434
  73.4252880  50.6282966  51.5780961  72.9932773  51.5390733  51.5152261
  73.4877061  50.1524764  52.4668023  74.4824751  48.8373148  50.5617655
  74.8489266  48.3956034  49.7306793  74.5393440  48.3709370  51.4558329
  73.7331607  50.9578259  43.9631877  74.5840676  50.1607043  43.6577872
  73.6129548  52.1263184  43.4102721  72.8553718  52.7456827  43.6603825
  74.5548148  52.5724474  42.4659783  75.5701959  52.3565297  42.7983635
  74.3073269  51.8444150  41.1696124  75.1869806  51.8975339  40.5281398
  74.0692919  50.8003965  41.3732412  73.1777528  52.3909805  40.3852633
  73.3332400  53.4929748  39.6071005  74.2905635  54.0128732  39.5705309
  72.2773107  53.9500768  38.8653513  72.4348242  54.8084066  38.2122356
  71.0313818  53.3488239  38.9303745  70.1934357  53.7301455  38.3468164
  70.8635164  52.2783754  39.7290956  69.8862091  51.8060728  39.8285982
  71.9501545  51.7772181  40.4292984  71.8411432  50.8759148  41.0325138
  74.3955730  54.0372873  42.2248246  73.2958647  54.5752685  42.3462654
  75.4211800  54.6387813  41.6762115  76.2188730  54.1201114  41.3374390
  75.4257292  56.0424130  41.5322589  74.4715675  56.4860379  41.8166379
  76.5116979  56.6340931  42.4015055  76.0917241  56.8481088  43.3843175
  77.6925569  55.6700362  42.5501945  78.1133745  55.4559005  41.5677699
  78.4564465  56.1249053  43.1808021  77.3494052  54.7422517  43.0079755
  76.9460360  57.8567064  41.8443545  77.6357359  58.2327224  42.3961936
  75.7031015  56.2881860  40.0984924  76.7497800  55.9377681  39.6277884
  74.7822157  56.8984447  39.3785900  73.8122401  56.9363950  39.6575281
  75.1778997  57.5845366  38.1456309  75.5994323  56.8532960  37.4559232
  74.0170741  58.2701540  37.4706614  73.2771788  58.4417351  38.2524632
  74.3531197  59.2276553  37.0727111  73.3933526  57.4494166  36.3550689
  74.1177403  57.3127628  35.5521436  72.9904502  56.1203089  36.8909423
  72.2656720  56.2561366  37.6936541  72.5421053  55.5273048  36.0938013
  73.8681421  55.6029054  37.2783064  72.1901107  58.1268065  35.7263830
  72.4915445  59.0855373  35.3043968  71.7874398  57.4931154  34.9361976
  71.4256747  58.2891161  36.4862463  76.1648242  58.6363073  38.4911992
  76.1089026  59.1453436  39.5946393  77.0393499  58.9859833  37.5424409
  76.9210488  58.6116070  36.6118784  78.1840708  59.8847798  37.7954394
  77.8847285  60.6934143  38.4622253  79.3175461  59.1093873  38.4499539
  78.8767097  58.2368577  38.9320894  79.9886522  58.7842695  37.6549602
  80.0941002  59.9076641  39.4682289  81.1569828  59.8073995  39.2483916
  79.8028998  60.9544838  39.3817829  79.8241834  59.4262416  40.8681911
  80.2409472  60.1477907  41.5708815  78.7456870  59.3610137  41.0120324
  80.4185211  58.1030074  41.1408942  79.9065544  57.2982795  40.8086254
  81.5656624  57.9014419  41.8091898  82.3016030  58.9386227  42.2345091
  81.9919155  59.8823892  42.0514834  83.1622296  58.7713090  42.7359346
  81.9995633  56.6534192  42.0394517  81.4608919  55.8656865  41.7086793
  82.8630051  56.5070147  42.5425747  78.6243519  60.4585669  36.4498626
  78.6204444  59.7608815  35.4643080  78.7935079  61.7634742  36.3535242
  78.6662369  62.3666607  37.1535664  79.1221008  62.3847424  35.0522449
  79.6788213  61.6714367  34.4444980  77.8396008  62.8054319  34.2760155
  77.1666121  61.9570417  34.1518401  77.3678620  63.5523204  34.9145451
  78.1472095  63.4340139  32.8801045  78.5296009  62.7085692  31.9201525
  77.9315581  64.6493037  32.7243188  80.0157179  63.5774636  35.3251724
  79.8152444  64.2849910  36.3334756  81.0301105  63.7819518  34.4780938
  81.0687190  63.3045228  33.5888974  82.0842275  64.7492017  34.7934064
  82.9118681  64.6348951  34.0933749  81.5447646  66.1880500  34.6870649
  80.7040280  66.2403947  35.3788172  82.3485642  66.8321972  35.0435485
  81.0958770  66.6530188  33.3059563  82.0039851  66.9171987  32.7640620
  80.5969028  65.8280967  32.7974019  80.1525880  67.8731852  33.3539026
  80.1487913  68.6447915  32.3791147  79.4402951  68.0872424  34.3704051
  82.5276794  64.5298938  36.2585755  82.6613898  65.4968276  37.0118661
  82.5510703  63.2782118  36.7209628  82.1639915  62.5216807  36.1751331
  83.1366515  62.9634407  38.0296869  83.2535371  61.8806279  38.0738853
  84.1184281  63.4359188  38.0609700  82.3237960  63.4255012  39.2380709
  82.4776948  62.8607404  40.3363064  81.3705022  64.3431567  39.0109026
  81.3789949  64.8770908  38.1536152  80.2736569  64.5784898  39.9715054
  80.6986265  64.8585768  40.9353785  79.3462797  65.6826397  39.5127358
  79.2517708  65.5946921  38.4304084  78.3768573  65.5026201  39.9774003
  79.8178822  67.0576199  39.8612894  78.9885575  67.6284246  40.2790254
  80.6182931  66.9885961  40.5979577  80.3360900  67.7560404  38.6144039
  81.4252965  67.7159524  38.6254059  79.9621871  67.2221653  37.7407487
  79.8817010  69.2111325  38.5537193  80.4594598  69.7111030  37.7763359
  78.8255269  69.2220596  38.2845058  80.0721354  69.9268538  39.8548107
  81.0508045  69.9172166  40.1042370  79.7575531  70.8821831  39.7627022
  79.5365145  69.4639809  40.5751981  79.4049380  63.3791960  40.1477659
  79.1733477  62.6163935  39.2183391  78.7380507  63.3646248  41.2806357
  79.0566700  63.9209276  42.0610896  77.5738110  62.4979041  41.4752690
  77.6544891  61.6284524  40.8228550  77.4850172  62.0104510  42.9388164
  77.2154760  62.8591059  43.5674917  76.4648140  60.9249284  43.1013065
  76.7339493  60.0756924  42.4732427  76.4324393  60.6091609  44.1440634
  75.4849198  61.2992190  42.8049715  78.7757195  61.4947574  43.3365370
  78.7318103  61.1887724  44.2454075  76.2957338  63.2018661  41.0707964
  75.9230176  64.2187188  41.6328090  75.6125517  62.5971247  40.1293049
  75.8752041  61.6641772  39.8451889  74.5410773  63.2317971  39.4474819
  74.3518199  64.2486478  39.7914230  74.8650685  63.2517744  37.9768917
  75.9318564  63.4360241  37.8499431  74.4989740  61.9129928  37.3331810
  73.4321752  61.7282550  37.4593275  74.7388672  61.9426322  36.2703200
  75.0646846  61.1129249  37.8106348  74.1579056  64.4170252  37.3016819
  73.0841659  64.2829175  37.4328274  74.4719043  65.3359612  37.7967182
  74.4792749  64.5052004  35.8209345  74.1651183  63.5867436  35.3251094
  73.9509714  65.3524840  35.3837787  75.5528578  64.6397850  35.6890002
  73.1547657  62.5464658  39.6865786  72.1082067  63.1100232  39.3130880
  73.1622673  61.3431239  40.2993379  74.0619861  60.9159289  40.4669980
  71.9406884  60.6117672  40.7371373  71.2836196  61.2749517  41.2997616
  71.1841443  60.0854890  39.5373427  71.8261481  59.4126035  38.9688743
  70.2993367  59.5449620  39.8735664  70.8811020  60.9191908  38.9039345
  72.3141832  59.4234784  41.6386585  73.4280961  58.9190993  41.6037921
  71.3545479  58.9194526  42.3946281  70.5434180  59.4628972  42.6531537
  71.5277689  57.5985190  43.0025631  72.1892432  57.0261911  42.3521850
  72.1181687  57.6503982  44.4098537  71.6054757  56.9379902  45.0561672
  73.5847985  57.2900892  44.3264016  74.0982811  58.0023763  43.6805816
  74.0245322  57.3217177  45.3232640  73.6899997  56.2861517  43.9151333
  71.9854570  59.0326513  45.0102910  72.7879465  59.1572503  45.7373305
  72.1091352  59.7574357  44.2056230  70.6753297  59.2515998  45.6766978
  70.5511286  58.5274309  46.4818397  70.6402398  60.2605718  46.0876034
  69.8723168  59.1276140  44.9501321  70.2832087  56.7558028  43.0014379
  69.1646450  57.2653901  43.1280988  70.4919038  55.4546209  42.8304175
  71.3590163  55.0452799  43.1476795  69.5025756  54.5799650  42.1924615
  68.5078122  54.9893776  42.3683198  69.6991010  54.5518973  41.1206922
  69.5592226  53.1640684  42.7430338  70.6535962  52.5974330  42.8397477
  68.4119253  52.6475609  43.2252860  67.6136767  53.2529784  43.3532236
  68.2702669  51.2302683  43.5665212  69.2331814  50.8382471  43.8939568
  67.2405530  51.0273222  44.7047577  66.3007762  51.4180395  44.3145542
  67.1604107  49.9475156  44.8300371  67.5455780  51.6887835  46.0830489
  68.2006270  50.9940423  46.6087355  68.0925925  52.6047366  45.8596502
  66.3066685  52.0266468  46.9882051  66.5549702  51.6962980  47.9968254
  66.1966852  53.1110388  46.9783591  64.9618000  51.3616353  46.5375542
  64.8055370  51.7147098  45.5182305  65.1722798  50.2922518  46.5228447
  63.7252652  51.6169304  47.3504399  63.5298100  52.6077469  47.3638390
  62.9446525  51.1252967  46.9392949  63.8696996  51.2894474  48.2948935
  67.7867720  50.5866195  42.2644022  67.1067584  51.2496801  41.4582991
  68.2334812  49.3524312  41.9958930  68.9333925  48.9121196  42.5758492
  67.7867008  48.6515699  40.8017730  67.3576169  49.3330713  40.0672377
  68.8550490  47.7750786  40.0995151  69.0446403  48.2167442  39.1212074
  70.1591510  47.6678720  40.8668096  69.9704215  47.2258353  41.8451172
  70.8564988  47.0392469  40.3130616  70.5889705  48.6613897  40.9944005
  68.3091514  46.3964752  39.7644191  67.4522074  46.4965169  39.0982805
  69.0839063  45.8079217  39.2730341  67.9993511  45.8950708  40.6813260
  66.5968434  47.8310180  41.1764540  66.4963747  47.2877134  42.2917410
  65.6572425  47.7902916  40.2546478  65.8405585  48.1522229  39.3297153
  64.3372205  47.2622330  40.5367558  64.2133995  47.0998223  41.6074520
  63.2861785  48.2625400  40.0712285  63.4991724  48.4081032  39.0121987
  62.2845300  47.8483341  40.1862673  63.3676636  49.5978193  40.7921614
  64.4089117  49.9163701  40.8414427  62.5520692  50.6438913  40.0444462
  61.5105481  50.3262383  39.9951579  62.6160843  51.5977231  40.5680947
  62.9449047  50.7576031  39.0340749  62.9061910  49.4343538  42.2421611
  63.5467637  48.7124005  42.7486682  62.9668583  50.3949060  42.7537860
  61.8758117  49.0791644  42.2582226  64.1340313  45.9332214  39.8434426
  64.0054559  44.9202373  40.4974324  64.0792866  45.9662934  38.5074395
  64.1431828  46.8597779  38.0408540  63.9102046  44.7633990  37.6857941
  63.6844239  43.9149843  38.3317933  62.7589983  44.9291288  36.6676710
  62.1388715  45.7549151  37.0164101  63.2116472  45.1937164  35.7120547
  61.8874724  43.6718590  36.4918180  62.5521207  42.8085177  36.4604307
  61.2346676  43.5957452  37.3613896  61.0347005  43.7085418  35.2127760
  60.7877058  44.7492018  35.0027303  61.6347593  43.3062085  34.3965916
  59.7449759  42.8953851  35.3462665  59.2739676  42.8230487  34.3659506
  59.9965266  41.8964353  35.7025257  58.8035572  43.5404557  36.3024128
  58.5700007  44.4659547  35.9722572  57.9624080  42.9858031  36.3726171
  59.2396528  43.6071928  37.2109643  65.2090678  44.5049845  36.9557905
  66.2471685  45.0848302  37.2755167  65.1627482  43.5930525  36.0052877
  64.3500340  42.9993375  35.9210420  66.2515646  43.3963555  35.0812060
  66.8406916  44.3094325  34.9956549  67.1773845  42.2527273  35.5916383
  66.5671395  41.3830965  35.3478298  68.0588189  42.2686713  34.9506084
  67.6235625  42.1730931  37.0896225  67.5434517  43.1799738  37.4993472
  66.7911631  41.1975568  37.9538274  66.8711624  40.1903186  37.5449631
  67.1682314  41.2050030  38.9765027  65.7465393  41.5087593  37.9500209
  69.1014565  41.8026646  37.1536855  69.6894249  42.5612438  36.6370133
  69.4174965  41.7458330  38.1953141  69.2553119  40.8357677  36.6745843
  65.5856833  43.0476410  33.7391250  64.7473423  42.1732683  33.6714503
  65.8717576  43.7973991  32.6958138  66.6198781  44.4750750  32.7300244
  65.0240816  43.7642624  31.5126742  64.1300200  43.1570255  31.6541535
  64.5939963  45.1997361  31.1733044  65.4942795  45.7955204  31.0228706
  63.7278547  45.2636893  29.9211244  62.8270982  44.6684736  30.0709811
  63.4499126  46.2989542  29.7234498  64.2861434  44.8694469  29.0720141
  63.8469660  45.7751944  32.3642534  64.5009697  45.7800343  33.2362383
  63.5343532  46.7949354  32.1395287  62.9687839  45.1641158  32.5727719
  65.7503411  43.0207536  30.3735869  67.0029369  43.0687224  30.3042993
  64.9766103  42.2872683  29.5093155  64.4168902  42.8349613  28.2515879
  64.8181124  43.8348725  28.0863656  63.3315031  42.8889237  28.3359800
  64.8708255  41.8346964  27.1829696  65.4584934  42.3661440  26.4344317
  63.9882013  41.4024984  26.7115030  65.6875269  40.7723754  27.8708205
  66.7578960  40.9688194  27.8090231  65.4771332  39.7800898  27.4718175
  65.2235171  40.8584643  29.3359572  64.2673376  40.3550871  29.4788923
  66.2552067  40.2661482  30.2864493  65.8754284  39.7358918  31.3268302
  67.4565288  40.3856460  30.0562573  47.5559222  40.1178529  66.6835237
  48.3361886  39.4775728  66.6470983  47.0889835  40.1118233  65.7879611
  47.0307170  39.9418219  67.5280781  48.0975093  41.5008948  66.8367771
  47.7807178  42.1205796  65.9978891  47.5718041  42.1348341  68.1456717
  47.6205819  41.4078454  68.9563550  48.2115713  42.9851326  68.3818715
  46.1088719  42.6358472  68.0162724  45.8459826  43.6964030  67.4376641
  45.1583326  41.8569182  68.5302781  44.1906738  42.1401093  68.4707882
  45.4096455  40.9867091  68.9771323  49.6318422  41.5440106  66.7131789
  50.2596978  40.5351757  66.3171439  50.1905543  42.7526879  66.8493806
  49.6187422  43.5057620  67.2043593  51.5697822  43.0621437  66.4230905
  52.1358987  42.1369598  66.3151735  51.5731121  43.8106731  65.0554290
  52.3465677  43.3096792  64.4733029  50.6272047  43.7669968  64.5155664
  51.9670570  45.2850314  65.1284137  51.3049163  46.1659908  65.9772371
  50.5060561  45.7900273  66.6164347  51.6513956  47.5119642  66.0164385
  51.1650183  48.1745454  66.7323464  52.6088431  48.0111248  65.1519676
  52.8582764  49.0721326  65.1640198  53.2503843  47.1598242  64.2705249
  54.0161114  47.5447781  63.5970468  52.9167223  45.8108829  64.2448108
  53.3970334  45.1442088  63.5286078  52.2901218  43.8674213  67.5219812
  51.6348008  44.3774201  68.4402501  53.6261835  43.9091336  67.4590422
  54.1074703  43.5069973  66.6673676  54.4307915  44.4380748  68.5676296
  53.9678565  44.1502193  69.5115203  55.8569973  43.9064102  68.5432380
  55.7871507  42.8241522  68.4339748  56.3838831  44.3244148  67.6854714
  56.6201231  44.2395106  69.8192756  56.0180699  44.1716170  70.9215798
  57.8108782  44.5987594  69.7186596  54.4365879  45.9745909  68.6006126
  55.0993005  46.6437862  67.7906622  53.7095255  46.5180745  69.5732959
  53.2512901  45.9233178  70.2488581  53.4612560  47.9817773  69.6401873
  53.2066067  48.3796670  68.6578753  52.3161304  48.3448285  70.6377780
  51.6262496  49.0169022  70.1274040  51.5485475  47.1001491  71.1351548
  52.2377309  46.4277772  71.6460774  50.7636831  47.4086112  71.8257620
  51.1017885  46.5844582  70.2851138  52.8495322  49.0631037  71.7577125
  52.1391622  49.2819716  72.3652251  54.6929660  48.8462161  69.9833491
  54.6442741  50.0662739  69.8824432  55.7882464  48.2072748  70.3963430
  55.7574420  47.2085185  70.5434352  57.0451975  48.9185808  70.6910153
  56.8265721  49.9073994  71.0941779  57.8669564  48.1387437  71.7244892
  58.9013084  48.4791882  71.6763980  57.4636645  48.3425394  72.7164181
  57.8163289  46.7439657  71.4712461  58.3374146  46.2799183  72.1305863
  57.9035966  49.1446727  69.4338143  58.8009104  49.9801798  69.4414167
  57.5682049  48.4237852  68.3672110  56.8088672  47.7613107  68.4352785
  58.3471656  48.4648195  67.1223891  59.3817080  48.3165956  67.4319871
  57.9433704  47.3079135  66.1758766  58.0318163  46.3583071  66.7036307
  56.9125829  47.4472885  65.8500670  58.8639003  47.3010398  64.9600634
  58.7756522  48.2502168  64.4315028  60.3060886  47.1054056  65.4155269
  60.3952273  46.1561538  65.9438015  60.9644925  47.1004181  64.5468611
  60.5908220  47.9196160  66.0819267  58.4661922  46.1615774  64.0278195
  57.4354056  46.3009545  63.7020093  59.1238668  46.1562131  63.1586034
  58.5546360  45.2119707  64.5555731  58.2787989  49.8311403  66.3845366
  59.3048583  50.3476595  65.9128851  57.0749701  50.4134741  66.2745886
  55.7519951  49.8838888  66.6319757  55.5228197  50.1389152  67.6666450
  55.7479327  48.8000847  66.5159970  54.8407816  50.5675142  65.6543335
  53.8498122  50.6785279  66.0945090  54.7688457  49.9722284  64.7440800
  55.4632085  51.8905817  65.3760617  55.1551936  52.5911813  66.1521970
  55.2084109  52.2979522  64.3976818  56.9719929  51.6473437  65.4636691
  57.4359250  51.4556302  64.4961407  57.6591673  52.8400712  66.1303762
  58.1864081  53.6907000  65.4331124  57.6685338  52.8864367  67.4642576
  57.2173687  52.1488361  67.9862680  58.2619093  53.9950162  68.2049235
  58.0079423  54.9494418  67.7437600  57.7474062  53.9984029  69.6632938
  56.6580116  54.0293239  69.6442262  58.2108654  52.7490947  70.4297111
  59.3002323  52.7177290  70.4496020  57.8302747  52.7863928  71.4504259
  57.8311899  51.8560357  69.9333316  58.2209468  55.1635522  70.3378125
  57.8997424  55.1623109  71.2424818  59.8115055  53.9818622  68.2248200
  60.4523277  54.9984630  68.5315899  60.3907227  52.8275091  67.9086772
  59.8106439  52.0097602  67.7866338  61.8466402  52.6635495  67.8415395
  62.3318205  53.4361977  68.4379573  62.2627844  51.2880490  68.3872267
  63.2735413  51.0720394  68.0410914  62.2540683  51.3329683  69.4762658
  61.3885932  50.2686499  67.9515845  61.6765471  49.4256490  68.3093998
  62.4202581  52.8933579  66.4345059  63.6221648  52.7230169  66.2220315
  61.5554108  53.2402646  65.4780228  60.5722557  53.1318905  65.6823763
  61.9435652  53.6677527  64.1248040  61.0852663  53.5967867  63.4566828
  62.4280194  55.0923385  64.1355972  63.2641481  55.1549816  64.8320625
  62.7473744  55.4399573  63.1531138  61.4060032  56.0521223  64.6130781
  60.6621097  56.8254781  63.7543410  60.7499832  56.8170631  62.7482062
  59.8268289  57.5692916  64.4534064  59.1587838  58.2706457  63.9534893
  59.9852155  57.2862703  65.7331183  60.9583103  56.3291295  65.8584150
  61.2243096  55.9481733  66.8444261  62.9637244  52.7880143  63.4559119
  63.9693462  53.2643635  62.9066867  62.6749833  51.4907436  63.4627903
  61.8067321  51.1674702  63.8649515  63.6228595  50.4970843  62.9755771
  64.5874467  50.6582477  63.4569263  63.1632228  49.0484527  63.2625101
  63.2383309  48.4669418  62.3436499  64.0340817  48.4064393  64.3446749
  63.9591186  48.9871737  65.2640375  63.6924580  47.3880725  64.5299353
  65.0718680  48.3861149  64.0119779  61.8022044  49.0461610  63.7020141
  61.5242964  48.1442740  63.8779894  63.8977563  50.6645508  61.4734004
  64.9424848  50.2291579  60.9882237  62.9716541  51.3115999  60.7635108
  62.1373935  51.6050382  61.2513658  63.0775270  51.6026351  59.3315599
  63.2626385  50.6880045  58.7682804  61.7603059  52.2169853  58.8482554
  61.8262665  52.2730684  57.7616997  60.9500794  51.5437722  59.1282859
  61.4846943  53.6044830  59.4120030  60.8490784  53.7744218  60.6438383
  60.5453287  52.8911982  61.2057562  60.6046376  55.0296961  61.1505739
  60.1249802  55.1512662  62.1217852  60.9603096  56.1412232  60.4121125
  60.7162091  57.4028300  60.8922627  60.2928476  57.4008609  61.7538664
  61.5763857  56.0061855  59.1897697  61.8537381  56.8868725  58.6104885
  61.8426917  54.7460497  58.6984055  62.3414603  54.6304754  57.7361308
  64.2203900  52.5718454  58.9689299  64.4367466  52.8706338  57.7864649
  64.9107405  53.0840693  59.9836411  64.7011978  52.7801341  60.9237552
  65.9337151  54.0737601  59.8006922  65.7617366  54.6449801  58.8884257
  65.8970001  55.0216766  60.9785985  65.3700922  54.4761278  61.7614419
  66.9278849  55.1944351  61.2876794  65.2135233  56.3480211  60.7422073
  64.1437293  56.1968579  60.5980155  65.4424701  57.2335254  61.9695457
  66.5120926  57.3855284  62.1141194  64.9561716  58.1972968  61.8186838
  65.0224148  56.7492283  62.8510842  65.7418852  57.0414714  59.4856165
  65.5655135  56.4058713  58.6178580  65.2256196  57.9918527  59.3501670
  66.8116209  57.2216137  59.5919802  67.3078427  53.4370334  59.6925697
  68.2802395  54.0735921  59.3551228  67.3933440  52.1825837  60.0619589
  66.5711909  51.6403383  60.2858643  68.6831777  51.5412534  60.1576386
  68.7385654  50.7914791  59.3684176  69.4441650  52.3030637  59.9883967
  68.9413353  50.8773567  61.4824910  68.3717574  51.1988570  62.5102379
  69.8339670  49.8998920  61.4615767  70.5437563  49.8551439  60.7444323
  69.7799527  48.8368183  62.4396231  68.7456522  48.5047675  62.5294225
  70.6308806  47.6608487  61.9486688  71.6709641  47.9753270  61.8624727
  70.5584648  46.8376172  62.6594051  70.2693719  47.3319012  60.9743977
  70.2504105  49.2702882  63.8239909  69.5856661  49.0537959  64.8449978
  71.4338406  49.8697386  63.8465841  72.0136242  49.8563177  63.0196801
  71.9517165  50.5107543  65.0382676  71.1591150  50.5639503  65.7846270
  73.1076055  49.6500853  65.6045239  72.7423394  48.6456102  65.8183224
  73.9128805  49.5950453  64.8719921  73.6322055  50.2849738  66.8903857
  73.0929679  49.9265651  67.9712962  74.5671736  51.1223092  66.7794624
  72.4517369  51.9567977  64.7771890  73.1093438  52.2375005  63.7790962
  72.0859980  52.8608549  65.6795800  71.4173865  52.6199728  66.3972386
  72.6729848  54.1580431  65.7116311  73.3377303  54.2885843  64.8577156
  71.5872773  55.2221144  65.6497081  71.3643724  55.5153758  66.6755786
  72.0013095  56.0741915  65.1105959  70.3126155  54.7630956  64.9670249
  70.5802935  54.0013254  64.2347985  69.6649693  54.3247993  65.7263356
  69.4312089  56.1013918  64.1358842  68.1837833  55.0573647  63.3803693
  67.6271797  54.5345069  64.1581296  67.4996810  55.6726123  62.7959251
  68.6653157  54.3295851  62.7272501  73.3637938  54.2866589  67.0455767
  72.9603071  53.6477990  68.0009565  74.3897749  55.1227259  67.1242453
  74.7728049  55.5236606  66.2800660  75.0190822  55.4738400  68.4150858
  75.3678261  54.5742782  68.9222992  76.2255448  56.4277107  68.2119606
  76.9799837  55.9346943  67.5988897  75.8904099  57.3371505  67.7132583
  76.8201095  56.7801491  69.5544881  76.0663411  57.2736511  70.1679942
  77.1559169  55.8711963  70.0536248  78.0076350  57.7190508  69.3545518
  77.7694195  58.9563233  69.3511617  79.1416581  57.1900372  69.2071193
  73.9782111  56.1421164  69.3148519  73.2716334  57.0386706  68.9129383
  73.8906652  55.6847859  70.5617082  74.4946933  54.9326116  70.8608455
  72.8506780  56.1520546  71.4866172  72.1594059  56.8063158  70.9554068
  72.0581382  54.9720795  72.0728112  72.6850738  54.5186369  72.8405617
  71.1631584  55.3889084  72.5347257  71.6511615  53.8971494  71.0392595
  70.7130415  53.4543210  71.3738260  71.4889342  54.4230249  70.0983894
  72.7058085  52.7778484  70.8307219  73.4907782  52.5052374  71.7752170
  72.7498381  52.1495725  69.7303616  73.4646419  57.0464697  72.5591124
  74.6408637  56.8899764  72.9647945  72.6674116  57.9915466  73.0367570
  71.7048757  58.0398761  72.7346174  73.1438616  58.9873832  73.9979301
  74.1483692  58.7289616  74.3330151  73.1858317  60.3667734  73.3521319
  72.1920513  60.4754188  72.9177404  73.3904892  61.2142924  74.0062930
  74.1476369  60.4538840  72.2341085  73.9074944  59.7530401  71.0826592
  72.9821733  59.1875986  70.9724018  74.8056615  59.7619904  70.0956249
  74.5999787  59.2384932  69.1619516  76.0075014  60.4423351  70.2613237
  76.7371521  60.4259807  69.4517298  76.2818497  61.1250697  71.4171349
  77.2095670  61.6824414  71.5466626  75.3670302  61.0953790  72.4112782
  75.5822844  61.5780462  73.3645871  72.1914846  58.9946705  75.1767002
  71.0185712  59.3404738  75.0303302  72.7199354  58.5913547  76.3443642
  73.6518010  58.2018499  76.3478056  71.9714010  58.6012502  77.5929800
  70.9667146  58.2188920  77.4126839  72.6552401  57.7100616  78.6434536
  72.7175012  56.6883533  78.2688408  73.6591326  58.0857407  78.8413559
  71.9499145  57.6391045  79.9767137  72.4409261  56.8766528  81.0301242
  73.2810574  56.3162187  81.0162413  71.6164401  57.0136390  82.0518183
  71.8182172  56.4939312  82.9884553  70.6386116  57.8140515  81.7064332
  70.8071803  58.2268587  80.4216084  70.0823172  58.9017814  79.9664666
  71.8004369  60.0687383  78.0721377  72.7024096  60.6641641  78.7019340
  70.6355317  60.6175924  77.7676182  70.0681152  60.2383927  77.0230744
  70.1373778  61.7798930  78.4927789  69.0625595  61.8175476  78.3154459
  70.3242731  61.5884262  79.5494292  70.7486170  63.1220126  78.1170040
  70.5920109  63.6039870  76.9883698  71.5678789  63.6876524  79.0042060
  72.5447314  63.7069623  78.7483044  71.1630375  64.3071710  80.3036144
  70.2474041  63.8706532  80.7025717  72.3044390  64.0068644  81.2654083
  72.1795932  64.6494466  82.1369592  72.2153512  62.9635396  81.5681239
  73.7028694  64.2461826  80.6440259  74.3255756  64.6375805  81.4484795
  74.0704850  63.2644169  80.3455349  73.7605121  65.2132069  79.4267509
  73.4182922  64.6996482  78.5282844  73.1275569  66.0810626  79.6119360
  75.1206817  65.6674714  79.2125886  75.6250784  65.2846880  78.4257213
  75.7345004  66.5580574  79.9878796  77.0175062  66.8332963  79.7822963
  77.5184963  66.3659031  79.0402366  77.4862433  67.5087197  80.3689720
  75.0682109  67.1818706  80.9697168  74.0916428  66.9751859  81.1236525
  75.5458199  67.8557053  81.5510387  70.9148372  65.8173694  80.4880309
  70.9045896  66.3025754  81.6199315  70.8277166  66.5550599  79.4047956
  70.6603851  66.1310458  78.5035123  71.0402670  68.0083110  79.4625320
  71.5611907  68.2721750  80.3829197  71.8798039  68.5335166  78.2419940
  72.8792619  68.7748849  78.6038300  71.9834395  67.4891275  77.0846953
  70.9843304  67.2475974  76.7220059  72.5742238  67.9068276  76.2694655
  72.4641708  66.5832675  77.4540402  71.2877691  69.7343028  77.7221024
  71.8050311  70.0496121  76.9773740  69.6990830  68.7402149  79.5309301
  68.9650569  68.7636374  78.5366470  69.3608202  69.2999573  80.7079453
  69.7788811  68.9594077  81.5619655  68.2892841  70.3009967  80.8076025
  67.9479505  70.5655774  79.8068090  67.0827523  69.7591401  81.6151955
  67.5820042  69.2296883  82.4266926  66.4748227  70.5645310  82.0273448
  66.1660828  68.7638254  80.8297397  66.0630354  69.1269539  79.8071842
  66.7512807  67.3411747  80.8118076  66.8541964  66.9771670  81.8340627
  66.0850740  66.6806730  80.2568239  67.7297886  67.3562703  80.3318131
  64.6928919  68.7366110  81.3014799  64.2551827  69.7280505  81.1850412
  64.1320197  68.0196858  80.7018618  64.6520805  68.4428967  82.3503675
  68.8274017  71.6070906  81.3529336  69.6797574  71.6082396  82.2102191
  68.3610251  72.7288328  80.7801639  67.5708686  72.6402595  80.1573423
  68.8224859  74.0665882  81.1240844  69.8497789  73.9971220  81.4817752
  68.7802754  75.0534573  79.9216932  67.8288523  75.4486784  79.5657528
  69.3511126  75.8527196  80.3943714  69.5503283  74.6367547  78.7102121
  70.8871365  74.2964265  78.7607566  71.4294345  74.2132223  79.6087481
  71.3331272  74.1001005  77.5287852  72.3536118  73.7581728  77.3561710
  70.3584792  74.3856201  76.6812307  69.2467187  74.7714786  77.3944843
  68.3509001  75.1037489  76.8698828  67.8073473  74.6732599  82.0830427
  66.5874980  74.5803176  81.8447689  68.3017223  75.2965554  83.1346415
  69.2986177  75.4007066  83.2589449  67.4168514  75.7234912  84.2236394
  66.6649088  74.9540396  84.3986413  68.2013097  75.9552891  85.5358536
  69.2277288  76.1690353  85.2377334  67.7881649  76.8179959  86.0584896
  68.1827677  74.7212726  86.4790532  67.1672223  74.5038780  87.1875927
  69.2039729  74.0054215  86.5314272  66.5618884  76.9572434  83.8281503
  66.9127082  77.7198431  82.9008181  65.4259958  77.1009381  84.5051924
  65.2721576  76.5944809  85.3653867  64.3150598  77.8503392  83.9376458
  64.2017255  77.6135766  82.8797242  63.0287007  77.4801573  84.6589118
  62.8560134  78.1445928  85.5055545  62.2390082  77.6202816  83.9207715
  63.0236430  76.0156562  85.1453971  64.1163501  75.4861500  85.4721450
  61.9268806  75.4238031  85.2635802  64.5819145  79.3749449  83.8827387
  65.3750224  79.9677703  84.6532321  63.9392700  79.9842313  82.9062864
  63.4875968  79.3733478  82.2407701  63.9981503  81.4395698  82.6011521
  63.3514747  81.6474689  81.7486922  63.5363513  82.3134685  83.7992067
  64.0347481  82.0085529  84.7193840  63.8553394  83.3204745  83.5303471
  61.9643905  82.2977934  84.0190969  61.2638671  81.5762962  83.2850406
  61.4466194  82.9456611  84.9822342  65.3348412  81.8975111  82.0129988
  65.4758279  83.0565728  81.6304078  66.2738049  80.9537534  81.8512258
  66.0743702  80.0108859  82.1534275  67.5980240  81.2433050  81.3240999
  68.0653124  82.0364609  81.9077474  68.4888798  79.9848567  81.3997831
  69.4968429  80.2680096  81.0965771  68.5034583  79.6453116  82.4354455
  68.0253893  78.9463958  80.5729127  68.6090702  78.1884877  80.6534843
  67.5591517  81.7793680  79.8754998  66.5244714  81.7200085  79.1824528
  68.6829895  82.3812572  79.4484167  69.3939136  82.6561416  80.1110816
  68.8428127  82.7820686  78.0603811  67.9389790  82.5119724  77.5142750
  69.0790991  84.2716150  77.8999495  69.7998243  84.6578131  78.6207168
  69.3976245  84.5353633  76.8914465  67.5443855  85.1761614  78.1928467
  68.0554018  86.3869066  77.9882573  69.9097619  81.9633172  77.3926218
  71.0799702  82.0113891  77.7573172  69.4775555  81.2007417  76.3960972
  68.5063117  81.2585100  76.1250846  70.3377260  80.2789136  75.6793605
  71.3514355  80.3201818  76.0778440  69.8096450  78.8624511  75.8406014
  68.9416802  78.7794356  75.1865029  70.5963361  78.1966211  75.4857950
  69.4199031  78.4759066  77.2425962  68.8194602  79.1907387  77.8052544
  68.8407347  77.5677640  77.0754344  70.6219819  78.1314087  78.0437309
  70.7883710  76.9938849  78.4813510  71.5539279  79.0433654  78.0849944
  72.3987092  78.8742552  78.6121070  71.4262996  79.9142443  77.5896337
  70.3753217  80.6425302  74.1875416  69.4307635  81.2089199  73.6327728
  71.4491156  80.2342352  73.5438376  72.3106306  80.0891236  74.0506252
  71.4940256  80.2247437  72.0983525  70.5614238  80.5280957  71.6226103
  72.6232657  81.1183854  71.5760422  73.2114697  81.4470008  72.4328544
  73.5336474  80.4015418  70.5779157  72.9461970  80.0730155  69.7205516
  74.3146008  81.0840074  70.2425755  73.9899156  79.5359634  71.0582229
  72.0148687  82.4062423  70.9982542  71.4629214  82.9299283  71.7787727
  72.8116516  83.0489220  70.6238221  71.3379737  82.1544528  70.1818499
  71.4469284  78.7809852  71.5952746  72.2349162  77.9254036  72.0078014
  70.4365940  78.4868059  70.8040648  69.7065294  79.1654441  70.6411068
  70.3124859  77.1627160  70.1722166  71.1821198  76.5526861  70.4165516
  69.0681792  76.4972419  70.7004591  68.2022635  76.9422724  70.2103180
  69.0859245  75.0066290  70.4370749  69.9513664  74.5607949  70.9273227
  68.1743619  74.5567525  70.8304773  69.1448421  74.8275123  69.3635084
  68.9709861  76.7155762  72.2003609  69.8294575  76.2265218  72.6607450
  69.0249449  77.7891229  72.3811518  67.6894188  76.1639143  72.8048493
  67.6349745  75.0902586  72.6248517  67.6828418  76.3526129  73.8783710
  66.8304614  76.6528585  72.3452565  70.2559047  77.2567903  68.6345868
  69.5908480  78.1122707  68.0960205  71.0249719  76.4036086  67.9259636
  71.8249143  75.3009495  68.4913360  71.3752356  74.9467070  69.4189143
  72.8433597  75.6365497  68.6868881  71.7601053  74.2865933  67.3992937
  70.8531683  73.6875733  67.4813868  72.6311466  73.6319498  67.4281049
  71.7562761  75.1143492  66.1562593  71.3527549  74.5270163  65.3314504
  72.7334218  75.5084591  65.8770400  70.8258976  76.2400409  66.4819570
  71.0422724  77.2015647  66.0163904  69.4322121  75.7971395  66.0978045
  68.8613339  75.0048833  66.7984459  68.8991318  76.2969204  64.9994374
  69.4113630  76.9922315  64.4757380  67.6320371  75.7968625  64.4419242
  67.1726136  75.0357724  65.0726153  66.6242907  76.9561693  64.2520589
  67.0407546  77.6792548  63.5507711  65.3002599  76.4232463  63.7072411
  64.8829293  75.7003945  64.4082556  64.6008850  77.2493323  63.5785655
  65.4709418  75.9392347  62.7456268  66.3907675  77.7316116  65.5467906
  67.3338201  78.1550010  65.8924714  65.6769304  78.5352369  65.3658967
  65.9946400  77.0588544  66.3074361  67.8597916  75.2813709  63.0847958
  68.2221635  76.1007062  62.2407500  67.5663207  73.9884894  62.8274010
  67.2284812  73.3581477  63.5405862  67.7237848  73.4615917  61.4248288
  68.6829744  73.8229196  61.0540236  67.6826124  71.9361197  61.2724156
  66.6614755  71.7996280  60.9163979  68.3801812  71.7363421  60.4590357
  67.9522350  70.9740574  62.4187409  67.3458416  71.2799497  63.2712770
  67.6126574  69.5285647  62.0436091  68.2190313  69.2217855  61.1913790
  67.8199846  68.8745515  62.8905937  66.5569272  69.4591055  61.7814842
  69.3977339  71.0439025  62.8675255  69.6260220  72.0554835  63.2032156
  69.5581871  70.3444803  63.6879916  70.0503481  70.7820616  62.0346792
  66.6616590  73.9150843  60.4862812  65.5045170  73.7757029  60.7812796
  67.0572889  74.2746263  59.3123065  68.2614370  73.6857483  58.7320893
  68.0892472  72.6353959  58.4971195  69.0937330  73.7694812  59.4309249
  68.4616280  74.5401590  57.4840224  68.6172240  73.8855231  56.6265022
  69.3393234  75.1714885  57.6224969  67.1931647  75.3928190  57.3165929
  66.8228361  75.2672118  56.2991557  67.3374198  76.4535590  57.5218260
  66.1986200  74.8035259  58.3052530  65.5505131  75.5470012  58.7692575
  65.3187748  73.6921069  57.6291167  65.6579702  72.4494419  57.5738350
  64.1585950  74.0974565  57.2043762  63.8837025  75.0686803  57.2398408
  63.2494539  73.1335588  56.5396072  62.5792993  73.6898257  55.8841996
  63.9907485  72.0716823  55.7004614  64.3950106  71.3855689  56.4447193
  63.1953066  71.5758736  55.1440929  65.0857347  72.4842024  54.7507992
  64.8411561  73.4325294  54.2723034  66.0050368  72.5944931  55.3259702
  65.3129110  71.4307287  53.6619782  66.4309894  70.9352818  53.4685278
  64.2316829  71.0586530  52.9641505  64.3195322  70.3673135  52.2331008
  63.3335499  71.4711533  53.1722421  62.4993936  72.2801588  57.5111806
  61.6566426  71.4937362  57.0573332  62.8585207  72.2505104  58.7890408
  63.6434883  72.7548634  59.1757619  62.0768560  71.4242502  59.6710955
  61.6774628  70.5840631  59.1030550  62.8736768  70.8722776  60.8750182
  62.9667587  71.6498755  61.6331585  62.1526231  69.6779833  61.4633807
  62.0595645  68.8997289  60.7059104  62.7185822  69.2928854  62.3116085
  61.1598865  69.9803264  61.7967939  64.2647963  70.4589521  60.4432769
  64.7908824  71.3222929  60.0358727  64.8127195  70.0725430  61.3026765
  64.1936889  69.6840418  59.6800215  60.9759969  72.3010162  60.1353913
  61.2389478  73.3501345  60.6765130  59.7497377  71.9411276  59.8416508
  59.5632756  71.1004158  59.3138867  58.6306133  72.7468989  60.2612685
  58.9810348  73.4788800  60.9889413  57.9589812  73.5014171  59.0827433
  58.4946741  73.2229052  58.1752394  56.9297186  73.1482928  59.0193258
  57.9670828  75.0222445  59.2321976  56.9186286  75.3171411  59.1888315
  58.3547350  75.2067725  60.2340844  58.9203977  76.0128927  58.0270102
  60.4590432  75.1133440  57.7749243  60.2395966  74.1185707  57.3871510
  61.0824611  75.6516573  57.0610128  60.9881099  75.0243164  58.7237466
  57.6470331  71.8399042  60.8832578  57.0982876  71.0020874  60.2333099
  57.4763262  71.9741073  62.1850898  57.9213830  72.7443842  62.6633127
  56.6748967  71.0734043  62.9513619  55.6820458  71.0144032  62.5054189
  57.2815419  69.6503859  62.9977872  56.5782460  68.9981872  62.4799928
  58.2153671  69.6947140  62.4373360  57.5548630  69.0942046  64.4058529
  58.5164977  69.4863230  64.7369159  56.7676855  69.4591023  65.0656281
  57.5953621  67.2833063  64.4713541  56.3306240  66.9859818  65.6896113
  55.3832518  67.3943110  65.3376850  56.2257463  65.9130821  65.8508176
  56.6077533  67.4683321  66.6269687  56.6642406  71.7056718  64.3253922
  57.6159028  72.4281906  64.6903710  55.5639157  71.5797851  65.0463303
  54.7251006  71.1411183  64.6941089  55.5142256  72.2042214  66.3356198
  56.3748148  72.8692496  66.4078894  54.2386062  73.0065353  66.5171317
  53.3747641  72.3420108  66.5002678  54.3027588  73.7057657  67.8353981
  55.1661461  74.3708661  67.8528479  53.3932063  74.2880081  67.9830760
  54.3958092  72.9694320  68.6336796  54.1235813  74.0770144  65.3896567
  53.5577987  74.9057382  65.8153416  55.1415013  74.4038608  65.1772659
  53.4486683  73.6120385  64.0802519  52.4304848  73.2854554  64.2917836
  53.4244267  74.4385200  63.3700125  54.0141866  72.7835760  63.6537090
  55.7209322  71.0925032  67.3088392  54.9406058  70.1400670  67.3209227
  56.8414709  71.1158981  68.0098781  57.3748494  71.9675453  68.1113860
  57.3508877  69.9010740  68.6390776  56.8803010  69.0174797  68.2079066
  58.8448233  69.8199715  68.3988610  58.8819701  70.1452417  67.3591886
  59.3323542  70.5635825  69.0293023  59.5660847  68.4834763  68.5391310
  60.0255778  68.2088650  67.5896282  60.6513485  68.6211205  69.6098642
  60.1925400  68.8952837  70.5598263  61.1755899  67.6719174  69.7207029
  61.3597952  69.3943129  69.3125813  58.6349152  67.2892177  68.8133639
  57.9258139  67.1846597  67.9921804  59.2272429  66.3782636  68.8994561
  58.0912495  67.4576930  69.7429566  57.0465199  69.9324379  70.1402783
  57.1164141  71.0106929  70.7662894  56.6431645  68.8011642  70.7025427
  56.7103022  67.9229562  70.2082325  56.1436550  68.7873831  72.0642205
  56.0511106  69.8040835  72.4461302  54.8140531  68.0863173  72.1754522
  54.9262481  67.0410841  71.8873545  54.3231229  68.1660014  73.6169400
  54.2102361  69.2109977  73.9056267  53.3614166  67.6600967  73.7022749
  55.0462940  67.6839518  74.2747780  53.7898567  68.6888309  71.2103703
  53.2383723  69.4622973  71.7448940  54.3341400  69.1392425  70.3803193
  52.8137911  67.6489226  70.6727723  52.2687694  67.1983733  71.5022641
  52.1090523  68.1283388  69.9933589  53.3645379  66.8753169  70.1376911
  57.0944436  68.0186355  72.9514912  57.5802887  66.9586782  72.5682433
  57.3808514  68.5665046  74.1362309  57.2169743  69.9715738  74.4989769
  56.1603003  70.2364114  74.4615423  57.7724215  70.5955357  73.7987991
  57.7829366  70.0340058  75.9026005  57.1417661  70.6559447  76.5272535
  58.7853487  70.4610959  75.8731815  57.8188192  68.6159261  76.3946486
  56.8508376  68.3101515  76.7916529  58.5913390  68.4336680  77.1417060
  58.1229787  67.8470044  75.1478125  59.1805344  67.9128934  74.8922093
  57.7201150  66.3902506  75.2563727  56.5181763  66.0737806  75.3634618
  58.7093804  65.4998013  75.1672218  59.6561808  65.8158674  75.0130447
  58.4693211  64.0635032  75.2862362  59.3551956  63.6159477  75.7368133
  57.6153915  63.9243335  75.9492108  58.1881444  63.3799317  73.9755422
  58.3180552  62.1577644  73.8817277  57.7770928  64.1563203  72.9608721
  57.6995043  65.1541437  73.0966212  57.4698357  63.6131559  71.6469149
  56.7788218  62.7771065  71.7547131  56.8297737  64.6598768  70.7484718
  55.8714633  64.9531040  71.1771420  57.4857565  65.5289186  70.6979452
  56.6138193  64.1157975  69.3671947  57.5568910  64.1928970  68.8261102
  56.3118156  63.0699402  69.4226770  55.5760885  64.8701141  68.6212810
  54.7117371  64.2630383  67.9360418  55.6450749  66.2063898  68.7084475
  54.9672214  66.7767088  68.2233162  56.3745751  66.6365056  69.2588393
  58.7504257  63.1786238  70.9927246  59.7658530  63.8062833  71.1710976
  58.7010235  62.1310699  70.1908797  57.8964792  61.5219698  70.1483942
  59.8710293  61.7495716  69.4862560  60.7390743  62.2472387  69.9186036
  60.1004735  60.2595401  69.5257715  59.6022889  59.8470863  70.4031507
  59.5359707  59.5914226  68.2515809  60.0340388  60.0030627  67.3737539
  59.7101369  58.5163777  68.2967891  58.4650436  59.7829572  68.1842746
  61.5053955  60.0181895  69.6289368  61.6664747  59.0721617  69.6551147
  59.8647524  62.3189419  68.0610901  58.8301221  62.4374351  67.4377526
  61.0414905  62.7170408  67.5769272  61.8688738  62.5980998  68.1438391
  61.1886401  63.3255502  66.2525702  60.2528928  63.2162582  65.7043628
  61.5349414  64.8271216  66.3428618  60.5787764  65.2725776  66.6174828
  62.2509730  64.9782849  67.1506666  62.0665449  65.5003962  65.0472399
  62.9431951  64.9449451  64.7139841  61.0174243  65.5213981  63.9257614
  60.1406039  66.0771091  64.2581318  61.4383747  66.0021072  63.0426871
  60.7276644  64.4999037  63.6794106  62.5728530  66.9086732  65.3246891
  63.3838727  66.8670920  66.0517500  62.9380563  67.3530268  64.3987961
  61.7597385  67.5158721  65.7224994  62.3150312  62.6215334  65.4730494
  63.4728292  62.7492168  65.8345819  61.9700568  61.9468006  64.3566072
  60.6550415  61.6073083  63.8068602  60.2107825  62.4965931  63.3597508
  60.0119287  61.2444332  64.6086249  60.9670868  60.5221648  62.7722543
  60.9001998  60.9343798  61.7654256  60.2639414  59.6954347  62.8732750
  62.3337468  60.0884134  63.0839404  62.7972150  59.7451320  62.1590328
  62.4462915  59.3231611  63.8519392  62.9850903  61.3751756  63.5384740
  63.8785228  61.2049117  64.1392125  63.3262807  62.3410053  62.3632489
  62.4508969  63.1219151  61.8909303  64.5983720  62.3309583  61.9488192
  65.2718054  61.7194826  62.3877772  65.0580677  63.2295808  60.9341609
  64.2328517  63.6304985  60.3456179  65.7280733  64.3514303  61.6370280
  66.0218243  63.9768859  62.6176024  66.6027571  64.7522246  61.1247857
  64.7028173  65.4386153  61.8027085  63.7593044  64.9818453  62.1014483
  65.1331547  66.4560195  62.8594561  66.0764262  66.9135779  62.5611643
  64.3693146  67.2278720  62.9537575  65.2609957  65.9530592  63.8179904
  64.4649290  66.0653410  60.3988848  64.1024562  65.2982057  59.7146215
  63.7244591  66.8614383  60.4765688  65.4009549  66.4761277  60.0204554
  65.9799743  62.5628052  59.9097785  66.5936395  61.5232360  60.1964316
  66.0136710  63.1056336  58.6932429  65.2687725  63.7208619  58.3987607
  66.9982013  62.7033762  57.7135976  67.8816798  62.3620994  58.2531298
  66.5469391  61.6023023  56.7794002  65.4983272  61.7818684  56.5421908
  67.1428343  61.6783052  55.8698769  66.7013715  60.2084130  57.3718613
  67.7252400  60.1195792  57.7350456  66.0083760  60.0549493  58.1990905
  66.4592807  59.1240201  56.3251512  67.3121720  58.8773485  55.4599840
  65.2951034  58.5093278  56.3640967  65.0876105  57.7842478  55.6923028
  64.6152436  58.7658783  57.0655764  67.5128385  63.8941969  56.9814258
  66.7588446  64.6990305  56.3997539  68.8249209  64.0734288  57.1118889
  69.3860053  63.4015845  57.6157826  69.4655357  65.3153566  56.6583472
  68.7185767  66.0061802  56.2673047  70.1694363  65.9741150  57.8269221
  70.9611766  65.3071289  58.1680614  70.6010400  66.9335819  57.5418931
  69.1576844  66.1854219  58.9576862  68.6157226  65.2503283  59.0990305
  69.8070155  66.5892246  60.2536220  70.3488219  67.5245425  60.1131756
  69.0413669  66.7246335  61.0175248  70.5018999  65.8114262  60.5702696
  68.1553323  67.2515113  58.5388811  67.6344799  66.9273341  57.6379253
  67.4325793  67.4061566  59.3400142  68.6800957  68.1855946  58.3383550
  70.3719036  65.0739898  55.4588909  71.1007169  64.0756807  55.3799849
  70.2425749  65.9464510  54.4601029  69.7194016  66.8006091  54.5897292
  70.8689080  65.7046410  53.1528398  71.3825601  64.7432972  53.1439595
  69.7962218  65.6856697  52.1006420  69.1243441  66.5420115  52.1585933
  70.2997305  65.6843293  51.1339066  68.9466264  64.4792090  52.1359276
  68.4093670  64.0109910  53.3405065  68.6182405  64.5559032  54.2611272
  67.6296412  62.8832177  53.3730483  67.2154273  62.5174797  54.3126032
  67.3679479  62.2000431  52.1799054  66.8091803  61.2649178  52.2175807
  67.8145078  62.7032805  50.9445163  67.5486981  62.2165347  50.0061539
  68.6053645  63.8381842  50.9352180  68.9687614  64.2414968  49.9900294
  71.8767929  66.8162085  52.7890641  72.9985255  66.5319674  52.3009670
  71.5076388  68.0477323  53.1155568  70.5967424  68.2402600  53.5070924
  72.3680046  69.1692588  52.7924376  72.8480516  68.9976043  51.8290120
  71.5769641  70.4413464  52.7139458  71.2228738  71.0549971  53.5422889
  72.3779688  70.9643434  52.1914846  70.4527977  70.3287522  51.7602088
  69.2336207  69.8352256  52.1601251  68.9731511  69.6588034  53.1198806
  68.4747538  69.6341102  51.1024491  67.4386824  69.3125487  51.2085306
  69.1967889  69.8885611  50.0270464  70.4584353  70.2645551  50.4143730
  71.2277347  70.4455792  49.6637000  73.5077295  69.2548752  53.7579276
  73.3388480  69.0468791  54.9681932  74.7214605  69.4856496  53.2108360
  75.0089230  70.0047576  51.8732994  74.3059269  70.8014624  51.6300750
  74.9161447  69.2028988  51.1408284  76.4127384  70.4982042  52.0027077
  76.4116173  71.5542227  52.2727501  76.9411700  70.3656936  51.0586196
  77.0214410  69.6645835  53.0732668  77.8332760  70.2271243  53.5343209
  77.3885410  68.6864080  52.7626067  75.8876202  69.5007240  54.0564969
  75.9624581  68.5495666  54.5835616  75.7811582  70.6255962  55.0609183
  76.3509554  70.4490890  56.1465192  75.0077825  71.7083100  54.7571456
  74.6832109  71.8654649  53.8137183  74.6856822  72.7143961  55.7828727
  75.6305521  73.1957963  56.0350112  73.6518469  73.8087845  55.4322437
  72.9745232  73.8627390  56.2845469  74.2159247  74.7384908  55.3576620
  72.8777067  73.6084310  54.2061155  72.4699987  72.5991224  54.2624295
  72.0665494  74.3190740  54.0476462  73.8053530  73.6815460  53.0491140
  73.9219598  72.7370708  52.2807922  74.5699734  74.7791355  52.9711985
  75.2203502  74.8844893  52.2056842  74.4924568  75.4961074  53.6783363
  74.1941708  72.0734380  57.0548456  74.8461566  72.2000301  58.0965625
  73.0431168  71.3867327  56.9594486  72.5333491  71.4175932  56.0880796
  72.4472378  70.6679860  58.0870529  72.2485284  71.3579959  58.9071140
  71.1211017  70.0221550  57.6564819  71.3797111  69.2147698  56.9713910
  70.6750126  69.6035728  58.5586424  70.1001359  70.9806634  56.9684096
  69.5752751  71.5056173  57.7665608  70.6892256  71.6935362  56.3914477
  69.0586265  70.2838900  56.0294868  69.1820183  69.0631393  55.6987662
  68.0954852  70.9836256  55.6231483  73.4370589  69.6312793  58.6518327
  73.6998349  69.6184881  59.8398302  73.9990460  68.8122898  57.7693194
  73.8111709  68.9746216  56.7903145  74.8723942  67.7043337  58.1302352
  74.4266318  66.9201647  58.7421780  75.3239753  67.0980084  56.8223804
  75.5580922  67.9094785  56.1333196  76.5464881  66.2142867  56.9972074
  76.3129874  65.4022635  57.6858268  76.8365240  65.7993139  56.0319214
  77.3686973  66.8060640  57.3995423  74.1677870  66.3577165  56.2020309
  73.3463141  67.0511511  56.0219396  74.4835887  65.9160577  55.2568820
  73.8357437  65.5695658  56.8778019  76.1112863  68.1405744  58.9442907
  76.6300138  67.3853209  59.7990789  76.5626105  69.3721678  58.7036533
  76.1753553  69.9101802  57.9416327  77.6143740  69.9839707  59.5227893
  78.4605501  69.3035299  59.6181075  78.1073571  71.3008492  58.8482764
  78.3811560  71.0554224  57.8221677  77.2673642  71.9954629  58.8434052
  79.2279361  71.9095918  59.5100717  79.4776591  72.7111829  59.0445720
  77.1180667  70.3235736  60.8989062  77.7330080  69.9397059  61.9271171
  76.0127714  71.0544059  60.9294444  75.6112706  71.3279891  60.0439791
  75.4319310  71.5641427  62.1160816  76.0600012  72.3023317  62.6147839
  74.1471104  72.2603801  61.6274195  74.2500390  73.3036006  61.9260762
  74.1737348  72.1899737  60.5400217  72.8399635  71.7229004  62.1312176
  72.0637952  71.8996624  61.3866245  72.9331271  70.6518665  62.3109642
  72.3860323  72.5399503  63.6610963  73.8033024  73.6317885  64.0168264
  73.9328803  74.3385138  63.1971631  73.6183166  74.1785256  64.9414666
  74.7068178  73.0316887  64.1247213  75.2310838  70.4628893  63.1945690
  75.4752082  70.6796344  64.3604935  74.8161320  69.2871467  62.7598756
  74.7706107  69.1769391  61.7569392  74.5429139  68.1431454  63.5835120
  73.9262204  68.3377579  64.4609596  73.8299410  67.1101970  62.7028910
  74.4259134  66.9388126  61.8064852  73.6516814  65.7939276  63.4541356
  73.0553749  65.9644369  64.3504871  73.1438173  65.0743600  62.8119541
  74.6283454  65.4014617  63.7373308  72.5092292  67.6570109  62.1976625
  72.6891459  68.5567958  61.6093437  72.0197421  66.9082030  61.5749356
  71.8679185  67.8997303  63.0449575  75.8192159  67.4329585  64.0459854
  76.0087794  67.1491818  65.2447441  76.6842838  67.1366245  63.0740175
  76.4345285  67.3286208  62.1144034  77.9372308  66.4332575  63.3359765
  77.7126883  65.4294464  63.6965913  78.8170678  66.3175562  62.0627483
  78.1537749  66.4959449  61.2163919  79.5504675  67.1215384  62.1246965
  79.5531113  64.9570539  61.8679853  80.4645539  64.9879569  62.4649931
  78.8982625  64.1719351  62.2459582  79.9130860  64.6620002  60.3930817
  79.6475874  65.5367403  59.7994157  80.9889320  64.4968952  60.3348133
  79.2211861  63.4807048  59.8322140  78.6701170  62.9238089  60.4696221
  79.2704796  63.1164776  58.5430985  79.9708925  63.8345250  57.6595807
  80.4679901  64.6591741  57.9644541  79.9998165  63.5491440  56.6911692
  78.6284370  62.0212320  58.1307659  78.1048414  61.4670317  58.7931932
  78.6691750  61.7517336  57.1582384  78.6816238  67.1084799  64.4986097
  79.1779210  66.4159855  65.4143255  78.7022025  68.4398467  64.4890105
  78.3570320  68.9366520  63.6802205  79.2775020  69.2159282  65.5852595
  80.1726232  68.7277067  65.9706126  79.6537258  70.5728195  65.0775166
  78.7345964  70.9800785  64.6562796  80.0233024  71.2406839  65.8556362
  80.7010092  70.4866883  63.9709296  80.3674869  70.2295204  62.8104820
  81.9860381  70.5932963  64.3467493  82.7178866  70.5427914  63.6525254
  82.2146769  70.7234861  65.3218778  78.3815553  69.3631512  66.8146715
  78.8619246  69.4907881  67.9316259  77.0760148  69.3637855  66.5910075
  76.7306192  69.3429198  65.6421314  76.1039019  69.4090250  67.6813689
  76.2596131  70.3191212  68.2606600  74.6997152  69.4000399  67.1755022
  74.6813950  69.8095381  66.1655146  74.2523715  68.4060718  67.1721704
  73.9122431  70.3048566  68.1013765  74.0217363  69.9274561  69.1180775
  74.3948256  71.7525414  68.0414029  74.2852018  72.1308079  67.0250389
  73.8005849  72.3626417  68.7216649  75.4436171  71.7989069  68.3346383
  72.4579103  70.2128267  67.7226119  72.1189329  69.1822709  67.8281984
  71.8701257  70.8569188  68.3766425  72.3303332  70.5325715  66.6884038
  76.2844501  68.2167808  68.6042664  76.1770221  68.3573246  69.8208895
  76.5930537  67.0633705  68.0255320  76.5956497  66.9753468  67.0193787
  76.8086773  65.8779055  68.8154568  75.9213937  65.7284902  69.4306820
  77.0455154  64.6900228  68.0101052  77.9900316  64.7716489  67.4722141
  77.1070201  63.5040645  68.9680332  76.1626209  63.4215089  69.5059880
  77.2839798  62.5888370  68.4031044  77.9184601  63.6533887  69.6803299
  75.9076328  64.5250840  67.0282273  75.5885940  65.5158694  66.7047165
  76.2755975  63.9639539  66.1692543  74.7436371  63.7993108  67.6382997
  74.3748090  64.3601135  68.4971164  73.9479684  63.7019222  66.8997024
  75.0618135  62.8081983  67.9616565  77.9188245  66.0349838  69.8398312
  77.8224136  65.5098881  70.9406625  78.9728263  66.7135207  69.4578707
  79.0643621  67.1047420  68.5312282  80.0732072  66.8452241  70.3608625
  80.4041673  65.8645761  70.7027604  81.2216755  67.5215804  69.6504262
  81.0083447  68.5889265  69.5924478  82.1276429  67.3639301  70.2356352
  81.4209357  66.9700743  68.2532851  80.6321339  67.3803281  67.6227422
  82.3923576  67.2711910  67.8611496  81.3323931  65.4645241  68.2178171
  80.9232973  64.8816002  67.2224020  81.6837093  64.8314946  69.3242852
  81.6448010  63.8228556  69.3594256  81.9893430  65.3595293  70.1291881
  79.7106714  67.5860201  71.5986347  80.0957114  67.1847786  72.6821676
  78.9531522  68.6563482  71.4567915  78.7052360  69.0226505  70.5487940
  78.6004390  69.4282066  72.6265957  79.3352331  69.1377421  73.3774667
  78.7556471  70.9247326  72.3434507  79.7586975  71.1212917  71.9648301
  78.0204161  71.2325376  71.5999511  78.5356418  71.7112213  73.6313395
  77.5325667  71.5155164  74.0103393  79.2708489  71.4042734  74.3752182
  78.6902432  73.2019178  73.3492980  79.6932926  73.3984777  72.9706756
  77.9550108  73.5097218  72.6057998  78.4702398  73.9884056  74.6371882
  77.4671654  73.7927006  75.0161892  79.2054486  73.6814589  75.3810637
  78.6192634  75.4253390  74.3653176  77.9378081  75.7100558  73.6763658
  78.4735576  75.9462265  75.2182806  79.5488088  75.6069594  74.0145208
  77.2348932  69.0876338  73.2043076  77.0389211  68.0155973  73.7505361
  76.3026004  70.0139066  73.0749642  76.5629433  70.8542004  72.5787512
  74.9568037  69.9175307  73.6042315  74.9735212  69.7591701  74.6825365
  74.2358674  71.2266820  73.3160216  74.6841892  71.6515109  72.4178974
  73.1848826  71.0072485  73.1279258  74.3467735  72.2080824  74.4407132
  74.3872533  71.7673752  75.6027044  74.3792233  73.4216708  74.1649611
  74.0526702  68.8285185  73.1001680  73.2122869  68.3225460  73.8207516
  74.1688186  68.5074947  71.8375456  74.8785744  68.9069766  71.2402514
  73.1916626  67.5817380  71.2383908  73.5069951  67.3694533  70.2168235
  73.0525070  66.2413354  72.0021040  72.5917666  66.4990018  72.9557421
  72.3567869  65.6441841  71.4126265  74.2998088  65.4544300  72.2480798
  74.9134134  65.4694942  71.3473227  74.8514278  65.9098839  73.0705032
  73.9591082  64.0259888  72.6008881  73.4637528  63.5612195  71.7484144
  74.8811164  63.4883606  72.8221487  73.0785964  63.9376468  73.7571981
  72.0936891  64.0688039  73.5759393  73.4707930  63.6940562  75.0168331
  74.7590086  63.5338961  75.3337405  75.4645189  63.5958669  74.6136607
  75.0212950  63.3516002  76.2919021  72.5620736  63.6148119  75.9807072
  71.5842174  63.7380765  75.7600189  72.8525078  63.4316030  76.9305393
  71.7547483  68.0946173  71.0665621  70.8910229  67.3776027  70.5671779
  71.4910127  69.3253054  71.5037763  72.2391188  69.8771590  71.8986107
  70.1561432  69.9203034  71.4265382  69.4633048  69.1755345  71.0348833
  69.5609132  70.5076281  72.7698186  68.7462344  71.1816770  72.5051363
  69.0479489  69.4425500  73.6988963  69.8622247  68.7683409  73.9644082
  68.6525190  69.9072363  74.6021133  68.2567044  68.8788513  73.2046530
  70.5249278  71.2946656  73.4598539  70.1382202  71.6375894  74.2688414
  70.1462458  71.0683665  70.4751397  71.0595742  71.9386047  70.4885115
  69.1029667  71.0620849  69.6569935  68.4404175  70.3033458  69.7307706
  68.8464837  72.1052265  68.6867008  69.5629804  72.9141513  68.8294321
  68.9749205  71.5931319  67.2818289  68.6756208  72.4072658  66.6217494
  69.9828814  71.2684983  67.0235117  68.0859204  70.4696132  66.9899358
  68.2399223  69.2696712  67.6626293  68.9123262  69.2142851  68.5187282
  67.5601963  68.1673042  67.2622237  67.7185960  67.2074683  67.7538793
  66.6642672  68.2685532  66.2256144  66.1233995  67.3827353  65.8926150
  66.4479009  69.4792696  65.6084780  65.7071432  69.5651800  64.8134952
  67.1623871  70.5715808  65.9937306  66.9964613  71.5315556  65.5048369
  67.4205259  72.5713038  68.8923857  66.6941601  71.9633301  69.6640453
  67.0384271  73.6103605  68.1698751  67.6174536  73.9127138  67.3995439
  65.8261089  74.3483433  68.4471600  65.3562235  74.0320100  69.3784173
  66.1963509  75.8005533  68.5650069  66.6598317  76.1343738  67.6366484
  65.2997009  76.3903501  68.7554244  66.8983560  75.9313972  69.3885163
  64.7869011  74.1419425  67.3095960  65.1149723  74.2071301  66.1063583
  63.5470691  73.8732585  67.7077359  63.3231304  73.8109357  68.6906228
  62.4893542  73.6922496  66.7567590  62.7926371  73.7436932  65.7110667
  61.9086723  72.3509380  67.0168507  61.5436398  72.3032000  68.0427998
  60.7656123  72.1113614  66.0660274  61.1299819  72.1584903  65.0398136
  60.3363292  71.1272034  66.2537764  60.0020350  72.8747477  66.2153345
  63.0155122  71.3055612  66.9058432  63.7930138  71.5195913  67.6391811
  62.6010530  70.3153359  67.0949916  63.4439341  71.3342475  65.9039787
  61.4578077  74.7626360  66.9893741  61.0658986  75.0034302  68.1432572
  60.9659005  75.3826328  65.9085830  61.2660822  75.1047800  64.9851178
  60.1361699  76.5757639  66.0363264  60.0561955  76.8510428  67.0879560
  60.7437757  77.7660149  65.2589052  60.7077457  77.4369437  64.2203903
  60.1022724  78.6380896  65.3856308  62.2159672  78.1423406  65.6359532
  62.8555084  77.2959792  65.3854334  62.7016651  79.3774601  64.9015123
  62.0628490  80.2244042  65.1519087  63.7275468  79.5968273  65.1973933
  62.6641156  79.1999629  63.8267168  62.4673440  78.3619263  67.1165034
  62.2301015  77.4503329  67.6649675  63.5152191  78.6175890  67.2736523
  61.8375036  79.1757849  67.4757169  58.6631413  76.3187556  65.6834378
  58.3607546  75.6926032  64.7095971  57.7878016  76.8956431  66.4846013
  58.0997956  77.2075830  67.3931456  56.4068893  77.0769245  66.1404688
  56.0057684  76.2410884  65.5672506  55.5932848  77.2354086  67.3896784
  55.9772240  78.0744382  67.9699542  54.5527921  77.4233679  67.1248264
  55.6574617  76.3238111  67.9837916  56.3067703  78.3396016  65.2327817
  56.8123725  79.4385718  65.5514600  55.8028952  78.1169051  64.0471822
  55.6734363  77.1693356  63.7224488  55.3858372  79.1994705  63.1854457
  55.6798101  80.1639070  63.5996214  56.0777999  79.0179378  61.8226271
  55.9709081  78.0098629  61.4220545  55.4586452  79.7050595  61.2459026
  57.5351062  79.4486652  61.7297720  58.5809013  78.5564546  62.0011225
  58.3493312  77.5516829  62.3545464  59.8969983  78.9407678  61.8242755
  60.7150122  78.2541694  62.0423072  60.1703358  80.2185463  61.3340992
  61.4540663  80.6611215  61.2024622  62.1049522  80.0111260  61.4771492
  59.1557211  81.0816133  60.9925245  59.3760773  82.0684775  60.5855322
  57.8527845  80.6874626  61.1695288  57.0383648  81.3471581  60.8701588
  53.8486829  79.0586320  63.0343526  53.3868350  78.0274780  62.5142605
  53.0615176  80.1139724  63.3420041  53.3057013  80.7461025  64.0909268
  51.7856882  80.3578072  62.5937730  51.1771165  79.4544117  62.6339772
  50.9682101  81.5309990  63.1829687  50.3495816  81.1521758  63.9965356
  51.6597843  82.2788504  63.5709679  50.1257408  82.1312144  62.1782892
  49.6296583  82.8551142  62.5674820  52.2315918  80.6551875  61.1264973
  53.0924989  81.4940185  60.9423277  51.6436877  80.0508123  60.1131521
  50.8757132  79.4050867  60.2287069  52.1432354  80.2952545  58.7681624
  53.1725104  79.9458662  58.6867995  51.3037533  79.5802904  57.7228863
  51.3375085  78.5056310  57.9019587  50.2720731  79.9263706  57.7858511
  51.8244818  79.8561119  56.3195863  52.8048245  80.5773124  56.1485924
  51.1644697  79.2788907  55.3128968  51.4686550  79.4292597  54.3616028
  50.3639711  78.6944634  55.5071840  52.1401314  81.7665718  58.5007591
  52.9072951  82.2703654  57.7049948  51.2638475  82.4669650  59.1774097
  50.6269571  82.0267544  59.8260118  51.1826159  83.8957351  59.0030646
  51.0001740  84.1204982  57.9522098  50.0333553  84.4846608  59.8383080
  49.0905112  84.0335704  59.5290159  50.2763129  84.1917745  61.3150657
  51.2188205  84.6429735  61.6252269  49.4620332  84.6089742  61.9075126
  50.3219891  83.1137338  61.4694791  49.9696021  85.9930359  59.6229838
  49.7959784  86.2028945  58.5675615  49.1552028  86.4109529  60.2147597
  50.9119953  86.4449126  59.9325047  52.4743573  84.5818511  59.4269927
  52.7789226  85.6774380  58.9731487  53.2397759  83.9465737  60.2988459
  52.9760004  83.0453659  60.6707954  54.4333619  84.5876143  60.8266718
  54.0722187  85.4842905  61.3303052  55.1146323  83.6909286  61.8563565
  54.3961541  83.4102367  62.6264866  55.4896487  82.7929117  61.3654100
  56.2768300  84.4432532  62.4958317  56.9960003  84.7238930  61.7263278
  55.9025069  85.3412166  62.9874068  56.9842395  83.5808791  63.5313833
  56.5990657  82.4359792  63.7578455  58.0230716  84.1343735  64.1612208
  58.5277212  83.6051322  64.8578798  58.2996023  85.0798295  63.9381846
  55.4340632  85.0186842  59.7837022  55.9983478  86.1025347  59.8987810
  55.6639975  84.2040773  58.7683255  55.2226192  83.2991716  58.6881375
  56.6169563  84.5991291  57.7443390  56.8042059  83.7625697  57.0711339
  56.0925588  85.7752378  56.9263044  55.1627113  85.4902567  56.4340965
  55.9089236  86.6237528  57.5853950  57.1157871  86.1597391  55.8845449
  58.0458269  86.4453073  56.3760505  57.2996133  85.3118129  55.2247508
  56.5909045  87.3369412  55.0657525  56.8628331  88.4947266  55.4819124
  55.9230307  87.0671761  54.0319383  57.9362881  84.9659642  58.3969098
  58.5113378  86.0104978  58.1086732  58.3805138  84.0944317  59.2935752
  57.7297590  83.3791181  59.5850268  59.6514953  84.2095453  60.0097349
  59.8726678  83.1497657  60.1364205  60.7105340  84.8216707  59.1153946
  60.6950171  84.3288952  58.1432676  60.5077659  85.8848602  58.9865022
  62.0829356  84.6401643  59.7550771  62.0993681  85.1331018  60.7271076
  62.2866217  83.5771375  59.8838712  63.1487607  85.2562136  58.8550075
  63.1332435  84.7634401  57.8828797  62.9459926  86.3194030  58.7261175
  64.4969114  85.0987181  59.4449957  64.5817921  84.6271015  60.3340809
  65.6017595  85.5498546  58.8578952  65.5706535  86.1804910  57.6873267
  64.6875771  86.3276170  57.2197477  66.4302505  86.5093695  57.2713561
  66.7624178  85.3539654  59.4770889  66.7825374  84.8746986  60.3659075
  67.6183664  85.6853756  59.0556413  59.7086009  84.8637935  61.3739571
  60.7477454  84.7928323  62.0175511  58.6311213  85.4757757  61.8351018
  57.7728872  85.5431604  61.3069040  58.6684154  86.0553001  63.1588535
  59.6412500  86.4273663  63.4801926  57.6507867  87.1718458  63.3020225
  57.9431273  88.0133313  62.6738995  56.6696132  86.8117768  62.9925893
  57.5915372  87.6170192  64.7436918  57.2987904  86.7761236  65.3724164
  58.5723030  87.9776799  65.0537265  56.5675215  88.7405689  64.8877601
  55.3793430  88.4077077  65.1427829  56.9832354  89.9209777  64.7414142
  58.3197959  84.8935524  64.0507592  57.2394506  84.8387412  64.6017499
  59.2241340  83.9385437  64.1814387  60.1204089  83.9804423  63.7177198
  58.9330002  82.7661748  65.0477401  57.9181217  82.3918997  64.9134313
  59.9004984  81.6361578  64.7979201  60.9208544  81.9932000  64.9375431
  59.7010008  80.8248806  65.4980131  59.7797488  81.2726826  63.7774278
  59.0734430  83.2345130  66.4841106  60.0001647  84.0113519  66.7830190
  58.1339148  82.8436186  67.3501119  57.4114679  82.1952033  67.0713155
  58.0009747  83.5235748  68.6634841  58.9054515  84.0999946  68.8578060
  56.7711989  84.4932111  68.7033077  55.9077631  83.9342384  68.3425760
  56.6135617  84.7717846  69.7452517  56.9524924  85.7803927  67.8435012
  58.0165833  85.9574334  67.6870788  56.4807082  85.5403800  66.8906552
  56.3112347  87.0771097  68.4011073  56.6913032  88.1822867  67.9961028
  55.3077403  86.9380299  69.2737979  54.8622310  87.7575104  69.6611925
  54.9998482  86.0141320  69.5415974  58.0565084  82.5587397  69.8304071
  58.6105606  82.8943594  70.8795089  57.7162912  81.3008414  69.5816119
  57.2883612  81.0749979  68.6950624  57.8891890  80.2111684  70.5790587
  58.6455138  80.5153120  71.3026392  56.5555028  79.8809779  71.3528399
  55.8612450  79.2879971  70.7574584  56.8400368  79.3205911  72.2434055
  55.7757195  81.1142398  71.8394312  55.0030765  81.8879462  70.9540418
  54.9564617  81.5953105  69.9050941  54.3006572  83.0172761  71.3988125
  53.7422791  83.6266682  70.6882099  54.3164193  83.3576264  72.7384420
  53.7731088  84.2342507  73.0912074  55.0300623  82.5751323  73.6366684
  55.0281071  82.8349431  74.6952498  55.7498428  81.4575166  73.1903588
  56.2996588  80.8430995  73.9033062  58.4087469  78.9459437  69.8843855
  58.4029044  78.8325050  68.6508773  58.8520835  77.9921195  70.6930549
  58.8449362  78.1432688  71.6916550  59.3613659  76.7034085  70.1838886
  58.5834283  76.2787513  69.5493978  60.2424396  76.9220576  69.5805636
  59.7304171  75.7002844  71.2445583  59.4331113  75.9023758  72.4062693
  60.5410584  74.7313521  70.8802277  60.9918561  74.7644857  69.9770207
  60.8156948  73.5711811  71.7603618  60.7713137  73.7841128  72.8284394
  59.7636628  72.5304384  71.4296393  60.0572100  72.0003342  70.5235930
  59.6293115  71.5412412  72.5731705  59.3353137  72.0705817  73.4795168
  58.8711631  70.7985772  72.3246542  60.5848491  71.0432470  72.7376401
  58.5158120  73.2155851  71.1339156  57.8382990  72.5692690  70.9221328
  62.2384427  73.0185128  71.5000446  62.6540020  72.8411762  70.3526269
  62.9881390  72.7685186  72.5761613  62.6878406  73.0708495  73.4918667
  64.2880089  72.1336565  72.4528629  64.8217262  72.5520940  71.5995428
  65.1749736  72.3007039  73.7268173  66.1411420  71.8263011  73.5548850
  65.3818337  73.7743655  74.0303769  64.4160694  74.2493783  74.2028932
  66.0017976  73.8789108  74.9207780  65.8763061  74.2539492  73.1856301
  64.5835168  71.6587540  74.8689715  65.1514053  71.7793189  75.6335413
  64.0690145  70.6690118  72.1200381  63.1903381  70.0156293  72.6868722
  64.8444735  70.1614732  71.1644351  65.4197361  70.7700066  70.5997588
  64.8963909  68.7529612  70.9134083  64.2810903  68.1730244  71.6012873
  64.4326601  68.4863566  69.5163626  65.0452577  69.0531534  68.8152452
  64.5237952  67.4220185  69.2996161  63.3905570  68.7893648  69.4148416
  66.3195695  68.2932948  71.0741141  67.2551935  68.9247205  70.5933549
  66.4851497  67.1780123  71.7433863  65.6547589  66.6265247  71.9059036
  67.7743260  66.6375329  72.1808477  68.5715082  67.3730040  72.0727646
  67.6370035  66.2831863  73.6513680  67.3128078  67.2051956  74.1339602
  66.8309315  65.5504944  73.6902332  68.8502270  65.7366064  74.3720872
  69.3034730  64.8054638  74.0320250  69.5405786  66.5615830  74.1962247
  68.5492571  65.6395982  75.8441835  68.8757341  66.6016567  76.5919717
  67.7804519  64.7211212  76.1960008  68.0210704  65.3615109  71.4362524
  67.1505349  64.4900936  71.4560979  69.1860781  65.2239090  70.7831516
  69.8199203  66.0006569  70.6606520  69.4364506  64.0147982  70.0416763
  68.4696603  63.6486963  69.6961548  70.3531610  64.1966614  68.8639086
  71.3885122  64.2404997  69.2018825  70.1747151  63.0020957  67.9161998
  69.1396444  62.9578708  67.5774175  70.8334592  63.1187879  67.0556536
  70.4241659  62.0802987  68.4417128  69.9890529  65.4982211  68.1325361
  69.3501126  65.2266379  67.2922393  69.4247994  66.1135107  68.8333473
  71.1815618  66.2759105  67.6272000  71.7460867  65.6613915  66.9259313
  70.8394631  67.1799891  67.1235040  71.8207750  66.5482624  68.4670397
  69.8393633  62.8572326  70.9501021  70.7752180  62.9487592  71.7387305
  69.0879566  61.7600954  70.8471801  68.2837928  61.7628336  70.2361053
  69.3670191  60.5440735  71.6276293  70.1365395  60.7549908  72.3702270
  68.1111496  60.0593757  72.3501068  68.2989866  59.3561683  73.1614734
  67.8335283  61.0277873  72.7662862  66.9638164  59.5316966  71.4694029
  66.9006201  58.2012831  71.1055468  67.7187893  57.5433507  71.3985034
  65.8344984  57.6989600  70.3879097  65.8278161  56.6579629  70.0648274
  64.7523390  58.5113656  70.1196913  63.6723195  58.0323975  69.3808081
  63.7821108  57.1195570  69.1046419  64.7567236  59.8239882  70.5469403
  63.9040999  60.4722302  70.3446641  65.8449198  60.3126167  71.2313183
  65.8406242  61.3378963  71.6012959  69.8998196  59.3830964  70.8011036
  70.2645104  58.3401284  71.3559399  69.8646514  59.5320002  69.4896312
  69.4921027  60.3753600  69.0772587  70.3523392  58.4954028  68.6077473
  71.1832790  57.9310753  69.0310353  69.2458241  57.5363741  68.2635929
  68.4100103  58.0855922  67.8301476  69.6103995  56.8032686  67.5440504
  68.9140873  57.0243155  69.1668348  70.8581356  59.1783206  67.3725075
  70.3370739  60.2128903  66.9975673  71.8769934  58.6209700  66.7393138
  72.3275678  57.7841244  67.0810323  72.4032354  59.2437368  65.5497778
  71.6075210  59.6335082  64.9149424  73.2659895  60.3984221  66.0070033
  72.6077208  61.2165041  66.2994472  73.7606015  59.9968454  66.8914213
  74.2956125  60.9059074  65.0473777  74.0381320  61.0091955  63.7041021
  73.0667853  60.6909476  63.3255477  74.9843969  61.5055765  62.8385251
  74.7712276  61.5755447  61.7718643  76.1908653  61.9194727  63.3214018
  77.1493303  62.4078334  62.4719750  76.8682866  62.4156329  61.5540680
  76.4612599  61.8440918  64.6556542  77.4246435  62.1739159  65.0445097
  75.5119201  61.3495975  65.5087018  75.7128852  61.3014836  66.5789346
  73.1808571  58.2647772  64.7145224  73.7893929  57.3527542  65.2442386
  73.1542959  58.4505401  63.4051315  72.6144938  59.2073576  63.0102388
  73.8962729  57.5981430  62.5073351  74.7826139  57.2134505  63.0118255
  73.0510545  56.4342351  62.0659666  72.1963724  56.3687711  62.7392662
  72.7011703  56.6410467  61.0545764  73.8014037  55.1295509  62.0799395
  74.6902250  55.2424381  62.7007084  73.1578368  54.3590295  62.5044632
  74.2098998  54.7303539  60.6871873  74.5229976  55.6123391  60.1284647
  75.0348176  54.0195011  60.7351284  73.0994239  54.1078195  59.9895491
  72.7423411  54.5651670  59.1628541  72.5277040  52.9820346  60.3850104
  71.5214166  52.4734709  59.6938104  71.1919325  52.9469431  58.8647361
  71.0870437  51.6139579  59.9982071  72.9588591  52.3709516  61.4798985
  73.7227743  52.7675808  62.0083102  72.5213817  51.5116594  61.7804465
  74.2614488  58.4415505  61.3258257  73.4663433  59.2491989  60.8950575
  75.4556463  58.2456320  60.7881508  76.0701999  57.5460202  61.1792602
  75.9322870  59.0278445  59.6451743  75.1246527  59.6427183  59.2479890
  77.1094022  59.9509474  60.0366675  76.7806147  60.6558276  60.8003048
  77.9295180  59.3487943  60.4277196  77.5793353  60.7110034  58.8194666
  77.9087368  60.0067532  58.0555117  76.7598352  61.3137880  58.4280979
  78.7417739  61.6225936  59.2060769  79.9036931  61.1433660  59.1172732
  78.4567382  62.7894773  59.5865203  76.3830437  58.0791538  58.5459945
  77.4969176  57.6366174  58.5740047  75.5200176  57.8202912  57.5690348
  74.5461464  58.0592278  57.6897965  75.8804820  56.9746636  56.4709804
  76.8566184  56.5348952  56.6755791  74.8780940  55.8492186  56.2381506
  75.4382629  55.0946616  55.6859244  74.6515558  55.4745962  57.2363682
  73.5828013  56.1540868  55.5062016  73.0568415  56.8059174  56.2037572
  73.7202258  56.6732970  54.5577110  72.7577190  54.8781889  55.2764785
  72.1920733  54.3494934  56.2943901  72.7943141  54.3450601  54.1179655
  76.2727893  57.7483121  55.2302463  75.6264649  58.7292461  54.7909751
  77.3601384  57.2845597  54.6376768  78.0551051  56.7711738  55.1607022
  77.6652005  57.6482125  53.2244437  76.8088554  58.1752054  52.8036696
  78.9097665  58.5550957  53.1058543  79.2166708  58.4995086  52.0614314
  78.5618962  59.5637946  53.3285937  80.1043623  58.2149225  54.0088433
  79.7858122  57.5584798  54.8186023  80.8423034  57.7002218  53.3935156
  80.7541532  59.4555609  54.6139630  81.2602864  60.3022764  53.8931163
  80.7085650  59.5773285  55.9414793  81.1257449  60.3824334  56.3863034
  80.2570732  58.8638691  56.4957647  77.7639214  56.4213738  52.3266849
  78.6761038  56.3110301  51.5176184  76.7319432  55.5983456  52.3445928
  75.9332667  55.8061904  52.9268433  76.7347828  54.3456360  51.5952068
  77.7444651  53.9369567  51.5549326  75.8258564  53.3304125  52.2732436
  74.8772147  53.8426809  52.4337407  75.6668689  52.4659692  51.6286035
  76.3717507  52.8803537  53.5781986  77.1205793  53.6948739  54.2130463
  76.1011163  51.7026205  53.9324902  76.3193913  54.5763486  50.1675683
  77.1139177  54.3459002  49.2242707  75.0854687  55.0757472  50.0205917
  74.4916567  55.1967030  50.8285869  74.5296435  55.3866180  48.6929634
  74.4378374  54.4583028  48.1291356  73.1587680  56.0520905  48.7628746
  73.0205753  57.0707074  49.1253958  72.9130183  56.0081246  47.7018496
  72.1615137  55.2150664  49.4630057  71.6351993  54.0872740  48.8140876
  71.8841824  53.9067658  47.7683706  70.7940753  53.1946037  49.5004046
  70.3428076  52.3574293  48.9678660  70.5350540  53.3782673  50.8647204
  69.8726098  52.6919233  51.3921665  71.1288911  54.4462507  51.5517510
  70.9393312  54.5870949  52.6158610  71.9726015  55.3385771  50.8627522
  72.4864635  56.1318980  51.4056035  75.5561699  56.2470249  48.0169445
  75.7939986  56.0410520  46.8461001  76.2609228  57.1024690  48.7766784
  76.1706112  57.0947006  49.7826023  77.1869219  58.0777379  48.1638577
  78.0476722  58.1958491  48.8220810  77.5165285  57.6827338  47.2029047
  76.5335027  59.4531711  47.9423272  76.7999091  60.1836632  46.9645522
  75.6905618  59.8331600  48.8682274  75.0045269  59.2001416  49.2538996
  75.7289817  61.1809368  49.3648074  76.6703811  61.6561606  49.0890743
  74.5467277  62.0629838  48.8893303  74.8751988  62.6621347  48.0400804
  73.3578602  61.2016446  48.4741066  73.0285105  60.6025071  49.3230257
  72.5409802  61.8435982  48.1444047  73.6535157  60.5425831  47.6578193
  74.1577302  63.0751119  50.0030191  73.8154624  62.4861837  50.8539698
  75.0698412  63.6071511  50.2733657  73.0790005  64.0809822  49.6144817
  72.1663782  63.5496684  49.3444335  72.8778714  64.7424965  50.4571234
  73.4207564  64.6706346  48.7638274  75.6769244  60.8788141  50.8392666
  75.2540398  59.7746756  51.2487099  76.2758911  61.7529819  51.6332889
  76.7557602  62.5500787  51.2402727  76.3089291  61.5669600  53.1092962
  76.4763834  60.5080128  53.3059916  77.3967326  62.3805101  53.8355171
  77.0599343  62.4578940  54.8692858  78.2962547  61.7664532  53.7919947
  77.7086946  63.7863499  53.2912165  78.0997536  63.6369439  52.2848112
  76.7811390  64.3564595  53.2391110  78.7414043  64.5615998  54.1336560
  78.6855945  65.8313977  54.1153350  79.6235539  63.9080007  54.7799982
  74.9508317  61.9436933  53.6200853  74.2925187  62.8498976  53.0576526
  74.4483687  61.1131459  54.4982601  75.0223152  60.3788984  54.8875742
  73.0523136  61.2304764  54.9624610  72.5535705  62.1707524  54.7274383
  72.2594301  60.0522327  54.3317793  72.9756173  59.2830459  54.0427673
  71.2404172  59.4608137  55.2829455  70.5235665  60.2293440  55.5720597
  70.7156872  58.6419132  54.7908468  71.7474270  59.0848525  56.1715924
  71.6204027  60.4730329  53.0004201  72.4005345  60.9740904  52.4273262
  71.3305062  59.5535266  52.4919247  70.4087000  61.3911696  53.1198374
  70.6979443  62.3111465  53.6278532  70.0329065  61.6289778  52.1246863
  69.6279164  60.8905830  53.6924541  73.1701647  61.1082817  56.4684486
  73.9593082  60.3019899  56.9488516  72.4380665  61.9392434  57.2144559
  71.9020994  62.6784693  56.7827341  72.4317481  61.8415034  58.6423032
  73.0129391  60.9690690  58.9409239  73.0267936  63.0819257  59.3195679
  72.3773957  63.9410249  59.1512525  73.1419643  62.8249109  60.7873145
  73.7916285  61.9661738  60.9564535  73.5643624  63.7016794  61.2781887
  72.1540170  62.6191623  61.1992967  74.4000207  63.4236928  58.7778223
  74.3302284  63.6219279  57.7082738  74.7819950  64.3087092  59.2866850
  75.0770671  62.5866363  58.9482496  71.0017769  61.6217513  59.1211326
  70.0981695  62.4226588  58.8341799  70.8001773  60.4932369  59.8101252
  71.5517209  59.8258818  59.9097177  69.5222177  60.1768016  60.3991083
  68.7883996  60.8989588  60.0411989  69.0365322  58.7799919  60.0543152
  69.3729727  58.1327524  60.8642461  67.9475813  58.8277498  60.0565503
  69.5057592  58.2310386  58.7538821  68.8277259  58.5377284  57.9574444
  70.5088404  58.5990006  58.5381647  69.5307769  56.7222095  58.8406569
  70.4240898  56.4278855  59.3915330  68.6447023  56.3980904  59.3864754
  69.5456689  56.0674257  57.4586846  70.0861441  56.7346377  56.7872567
  70.0882029  55.1263892  57.5492733  68.1806944  55.8044007  56.9072534
  67.6779565  56.6763105  56.8228288  68.2624449  55.3734374  55.9974801
  67.6798635  55.1858242  57.5290496  69.6549872  60.3123808  61.9210977
  70.5992008  59.8050052  62.5209132  68.7338125  61.0537398  62.5201170
  68.1284750  61.6402471  61.9636324  68.7213989  61.2215518  63.9453131
  69.2290938  60.3739309  64.4056217  69.4261864  62.5257872  64.3969441
  69.6902551  62.4427063  65.4512043  70.6587907  62.7482264  63.5931945
  70.3954546  62.8318766  62.5387953  71.1451347  63.6674377  63.9197226
  71.3398496  61.9085127  63.7315464  68.5457206  63.7421845  64.2359980
  67.6448420  63.6214407  64.8376130  69.0864734  64.6290504  64.5663841
  68.2694608  63.8552477  63.1876669  67.3317414  61.0225759  64.5438804
  66.3102201  61.1613819  63.8780042  67.3266795  60.6340074  65.8092617
  68.2008299  60.3692388  66.2403741  66.1188950  60.5792484  66.6124573
  65.2478195  60.8313356  66.0076608  65.9423086  59.1690736  67.1551258
  66.7681202  58.9860937  67.8426232  65.0017642  59.1546380  67.7058235
  65.9218564  58.1038544  66.1067919  65.1067583  58.2985148  65.4097817
  66.8692371  58.1091894  65.5677711  65.7197442  56.7601690  66.7512965
  66.4731482  56.5912827  67.5206851  64.7266102  56.6983629  67.1962282
  65.8549181  55.7114295  65.6775467  65.2825295  56.0566464  64.8165605
  66.9108128  55.6561317  65.4127303  65.3791569  54.3760320  66.0798272
  64.4006509  54.4269673  66.3248404  65.5010449  53.7301174  65.3129911
  65.9097052  54.0557802  66.8773586  66.2511918  61.5540777  67.7679426
  67.0175026  61.3102203  68.6642809  65.4959431  62.6461988  67.7246789
  64.9579091  62.8499081  66.8945456  65.4547564  63.5970248  68.8229514
  66.2926450  63.3899662  69.4886605  65.5980578  64.9922340  68.2918646
  64.7613654  65.2175690  67.6306008  65.6048996  65.6986185  69.1219696
  66.5322067  65.0759897  67.7364819  64.1793908  63.4901438  69.6366394
  63.2040175  62.9449686  69.1805562  64.2021436  64.0271450  70.8462976
  65.0660118  64.4231534  71.1883625  63.0420083  64.0488278  71.7188272
  62.1253558  63.8032792  71.1825873  63.2491023  63.0439256  72.8681408
  63.4913369  62.0722284  72.4377605  64.3632404  63.4778184  73.7885209
  64.1214933  64.4492950  74.2196730  64.4812928  62.7456106  74.5872926
  65.2929321  63.5524407  73.2244252  61.9745618  62.8447361  73.6694815
  62.0383083  63.4706927  74.5595464  61.1377728  63.1740538  73.0534998
  61.7597027  61.3915807  74.0841779  62.5959239  61.0616746  74.7006160
  60.8341437  61.3088369  74.6539087  61.6953906  60.7650351  73.1945687
  62.8568068  65.4619805  72.2605787  63.8039320  66.0720553  72.7243489
  61.6502640  66.0011046  72.1419964  60.9028472  65.4857206  71.6994507
  61.3641430  67.3449638  72.6422914  62.0236434  68.0446278  72.1288435
  60.3273535  67.5814081  72.4029986  61.5702102  67.4825092  74.1497010
  61.0968355  66.6362009  74.9397483  62.2635201  68.5507269  74.5519262
  62.5933538  69.2295054  73.8806820  62.6276173  68.7279926  75.9448857
  62.2587569  67.8726885  76.5110094  64.1302175  68.8402565  76.1573018
  64.4911834  69.5693107  75.4318483  64.2714564  69.2307233  77.1651149
  64.9099041  67.5422361  76.0025799  64.5057318  67.0403673  75.1234478
  65.9463293  67.8231995  75.8155384  64.8474743  66.6022720  77.1957337
  65.8573891  66.2867419  77.4576723  64.3997047  67.1243956  78.0413038
  64.0390266  65.4025411  76.8984542  63.1492286  65.5703412  76.4510149
  64.3942514  64.1356988  77.1622704  65.5666818  63.8440099  77.7326516
  66.2062029  64.5875343  77.9740728  65.8081132  62.8813140  77.9198069
  63.5548865  63.1487421  76.8589673  62.6629164  63.3607975  76.4352670
  63.8136054  62.1920886  77.0538451  61.9737343  69.9341143  76.6100702
  61.2286301  69.7776698  77.5630287  62.2802753  71.1319867  76.1513509
  62.8928777  71.2472261  75.3566575  61.7966242  72.3439793  76.8445995
  61.0282083  72.0804659  77.5713711  62.9314365  72.9990323  77.5652656
  63.5003416  73.5921897  76.8492974  62.5216946  73.6537138  78.3344234
  63.8351243  71.9823409  78.2028838  63.3163972  71.1561235  78.6890812
  64.4480918  71.5967442  77.3882132  64.7192876  72.6322705  79.1922036
  65.3198843  73.6433865  78.8851625  64.7216443  72.1366508  80.4210472
  65.3115819  72.5511659  81.1283323  64.1334910  71.3466376  80.6447797
  61.1205603  73.3457268  75.9358484  61.4706915  73.5133315  74.7720706
  60.1962168  74.0858811  76.4957972  59.8628245  73.8742869  77.4254083
  59.5752878  75.1860315  75.7741370  59.6063266  74.9914218  74.7021002
  58.1313437  75.3399611  76.1956629  58.1330672  75.6471543  77.2414777
  57.7013915  76.1339090  75.5850175  57.3000646  74.0741421  76.0403308
  57.2910450  73.7836213  74.9897990  57.7525350  73.2789371  76.6328015
  55.8740541  74.3092995  76.5131056  55.5555618  75.3049900  76.2044601
  55.2207524  73.5630176  76.0610439  55.7618071  74.2117543  77.9599555
  55.5768434  73.2906820  78.3307839  55.8665826  75.2315273  78.8124266
  56.0960607  76.4694342  78.4174376  56.1992851  76.6712831  77.4332111
  56.1674268  77.2093934  79.1011530  55.7543689  74.9922704  80.0906739
  55.5916099  74.0488013  80.4123502  55.8308225  75.7517266  80.7520966
  60.3501322  76.4749345  75.9981148  60.7587721  76.7821057  77.1097462
  60.4659537  77.2530511  74.9394813  60.1916545  76.9214933  74.0257369
  61.0800434  78.5502591  75.0383113  61.0639448  78.8765483  76.0782033
  62.5375775  78.5260339  74.5539678  62.9935112  79.5160768  74.5601877
  63.0895914  77.8681588  75.2252211  62.7262300  77.9607587  73.1259902
  62.5034362  78.7554932  71.9899841  62.1968070  79.7942727  72.1125217
  62.6700951  78.2299855  70.7251163  62.5185323  78.8610962  69.8494287
  63.0298098  76.9012164  70.5675503  63.0676422  76.4724960  69.5661176
  63.3375214  76.1246491  71.6600716  63.6923722  75.1023738  71.5291729
  63.1940937  76.6487934  72.9303661  63.4450726  76.0433332  73.8013009
  60.3336898  79.6580027  74.3188857  59.5418886  79.3980048  73.4148625
  60.6973719  80.8845887  74.6830713  61.3371869  80.9648470  75.4604352
  60.2770885  82.0989207  74.0101340  59.3851235  81.9116897  73.4122693
  59.9541725  83.1597227  75.0422258  59.7087892  82.6220731  75.9580965
  60.8743808  83.7252224  75.1889459  58.8074611  84.1273097  74.6922223
  59.1879296  84.8816233  74.0034876  58.0118764  83.5615930  74.2073392
  58.2472353  84.8227222  75.9632965  57.8896935  84.0414274  76.6339986
  59.0718530  85.3567932  76.4353910  57.1085022  85.8015526  75.6680191
  56.2655560  85.2362836  75.2705104  56.8163673  86.2791195  76.6032658
  57.5185969  86.8530346  74.6757828  57.7889236  86.4107446  73.8089478
  56.7430683  87.4777902  74.5074506  58.2994048  87.3772199  75.0441140
  61.4369646  82.5923673  73.1693487  62.5844722  82.6391021  73.6141185
  61.1303142  82.9688140  71.9360217  60.1915085  82.8298158  71.5904457
  62.1167812  83.5792920  71.0408868  63.0970099  83.1078898  71.1118148
  61.6613142  83.5380741  69.5897159  60.6161745  83.8431377  69.5375768
  62.5106525  84.4802921  68.7338155  63.5559328  84.1755608  68.7850885
  62.1706663  84.4377469  67.6990693  62.4111996  85.4996625  69.1067696
  61.7061562  82.0905689  69.1004635  61.0436547  81.4788344  69.7128152
  61.3816825  82.0476951  68.0607624  62.7251537  81.7115397  69.1784501
  62.3345691  85.0273268  71.4403049  61.4056343  85.7838721  71.6040677
  63.5848499  85.3978106  71.5820923  64.3183278  84.7051205  71.5342396
  63.9627395  86.7935530  71.7943528  63.1399887  87.3845424  72.1967356
  65.0674377  86.7663685  72.7998188  65.9392682  86.2884789  72.3530164
  65.3458604  87.7512344  73.1748120  64.5538924  85.9102447  73.9528536
  63.8831022  85.1636153  73.5277819  65.6480037  85.2176980  74.7347772
  66.3189757  85.9637527  75.1605680  65.2044703  84.6284499  75.5373764
  66.2100938  84.5611391  74.0706345  63.7362764  86.7926192  74.8655865
  62.8988404  87.2142976  74.3097198  63.3574423  86.2016726  75.6994739
  64.3615152  87.5997309  75.2473537  64.4486020  87.4031469  70.4765827
  63.7611842  88.2287074  69.8550358  65.5925016  86.8963020  69.9847210
  66.0775993  86.2000458  70.5324500  66.1359544  87.2507567  68.6806405
  65.4575770  87.9158828  68.1463085  67.4410809  87.9619760  68.8871759
  67.6985557  87.8558774  69.9410018  68.1843919  87.4471364  68.2784649
  67.4177194  89.4019541  68.5263248  67.0807782  89.4846606  67.4930141
  66.7334873  89.9478823  69.1758539  68.7791689  89.9759525  68.6492888
  69.7004672  89.2094575  69.0488196  68.9107625  91.1853085  68.3772204
  66.4634730  86.0291526  67.7981532  66.8330687  84.9729699  68.2986359
  66.5283067  86.2758228  66.5038378  66.2499835  87.1889960  66.1740650
  67.0086612  85.2999008  65.5228291  67.3534405  84.3907630  66.0154699
  65.8592074  84.9459542  64.6040002  65.2944770  85.8726222  64.5017000
  66.2899701  84.6752861  63.6400073  64.9391681  83.8458856  65.0696628
  64.6675936  84.0146918  66.1117053  63.6825779  83.8413990  64.2129913
  63.9533259  83.6721732  63.1708027  63.0163650  83.0465803  64.5484377
  63.1761464  84.8022245  64.3048712  65.6487263  82.5081317  64.9851497
  66.5358523  82.5261724  65.6182228  64.9777825  81.7183970  65.3231656
  65.9432250  82.3170235  63.9532354  68.1424700  85.8611874  64.6593895
  67.9139134  86.7235124  63.7824747  69.3414103  85.3145858  64.8510217
  69.4624192  84.6313906  65.5849839  70.5242291  85.6639133  64.0057295
  70.3603722  86.6028103  63.4768414  71.7498879  85.8262412  64.9312732
  72.1550647  84.8275030  65.0939169  72.4770665  86.4285341  64.3867049
  71.4537171  86.4822698  66.2815807  72.1940228  87.2659900  66.4423011
  70.4602628  86.9273774  66.2265364  71.5031099  85.4902019  67.4415999
  70.8064307  85.8152396  68.2143144  71.2079083  84.5060927  67.0776158
  72.8441969  85.3913768  68.0290839  73.3588857  84.5427430  67.8419598
  73.4182538  86.3325435  68.7908626  74.6285151  86.1286582  69.2906368
  75.1132472  85.2644127  69.0951512  75.0606208  86.8384480  69.8647297
  72.7919430  87.4726370  69.0656549  71.8665307  87.6385450  68.6966203
  73.2444384  88.1675952  69.6421787  70.8394585  84.5569633  62.9684151
  70.6304075  83.4180756  63.2507102  71.2616490  84.9396479  61.7633928
  71.4485214  85.9185555  61.5993255  71.3207886  84.0140776  60.6154329
  70.9943024  83.0119653  60.8934199  70.4049763  84.5355996  59.4650992
  70.8930599  84.3402624  58.5102599  69.0221627  83.8235539  59.4954732
  68.5332427  84.0188296  60.4498967  68.3998658  84.2025551  58.6847921
  69.1631152  82.7496618  59.3730449  70.2151639  85.9710140  59.5726051
  69.6501389  86.2734854  58.8578617  72.7613818  83.6942836  60.1138831
  73.1972237  84.1652452  59.0408375  73.4646512  82.8371833  60.8632697
  73.1783870  82.6062104  61.8039097  74.7084654  82.2447641  60.3474889
  75.5690077  82.9034777  60.4643755  75.0240062  80.8932218  61.0309766
  75.2139668  81.0574798  62.0916525  74.1750119  80.2196186  60.9144967
  76.2575872  80.2722939  60.3841762  76.0682075  80.1073035  59.3235092
  77.1071636  80.9451623  60.5006666  76.6019141  78.9378541  61.0300818
  75.9173288  78.4948492  61.9496085  77.6679215  78.2966469  60.5456181
  77.9400215  77.4069601  60.9387089  78.1974344  78.7041586  59.7882202
  74.4709082  82.1012071  58.8101087  73.3543519  81.7025160  58.3799255
  75.4052297  82.5995858  57.9816041  76.2802896  82.9661712  58.3279924
  75.1496119  82.6540937  56.5278069  74.1555298  83.0649135  56.3513781
  76.1700969  83.5287266  55.8165442  75.9029678  83.5979281  54.7620526
  76.1540566  84.5238893  56.2609472  77.4595169  82.9824021  55.9380455
  78.0900332  83.5462853  55.4840799  75.1789929  81.2836546  55.9153198
  75.1298026  81.1613279  54.7138580  75.4494340  80.2875580  56.7591770
  75.8577369  80.5481367  57.6454540  75.3540349  78.8372613  56.4236406
  75.6577165  78.6780060  55.3889839  76.2979886  77.9842966  57.3647143
  76.4110130  76.9708160  56.9797704  77.2564179  78.5008966  57.3133548
  75.8204783  77.9266319  58.8393710  74.9103172  77.1492307  59.1031423
  76.4011350  78.5888220  59.7327875  73.8855160  78.2630303  56.3756838
  73.6576244  77.0226360  56.4824241  72.9206149  79.1480894  56.0982487
  73.1406244  80.1311774  56.0259069  71.5560452  78.7375961  55.8961182
  70.9773368  79.5734208  55.5029352  71.5245214  77.9095248  55.1880197
  70.9426231  78.2867810  57.2121976  69.7994449  77.8386078  57.2369856
  71.7084763  78.3865778  58.2974370  72.6417042  78.7639075  58.2149303
  71.2475931  77.9725381  59.6089943  70.2923821  77.4477147  59.5937749
  72.2888678  77.1057897  60.2869850  73.2760318  77.4860286  60.0242571
  72.1315645  77.1130280  61.7768737  71.1447435  76.7324587  62.0404109
  72.8965309  76.4800345  62.2265918  72.2388093  78.1318643  62.1491241
  72.2498873  75.6938764  59.6851093  71.4712835  75.7235386  58.9228776
  73.2197559  75.5538143  59.2077866  71.9827180  74.5395876  60.6370834
  71.0127477  74.6787212  61.1144715  71.9823101  73.6020519  60.0810925
  72.7612195  74.5089984  61.3993823  70.9977593  79.1935004  60.4617048
  71.7815806  80.1395265  60.4746950  69.9254363  79.1229460  61.2640753
  69.2627524  78.3701739  61.1445616  69.7020371  80.0816106  62.3567673
  70.0926966  81.0589670  62.0734672  68.2396274  80.2177573  62.6516489
  67.7785362  79.2432709  62.4908066  68.1392140  80.4980233  63.7002042
  67.5598302  81.2372258  61.7966847  67.2856800  82.0400531  62.4810902
  68.1856699  81.6380720  60.9993460  66.3170344  80.6817115  61.1925330
  65.7410462  79.7069820  61.7162638  65.9442587  81.2100450  60.0191379
  65.1096130  80.8743482  59.5600348  66.4995796  81.9416267  59.5990090
  70.3238012  79.6430127  63.6379645  70.3521243  78.5097540  63.9228705
  70.7770681  80.6141486  64.4218486  71.0202397  81.5106188  64.0252276
  71.0176972  80.3986027  65.8505244  70.6780717  79.3967020  66.1131053
  72.5240559  80.5327444  66.2393838  72.5291274  81.0889703  67.1767664
  72.8646489  79.5133004  66.4205757  73.4613936  81.2133204  65.2371666
  72.8491088  81.6824616  64.4670273  74.0424470  81.9771117  65.7539856
  74.4347808  80.2277819  64.5602292  74.7298382  79.1601326  65.1189404
  74.9498769  80.5870983  63.3579390  75.5912972  79.9691004  62.8817457
  74.6896735  81.4710219  62.9443272  70.1223759  81.4084329  66.6138020
  70.0176313  82.5909464  66.2608098  69.3306746  80.8545201  67.5232103
  69.5464453  79.9118543  67.8146270  68.1759653  81.5162260  68.1212569
  67.9271952  82.4251903  67.5735376  66.9900477  80.5689468  68.0539982
  67.2205627  79.6576207  68.6057659  66.1158998  81.0484742  68.4944741
  66.7816494  80.3201646  67.0134326  68.4269074  81.8974324  69.5996745
  68.7423949  81.0051894  70.4042988  68.2969954  83.2046459  69.9074240
  68.2292518  83.8731033  69.1533187  68.3706000  83.6952974  71.2365761
  69.1070750  83.1125251  71.7898213  68.7725533  85.1500629  71.2832551
  69.3213128  85.3613450  70.3654741  67.8540724  85.7367583  71.3000355
  69.6379580  85.5216445  72.4926578  69.0195858  85.4580682  73.3880207
  70.4537437  84.8021968  72.5633025  70.2212287  86.9536695  72.3681035
  71.2915172  86.8488387  72.1903624  69.7526460  87.4155006  71.4990570
  69.9913848  87.8392439  73.6056481  70.2998274  88.8524224  73.3479020
  68.9235677  87.8295983  73.8242176  70.7505919  87.3782448  74.8093559
  71.7401053  87.3875197  74.6071755  70.5596090  87.9963946  75.5849307
  70.4646209  86.4395884  75.0486128  67.0397654  83.4248911  71.9569653
  65.9564392  83.8076391  71.4955139  67.1310408  82.6952989  73.0655414
  67.9909194  82.6507508  73.5934842  66.0073767  81.8386999  73.4863099
  65.0311449  82.2416264  73.2166417  66.1458707  80.4224735  72.8711966
  66.8887066  80.4692039  72.0748862  66.5723394  79.3905616  73.9010690
  65.8297095  79.3429266  74.6975190  66.6562858  78.4139196  73.4243889
  67.5374846  79.6733083  74.3213673  64.8503458  80.0129134  72.1892693
  64.6163145  80.7231049  71.3961997  64.9631779  79.0164037  71.7622602
  64.0413434  80.0051668  72.9197185  65.9148064  81.8184876  75.0082160
  66.9032713  81.5245257  75.6848589  64.7484433  82.2089706  75.5377112
  64.0336327  82.6114821  74.9485341  64.5251881  82.1867573  76.9782142
  65.4614052  81.9894928  77.5004052  63.9887387  83.5305942  77.4354662
  64.7817013  84.2530226  77.2420582  63.1351068  83.7483120  76.7935850
  63.5676736  83.6222398  78.8782899  63.4714682  82.6238516  79.3049821
  64.3258122  84.1801712  79.4278720  62.2221136  84.3495016  79.0224859
  61.8899244  85.2511249  78.2438051  61.4398879  83.9423824  80.0105759
  60.5426928  84.3832483  80.1547273  61.7441423  83.1929127  80.6154112
  63.6206436  81.0019972  77.3671418  62.4748005  80.8928792  76.9185552
  64.1567324  80.1111992  78.2034830  65.0925852  80.2447707  78.5590638
  63.4212194  78.9388812  78.6296605  63.0930513  78.3573229  77.7681532
  64.2144375  78.0574610  79.5569115  64.2761523  78.5286203  80.5378807
  63.5295924  76.6928608  79.6882140  63.4679249  76.2208550  78.7076487
  64.1077289  76.0587866  80.3603813  62.5253119  76.8269434  80.0901364
  65.6378999  77.9384357  79.0459027  66.1169303  78.9089725  79.1750880
  66.1482160  77.1972186  79.6609427  65.7161173  77.5286193  77.5970061
  65.2063813  78.2696464  76.9812561  66.7609285  77.4616313  77.2937219
  65.2376646  76.5578928  77.4671104  62.1556788  79.3174361  79.3745264
  62.1946729  80.1467233  80.3020905  61.0429786  78.7027799  78.9996264
  61.0377619  78.1223923  78.1730537  59.8014683  78.8534659  79.7450644
  59.7753530  79.8340761  80.2202706  58.5971882  78.7287754  78.8189042
  58.6693684  77.7289816  78.3907667  57.6817832  78.8070749  79.4054218
  58.5712197  79.7706165  77.6866505  59.4986780  79.7141567  77.1167959
  57.3992019  79.4860655  76.7718374  56.4712881  79.5428044  77.3409205
  57.3776505  80.2223187  75.9683653  57.5035431  78.4878868  76.3465696
  58.4922464  81.2128073  78.2007185  59.3603159  81.4246150  78.8249720
  58.4771502  81.9002389  77.3549578  57.5830456  81.3403873  78.7882356
  59.7267879  77.7912414  80.8141888  59.7788182  76.6243661  80.5225829
  59.5107988  78.2219876  82.0917381  58.9656548  79.5596688  82.3956001
  58.0290417  79.7003055  81.8560843  59.6809375  80.3214159  82.0854212
  58.7750559  79.5268057  83.8771659  57.7077178  79.5993276  84.0860412
  59.2881818  80.3869503  84.3072290  59.3552411  78.2314218  84.4055935
  58.6572812  77.8939806  85.1718080  60.3639710  78.2533840  84.8180026
  59.3042833  77.3012004  83.2206616  60.0554379  76.5119067  83.1909910
  57.9204319  76.6857830  83.1190663  56.9857833  77.3825908  82.7077685
  57.7588085  75.4036336  83.4807636  58.5522115  74.7901705  83.6002372
  56.4113190  74.8407534  83.6480022  55.7601310  75.2396454  82.8702242
  56.4116905  73.3052361  83.5492471  56.6322045  73.0580245  82.5108064
  57.2216518  72.9503934  84.1865456  55.0965367  72.6289318  83.9684189
  55.3173990  71.6386360  84.3667090  54.7040337  73.2610854  84.7649253
  54.0553722  72.5092054  82.8525282  54.3883033  71.9981779  81.7606978
  52.8801249  72.8807931  83.0898830  55.8747482  75.3136468  84.9931756
  56.4187763  74.9984258  86.0694796  54.7765754  76.0786647  84.8938269
  54.3359514  76.2226726  83.9964911  54.2854382  76.8284972  86.0258068
  55.1143548  77.0463046  86.6992727  53.6424591  78.1595718  85.5895967
  53.5397056  78.8115847  86.4570182  54.2788783  78.6410696  84.8471478
  52.0044893  78.0520202  84.8489129  51.8587080  79.3579732  84.6436501
  53.3503415  75.9247307  86.8619337  52.2962993  75.4466455  86.4078845
  53.8310298  75.6213265  88.0706514  54.6774043  76.0705234  88.3899816
  53.2040944  74.6327311  88.9381745  52.3675002  74.1226696  88.4606322
  54.1766834  73.5757194  89.4840927  53.8438611  73.2616126  90.4733679
  54.2185648  72.3706765  88.5574339  54.5517671  72.6839372  87.5680175
  54.9112974  71.6293239  88.9557032  53.2226895  71.9338034  88.4834354
  55.5547035  74.1732596  89.7438127  55.4707069  74.9773759  90.4748693
  56.2196404  73.4003972  90.1293541  55.9605718  74.5699120  88.8132008
  52.5230443  75.2741354  90.1317207  53.1028511  76.0801222  90.8839430
  51.2759342  74.8036420  90.3041195  50.9964469  74.0529994  89.6888783
  50.3269681  75.2440377  91.3482216  50.6785221  76.1771037  91.7885588
  48.9176536  75.4764103  90.7587240  48.6348410  74.4482482  90.5328945
  48.3361086  75.8344099  91.6082779  48.6380195  76.3642985  89.5365635
  48.5737799  75.7447020  88.6420948  47.3248321  77.0979810  89.7387489
  47.3884677  77.7181868  90.6328374  47.1235489  77.7289770  88.8730527
  46.5180614  76.3744283  89.8557652  49.7396482  77.3701093  89.2420814
  50.6732442  76.8413599  89.0499302  49.4695070  77.9594883  88.3658637
  49.8670342  78.0315336  90.0990467  50.1661882  74.1360177  92.3957441
  50.1680904  72.9490553  92.0348801  50.0064507  74.5222517  93.6720999
  49.7513572  75.9015894  94.1004466  48.8766782  76.2843813  93.5746071
  50.6177186  76.5177807  93.8599779  49.5280579  75.7813923  95.5769659
  48.5086707  76.1043331  95.7882905  50.2308044  76.4477239  96.0772168
  49.7483800  74.3652817  95.9930786  48.9181372  74.1101659  96.6516466
  50.6906861  74.1583227  96.5003524  49.6596920  73.5506150  94.7084644
  50.3628104  72.7182316  94.6791286  48.2488766  73.0316804  94.4607287
  47.6936699  73.2853615  93.3889949  47.6649084  72.3003004  95.4101546
  48.1744309  71.9932928  96.2263853  46.2649608  71.8927966  95.2715888
  46.1098101  71.4652248  94.2810284  45.8797856  70.8450098  96.3235525
  46.2697400  69.8764524  96.0106124  46.3281551  71.1259322  97.2765202
  44.4725667  70.7624005  96.4700265  44.2580512  70.1014043  97.1323458
  45.3725456  73.1274982  95.4114784  45.7990621  74.1447231  95.9630454
  44.1342401  73.0287657  94.9566594  43.8526671  72.2272822  94.4103626
  43.1804272  74.0987617  95.1457159  43.5862535  75.0365467  94.7662907
  41.9086477  73.7617915  94.3595491  41.0477019  73.8785446  95.0177598
  41.7551089  74.6817304  93.1553256  42.6155178  74.5651859  92.4963769
  40.8454283  74.4229981  92.6134419  41.6943511  75.7162693  93.4931691
  41.9925973  72.4024375  93.8862647  41.1981360  72.1857789  93.3928170
  42.8859030  74.3587181  96.6356659  42.4579282  75.4627850  97.0146262
  43.1541322  73.3621883  97.4785642  43.6018384  72.5223316  97.1404824
  42.7607493  73.4185030  98.8776680  41.9573295  74.1426590  99.0126272
  42.2644403  72.0502282  99.3307213  43.0311728  71.3195059  99.0733004
  42.1450870  72.0847081 100.4136183  40.9461008  71.6486964  98.6884051
  41.1370923  71.4209682  97.6397092  40.5831625  70.7537126  99.1937583
  39.6883596  72.9434793  98.7960273  38.6527539  72.5392178  97.3860314
  38.2509569  71.5331338  97.5062530  37.8312248  73.2526806  97.3215234
  39.2465163  72.5860803  96.4731506  43.8784844  73.8894285  99.8105636
  43.6218808  74.3890954 100.8816320  45.1171340  73.6912672  99.4122479
  45.2610289  73.1550331  98.5685379  46.2852182  74.1373220 100.1526561
  46.4009056  73.5596971 101.0697521  47.5264166  73.9343108  99.2887150
  47.5092753  74.6517203  98.4682707  48.4145427  74.1012869  99.8981828
  47.5544038  72.6169797  98.7639011  48.3397685  72.5044926  98.2233933
  46.2543853  75.5825085 100.6471401  47.1294941  75.9788752 101.3996101
  45.2673711  76.3649583 100.2209659  44.5541212  75.9764915  99.6205764
  45.1777516  77.7919489 100.5798032  46.1448320  78.1841808 100.8944598
  44.6906318  78.6009430  99.3671520  43.7188909  78.2258062  99.0460726
  44.6008424  79.6516303  99.6430037  45.4062109  78.4999361  98.5511596
  44.1955299  77.9684714 101.7561854  44.3393438  78.8158561 102.6173322
  43.1796818  77.1444638 101.7237758  43.2477414  76.3400493 101.1168289
  41.9752883  77.3212263 102.4886138  41.8525388  78.2068299 103.1121024
  40.8291703  77.2811258 101.4589175  41.2507006  77.5079401 100.4796491
  40.1272087  75.9186953 101.4097420  39.7049952  75.6913844 102.3886017
  39.3289730  75.9472224 100.6680504  40.8479754  75.1476446 101.1375696
  39.8951315  78.4461572 101.6522446  40.4458890  79.3785535 101.5281256
  39.0943366  78.3968156 100.9144151  39.4680384  78.4076951 102.6543489
  41.8445675  76.1863646 103.5383652  40.9070009  76.1975392 104.3569249
  42.8076208  75.2612711 103.5201064  43.6357648  75.4220746 102.9647515
  42.6998145  73.9968792 104.2595582  41.7323346  73.5294300 104.0763283
  43.8051592  73.0400639 103.7856188  43.7251379  72.9899898 102.6997143
  44.7528840  73.5041981 104.0585603  43.7444316  71.6347961 104.3633251
  44.7401461  71.1913424 104.3648295  43.3850075  71.7230251 105.3885724
  42.8058694  70.7181489 103.5970041  42.9456430  70.5363727 102.3911352
  41.8661500  70.1111142 104.3055973  41.2144528  69.4902093 103.8474823
  41.8054698  70.2718389 105.3008796  42.8223773  74.2131372 105.7561359
  43.8011139  74.7585091 106.2419117  41.8273160  73.7396627 106.4788696
  40.9929899  73.4075873 106.0165655  41.8899880  73.6594270 107.9273793
  41.9429761  74.6587628 108.3593741  40.6217504  72.9581498 108.4602535
  40.7019726  71.9888203 107.9682535  40.6672139  72.8214951 109.5406972
  39.2890293  73.6122379 108.0844275  39.2091497  73.5818118 106.9977839
  38.0616546  72.9272227 108.7075723  38.1405983  72.9576661 109.7942829
  37.1565215  73.4478230 108.3948261  38.0164857  71.8898601 108.3760018
  39.3306948  75.1123220 108.3941977  40.1316307  75.5799869 107.8215803
  38.3777144  75.5664987 108.1228063  39.5124207  75.2590811 109.4588744
  43.1030802  72.8502202 108.3311535  43.3451513  71.8130388 107.7397194
  43.8699043  73.3432379 109.3053688  43.6499149  74.2337717 109.7280432
  45.1106119  72.6753346 109.7004989  45.6807880  72.4197441 108.8073741
  45.9746523  73.5706470 110.5930748  45.3050747  74.0864009 111.2813793
  46.6430420  72.9196118 111.1565536  46.8003223  74.6004936 109.8168365
  46.0723782  75.2307241 109.3059473  47.3747421  75.2052902 110.5185217
  47.7468284  73.9768090 108.7871595  48.8305147  73.4882497 109.1808699
  47.4282959  74.0167788 107.5747175  44.8569872  71.3270775 110.3574360
  45.6384188  70.3950351 110.1731162  43.7633233  71.2177873 111.1076519
  43.1721795  72.0204929 111.2698617  43.4339355  69.9596383 111.7933199
  44.2840819  69.6431920 112.3976477  42.2157228  70.1276732 112.7107616
  42.1771508  69.2750110 113.3886839  42.3446032  71.0438432 113.2870621
  41.0061555  70.1997827 111.9727656  40.2680369  70.3044098 112.5776078
  43.1998388  68.7921198 110.8168112  43.4492179  67.6334870 111.1663968
  42.7327822  69.1071845 109.6037105  42.5529489  70.0778977 109.3904613
  42.3935716  68.1037614 108.5994933  42.1709257  67.1501509 109.0781947
  41.1605343  68.5584474 107.8199955  41.5048989  69.4290217 107.2617727
  40.8600594  67.7761268 107.1230096  39.9601677  68.9532861 108.6949813
  40.2177561  69.8549587 109.2506211  38.7190187  69.2151207 107.8492450
  38.4605250  68.3136942 107.2936283  37.8882440  69.4920257 108.4982733
  38.9196520  70.0271104 107.1503033  39.6761515  67.8855379 109.7426576
  40.5499145  67.7620782 110.3824977  38.8224545  68.1885659 110.3488562
  39.4524782  66.9405128 109.2476862  43.5651417  67.8061496 107.6510794
  43.4836065  66.8860795 106.8365716  44.6597404  68.5435819 107.8037265
  44.6643525  69.3464415 108.4165026  45.8908029  68.2101565 107.0888037
  45.7637742  68.4223830 106.0272375  47.0775780  69.0332794 107.6157911
  46.9683993  69.2356468 108.6812613  47.9624023  68.4181370 107.4521273
  47.2621960  70.3501146 106.8892498  47.5574057  71.3740335 107.5102049
  47.1552256  70.3209151 105.5641888  47.2697747  71.1719576 105.0324887
  46.9599174  69.4478269 105.0954965  46.2532691  66.7317432 107.2469117
  46.6331418  66.0637811 106.2782763  46.1125915  66.2287912 108.4711250
  45.8266027  66.8521334 109.2125790  46.4951582  64.8621003 108.8233362
  47.5290634  64.6748726 108.5333619  46.3673259  64.6619084 110.3358120
  45.3565613  64.9421204 110.6323510  46.5302744  63.6066369 110.5547870
  47.3801787  65.5068531 111.1143662  48.3457692  65.0060729 111.0439732
  47.4391223  66.4790062 110.6249318  47.0134445  65.6982932 112.5807528
  46.6593061  64.7403306 112.9615317  47.9190211  65.9881709 113.1136706
  45.9400541  66.7560783 112.7925281  46.2885082  67.4491838 113.5582207
  45.7984039  67.2929362 111.8545420  44.6451665  66.1534784 113.2202995
  44.7761097  65.6563282 114.0896644  43.9603472  66.8843888 113.3502700
  44.3218931  65.5115195 112.5107347  45.7458735  63.7971110 108.0169570
  46.1615196  62.6433860 107.9923018  44.6815344  64.1859443 107.3202261
  44.4008491  65.1560889 107.3086301  43.8598121  63.2209580 106.6034305
  44.1268279  62.2068989 106.9008963  42.3883553  63.4520989 106.9273681
  42.0072096  64.3288961 106.4038667  41.7892554  62.5814237 106.6607145
  42.0876116  63.7483090 108.6874459  40.7702835  63.8968651 108.5803194
  44.0707415  63.2809797 105.0939885  43.4537763  62.5173749 104.3478499
  44.9128507  64.2094181 104.6676574  45.4823178  64.7223876 105.3254330
  44.9840192  64.5794704 103.2487799  43.9756400  64.6284390 102.8378389
  45.6622862  65.9530018 103.0566666  46.0940724  66.2286286 104.0187943
  46.4604708  65.8112143 102.3280394  44.7279501  67.0674646 102.5790498
  43.7468223  66.9739748 103.0446124  45.1925448  68.0011028 102.8961834
  44.5464056  67.1027366 101.0548528  44.1728709  66.1000660 100.4391601
  44.7495095  68.2776391 100.4519699  44.6425857  68.3530274  99.4504783
  45.0090371  69.0850363 101.0004738  45.7012336  63.5180247 102.4232707
  45.4252490  63.3779572 101.2294632  46.5914760  62.7534441 103.0614495
  46.9309377  63.0121882 103.9768273  47.1449343  61.5583685 102.4299970
  47.1694937  61.6922667 101.3485317  48.5647291  61.1985380 102.9381886
  48.4848120  60.6617168 103.8834592  49.2738574  60.3162677 101.9096308
  49.3545667  60.8526247 100.9641638  50.2712602  60.0658856 102.2710130
  48.7018445  59.4006241 101.7596402  49.3784510  62.4713960 103.2225990
  49.1790871  63.1644879 102.4052995  48.9974903  62.8897988 104.1542145
  50.8753032  62.2487052 103.3430459  51.2570888  61.8307194 102.4115807
  51.3695929  63.1992463 103.5436660  51.0754918  61.5560280 104.1604948
  46.1910424  60.3772729 102.6631029  45.7201698  60.1402018 103.7801268
  45.9095238  59.6555286 101.5810740  46.2320405  59.9767506 100.6794651
  45.1517483  58.4011331 101.6420767  44.7006888  58.2861512 102.6276850
  44.0444961  58.4063956 100.5981803  44.4125791  58.0952241  99.6205370
  43.2524885  57.7300763 100.9197643  43.4171751  59.7352674 100.4115197
  42.8843297  60.4157313 101.5021061  42.9251406  59.9512899 102.4873616
  42.3119518  61.6572378 101.3501811  41.8903724  62.1818227 102.2076088
  42.2742109  62.2384230 100.0986107  41.8229099  63.2221584  99.9694137
  42.8102854  61.5713783  99.0049428  42.7766903  62.0322032  98.0177184
  43.3836834  60.3296559  99.1660826  43.8133681  59.8123028  98.3082849
  46.0447277  57.1798917 101.3686336  47.0996408  57.3037679 100.7231059
  45.5962271  55.9807041 101.8039705  45.0312319  55.7581572 103.1471690
  43.9813081  56.0510023 103.1486289  45.5774077  56.3622934 103.8716070
  45.2211988  54.2717795 103.3741070  44.3390080  53.8679919 103.8708907
  46.0967274  54.1128297 104.0036194  45.4157871  53.6600239 102.0264247
  44.4385090  53.4818609 101.5777774  45.9951577  52.7368584 102.0124666
  46.1509370  54.7468931 101.2517772  47.2233680  54.7236126 101.4452924
  45.9043302  54.6725604  99.7467560  44.8208166  55.0015536  99.2703918
  46.9149676  54.2408228  99.0048802  47.7606912  53.9113570  99.4479413
  46.8826917  54.3203375  97.5428960  46.5233652  55.3030561  97.2375309
  48.2739575  54.1066240  96.9570506  49.0037920  54.0925520  97.7665213
  48.2970180  53.1521813  96.4311157  48.5903975  55.1486290  96.0558086
  49.4676023  55.0032850  95.6938876  45.8692742  53.3364464  96.9076511
  45.5017166  52.3039328  97.4981104  45.4227040  53.7091322  95.7151201
  45.8610771  54.5027649  95.2700634  44.2957870  53.0721808  95.0400171
  43.4560328  52.9791037  95.7286743  43.8469386  53.9196123  93.8239214
  42.7708936  53.7733399  93.7299494  44.0505700  54.9584843  94.0834966
  44.5249748  53.5842678  92.4938748  45.5980716  53.5012545  92.6661332
  44.1388218  52.6274192  92.1425507  44.2620507  54.6509015  91.4464935
  44.4436317  54.2329473  90.4563210  43.2239620  54.9753667  91.5185605
  45.1798486  55.8390926  91.6698653  45.0357328  56.1969742  92.6893024
  46.2098775  55.5051905  91.5447691  44.8984354  56.9358906  90.7182404
  43.9441646  57.2457278  90.8342907  45.5266574  57.7062473  90.8970916
  45.0323327  56.6045978  89.7735629  44.6250910  51.6471824  94.5873002
  45.6418990  51.4157876  93.9513380  43.7188485  50.6918008  94.8608994
  42.6803915  50.7379930  95.9099020  42.2844453  51.7505944  95.9871360
  43.1139287  50.4440590  96.8658033  41.6589190  49.7562140  95.4194972
  40.9484552  50.2636266  94.7669079  41.1282238  49.3263238  96.2690020
  42.4234950  48.7063685  94.6818021  41.8136396  48.3499488  93.8516572
  42.6993948  47.8645826  95.3169204  43.6965939  49.3981476  94.1399195
  44.6166040  48.8668711  94.3836922  43.5886589  49.5610823  92.6166427
  42.9686186  50.5188671  92.1605710  44.1891301  48.6441380  91.8606199
  44.6390052  47.8496044  92.2923930  44.3635101  48.8433155  90.4080797
  44.4427354  49.8992447  90.1495532  45.6156183  48.0993302  89.8529932
  45.7734344  48.3965937  88.8162542  46.8530545  48.4464350  90.6752132
  46.6961599  48.1490248  91.7120508  47.7172461  47.9178120  90.2729308
  47.0310696  49.5208038  90.6289091  45.4090475  46.5892959  89.8060694
  44.5620616  46.3578187  89.1602094  46.3063410  46.1113492  89.4129654
  45.2108613  46.2177528  90.8114444  43.0908277  48.5097932  89.6015833
  42.6384968  47.3566187  89.5161111  36.2109470  50.6465127  92.8094600
  35.3503689  51.1743486  92.8393609  37.1521464  50.9111455  91.7140481
  38.1701415  50.9311952  92.1031280  37.0592377  49.8151548  90.6329702
  37.6683157  50.1222114  89.7827705  37.4579953  48.8902885  91.0497614
  35.7228906  49.6032803  90.2051274  35.7066693  48.9164438  89.5346109
  36.8650853  52.2913415  91.1072995  37.6619587  52.8167533  90.3031096
  35.6880845  52.8238621  91.4543196  34.9999603  52.2130542  91.8708506
  35.2892709  54.1903141  91.1177921  36.1781648  54.8151336  91.0308006
  34.5174762  54.2387868  89.7769949  34.9542354  54.9612821  89.0875449
  34.7151436  53.2289230  89.4175473  33.0311644  54.4596096  89.8593567
  32.5168267  55.7127526  90.1564161  33.2075598  56.5317118  90.3571475
  31.1584004  55.9316401  90.2001574  30.7657335  56.9066357  90.4887718
  30.2943962  54.9113202  89.8717783  28.9486872  55.1333529  89.9191775
  28.7252238  56.0264615  90.1912451  30.7757950  53.6727252  89.5023077
  30.0921365  52.8684289  89.2306113  32.1401825  53.4570537  89.4788178
  32.5340084  52.4921477  89.1595097  34.5457465  54.8016977  92.3104972
  34.4034359  56.0289254  92.3659759  34.1751680  53.9797525  93.3091647
  34.0842193  52.9906545  93.1260993  33.8375763  54.4733818  94.6500505
  33.0606216  55.2333412  94.5669704  33.3264481  53.3467857  95.5578408
  32.6265432  53.8093301  96.2537467  32.7896327  52.6531393  94.9107057
  34.3959520  52.5879963  96.3409361  34.9645718  51.9758580  95.6408940
  35.0594921  53.3151490  96.8089806  33.7816326  51.6937054  97.4162223
  34.5287752  50.9541948  97.7043210  33.5405926  52.3196633  98.2753939
  32.5205368  50.9817213  96.9364221  31.7296274  51.7244780  96.8321375
  32.7306539  50.5364886  95.9639418  32.0823588  49.9207077  97.8830352
  31.8871953  50.3331269  98.7841020  31.2475329  49.4766825  97.5280603
  32.8149249  49.2321263  97.9794800  35.0664578  55.1446065  95.2632296
  34.9495076  56.1197373  96.0257966  36.2411238  54.6196388  94.8973282
  36.2585996  53.7660447  94.3577254  37.5095989  55.2039273  95.3051673
  37.5701987  55.2070110  96.3934767  38.6866497  54.4221535  94.7567449
  38.5195910  53.4168584  95.1434907  38.8578350  54.3733872  93.6813764
  39.9447192  54.9050323  95.3636891  40.4010978  54.6233489  96.6207519
  39.8169431  53.9139740  97.2069690  41.5530869  55.3324278  96.8801110
  42.1084514  55.2673474  97.7212021  41.8298068  56.1354091  95.8030538
  42.8818335  57.0259070  95.5937278  43.6303846  57.1410538  96.3776354
  42.9071795  57.7054983  94.4045456  43.7134583  58.4125185  94.2092594
  41.9168328  57.5141459  93.4259002  41.9459625  58.0618598  92.4839551
  40.8738312  56.6236275  93.6290176  40.1548946  56.4772629  92.8229107
  40.8206446  55.9145348  94.8383879  37.6213361  56.6580500  94.8755394
  38.1775802  57.4690468  95.6047683  37.0859422  56.9924957  93.7070300
  36.7341029  56.2766985  93.0873988  37.1012982  58.3708392  93.2325782
  38.0298286  58.8510271  93.5413665  37.0033905  58.4310919  91.7023120
  36.2418381  57.6931794  91.4500775  36.7422439  59.3897411  91.2540997
  38.2543079  57.9870157  91.0520511  38.5567186  56.7267386  90.6589134
  37.7708109  55.9783666  90.7608360  39.8443549  56.6711939  90.1989390
  40.3008377  55.8519621  89.8239962  40.4091051  57.9112332  90.3164332
  41.6808208  58.3503256  89.9805059  42.3815789  57.6325451  89.5540932
  41.9770893  59.6663863  90.2074228  42.9651861  60.0484631  89.9509427
  41.0364164  60.5386462  90.7641365  41.2815313  61.5843984  90.9496644
  39.7677129  60.1006681  91.0957412  39.0703591  60.8172210  91.5297344
  39.4368223  58.7636657  90.8601205  36.0396585  59.2186497  93.8812226
  36.2230857  60.4200127  94.0427386  34.9315109  58.6003757  94.2722176
  34.7185973  57.6588644  93.9750246  33.9424441  59.3137041  95.0603028
  33.7877439  60.3014778  94.6261714  32.5993004  58.5803424  95.0984825
  32.8073631  57.5104384  95.0877811  32.1057716  58.8446412  96.0337234
  31.6847234  58.9343385  93.9208621  30.8329305  59.5004930  94.2977160
  32.2531808  59.5531965  93.2266193  31.1649507  57.7136672  93.1715912
  29.9767528  57.6044796  92.8801640  32.0604081  56.7953601  92.8504963
  31.7717420  55.9650841  92.3530879  33.0289530  56.9284092  93.1041105
  34.4956141  59.5588593  96.4505254  34.2952238  60.6415420  97.0170330
  35.2093514  58.5598084  96.9698110  35.2065313  57.6605602  96.5099806
  35.9351352  58.6907032  98.2283142  35.2191418  58.9865533  98.9950770
  36.5712959  57.3561142  98.6401284  35.7960883  56.5946866  98.7260374
  37.2973707  57.0512457  97.8864901  37.2728401  57.5207082  99.9841406
  38.0485482  58.2817012  99.8988909  36.5472667  57.8251395 100.7384395
  37.9049666  56.1945877 100.3933418  37.1297601  55.4331589 100.4792492
  38.6310422  55.8897213  99.6397039  38.6065089  56.3591822 101.7373555
  39.3822165  57.1201757 101.6521071  37.8809343  56.6636104 102.4916527
  39.2158387  55.0808896 102.1317970  39.8885180  54.7988360 101.4331925
  39.6804659  55.1898986 103.0219310  38.4971641  54.3757008 102.2112621
  37.0074581  59.8042294  98.1456824  36.9784577  60.7689849  98.9175863
  37.9211375  59.6558619  97.1855829  37.9258446  58.7818584  96.6794257
  38.9325421  60.6680296  96.8398154  39.7477627  60.6522069  97.5631854
  39.5137040  60.3561811  95.4274991  39.8280231  59.3124886  95.4304333
  38.6860957  60.4838886  94.7297489  40.6861223  61.2406166  94.9953657
  41.9142263  61.1755527  95.6530140  42.0388466  60.4530330  96.4595712
  42.9637123  62.0059608  95.2994216  43.9115035  61.9539058  95.8352239
  42.8100037  62.8906056  94.2606439  43.8559315  63.7198115  93.9324857
  44.6264785  63.5903807  94.4902532  41.6157570  62.9490618  93.5675129
  41.4987175  63.6479726  92.7393065  40.5690716  62.1200309  93.9254939
  39.6342262  62.1498499  93.3657840  38.3617423  62.0863456  96.8442232
  38.8741318  62.9757959  97.5348925  37.3006800  62.2874623  96.0662226
  36.9459097  61.5356087  95.4926779  36.6603295  63.6003515  95.9637570
  37.4007173  64.3314966  95.6391771  35.5075716  63.6005121  94.9687298
  35.9193078  63.3724785  93.9855853  34.8156273  62.8118091  95.2641289
  34.7661845  64.9319628  94.9126115  34.3118849  65.1950727  95.8678528
  35.5189650  65.6758483  94.6517323  33.7010482  64.9379924  93.8577763
  33.8358390  65.5944650  92.8416153  32.6688190  64.1340706  94.0553280
  31.9226270  64.0989793  93.3755725  32.6318662  63.5592305  94.8849633
  36.1482269  64.1077566  97.3057283  36.2813864  65.2967894  97.6023114
  35.5512805  63.2148550  98.1015270  35.4070930  62.2695822  97.7763060
  34.9538459  63.6083249  99.3810384  34.3811109  64.5067773  99.1511318
  33.9985163  62.5473277  99.9344337  33.2414121  62.3135311  99.1859474
  34.5588843  61.6446652 100.1779253  33.3213636  63.0798164 101.1928232
  34.0778564  63.3134179 101.9419893  32.7603820  63.9822822 100.9500125
  32.3699122  62.0231247 101.7439745  31.6128086  61.7893260 100.9954884
  32.9302814  61.1204636 101.9874673  31.6927581  62.5556153 103.0023632
  32.4492502  62.7892180 103.7515295  31.1317754  63.4580783 102.7595502
  30.7756232  61.5370328 103.5336374  31.2953119  60.7008570 103.7591000
  30.3271462  61.8896984 104.3670613  30.0743074  61.3207396 102.8397553
  36.0093579  64.0134395 100.3995857  35.7717624  64.9307657 101.1818593
  37.1677389  63.3471611 100.3780316  37.3079865  62.6174459  99.6939660
  38.2206996  63.5764791 101.3786334  37.7147577  63.8967920 102.2894142
  38.9896358  62.2755510 101.6744190  38.2891672  61.5029292 101.9914342
  39.5089878  61.9471515 100.7741261  40.0053980  62.5265236 102.7838623
  40.7065337  63.2987574 102.4673746  39.4867144  62.8545327 103.6846838
  40.7669160  61.2381499 103.0767929  40.0664482  60.4655269 103.3938064
  41.2862689  60.9097525 102.1765001  41.7639767  61.4439221 104.1510038
  41.8434233  62.3615289 104.5654738  42.5601464  60.4757033 104.5954886
  42.5145023  59.2424151 104.0996891  41.8598121  59.0214892 103.3630260
  43.1347384  58.5324509 104.4621222  43.4207177  60.7709998 105.5656010
  43.4528172  61.7085340 105.9398994  44.0381812  60.0563577 105.9235455
  39.1966630  64.6831950 100.9791018  39.6171651  65.4642704 101.8232560
  39.5571942  64.7493838  99.6974146  39.2032841  64.0734879  99.0355900
  40.4912644  65.7673461  99.2166625  41.3646639  65.7999688  99.8679753
  40.9550755  65.4510809  97.7912978  41.2467921  64.4010476  97.7705420
  40.1013512  65.6035781  97.1309952  42.1253484  66.3143074  97.3184265
  41.7274939  67.2760355  96.9945567  42.7974666  66.4655997  98.1630979
  42.8924617  65.6676525  96.1675365  43.1768445  64.6599099  96.4703242
  42.2301847  65.6135779  95.3034968  44.1402506  66.4579847  95.8011438
  43.8608895  67.5056526  95.6895651  44.8589301  66.3587836  96.6146290
  44.7545767  65.9702007  94.5336130  44.0889420  66.0624371  93.7796086
  45.5771102  66.5181327  94.3255046  45.0139012  64.9995441  94.6369358
  39.8995826  67.1782334  99.2194098  40.5531708  68.1400454  99.6215852
  38.6680545  67.2941599  98.7614920  38.1553905  66.4733567  98.4724297
  38.0256013  68.5952960  98.6212184  38.7706555  69.3890080  98.6761259
  37.3335478  68.6803986  97.2989309  36.6040208  67.8777674  97.1908894
  36.8311662  69.6428234  97.2017129  38.2522782  68.5691560  96.1592145
  39.3139697  69.4198135  96.0571654  39.4894244  70.1651834  96.8328839
  40.1521022  69.3389438  94.9905685  40.9932986  70.0264125  94.9018207
  39.9361885  68.3833644  94.0182078  40.6179486  68.3211504  93.1700142
  38.8772067  67.5177905  94.1113598  38.6891438  66.7731123  93.3379344
  38.0552408  67.5991414  95.1905030  37.2296464  66.8960850  95.3009817
  37.0346510  68.8552595  99.7195660  36.0565860  69.5882864  99.5223924
  37.3010958  68.3020171 100.8950331  38.1257233  67.7330862 101.0231209
  36.3975824  68.4664934 102.0183599  35.4255063  68.0361299 101.7776224
  36.9500871  67.7620778 103.2519431  36.9439925  66.6913923 103.0477504
  37.9622243  68.0773146 103.5055256  36.1193950  67.9683416 104.4751891
  36.2407132  69.0849465 105.2760083  36.9030336  69.8319325 105.1228960
  35.3623863  69.0161697 106.2589013  35.3039071  69.8065574 107.0072103
  34.6692058  67.8988914 106.1214968  35.1125382  67.2329283 105.0035033
  34.6475929  66.2919246 104.7094981  36.1588752  69.9273865 102.3491351
  35.0130228  70.3725561 102.5229947  37.2462330  70.6810435 102.4058378
  38.1513772  70.2748663 102.2165406  37.1892638  72.0828027 102.8415342
  36.5026071  72.1856320 103.6817889  38.5783899  72.5492194 103.2850184
  39.3349250  72.2787834 102.5483921  38.5961088  73.6273795 103.4442569
  39.1068402  71.8048757 104.8413338  40.2868345  72.4161982 104.8942169
  36.6136434  73.0479043 101.8031676  36.7623764  74.2689193 101.9451105
  35.9821078  72.5164832 100.7574036  36.0322550  71.5208628 100.5951552
  35.2234023  73.3304783  99.8206277  35.8739867  74.0316585  99.2979563
  34.5414042  72.4411027  98.7922456  33.8795097  71.7394368  99.2998483
  33.9597808  73.0574662  98.1067454  35.2955088  71.8881744  98.2321600
  34.1822074  74.1313103 100.5632510  33.8368666  75.2486126 100.1648275
  33.6938001  73.5613726 101.6687714  33.9589092  72.6189964 101.9172542
  32.6453892  74.2034683 102.4329988  31.8486602  74.5018083 101.7515920
  32.0475228  73.2793859 103.5171600  31.4853802  73.8158388 104.2815638
  31.3695730  72.6443024 102.9469381  33.0841337  72.3927395 104.2055102
  33.9213004  72.8619245 104.9750649  32.9385063  71.0914295 104.0332346
  33.5917828  70.4520284 104.4627644  32.1745359  70.7416933 103.4727575
  33.0592817  75.5475427 103.0005693  32.1960482  76.3460597 103.3692241
  34.3753478  75.7942066 103.0225656  34.9959159  75.0619548 102.7082378
  34.9648740  77.0548727 103.4823545  34.3613844  77.4710705 104.2890012
  36.3641812  76.8302380 103.9944636  36.9040643  76.5119854 103.1026448
  36.7163453  77.8156683 104.2994352  36.6082642  75.8402445 105.1111651
  37.2272229  75.0130453 104.7636991  37.3319658  76.5829903 106.2138612
  36.7133867  77.4101127 106.5621819  37.5283955  75.9027643 107.0426004
  38.2759796  76.9716920 105.8319589  35.3371214  75.2242359 105.6508088
  34.8206383  74.6952232 104.8498779  35.5826349  74.5236844 106.4489642
  34.6904897  76.0091214 106.0431367  35.0176023  78.0641045 102.3470269
  35.2541305  79.2574246 102.5596663  34.8029998  77.5662638 101.1315272
  34.5233756  76.6000107 101.0406174  34.8841482  78.3728023  99.9325229
  35.3150766  79.3470381 100.1633139  35.7204522  77.7162395  98.8194281
  36.3283677  78.4894489  98.3496556  36.6183298  76.6251534  99.3528510
  36.0110547  75.8513014  99.8223930  37.1893555  76.1903351  98.5325085
  37.3034817  77.0452874 100.0891626  34.8437428  77.1793358  97.8160881
  35.3649592  76.7697617  97.1216942  33.5090090  78.5268151  99.3517300
  32.5431495  78.1167717  99.9263228  33.4396543  79.0973478  98.1653754
  34.2806637  79.4158866  97.7056629  32.1630149  79.3436947  97.5148532
  31.3474161  79.1438483  98.2098059  32.0716490  80.8140477  97.0573029
  31.2987152  80.8811897  96.2916890  31.7831307  81.4173814  97.9180268
  33.3007728  81.2957058  96.5324018  33.1964271  82.2108400  96.2617705
  31.9281102  78.4093865  96.3212147  31.2481498  78.7862059  95.3460496
  32.5196045  77.2240756  96.3348443  33.2893093  77.0433478  96.9633277
  32.1758960  76.1956380  95.3377012  31.1652170  76.3547760  94.9617993
  33.1463954  76.2797886  94.1717648  34.1624136  76.5792760  94.4288905
  33.1663710  75.2983954  93.6978782  32.6813476  77.2122788  93.1715060
  31.5163476  77.1467481  92.4617047  30.8811858  76.2805133  92.6469244
  31.3975354  78.2292310  91.6388977  30.6553006  78.3975231  90.9749211
  32.4772915  79.0361253  91.8402863  32.8074487  80.2154915  91.2426505
  32.1224487  80.6499573  90.5145618  33.9852030  80.7759282  91.6014813
  34.2992834  81.7062313  91.1282060  34.8225654  80.1859971  92.5767984
  35.7613049  80.6588855  92.8653190  34.4879753  79.0281712  93.1759724
  35.1841971  78.5915212  93.8920120  33.2979362  78.4178710  92.8116899
  32.0630312  74.7682077  95.8590201  32.5254423  74.4552170  96.9484272
  31.4592182  73.8719270  95.0538383  30.6795780  74.1778240  93.8380139
  31.3248828  74.6791227  93.1166391  29.8505569  74.8347715  94.1011543
  30.2153495  72.8356386  93.3596214  30.9059169  72.4569885  92.6060700
  29.2193652  72.9262799  92.9261462  30.1930279  71.9656944  94.5589833
  30.3818370  70.9301978  94.2757925  29.2427875  72.0293489  95.0891633
  31.3236373  72.4742548  95.4524852  31.0719151  72.4687746  96.5130059
  32.5734462  71.6274852  95.2223265  33.4230951  71.9986240  94.4422113
  32.6207701  70.4768641  95.8831348  31.9336480  70.3217393  96.6069433
  33.6719145  69.4491082  95.6788669  34.6411440  69.8377349  95.9913772
  33.3517870  68.1999320  96.5132620  32.4018182  67.7923384  96.1675369
  34.1421389  67.4675108  96.3489357  33.2559810  68.5196078  98.0048590
  34.1008644  69.1629040  98.2507103  32.3262303  69.0677723  98.1571136
  33.2741738  67.2999067  98.8996167  33.6384859  66.4394295  98.3384086
  33.9289786  67.4807801  99.7520338  31.9339342  67.0020283  99.3944625
  31.6856440  67.3881093 100.2941251  31.0263172  66.2775058  98.7411038
  31.3137305  65.7230979  97.5684323  32.2305602  65.8503615  97.1642945
  30.6140726  65.1769210  97.0864891  29.8243139  66.0951572  99.2757691
  29.6061813  66.5059154 100.1723158  29.1338937  65.5465668  98.7833596
  33.8524271  69.0916907  94.2122770  34.9757155  69.0463310  93.7211419
  32.7386281  68.8726493  93.5152393  31.8456967  68.9700639  93.9770653
  32.7545167  68.4143532  92.1131275  33.4484307  67.5784840  92.0242170
  31.3559516  67.9518758  91.6249849  31.4077842  67.6121048  90.5905921
  31.0097550  67.1350481  92.2582625  30.2902932  69.0191611  91.6759498
  29.4082718  69.2093797  92.6619579  29.4200565  68.4821189  93.4737784
  28.6600581  70.3168044  92.4214169  27.9314834  70.6748143  93.0223390
  29.0125034  70.8334159  91.2124960  28.4862517  71.9104118  90.5112827
  27.6807279  72.4845861  90.9690533  29.0112836  72.1811249  89.2937701
  28.6030376  72.9953245  88.6950095  30.0630772  71.4407704  88.7892690
  30.5195117  71.7017727  87.8344680  30.5705419  70.3469608  89.4767580
  31.3982439  69.7932604  89.0335584  30.0269635  70.0308940  90.7064386
  33.2821742  69.4462031  91.1443131  33.6300005  69.0951359  90.0053142
  33.3550934  70.7080348  91.5740707  32.9261678  71.0098513  92.4372213
  33.9698197  71.7184573  90.7154647  33.8075956  71.4299480  89.6769345
  33.4189891  73.0840578  90.9207713  32.3381878  73.0164673  90.7966774
  33.6457302  73.5392473  91.8848725  34.0046229  73.9387399  89.8064945
  34.6655165  73.3192521  89.2002311  32.9039333  74.5167449  88.9277672
  32.2428587  75.1367695  89.5332825  33.3489008  75.1235155  88.1391392
  32.3308638  73.7043688  88.4808479  34.8933717  75.0059800  90.4267832
  35.6965882  74.5291622  90.9885550  35.3204061  75.6267310  89.6391214
  34.3009079  75.6279224  91.0978071  35.4651124  71.7118631  90.8764184
  36.1998144  71.5669492  89.9125565  35.9151156  71.8574723  92.1105603
  35.2756427  72.0779200  92.8606114  37.3219441  71.7701007  92.4150657
  37.8523016  72.6046044  91.9563461  37.5437111  71.8212827  93.9211005
  36.8559809  71.1413000  94.4238428  38.5678198  71.4818717  94.0763476
  37.3839105  73.2002636  94.4853925  38.4034588  74.1173737  94.4046509
  39.3314186  73.8173849  93.9178276  38.2745395  75.3990062  94.9239580
  39.1145722  76.0923468  94.8824151  37.0911318  75.7905531  95.4902003
  36.9473233  77.0760792  95.9920387  37.7394458  77.6089501  95.8910921
  36.0483406  74.8952288  95.5531896  35.1010077  75.1942176  96.0018172
  36.2023716  73.6077131  95.0443127  35.3726343  72.9021249  95.0865186
  37.8987611  70.4765431  91.8075856  39.0927938  70.3879574  91.5054392
  37.0292477  69.4980914  91.5960471  36.0883032  69.5665992  91.9566429
  37.4490459  68.2451894  91.0101587  38.4226658  67.9935779  91.4306999
  36.4967826  67.0761507  91.2507463  35.8455832  67.3117431  92.0924914
  35.8922569  66.9167384  90.3578653  37.2409393  65.8877593  91.5413862
  36.6343033  65.1589250  91.6910301  37.7795901  68.4053970  89.5476642
  38.6804224  67.7549752  89.0650220  37.1102556  69.3189507  88.8603054
  36.3947078  69.8495844  89.3362450  37.3919702  69.6351765  87.4451814
  37.4229526  68.7179773  86.8570616  36.2993269  70.5376249  86.8831034
  36.4494417  71.4602394  87.4437702  36.5586722  70.7023208  85.8372950
  34.8567066  70.1198323  86.9821238  34.4601324  70.3422880  87.9727515
  34.0857741  70.9113942  85.9387399  34.4815011  70.6890938  84.9477397
  33.0318529  70.6361578  85.9786899  34.1902417  71.9774763  86.1403727
  34.6990149  68.6139168  86.7778473  35.2667449  68.0817737  87.5411336
  33.6456754  68.3445429  86.8554023  35.0719659  68.3395658  85.7910656
  38.6966917  70.4113770  87.2041161  38.9649233  70.8320557  86.0940786
  39.4247202  70.7364962  88.2664846  39.0235639  70.6345201  89.1877739
  40.7654436  71.3588123  88.1484863  41.0989736  71.3426422  87.1108951
  40.6988079  72.8095572  88.6166784  40.4228949  72.9116646  89.6662237
  41.7413847  73.0993765  88.4857647  39.8048728  73.7177149  87.7626270
  38.4327569  73.5680790  87.7416220  37.9972475  72.7270528  88.2811644
  37.6075111  74.4584674  87.0541601  36.5272815  74.3137494  87.0703636
  38.1458238  75.5397984  86.4002537  37.3321069  76.4300942  85.6706009
  36.4024697  76.1914792  85.6915085  39.5110832  75.7108043  86.4305492
  39.9579246  76.5534691  85.9029610  40.3219055  74.8160399  87.1292723
  41.3979087  74.9821402  87.1815018  41.8445740  70.5521652  88.8903266
  42.9165898  71.0536626  89.2412505  41.5340069  69.2875025  89.1643087
  40.6578893  68.9279988  88.8132041  42.3978757  68.3870621  89.9205109
  43.0723130  68.9734147  90.5445494  41.5906095  67.4645139  90.8133441
  40.8831424  68.0340834  91.4159883  41.0441730  66.8142292  90.1302358
  42.4761666  66.6110665  91.7339581  43.4890285  67.1299715  92.2739371
  42.1117880  65.4394032  91.9638786  43.1692778  67.5364250  88.9404948
  42.6003453  66.6444203  88.3261299  44.4701300  67.7920383  88.8433843
  44.8495198  68.5518140  89.3901050  45.3664073  67.0683811  87.9507313
  45.2064574  67.4123020  86.9288537  46.7980389  67.3711041  88.3450863
  46.9761684  67.0242418  89.3629549  47.4787951  66.8609765  87.6635872
  46.9702999  68.4461329  88.2927559  45.1175599  65.5580644  87.9712064
  44.9448023  64.9280957  86.9368040  45.0638731  65.0030096  89.1674216
  45.1424407  65.5739520  89.9968498  44.9273926  63.5646952  89.3310272
  45.7579503  63.0525710  88.8452270  44.9339475  63.2040320  90.8229109
  43.9931173  63.5645423  91.2388077  44.9646304  62.1162005  90.8844026
  46.0995706  63.7916874  91.6166130  46.1619760  64.8579184  91.3989947
  45.8701435  63.6497610  92.6726998  47.4277557  63.1313489  91.2945705
  48.4723404  63.6733725  91.7133999  47.4357632  62.0647570  90.6400236
  43.6184001  63.0736161  88.6700589  43.6030846  62.0634518  87.9395451
  42.5369397  63.8205058  88.8740302  42.5786553  64.6334462  89.4719324
  41.2395125  63.4370678  88.3129500  41.0208633  62.3882567  88.5136661
  40.1132605  64.2957725  88.9075799  40.3006625  65.3406664  88.6602390
  38.7431481  63.8724809  88.3434114  38.5548259  62.8277577  88.5907733
  37.9619750  64.4951004  88.7795453  38.7421377  63.9947481  87.2602908
  40.1203430  64.1682547  90.3398655  39.4166959  64.7046626  90.7123540
  41.2284110  63.5169198  86.7915476  40.9026591  62.5511529  86.1198824
  41.5948993  64.6794569  86.2657855  41.8926134  65.4127796  86.8932435
  41.6284153  64.9401938  84.8350577  40.6171296  64.9996776  84.4327369
  42.3278602  66.2704881  84.5917287  43.3005908  66.1467582  85.0677385
  42.4604252  66.3612967  83.5136376  41.6601230  67.5220477  85.1254884
  41.4327800  67.3764107  86.1815215  42.5669479  68.7259235  84.9656271
  42.7943718  68.8724839  83.9097402  42.0668410  69.6124830  85.3555066
  43.4927139  68.5598163  85.5165047  40.3569875  67.7331056  84.3830933
  39.7063797  66.8724265  84.5381427  39.8660499  68.6312215  84.7578857
  40.5593503  67.8477797  83.3181998  42.4165658  63.8735156  84.1110704
  41.9467487  63.3293839  83.1203567  43.6109794  63.5756245  84.6158218
  43.9580402  64.1248336  85.3891378  44.4888661  62.5476473  84.0427671
  44.7545050  62.8227496  83.0220546  45.7701741  62.4056399  84.8585420
  45.5085354  62.4340507  85.9162930  46.2224182  61.4424092  84.6224024
  46.7649551  63.5246485  84.5497837  47.0639439  63.3837533  83.5111042
  46.2082160  64.4570146  84.6437898  48.2331412  63.6072170  85.5807405
  48.9038349  61.9487959  85.3876404  49.1261024  61.7663444  84.3362568
  49.8184172  61.8557204  85.9732825  48.1738611  61.2182351  85.7362382
  43.7500103  61.2098127  83.9205514  43.8534203  60.5221575  82.8925311
  42.9882075  60.8764882  84.9606342  43.0863609  61.3809706  85.8300954
  42.1637814  59.6743750  84.9484161  42.7585369  58.8546880  84.5453301
  41.6615387  59.2791520  86.3135022  42.0426292  60.0609176  86.9705500
  40.5732527  59.2562028  86.3701322  42.2120985  57.9527327  86.7438833
  43.4000267  57.9264663  87.1117115  41.5040725  56.9267182  86.6203538
  41.0432736  59.7233419  83.9070115  40.8163058  58.7614807  83.2059447
  40.3626372  60.8510778  83.7965273  40.5314541  61.6015283  84.4510686
  39.3165730  61.0364653  82.7762321  38.5705762  60.2475625  82.8722549
  38.6191478  62.3935609  82.9408120  39.4002929  63.1229547  83.1550461
  38.1581452  62.6269747  81.9810752  37.5596851  62.4448833  84.0401180
  36.6686141  61.9226855  83.6916889  37.9504300  61.9443165  84.9260375
  37.2019666  63.8811965  84.3864226  36.4545772  63.8821658  85.1798374
  38.0969777  64.3995630  84.7304441  36.6574942  64.6010749  83.2253473
  36.4017201  64.0562304  82.4142841  36.4947866  65.9210907  83.1806445
  36.8276719  66.6486661  84.2458372  37.1968091  66.1940818  85.0687533
  36.7093770  67.6515101  84.2255922  35.9942492  66.5212877  82.0922058
  35.7340817  65.9675726  81.2885812  35.8794170  67.5246682  82.0803739
  39.9004202  60.9195766  81.3739395  39.2615555  60.3819867  80.4792524
  41.1195031  61.4171139  81.1945338  41.5555109  61.9328601  81.9455347
  41.8439200  61.2872883  79.9305842  41.1676324  61.5667925  79.1227403
  43.0765391  62.1987578  79.9031718  43.6386746  62.0764083  80.8289874
  43.9526391  61.8306210  78.7306829  43.3912993  61.9531718  77.8044110
  44.8282464  62.4795391  78.7128497  44.2720062  60.7928988  78.8267889
  42.6381838  63.6477950  79.7498467  42.3164621  63.7697440  78.7155718
  41.7855318  63.7888502  80.4140662  43.7001700  64.6720077  80.0702896
  44.5530103  64.5318686  79.4061178  43.2932090  65.6736593  79.9318122
  44.0220818  64.5509731  81.1046122  42.2680363  59.8284424  79.7082538
  42.1365900  59.3134918  78.6027373  42.7579328  59.1674277  80.7569435
  42.9660957  59.6542968  81.6170168  43.1246588  57.7526370  80.6533417
  43.9672077  57.6559416  79.9686078  43.5191592  57.1578843  81.9964086
  43.0327747  57.7424681  82.7773000  43.1519723  56.1321162  82.0291735
  45.0261052  57.1649542  82.2212881  45.4986610  56.6828281  81.3655158
  45.3549903  58.2024659  82.2805001  45.4214149  56.4336032  83.4980132
  44.6808126  56.6551627  84.2664652  45.4249698  55.3625662  83.2956111
  46.8001644  56.8629175  83.9832315  47.2741602  55.9891454  84.4303902
  47.3696191  57.1767235  83.1083907  46.7658773  57.9769012  84.9814692
  46.2386175  57.6861731  85.7923786  47.7087853  58.2096822  85.2586649
  46.3270844  58.7867929  84.5671803  42.0341744  56.9171262  79.9922326
  42.3015551  56.1922796  79.0480657  40.8119665  57.0411470  80.4684897
  40.6484381  57.6701584  81.2416019  39.6740279  56.2693747  79.9443531
  39.8207590  55.2050540  80.1281749  38.3863210  56.7166885  80.6519380
  38.3541346  57.8043153  80.5876638  37.5548387  56.2950988  80.0871376
  38.2762923  56.2900550  82.1140528  38.0846230  55.2173541  82.1400624
  39.2287801  56.5003253  82.6005252  37.1534676  57.0270256  82.8506512
  37.6061781  57.7966441  83.4758227  36.5104308  57.4962689  82.1060615
  36.3222906  56.0886031  83.7213422  35.3996409  55.8617587  83.1871514
  36.8920636  55.1709054  83.8672492  35.9952338  56.6841671  85.0440256
  35.4668978  57.5343111  84.9090593  35.4466306  56.0286420  85.5820045
  36.8500413  56.8940463  85.5393577  39.4714362  56.4040350  78.4311098
  39.1875376  55.4218766  77.7526907  39.6433940  57.6095714  77.8997846
  39.8257712  58.4108302  78.4870002  39.5806540  57.8123129  76.4388521
  38.6414526  57.3980750  76.0722367  39.6569618  59.2995755  76.0300929
  40.7062899  59.5807446  76.1192770  39.3590095  59.3373808  74.9822879
  38.8029709  60.2672672  76.8349053  38.7220307  59.8478508  77.8377211
  39.2814172  61.2452005  76.8881753  37.4090266  60.4406796  76.2689119
  36.9459008  61.5684431  76.0613137  36.7107885  59.3273508  76.0642258
  35.7750754  59.3836842  75.6882351  37.1194734  58.4306796  76.2857180
  40.7436928  57.1042452  75.7664133  40.5587016  56.4008490  74.7933927
  41.9474244  57.2951467  76.3020997  42.0206425  57.8638687  77.1335404
  43.1753557  56.6613896  75.7759308  43.3515315  57.0007099  74.7551845
  44.3950641  57.0272953  76.6315910  43.9659660  56.8994334  77.6253845
  45.1180607  56.2335239  76.4437006  45.0915232  58.3763153  76.5504022
  44.4907464  59.1283994  77.0618097  46.4669946  58.2793705  77.2203978
  47.0685506  57.5277596  76.7092127  46.9683643  59.2455412  77.1634474
  46.3434274  57.9957834  78.2655819  45.1977556  58.8474568  75.1061375
  44.1989848  58.9430832  74.6802127  45.6996371  59.8145342  75.0748737
  45.7707882  58.1224515  74.5281237  43.1018132  55.1385828  75.8283616
  43.8377376  54.4534228  75.1202917  42.2504684  54.6248770  76.7153635
  41.7466022  55.2600025  77.3177203  42.0677505  53.1923600  76.9141755
  43.0464133  52.7125780  76.9028849  41.3736380  52.8573543  78.2378870
  41.9240784  53.3595075  79.0334728  40.3612124  53.2581483  78.1883037
  41.3136415  51.3495844  78.5296531  40.7151305  50.8866554  77.7450627
  42.3325419  50.9651457  78.4832742  40.7071467  51.0210227  79.8934098
  39.6205919  51.0620240  79.8171433  41.0127709  50.0159865  80.1842631
  41.1398408  51.9596862  80.9271064  40.4394690  52.5903858  81.2901445
  42.3778006  52.0309185  81.4201697  43.3220293  51.1907785  81.0044584
  43.1015319  50.4920152  80.3093248  44.2549670  51.2556361  81.3859299
  42.6768499  52.9555297  82.3305108  41.9649987  53.5996360  82.6443499
  43.6141595  53.0085061  82.7029931  41.2943663  52.5895730  75.7523259
  41.4318605  51.3999672  75.4584308  40.4095653  53.4267071  75.2294093
  40.3255299  54.3392679  75.6539916  39.5419722  53.1049342  74.1203874
  38.9930353  52.1895260  74.3412838  38.5448415  54.2186747  73.8671816
  39.0982028  55.1501224  73.7476169  38.0100917  53.9933482  72.9444841
  37.5504264  54.3636409  75.0056492  37.1415229  53.3771246  75.2240162
  38.0913412  54.7331484  75.8768407  36.4269751  55.3101873  74.6740647
  35.7024419  55.7302370  75.5986473  36.2745253  55.6332426  73.4814506
  40.4441811  52.8884299  72.9547477  40.2240631  52.0115606  72.1390141
  41.4893321  53.6918115  72.8819627  41.5596526  54.5241044  73.4498032
  42.4632537  53.4944014  71.8311345  41.9498212  53.4103146  70.8733163
  43.4325595  54.6457219  71.7584058  43.7769903  54.9979613  72.7307196
  44.2930073  54.4307103  71.1247658  42.7080810  55.7869123  71.1225314
  41.7683159  55.6925716  70.1481564  41.5251930  54.6899643  69.7963475
  41.3157691  56.9291666  69.8096506  40.6206921  57.1303318  69.1050231
  41.9604003  57.8580826  70.5758091  41.8420903  59.2278080  70.5929029
  41.1327342  59.7004569  69.9135536  42.6255586  59.9086723  71.4647384
  42.5611706  60.9960306  71.5048151  43.5063399  59.2587066  72.3065465
  44.1287816  59.8209858  73.0026127  43.6252212  57.9043662  72.2947420
  44.3413408  57.4427674  72.9745949  42.8409909  57.1741505  71.4135866
  43.0308413  52.0942994  72.0584419  43.4333420  51.4166691  71.1285299
  43.0287978  51.6738547  73.3218738  42.9679668  52.4029051  74.0182103
  43.3018597  50.3185837  73.7661301  42.8179284  50.1200158  74.7224148
  42.7435791  49.3424695  72.7220185  41.8094535  49.7517752  72.3373399
  43.4720030  49.2789672  71.9136461  42.4961946  47.9718171  73.2808306
  42.7987730  47.7448724  74.4716654  41.9858198  47.1228096  72.5224094
  44.6014676  49.7328821  74.2343671  45.7003746  50.1136690  73.8645484
  44.3561207  48.7697199  75.1101612  43.4119368  48.7941705  75.4679576
  45.2916745  47.8553907  75.7135518  44.7885769  47.2764788  76.4880536
  45.8573927  46.8952370  74.6797284  46.3245483  47.4932882  73.8972965
  46.6161048  46.2893133  75.1750187  44.8080276  45.9874784  74.0638127
  44.1382965  46.6025970  73.4628217  45.3388849  45.2897589  73.4161420
  43.9976621  45.2099079  75.0901781  43.6452686  45.7687963  76.1500156
  43.6946126  44.0278934  74.8246133  46.3789955  48.4300356  76.5613049
  47.3367793  47.7374025  76.8683466  46.2593231  49.6692194  76.9898232
  45.5301793  50.3321675  76.7685799  47.3747707  50.1176067  77.8234727
  48.2569394  50.1927098  77.1876762  47.0683202  51.5036219  78.4016688
  46.8710599  52.2017438  77.5881496  46.1926664  51.4427895  79.0479117
  48.2404445  52.0277740  79.2189053  49.2624378  51.3569127  79.3450633
  48.0902497  53.2320121  79.7752110  48.8380229  53.6264526  80.3277975
  47.2295335  53.7431315  79.6409524  47.7033995  49.1313417  78.9593342
  48.2234281  49.5262575  80.0090346  53.2679947  52.1270334  83.5754141
  53.8541084  52.8616354  83.9454547  52.4220094  52.4298558  82.4097282
  52.4839378  51.6182269  81.6847989  50.9469661  52.5909144  82.8465844
  50.9306862  52.8607461  83.9025319  50.5024772  53.3947879  82.2597991
  50.2011866  51.3923829  82.6513502  49.2938517  51.5306602  82.9328153
  52.9264182  53.6662701  81.6148618  53.6604459  53.5166865  80.6442368
  52.5780194  54.8727980  82.0872532  51.9324566  54.8994817  82.8635495
  52.9970846  56.1548744  81.4790348  53.9583441  56.0308161  80.9803475
  51.9590999  56.6221644  80.4389498  52.2323955  57.6674008  80.2944174
  52.1349411  56.0701643  79.5156537  50.4761832  56.5294753  80.8146251
  50.1901169  55.4781492  80.8459376  50.2110431  57.1667946  82.1685467
  50.4964505  58.2183176  82.1378728  49.1506893  57.0854789  82.4075831
  50.7955528  56.6543440  82.9326430  49.5797326  57.1544944  79.7491115
  49.7248108  56.6356996  78.8015337  48.5369432  57.0676931  80.0543280
  49.8363375  58.2070798  79.6294585  53.2338517  57.1704615  82.6222820
  53.3752582  56.7528850  83.7798277  53.4317599  58.4784999  82.2997147
  53.0036650  59.2943790  81.1438496  51.9533386  59.0932377  80.9330018
  53.6055943  59.0280764  80.2750210  53.2421837  60.7127344  81.5954057
  52.2977059  61.1427841  81.9287493  53.6288229  61.2921426  80.7570158
  54.2332940  60.6548640  82.7025828  54.0570247  61.4733707  83.4004903
  55.2667231  60.6883935  82.3576195  53.9560260  59.3184455  83.3888940
  54.8641125  58.8470571  83.7647532  52.9605585  59.4944936  84.5376479
  51.7476454  59.3607257  84.3508246  53.4985292  59.7731587  85.7288151
  54.5051006  59.8152849  85.8005000  52.7004667  60.0466058  86.9361327
  51.7152060  59.5922269  86.8317279  53.3846517  59.4627645  88.2025660
  54.0861352  60.2118119  88.5699190  52.6065933  59.2979152  88.9479180
  54.0770110  58.2423252  87.9618784  54.4760111  57.9342938  88.7788946
  52.5743213  61.5648050  87.1294711  51.5856274  62.0582535  87.6698172
  53.6183724  62.2572832  86.7036858  54.4402757  61.7558628  86.3984781
  53.6599967  63.6972647  86.7101464  53.3331542  64.0805985  87.6767530
  55.0976822  64.1692060  86.4562372  55.7017565  63.9510438  87.3369180
  55.4834245  63.6097325  85.6040094  55.2036732  65.6567490  86.1498978
  54.2539531  66.4281408  86.3111007  56.3884782  66.0652147  85.7154386
  56.5325996  67.0396188  85.4921327  57.1410733  65.3999565  85.6099266
  52.6948595  64.2428662  85.6616618  52.7988529  63.9155032  84.4664343
  51.7675912  65.1085593  86.1038757  51.7052245  65.6487647  87.4771322
  52.7143532  65.7379973  87.8793722  51.1218855  64.9766949  88.1065262
  51.0390798  66.9807014  87.2910433  51.7750320  67.7436914  87.0374300
  50.5110313  67.2733784  88.1985709  50.0829866  66.7517620  86.1690351
  49.8586837  67.6832236  85.6492595  49.1552251  66.2989293  86.5187503
  50.8116174  65.7881171  85.2219255  50.1403248  65.0241640  84.8297009
  51.4572595  66.5483207  84.0557082  50.9210459  66.5180537  82.9693565
  52.5839982  67.2097795  84.2759426  52.9426534  67.2571474  85.2189283
  53.3313167  67.8792160  83.2175595  52.7881680  68.7292104  82.8045244
  54.6787571  68.3548645  83.7717915  55.2297526  67.4928627  84.1478997
  55.4900767  69.0401354  82.6910671  54.9398916  69.9025709  82.3147666
  56.4427492  69.3701021  83.1053592  55.6720677  68.3414074  81.8745148
  54.4457035  69.2859205  84.9690854  54.1326657  70.2481938  84.5639455
  53.6306307  68.8544084  85.5500786  55.6507027  69.4828923  85.8609396
  56.4660955  69.9148337  85.2807146  55.3918560  70.1549900  86.6790974
  55.9640619  68.5210473  86.2668460  53.5840327  66.9204588  82.0312218
  53.2449211  67.2093899  80.8695419  54.1595734  65.7718485  82.3372288
  54.5102071  65.6007738  83.2688343  54.4960420  64.8266634  81.2925643
  54.9455204  65.3555896  80.4521446  55.4844721  63.7883611  81.7976657
  55.0921769  63.5249148  82.7799079  55.5267668  62.8963316  81.1726900
  56.8963160  64.3732307  81.9506833  57.1083146  65.2162708  82.8494329
  57.7598536  64.0764718  81.0992246  53.2474312  64.2686873  80.6268161
  53.1438286  64.2568249  79.4112863  52.2958470  63.8456114  81.4360988
  52.4317716  63.8916641  82.4358502  51.0639756  63.2842586  80.9386877
  51.2700330  62.3446825  80.4260121  50.0887818  63.0116727  82.0858599
  50.5369324  62.5283869  82.9540161  49.6881171  63.9824775  82.3775892
  48.9220676  62.1713414  81.6840860  47.9713214  62.6682000  80.8142044
  48.0619862  63.6945766  80.4586332  46.9207571  61.8864286  80.3964950
  46.1580521  62.3063068  79.7406870  46.8309225  60.5736048  80.8056312
  46.0074034  59.9455261  80.4658764  47.7899286  60.0557625  81.6492553
  47.7279842  59.0165143  81.9720963  48.8303271  60.8543268  82.0859556
  49.5881165  60.4450931  82.7540745  50.4333160  64.2344926  79.9453505
  50.0971207  63.8378432  78.8613671  50.3211940  65.5006909  80.3254827
  50.7088770  65.7611514  81.2210058  49.6706771  66.5429080  79.5178383
  48.6323253  66.2718396  79.3269286  49.6983032  67.8843915  80.2632192
  49.0162399  68.5690354  79.7590847  49.3540488  67.7150690  81.2834735
  51.0009855  68.4495095  80.2911224  50.9774605  69.2845583  80.7641340
  50.3577363  66.7510490  78.1801055  49.7013612  67.0212985  77.1809489
  51.6851443  66.6235487  78.1760156  52.1719452  66.4976390  79.0519556
  52.4832264  66.6817475  76.9325177  52.1142978  67.4881981  76.2987763
  53.9412034  66.9365774  77.2387298  54.0481706  66.2108725  78.0449616
  54.6151250  66.6746653  76.4230511  54.2825471  68.3029308  77.7487648
  54.0216471  69.4534040  76.9946119  53.4749454  69.3577962  76.0564884
  54.4479774  70.7022462  77.4253096  54.1996707  71.6058722  76.8686179
  55.1823138  70.7898797  78.5939501  55.6545900  71.9772580  79.0861633
  55.4221591  72.7298188  78.5373210  55.4915426  69.6591985  79.3142414
  56.0770412  69.7405588  80.2300320  55.0633143  68.4293172  78.8804000
  55.3390455  67.5304879  79.4319237  52.4292770  65.4009541  76.0629845
  52.5403933  65.4630089  74.8433221  52.3059370  64.2522084  76.7140810
  52.3801813  64.2595023  77.7213217  52.1546135  62.9678069  76.0415738
  52.9259623  62.8332297  75.2832802  52.2978612  61.8495171  77.0942651
  53.3683279  61.7198756  77.2536179  51.8390540  62.2321803  78.0059476
  51.6777878  60.5200782  76.7391240  51.7519819  59.8697406  77.6107072
  50.6276435  60.6903675  76.5018469  52.3615215  59.8616331  75.5585550
  52.2550574  60.4855066  74.6711170  53.4198755  59.7160596  75.7748759
  51.7581505  58.5663288  75.2923288  51.1329624  58.5004606  74.5018223
  51.9748333  57.4746637  76.0238886  51.3275285  56.3531694  75.7325243
  50.6768958  56.3353052  74.9602174  51.4885669  55.5227860  76.2844569
  52.8311590  57.4974277  77.0489062  53.3216496  58.3510681  77.2743327
  52.9842013  56.6608949  77.5937821  50.8194881  62.8745017  75.2726887
  50.7814694  62.3988883  74.1508057  49.7306160  63.3174657  75.8750321
  49.7524971  63.6279475  76.8358763  48.4403593  63.2867681  75.1850145
  48.3589890  62.4104231  74.5419769  47.2688520  63.2848479  76.1622131
  46.3378694  63.1579646  75.6096995  47.4284848  62.1443995  77.1537527
  48.3590866  62.2708520  77.7070076  46.5894809  62.1471035  77.8495728
  47.4515534  61.1960524  76.6169032  47.1695195  64.6117867  76.8806130
  47.0193545  65.4092122  76.1528320  46.3276108  64.5888053  77.5725387
  48.0898950  64.7951724  77.4350312  48.3029715  64.4341458  74.2151578
  47.5497882  64.3503857  73.2571635  49.0427002  65.5028378  74.4506675
  49.5543854  65.5742363  75.3185268  49.1163607  66.6153797  73.5113242
  48.1302165  67.0644720  73.3932782  50.0732530  67.6748601  74.0290397
  51.0672665  67.2425665  74.1437545  50.1170861  68.5026496  73.3212660
  49.7232058  68.0409007  74.9942238  49.5671486  66.1266687  72.1365348
  49.0007646  66.5136110  71.1096401  50.5798554  65.2695381  72.1190384
  51.0361924  65.0150988  72.9833974  51.1123199  64.7220127  70.8618831
  51.2044599  65.5555986  70.1656475  52.4847450  64.1386700  71.1006226
  52.4076517  63.2969889  71.7889029  52.9042531  63.7964731  70.1545705
  53.1342701  64.9009276  71.5309476  50.2155749  63.6645563  70.2128657
  50.3219903  63.4132940  69.0225178  49.3455176  63.0367259  70.9954098
  49.3597007  63.2227726  71.9880249  48.3477765  62.0726040  70.4756613
  48.8250814  61.3724312  69.7900687  47.7312050  61.2766810  71.6420555
  47.2326799  61.9636585  72.3258931  47.0053451  60.5639518  71.2505909
  48.8898318  60.3111217  72.6539591  47.9740183  59.8215057  73.4848984
  47.2072794  62.7616236  69.7303699  46.6250113  62.2373939  68.8012977
  46.8556375  63.9579847  70.1752092  47.3820530  64.3397630  70.9480167
  45.8333704  64.7692918  69.5826935  44.8708207  64.2611047  69.6405125
  45.7292651  66.0962524  70.3266906  46.7722005  66.3820057  70.4635479
  45.2500580  66.7914445  69.6373659  45.0167206  66.1371445  71.6597335
  45.6010586  65.6213419  72.4217031  44.8593438  67.6002805  72.0459103
  44.2746780  68.1166727  71.2845931  44.3476372  67.6702334  73.0057872
  45.8428049  68.0636823  72.1244175  43.6730004  65.4340154  71.5771420
  43.8241009  64.3927429  71.2925023  43.1796746  65.4767847  72.5481733
  43.0495129  65.9271890  70.8313926  46.1062954  65.1785164  68.1583508
  46.9460150  66.0070903  67.9546907  45.3067918  64.6874082  67.2023399
  44.0273536  64.0210626  67.4939687  43.4027897  64.6813459  68.0956714
  44.2151602  63.0987879  68.0437297  43.4488689  63.7662331  66.1227086
  42.5392080  64.3566539  66.0130760  43.2062993  62.7069534  66.0379269
  44.4964276  64.1661563  65.0983472  43.9722728  64.6423341  64.2697245
  45.1314169  63.3674669  64.7149632  45.3394536  65.1901900  65.8310976
  46.3793144  65.2703332  65.5142935  44.6728702  66.5522499  65.7283478
  43.4432683  66.6260267  65.6009776  45.4521468  67.6116392  65.8622434
  46.4359555  67.4929381  66.0575123  44.9222905  68.9655013  65.7846431
  43.9058765  68.9484113  65.3913114  44.9333207  69.6877906  67.1534990
  45.0408592  70.7602056  66.9908281  43.6446845  69.4178795  67.8962498
  43.5366656  68.3456326  68.0597098  43.6644254  69.9312644  68.8575755
  42.8024531  69.7818401  67.3077958  46.1345688  69.2651612  68.0074805
  45.9137714  68.2811183  68.4210125  46.9989545  69.1955781  67.3471056
  46.4381502  70.2319791  69.1375214  45.5743320  70.3017374  69.7986203
  47.2989210  69.8732802  69.7018865  46.6595130  71.2161984  68.7247131
  45.7250591  69.7739616  64.7764465  46.6260938  69.2362546  64.1423238
  45.3569247  71.0386371  64.5798809  44.5298936  71.4040201  65.0300077
  45.9756585  71.8307145  63.5197248  46.6290880  71.1926425  62.9247515
  44.8989916  72.4562436  62.5797654  45.1594148  72.4273937  61.5217263
  44.0689599  71.7752240  62.7678072  44.4891777  73.8758230  62.9641099
  45.2347475  74.8372240  62.6444120  43.3408755  74.0444552  63.4291069
  47.0493177  72.8045352  64.0476826  46.9785816  73.2702554  65.1819163
  48.0909993  73.0086694  63.2347972  48.0911877  72.5844786  62.3181940
  49.2954308  73.6997401  63.6764294  49.7902930  73.0022379  64.3522262
  50.2334961  73.9752719  62.4759205  50.4354221  73.0419958  61.9502583
  49.7554901  74.6792620  61.7947390  51.5464909  74.5685775  62.9816498
  52.4698813  73.7613501  63.2703290  51.6135555  75.8233632  63.0744667
  49.0069010  74.9845207  64.4978053  49.7961143  75.3379928  65.3739200
  47.8786502  75.6542056  64.2522891  47.2940173  75.4129254  63.4648327
  47.5616443  76.8667583  65.0051286  48.4642492  77.3931884  65.3154108
  46.6575131  77.8549309  64.2104038  46.8490668  77.7124138  63.1468742
  45.1767863  77.6279028  64.4946775  44.9843611  77.7707076  65.5580120
  44.5828151  78.3384457  63.9198493  44.9031562  76.6120269  64.2096787
  47.0542108  79.3005587  64.5194202  48.0939717  79.4613607  64.2345655
  46.4146708  79.9813733  63.9576553  46.9369012  79.4899029  65.5864197
  47.0011621  76.5880294  66.4050036  47.2923674  77.3151163  67.3413183
  46.2119770  75.5333399  66.5420982  45.9804304  75.0041665  65.7135688
  45.7445970  75.0328452  67.8409539  45.2512004  75.8217914  68.4086008
  44.7341159  73.9100949  67.5828211  44.9005323  73.7701664  66.5147271
  45.1035517  73.0394693  68.1246958  43.2511068  74.0759004  67.8450834
  42.6733921  73.8090967  66.9601188  42.8860360  73.1392610  68.9912972
  43.4630521  73.4057585  69.8768085  41.8221904  73.2300352  69.2105993
  43.1114892  72.1113892  68.7071305  42.8580918  75.5275879  68.1136140
  43.1141890  76.1397844  67.2489007  41.7848619  75.5864335  68.2947657
  43.3944197  75.8937633  68.9890380  46.8564031  74.3655361  68.6572135
  46.8711740  74.4566792  69.8854125  47.7470537  73.6461159  67.9789605
  47.6368088  73.5172108  66.9833055  48.8676352  72.9710318  68.6491908
  48.5107477  72.3076535  69.4370104  49.6093507  72.1313029  67.5992483
  48.8694975  71.4304008  67.2126572  49.8908132  72.8319938  66.8131750
  50.8397828  71.3660260  68.0599742  51.3807704  71.0551496  67.1662242
  51.4552544  72.0586186  68.6340929  50.5215751  70.1415741  68.9131848
  51.4101182  69.9229072  69.5054473  49.7018171  70.4166101  69.5768500
  50.1397526  68.9280465  68.1688855  49.2314582  68.5473627  68.3928953
  50.9125072  68.2663341  67.3016687  52.0895913  68.7420345  66.9182574
  52.4180561  69.6240230  67.2847368  52.6521340  68.2201348  66.2615490
  50.4583375  67.1498897  66.7492099  49.5372001  66.8107752  66.9871330
  51.0355977  66.6436815  66.0929915  49.7948365  73.9903964  69.3265000
  50.3448993  73.7177257  70.4165897  49.9461536  75.1725910  68.7062977
  49.4452116  75.3927712  67.8573707  50.7712162  76.2216183  69.3200790
  51.6189593  76.0345409  69.9791942  51.0026686  77.5501656  68.5417462
  50.2187466  78.2482388  68.8354475  52.3722059  78.1741889  68.8215831
  53.1566967  77.4768369  68.5276867  52.4748871  79.0972526  68.2510477
  52.4615971  78.3934418  69.8855551  50.2590013  77.7061537  67.2105559
  50.5669550  76.8842759  66.5641952  49.1922564  77.6238300  67.4188289
  50.5396133  79.0334535  66.5133513  51.6061703  79.1162984  66.3043235
  49.9820108  79.0780615  65.5778361  50.2314736  79.8558530  67.1589586
  50.1375841  76.7811395  70.5799252  50.8373791  77.2453045  71.4861139
  48.8093844  76.7428660  70.6388188  48.2995069  76.4469924  69.8187072
  48.0445466  77.2007223  71.8071702  48.3502659  78.2126518  72.0729401
  46.5427853  77.2069413  71.5028079  46.4293340  76.9032108  70.4621466
  46.0852411  76.4594360  72.1508736  45.8569311  78.5541869  71.7170978
  46.0350931  78.8458874  72.7521195  46.2778609  79.3068375  71.0504364
  44.3507581  78.4829453  71.4829238  43.6162607  77.9091369  72.2871044
  43.8893259  79.0306506  70.3561522  42.8995812  79.0087716  70.1560815
  44.5321113  79.4643599  69.7089856  48.3212666  76.3967234  73.0586412
  48.6684132  76.9753441  74.0664568  48.1620438  75.0680139  72.9968348
  47.9269149  74.6707158  72.0985209  48.4470810  74.1535750  74.1090369
  47.6923396  74.2527626  74.8891820  48.4256356  72.7218257  73.5903780
  48.7122214  72.8441763  72.5458694  49.2406243  72.2474216  74.1370353
  47.1897513  71.8541775  73.6753929  46.3791984  72.4195274  74.1352672
  46.7758044  71.4217422  72.2749177  47.5857309  70.8559008  71.8145468
  45.8851095  70.7963763  72.3355883  46.5599029  72.3030297  71.6709149
  47.4935648  70.6363834  74.5246843  47.7864993  70.9544666  75.5252400
  46.6058267  70.0072248  74.5893519  48.3071985  70.0703107  74.0711857
  49.8732583  74.3333546  74.5944423  50.1821043  74.3634272  75.8038466
  50.7544070  74.3540932  73.6006697  50.4344684  74.2135012  72.6530555
  52.1669696  74.5396413  73.8249882  52.5679090  73.7197181  74.4208680
  52.9040732  74.5667541  72.4588066  52.2703777  73.8128706  71.9916996
  52.7063015  75.5382418  72.0058189  54.3961024  74.1915160  72.2473936
  54.5016897  73.8962869  71.2034626  55.4007041  75.3239508  72.5668505
  55.2960250  75.6194145  73.6108056  56.4163413  74.9699324  72.3900662
  55.1985133  76.1814638  71.9250633  54.7333384  72.8903892  72.9654729
  54.1100853  72.0865154  72.5737563  55.7834316  72.6470742  72.8035984
  54.5480544  73.0056022  74.0334124  52.4131858  75.8481382  74.5941224
  53.2176625  75.8746091  75.5608310  51.6995402  76.9069976  74.2029810
  51.2072852  76.8954393  73.3211359  51.7876484  78.1688849  74.9292740
  52.8348782  78.3759922  75.1495361  51.2136273  79.3438676  74.1302719
  50.4297436  78.9555954  73.4799871  50.7807626  80.0506762  74.8381911
  52.2757670  80.0559175  73.2816642  53.0996730  80.3308457  73.9402189
  52.6313036  79.3500529  72.5310304  51.7402440  81.3027511  72.5918606
  51.2174160  81.9051516  73.3347358  52.5872942  81.8654055  72.1993999
  50.7879084  80.9610875  71.4547486  51.3137559  81.1163618  70.5126897
  50.5112578  79.9108248  71.5470079  49.5576637  81.8029232  71.4814278
  49.8137647  82.7761300  71.3955176  48.9558467  81.5440209  70.7127367
  49.0700287  81.6588676  72.3541014  51.2313460  78.0780097  76.3545762
  51.6045333  78.8892672  77.1962112  50.3765481  77.0852471  76.6296346
  50.0897016  76.4642790  75.8865216  49.7288488  76.9506939  77.9351085
  49.4699162  77.9093237  78.3846440  48.4739649  76.0877514  77.8188602
  48.5657073  75.4484741  76.9407894  48.2981372  75.2224257  79.0605014
  48.2058545  75.8610562  79.9389863  47.3984907  74.6158070  78.9568159
  49.1640991  74.5704728  79.1752476  47.2737293  77.0057217  77.5406854
  47.1338495  77.6186687  78.4310956  47.5532765  77.6430180  76.7017537
  45.9802472  76.2824852  77.2167874  45.6997959  75.6453005  78.0555022
  45.1909608  77.0120794  77.0356285  46.1192239  75.6696476  76.3261610
  50.7006893  76.4463309  79.0183273  51.4487056  75.4537850  78.8184914
  50.7128770  77.1520771  80.1521534  49.9660718  77.7987632  80.3623400
  51.7979361  77.0120618  81.1162367  52.6504201  76.5899534  80.5840764
  52.0489571  78.0128550  81.4676634  51.4806808  76.1401613  82.3043616
  52.3858031  75.6734251  82.9947548  50.1873674  75.8414140  82.4869860
  49.4702163  76.3059696  81.9484865  49.7810626  74.9018872  83.4949918
  50.6011095  74.7430285  84.1952676  48.5744161  75.4128340  84.2673692
  48.8211397  76.3703705  84.7260089  47.7381771  75.5442088  83.5806778
  48.2162798  74.4869976  85.2738359  47.4545716  74.8171394  85.7559219
  49.4608048  73.5215615  82.9280345  48.7329405  73.3821290  81.9326164
  49.9431389  72.5002206  83.6386698  50.6278287  72.6789160  84.3593412
  49.5470962  71.1324341  83.3941305  49.8441600  70.8219968  82.3923915
  50.2127748  70.2156777  84.4031496  49.9176705  70.5083280  85.4108049
  49.9039195  69.1866845  84.2190798  51.2956783  70.2924304  84.3055369
  48.0395118  71.0037710  83.4821595  47.4506859  70.4026441  82.6092016
  47.4231888  71.5874413  84.5180789  47.9757377  72.1115383  85.1814878
  45.9813612  71.4700244  84.7538426  45.6726314  70.4272102  84.8268048
  45.5578674  72.2173789  86.0218491  45.6278737  73.2922380  85.8548841
  44.1321704  71.8525530  86.3582238  44.0614584  70.7778338  86.5257921
  43.8244006  72.3814221  87.2602637  43.4797609  72.1346036  85.5318411
  46.5103121  71.9288610  87.2108111  47.5146968  71.8537384  86.7940752
  46.4552479  72.7944070  87.8710365  46.1948179  70.6717180  87.9984936
  46.2501438  69.8056376  87.3389911  46.9165569  70.5584620  88.8074220
  45.1906934  70.7463054  88.4159508  45.1790190  72.0083869  83.5802725
  44.2889408  71.3353270  83.0759372  45.5063956  73.2306066  83.1553036
  46.2908068  73.6968712  83.5881958  44.8585625  73.8782624  82.0056061
  43.7933960  73.9984535  82.2032766  45.4668503  75.2577977  81.7500824
  46.5282013  75.0716203  81.5858531  45.0103736  75.5992208  80.8210188
  45.3016922  76.3119689  82.8050322  44.2589124  76.5587975  83.0044985
  45.7584943  75.9091257  83.7089964  46.0361282  77.5845724  82.4152914
  47.2569708  77.5744557  82.1837484  45.2863222  78.6728008  82.2517438
  45.7204253  79.5471721  81.9926473  44.2869485  78.6188334  82.3875413
  45.1380191  73.1331366  80.7028101  44.3531507  73.2068177  79.7436574
  46.2949515  72.4636319  80.6579002  46.9886622  72.5860946  81.3816872
  46.6375915  71.6489295  79.5077408  46.3871423  72.2022992  78.6026682
  48.1294358  71.2786082  79.4603301  48.6706780  71.9464084  80.1305533
  48.2394141  70.2506416  79.8057131  48.6980975  71.4045231  78.0480460
  48.0744259  70.8034005  77.3863919  48.6302766  72.4528306  77.7572649
  50.1269318  70.9467419  77.9425105  50.3066947  70.1358724  78.6483965
  50.3275821  70.5972805  76.9297343  51.0373632  72.0407892  78.2472929
  51.1422268  72.7578996  77.5438331  51.7180378  72.1614024  79.3819517
  51.6270378  71.2366900  80.3338025  51.0338111  70.4309962  80.1958184
  52.1515851  71.3445060  81.1901467  52.5099372  73.2102320  79.5603238
  52.5898881  73.9080191  78.8345131  53.0294018  73.3063374  80.4211484
  45.7447759  70.4118469  79.4448667  45.1037634  70.1647948  78.4385048
  45.6764506  69.6665075  80.5376437  46.2532478  69.9180946  81.3276489
  44.8147223  68.4822065  80.6534696  45.1036598  67.7219214  79.9278107
  44.9706928  67.9064224  82.0459605  44.7800652  68.7602693  82.6961187
  44.1752658  67.1715069  82.1696340  46.3015960  67.2776391  82.4145502
  47.0628497  67.7172308  81.7700717  46.6871653  67.4936200  83.8791831
  45.9265637  67.0538606  84.5243154  47.6485006  67.0191246  84.0761335
  46.7615342  68.5619778  84.0821146  46.2036507  65.8027725  82.1095398
  45.9968364  65.6636167  81.0484258  47.1452972  65.3155706  82.3625960
  45.3979803  65.3624523  82.6970024  43.3485027  68.8011818  80.4126235
  42.6802185  68.0689558  79.6987297  42.8476968  69.8737565  81.0311435
  43.4251906  70.3695070  81.6950951  41.4651543  70.3162713  80.8480651
  40.7861018  69.5159113  81.1420223  41.1579287  71.5681460  81.7096986
  42.1128731  71.9746114  82.0428147  40.6609520  72.2920591  81.0638936
  40.2722304  71.2783005  82.9293600  39.2790403  71.0311298  82.5544188
  40.6953196  70.4105443  83.4354200  40.1693344  72.4427128  83.9149965
  39.4108418  72.1991864  84.6589608  41.1342470  72.5646675  84.4071045
  39.8064749  73.7101394  83.2712390  40.5716199  74.3224596  83.0268694
  38.5628882  74.0955335  82.9759399  38.3508315  75.2820823  82.4067029
  39.1330514  75.8867539  82.2002947  37.4089115  75.5710048  82.1844189
  37.5372742  73.2947547  83.2298065  37.6986045  72.3897958  83.6482823
  36.5993181  73.5933378  83.0035648  41.1737409  70.5857201  79.3724484
  40.3666044  69.8933134  78.7481116  41.8486700  71.5816454  78.8194867
  42.4446384  72.1673855  79.3867870  41.6922157  71.9139813  77.4171113
  40.6940456  72.3103251  77.2309197  42.7190120  72.9756456  77.0291278
  42.2507939  73.9587100  76.9795753  43.5351906  72.9984965  77.7512291
  43.4752687  72.7071962  75.4363140  44.2578965  73.7819906  75.4710856
  41.8025511  70.6821758  76.5021062  41.0671618  70.5568255  75.5166415
  42.7151820  69.7841201  76.8434077  43.3088981  69.9770941  77.6373608
  42.8752538  68.4970486  76.1493867  43.1119550  68.6579139  75.0976291
  44.0312176  67.7126427  76.7998982  44.2109380  68.1745098  77.7707116
  43.6715045  66.6938257  76.9438374  45.3249014  67.6847508  76.0058748
  45.2838138  66.8009799  75.3691946  45.3663486  68.5786520  75.3835228
  46.5707215  67.6198109  76.8864202  47.6290454  68.1257122  76.4588056
  46.5018781  67.0495366  77.9920394  41.6680864  67.5602289  76.2254774
  41.3790699  66.8506344  75.2845555  41.0069524  67.5141621  77.3739014
  41.3603694  67.9734820  78.2010780  39.7751041  66.7359105  77.4863927
  39.9491462  65.7261177  77.1147382  39.3139560  66.6493605  78.9134164
  39.7105919  67.5349192  79.4099693  38.2265313  66.6478557  78.9882857
  39.8648543  65.4123062  79.5768956  40.8676023  65.2128958  79.1989635
  39.9238217  65.6266450  81.0802518  38.9213072  65.8256658  81.4590051
  40.3220167  64.7325191  81.5599189  40.5704956  66.4757035  81.3016405
  39.0250373  64.1986071  79.2060372  39.0421742  64.0608826  78.1249092
  39.4329364  63.3118818  79.6912566  37.9976231  64.3525036  79.5359384
  38.6946219  67.3232608  76.6267004  37.9096711  66.5886103  76.0370083
  38.6596423  68.6544236  76.5482592  39.2813540  69.2129421  77.1153844
  37.6746179  69.3400441  75.7232766  36.6786194  69.0657682  76.0709242
  37.8102110  70.8741840  75.7780804  37.2034405  71.2275747  76.6117733
  38.8571150  71.1140245  75.9640066  37.3419449  71.5729429  74.4601594
  36.4557587  71.0395790  73.7335948  37.8761497  72.6626745  74.1539549
  37.7455436  68.8556596  74.2769121  36.7527914  68.3865825  73.7212244
  38.9269957  68.9510320  73.6839906  39.6903050  69.3832937  74.1845983
  39.1511361  68.5384350  72.3064504  38.5263527  69.1088397  71.6191488
  40.6261678  68.7682173  71.9652471  41.2367315  68.3958698  72.7878464
  41.0047128  68.0581844  70.7016807  40.3948492  68.4303540  69.8784816
  42.0573347  68.2390601  70.4840302  40.8377862  66.9877623  70.8218112
  40.8796980  70.2662460  71.8143915  41.1551736  70.4462351  70.7752486
  39.9431559  70.7782580  72.0353713  41.9654762  70.7915739  72.7203034
  42.9024959  70.2803251  72.4995808  42.0891249  71.8621766  72.5571468
  41.6904790  70.6123457  73.7597040  38.7290573  67.0887226  72.0536491
  38.0949331  66.7960208  71.0426332  39.0617847  66.1969372  72.9893137
  39.5265792  66.5105338  73.8293866  38.7590559  64.7634965  72.8532548
  39.1954395  64.3781719  71.9317379  39.3374260  63.9883105  74.0257763
  39.1170894  64.5744133  74.9179839  38.7922412  63.0453645  74.0673266
  40.8017791  63.7130861  73.9612827  41.0333971  63.1337540  73.0675107
  41.3569535  64.6508604  73.9397699  41.2843405  62.7742781  75.4151341
  42.9000866  63.4782301  75.7208091  42.8026667  64.5492286  75.8984897
  43.3438442  63.0041047  76.5962433  43.5397293  63.3109298  74.8542244
  37.2596609  64.4636400  72.8339210  36.8213068  63.5388524  72.1688454
  36.4871455  65.2329417  73.5883836  36.8961319  65.8170500  74.3036787
  35.0395994  65.1434221  73.5171262  34.7354910  64.1177305  73.3083825
  34.4318468  65.5707351  74.8520739  34.8394679  66.5570495  75.0737226
  33.3449127  65.6313049  74.7972509  34.8133535  64.6143123  75.9922222
  35.9953310  64.3868060  76.2686333  33.8108486  64.0028462  76.6098850
  34.0034349  63.3629006  77.3671695  32.8597460  64.1801451  76.3199374
  34.4807061  65.9018941  72.3207866  33.6946847  65.3509094  71.5588454
  34.9319096  67.1414440  72.1237575  35.6531546  67.4931474  72.7371168
  34.3450325  68.0624182  71.1364992  33.2695333  67.9137218  71.2328843
  34.6831830  69.5635558  71.5064734  34.3799881  69.7620910  72.5344597
  35.7556346  69.7303657  71.4058656  33.9329167  70.5003337  70.5656376
  34.2359508  70.3026926  69.5374308  32.8603043  70.3344208  70.6660258
  34.2587597  71.9468312  70.9221431  33.9555670  72.1453670  71.9501298
  35.3312110  72.1136403  70.8215332  33.5084911  72.8836085  69.9813078
  33.8115239  72.6859676  68.9531008  32.4358803  72.7176965  70.0816993
  33.8225843  74.2779367  70.3249549  34.8163878  74.4319991  70.2315784
  33.3256846  74.8983603  69.7018456  33.5414748  74.4614043  71.2775388
  34.7233199  67.7758822  69.6666047  34.0367076  68.2199717  68.7379207
  35.7829219  66.9942773  69.4254976  36.2758182  66.5680181  70.1971554
  36.2611203  66.7310287  68.0650038  35.6906806  67.3208622  67.3475122
  37.7566513  67.1174255  67.9457164  38.2077347  67.1166084  68.9379978
  38.2662463  66.3890696  67.3149148  38.1179571  68.7377311  67.2324465
  39.4410258  68.6383404  67.3246915  36.1363415  65.2423242  67.6456541
  37.1436430  64.5195447  67.4871379  34.9256101  64.8685785  67.2650064
  34.1544919  65.5166258  67.3392408  34.6478867  63.5108415  66.7962049
  35.1798397  62.7843710  67.4105060  33.1626647  63.2364810  66.8995050
  32.8929829  62.4730162  66.1697835  32.8036523  62.7544522  68.2904339
  33.0726336  63.5176347  69.0207086  31.7319407  62.5629188  68.3438049
  33.3477573  61.8355566  68.5087942  32.4581770  64.4491148  66.6242498
  31.5132521  64.2912790  66.6859346  35.1204768  63.2171143  65.3529246
  35.5127570  62.0774593  65.0671543  35.0557634  64.1889520  64.4573993
  34.8988063  65.1398543  64.7594733  35.2960909  63.9394512  63.0126532
  35.2405196  62.8714056  62.8022025  34.2406319  64.6538675  62.1827951
  33.8351033  63.9618040  61.4447612  33.4395569  64.9958966  62.8380775
  34.8214542  65.7768897  61.5141991  34.1491294  66.2218740  60.9930772
  36.6047148  64.5080516  62.5070336  37.0567925  65.5144059  63.0055964
  37.1349691  63.9084643  61.4401168  36.6178981  63.1515039  61.0161502
  38.4182628  64.3168276  60.8202500  38.7342796  65.2715819  61.2405793
  39.5174480  63.2820124  61.0756192  39.0286216  62.3460334  60.8052650
  40.3408080  63.4732979  60.3874418  40.0555923  63.1809972  62.4931419
  39.2433534  63.4011495  63.1858913  40.6108960  61.7917465  62.7866336
  41.4235408  61.5710527  62.0945342  40.9862989  61.7585623  63.8094103
  39.8204127  61.0510016  62.6660781  41.1055243  64.2701561  62.6963088
  40.6496983  65.2482144  62.5422825  41.5009273  64.2097721  63.7102671
  41.9167675  64.1313547  61.9816637  38.2399433  64.4156793  59.3089064
  37.9020542  63.4549317  58.6379429  38.5020092  65.5832682  58.7891799
  38.9455046  66.2914300  59.3565581  38.0771778  65.9459654  57.4227620
  37.5962535  65.1019481  56.9283474  37.0606433  67.1036431  57.5229313
  37.5891054  68.0539907  57.5982072  36.4223409  67.1124379  56.6394197
  35.8966134  67.0322494  59.0095673  35.2334365  68.1483094  58.7205957
  39.2943112  66.2724499  56.5691202  40.4023967  66.4889573  57.0771450
  39.1053839  66.2325621  55.2596102  38.2131527  65.8963185  54.9264992
  40.0892918  66.6698914  54.2775733  41.0005813  66.0731504  54.3169547
  39.4266059  66.4671920  52.8997104  39.2653745  65.3991842  52.7532080
  38.4657525  66.9818115  52.9049648  40.2952172  67.0466743  51.4332706
  39.3677932  66.6617233  50.5611491  40.3817789  68.1461077  54.5190806
  39.4525310  68.9368716  54.5096124  41.6342786  68.5103496  54.8222809
  42.4031978  67.8555303  54.8136578  41.8902170  69.8641059  55.2690922
  41.1489930  70.1383254  56.0197517  43.2731834  70.0065591  55.8783222
  43.2260651  69.6216621  56.8970142  43.9571888  69.3944548  55.2904746
  43.7746896  71.4512191  55.9022399  43.8181985  71.8043329  54.8719397
  43.0495854  72.0448796  56.4589204  45.1441266  71.5930688  56.5439906
  45.4692091  70.6149137  56.8984380  45.8467192  71.9596891  55.7956239
  45.0955453  72.5711289  57.7200103  46.1258936  72.7598715  58.0214389
  44.6509741  73.4947412  57.3493409  44.3099955  72.0766866  58.9032789
  44.7220382  71.2210813  59.2471685  44.3252933  72.7747939  59.6330132
  43.3551166  71.9021394  58.6242830  41.6876819  70.8434793  54.1061956
  41.1818530  71.9573908  54.3036598  42.0537838  70.3977686  52.9000130
  42.4250255  69.4605909  52.8369509  42.0238340  71.2091875  51.6954079
  42.5280314  72.1632301  51.8493132  42.7634711  70.4357604  50.5984150
  43.7932185  70.7929224  50.6108579  42.7398444  69.3863909  50.8922947
  42.1993421  70.5805578  49.2106231  42.8348770  70.0337396  48.5140700
  41.1886081  70.1740203  49.1753239  42.1525272  72.0142259  48.7899296
  41.0900879  72.5384295  48.4218326  43.3029968  72.6670263  48.8227397
  43.3365873  73.6389395  48.5500531  44.1422615  72.1903908  49.1203209
  40.5792405  71.5902680  51.2660989  40.2516017  72.7762342  51.2014612
  39.7291042  70.6032289  50.9751639  40.0304182  69.6400797  51.0158181
  38.3751977  70.8852118  50.5117884  38.3320529  71.8658514  50.0378857
  37.9661770  69.8370882  49.4948268  37.0265582  70.1026472  49.0103743
  38.7382779  69.6990089  48.7379289  37.7021543  68.2111994  50.2448365
  37.3756508  67.5886464  49.1158009  37.3955615  70.9510901  51.6977711
  36.1813528  71.1456916  51.5324611  37.9572074  70.7564336  52.8833628
  38.8322963  70.2525354  52.9034935  37.3344901  71.1245493  54.1648619
  38.0244721  70.9418033  54.9886507  36.9790324  72.6126303  54.1457626
  37.5410450  73.0690860  53.3309686  35.9118351  72.6876965  53.9370642
  37.2936936  73.3379135  55.4479756  36.4707337  73.2190203  56.1527466
  38.1944916  72.8851726  55.8623314  37.5472361  74.8261331  55.2420857
  38.2026313  75.2146894  54.2765003  36.9962654  75.6682047  56.1315168
  37.1376359  76.6635618  56.0346663  36.4430542  75.3022792  56.8931973
  36.1164481  70.3031379  54.5997251  36.1306758  69.6401544  55.6463341
  35.0582072  70.3393299  53.7989896  35.0737643  70.8867385  52.9503430
  33.7693530  69.7165519  54.2146596  33.7788529  69.5791195  55.2959187
  32.5326221  70.5891372  53.8336534  32.6731634  70.8824021  52.7932962
  31.6620237  69.9380457  53.9126363  32.3116571  71.8539368  54.7011245
  33.2869083  72.1526347  55.0855273  31.9339587  72.6259351  54.0307054
  31.3345580  71.6702607  55.8719701  31.0063343  72.6771564  56.5579638
  30.8892707  70.5307736  56.1040055  33.6272302  68.2664638  53.7135972
  32.5330794  67.7988322  53.3973886  34.7191308  67.5152192  53.7242162
  35.5990398  67.9593638  53.9446587  34.7164676  66.0644456  53.4513282
  33.7179341  65.6895434  53.2266541  35.6795458  65.7187868  52.2244837
  36.6702835  66.1148499  52.4473583  35.7779767  64.1928972  51.9744552
  34.7876254  63.7961716  51.7510438  36.4429296  64.0044526  51.1315878
  36.1727197  63.7030572  52.8645875  35.2606798  66.3725719  51.0110567
  35.8617427  66.1413578  50.2991130  35.2324940  65.2572049  54.6882761
  36.3854232  65.3494623  55.0280302  34.4077914  64.3195348  55.1724759
  33.4362314  64.3298020  54.8966769  34.8185763  63.4030899  56.2551912
  35.5163802  63.9413380  56.8966411  33.6420938  62.8613708  57.1383556
  33.2247083  63.7090021  57.6818717  32.8877587  62.4556369  56.4642202
  34.0795068  61.7610621  58.1498948  34.0023343  60.8344832  57.5810390
  35.1213801  61.9366028  58.4178210  33.2287183  61.6480866  59.4364688
  33.7406190  61.0787131  60.4211684  32.0460077  62.0692115  59.4611562
  35.7441218  62.2581032  55.7501911  35.4606736  61.4976283  54.7849963
  36.8660413  62.1364988  56.4092624  37.1589719  62.8360530  57.0762818
  37.7783750  61.0148162  56.1275454  37.5756376  60.5244372  55.1754292
  39.2386079  61.5168194  56.1469453  39.4057255  62.0401076  57.0884025
  40.2446487  60.3683929  56.0157068  40.0784431  59.8448845  55.0742105
  41.2582927  60.7687486  56.0341950  40.1138314  59.6734991  56.8452298
  39.4691373  62.5986241  55.0369346  38.9067240  63.4753675  55.3580468
  40.5355340  62.8229925  55.0605238  39.0581788  62.2233344  53.6100122
  37.9917391  61.9992650  53.5855366  39.2693670  63.0563854  52.9395461
  39.6205479  61.3468880  53.2880144  37.5343502  59.8837970  57.1324143
  37.3744847  58.7158801  56.7544192  37.5046446  60.2437465  58.4033084
  37.6020750  61.2208753  58.6395838  37.5295236  59.2618988  59.4880374
  36.8064922  58.4631511  59.3227282  38.9744827  58.6160143  59.6388204
  39.5124743  58.7683213  58.7031561  39.7596755  59.2280127  60.7765722
  39.2224969  59.0756869  61.7127002  40.7391923  58.7539431  60.8390557
  39.8842598  60.2962839  60.5994397  38.8917173  57.1879117  59.8376311
  39.7762474  56.8252535  59.9253003  36.9352535  59.8863783  60.7987664
  36.5678695  61.0720713  60.8509501  36.7706873  59.0600322  61.8195598
  37.1625149  58.1310929  61.7592093  36.1779964  59.4797441  63.0846192
  35.8937717  60.5315767  63.0535755  34.9464818  58.6568305  63.3385149
  34.1965744  59.2961584  63.8043464  34.3616537  58.0474936  61.9991499
  35.1108814  57.4076352  61.5329538  33.4721034  57.4594354  62.2249524
  34.0988190  58.8553569  61.3162330  35.3236663  57.6103958  64.2268912
  34.5603039  57.0593950  64.4147108  37.0603224  59.1396996  64.2729739
  38.0443013  58.4085760  64.1198827  36.6876923  59.6487213  65.4520624
  35.9561535  60.3440733  65.4899576  37.3880966  59.3119831  66.6893926
  38.4486139  59.5074501  66.5306633  36.9260533  60.0915242  67.9254155
  37.0831202  61.1498692  67.7172445  35.8600184  59.9002118  68.0481720
  37.6749610  59.7040557  69.2301983  38.1645150  58.7461272  69.0546684
  38.4295487  60.4688252  69.4141201  36.7308791  59.5881059  70.4819946
  36.6412199  60.5880919  70.9063625  35.7575540  59.2602887  70.1169281
  37.2316841  58.6042179  71.5762783  36.4709392  57.8264054  71.6424260
  38.1551578  58.1762719  71.1862044  37.4837782  59.1774593  72.9465330
  36.6280865  59.5736724  73.3083435  37.8032603  58.4450610  73.5642901
  38.1889804  59.8979225  72.8855275  37.2800945  57.8395940  66.9038499
  38.2789017  57.2123237  67.1607838  36.0806241  57.2786730  66.7486098
  35.2871551  57.8832662  66.5905802  35.8411336  55.8319900  66.8762166
  35.8088552  55.5626819  67.9319298  34.4806302  55.4162673  66.2103457
  34.6104926  55.2703068  65.1379976  34.2023167  54.4699834  66.6742298
  33.3329168  56.4359484  66.4366184  32.7237710  56.9364353  65.4654108
  32.9955762  56.6964275  67.7080932  32.2543623  57.3532588  67.9062708
  33.4842533  56.2345918  68.4617531  36.9782167  54.9749688  66.2944263
  37.3366655  53.9478394  66.8617196  37.5246439  55.4055235  65.1587054
  37.2080619  56.2764399  64.7569843  38.4371659  54.5743641  64.3782859
  38.2786006  53.5238560  64.6219845  38.1933573  54.7721695  62.8690237
  38.6357818  55.7324536  62.6040437  38.7295380  53.9723642  62.3582187
  36.6868397  54.7528400  62.4328447  36.2763672  55.3344976  63.2582462
  36.5232677  55.2862712  61.4964716  35.9715558  53.3552030  62.3708623
  35.5506149  52.9518650  61.2455333  35.6665626  52.7338969  63.4435872
  39.9181496  54.7276025  64.7659527  40.7350356  53.8768882  64.4193285
  40.2505697  55.7548899  65.4976825  39.5308678  56.4039081  65.7821187
  41.5993220  55.9742719  65.9738135  42.3642109  56.0114635  65.1981454
  41.5942665  57.2767089  66.7381755  40.6759586  57.3381754  67.3221556
  42.7856272  57.3609244  67.6634066  43.7043755  57.2999886  67.0800637
  42.7607922  58.3074662  68.2033534  42.7524779  56.5361641  68.3752849
  41.5140633  58.4601630  65.7640273  42.4023303  58.4291274  65.1330603
  40.6260534  58.3206546  65.1475248  41.4373903  59.8093256  66.4660062
  42.3253434  59.9497599  67.0823805  41.3827999  60.6040218  65.7219786
  40.5490671  59.8412861  67.0968471  42.0226548  54.8799172  66.9400614
  41.3178720  54.5766268  67.8851144  43.1834969  54.3032818  66.7117585
  43.6650568  54.4433591  65.8350728  43.8227478  53.4518900  67.7323978
  43.4987509  53.7544165  68.7281904  43.4386716  52.0240611  67.5186594
  43.7402176  51.3379942  68.3101653  42.3520633  52.0237673  67.4327386
  43.9713283  51.4583576  66.2338180  43.3263268  51.7258651  65.0334424
  42.4347290  52.3528641  65.0385019  43.7937797  51.2162155  63.8601197
  43.2524294  51.3778994  62.9279722  44.9606607  50.4918134  63.8598114
  45.3399563  50.0853070  62.9222682  45.6506152  50.2774962  65.0325825
  46.5817814  49.7110104  65.0214742  45.1682646  50.7744739  66.2084511
  45.7296469  50.6313323  67.1317390  45.3282325  53.5146123  67.6821233
  45.8989857  53.8791786  66.6525286  45.9171813  53.1103894  68.7982493
  45.3492920  52.6667494  69.5059106  47.3572563  53.2748980  69.0603754
  47.7353985  54.1506922  68.5330309  47.6015971  53.4680510  70.5826485
  46.7892794  52.9717625  71.1136259  48.5461573  52.9836313  70.8301230
  47.6549043  54.8377633  70.9703332  47.8071610  54.8968641  71.9163378
  48.1054598  52.0648597  68.5996372  48.2401281  51.1253338  69.3567564
  48.5518387  52.0527484  67.3492596  48.2744532  52.7615662  66.6853816
  49.4558473  51.0284516  66.9124147  49.0471043  50.0499560  67.1645551
  49.6668306  51.0926927  65.4207545  49.4037050  52.1129098  65.1414317
  50.7327723  50.9349931  65.2564401  48.8784722  50.1206870  64.5759527
  47.8962225  50.5408076  64.3596544  49.6157722  49.8654174  63.2763827
  50.5980008  49.4448314  63.4918664  49.0464215  49.1637380  62.6668037
  49.7338354  50.8038605  62.7346392  48.6785933  48.8105065  65.3044480
  48.1345610  48.9892025  66.2319155  48.1080992  48.1275511  64.6749961
  49.6488564  48.3691390  65.5322268  50.7710068  51.2285711  67.5894299
  51.4255476  50.2799555  67.9638705  51.1849066  52.4712927  67.6793021
  50.6352307  53.2239538  67.2901274  52.4231338  52.7999837  68.3390896
  53.1507795  52.0148236  68.1337740  53.0065300  54.1536170  67.8596653
  53.2321665  54.0685646  66.7966726  52.2481539  54.9221193  68.0092311
  54.2042033  54.5143737  68.5776522  54.5317751  55.3556669  68.2512746
  52.1440999  52.8913229  69.7996067  51.0835146  53.3047020  70.2092986
  53.1450583  52.5695925  70.6059601  54.0204486  52.2167996  70.2463377
  52.9982960  52.7019468  72.0202388  52.1581125  52.0832545  72.3355334
  54.2478223  52.2751018  72.8116947  54.2489770  51.1947166  72.6672448
  55.1799948  52.6929725  72.4315127  54.1164158  52.5966802  74.3365782
  53.0927320  52.9240985  74.5181536  54.4360694  51.3935684  75.2365501
  55.4598137  51.0658515  75.0558623  54.3266076  51.6819599  76.2819922
  53.7489321  50.5779636  75.0113136  54.9266732  53.8456278  74.7377973
  54.5669729  54.7083196  74.1770139  54.8055305  54.0305231  75.8051489
  55.9811291  53.6822200  74.5152672  52.7012782  54.1680965  72.2881392
  51.8512294  54.5055588  73.0817594  53.3815472  55.0321855  71.5749006
  54.1254857  54.7286128  70.9629379  53.2824212  56.4145766  71.8788334
  53.2461238  56.5382650  72.9611840  54.4392647  57.1885995  71.3500124
  54.8599701  56.8069919  70.4196996  54.2702330  58.2615228  71.2585588
  55.7205862  56.9902428  72.5947509  56.6371848  57.7229267  71.9687161
  51.9671319  57.0423442  71.6279729  51.6376803  57.9823585  72.3407503
  51.1885359  56.5673753  70.6758858  51.4938369  55.8601118  70.0226868
  49.8508765  57.0712590  70.5565598  49.2810203  56.7484487  71.4278558
  49.8926065  58.1602137  70.5334205  49.1767429  56.5916080  69.3385336
  49.7469466  55.8464384  68.5517967  48.0088537  57.1414428  69.0779929
  47.1773841  57.9806977  69.9597778  47.7857952  58.7860385  70.3713144
  46.7839414  57.3711713  70.7732760  46.0911342  58.4859094  69.0420424
  46.3418805  59.4915483  68.7045283  45.1442886  58.5097973  69.5814997
  46.0291511  57.5226268  67.8943449  45.6938381  58.0401582  66.9955538
  45.3791910  56.6686588  68.0851067  47.4668802  57.0516731  67.7148069
  47.5378157  56.0104617  67.4002514  48.2039400  57.9361983  66.7132800
  47.9332288  57.8910302  65.5332671  49.0922514  58.7840570  67.2292871
  49.1786415  58.8366780  68.2342086  49.9626394  59.6116711  66.4214371
  49.9858199  59.2319634  65.3999754  49.4815048  61.0070359  66.3951954
  48.4248260  61.0112097  66.6626122  50.0447106  61.5786057  67.1328994
  49.6550437  61.6226367  65.0547351  50.6796328  61.9736828  64.9319156
  49.4242325  60.8969181  64.2748884  48.5267143  63.0242551  64.9136332
  49.4922585  64.3769663  65.5698761  50.3954766  64.5025535  64.9727797
  48.9041540  65.2940542  65.5354740  49.7669838  64.1606439  66.6022674
  51.3766271  59.6667346  66.9610487  51.6039281  59.8229022  68.1681112
  52.3228819  59.5641313  66.0104614  52.0369370  59.2876634  65.0820755
  53.7385148  59.8369251  66.2466858  53.9149822  60.4764597  67.1115291
  54.5102587  58.5321969  66.4386510  54.3507690  57.8848704  65.5763103
  55.5737778  58.7496704  66.5373046  54.1575395  58.0299907  67.3394714
  54.2546097  60.5743577  65.0162500  53.5917088  60.6371574  63.9986290
  55.5028407  61.0238518  65.0832833  55.9760331  61.0628289  65.9747255
  56.2114893  61.5122856  63.8997058  55.5087066  61.8641485  63.1444653
  57.1184112  62.6878691  64.3144405  57.8336911  62.3488254  65.0637897
  57.6557231  63.0584556  63.4414790  56.5079813  63.4887173  64.7317134
  57.0425764  60.3698271  63.2548121  57.6347770  59.5171430  63.9226191
  56.9936488  60.3314442  61.9220249  56.3085191  60.8757990  61.4176694
  57.8402221  59.4166455  61.1677822  58.6443930  59.0563579  61.8093437
  57.0376099  58.2018310  60.6532207  56.3180361  58.6074531  59.9420362
  57.7215053  57.5302087  60.1342690  56.2968861  57.4311079  61.7421413
  56.9441081  56.5151475  62.5587527  58.0162989  56.3654983  62.4318224
  56.2467836  55.7899473  63.5311823  56.7705970  55.0547256  64.1420590
  54.8780431  55.9667178  63.6792586  54.1923378  55.2794909  64.6494469
  54.7562233  54.7029377  65.1702340  54.2079782  56.8800118  62.8842132
  53.1362423  57.0403511  63.0015752  54.9209579  57.6005093  61.9226372
  54.4045826  58.3194415  61.2865608  58.5398362  60.1982378  60.0467703
  57.9262948  61.0946733  59.4251086  59.8330253  59.8901665  59.7818947
  60.3877143  59.3123356  60.3971433  60.4649037  60.4135570  58.5552198
  59.9392862  61.2778611  58.1492594  61.9687370  60.7130409  58.5613566
  62.3758632  60.4600603  57.5824040  62.2436936  62.1852481  58.8617927
  61.8372366  62.4388769  59.8408566  63.3191640  62.3625965  58.8584029
  61.7711619  62.8063117  58.1008095  62.7267492  59.7464020  59.4122642
  62.5822486  58.7353703  59.0314277  63.7877724  59.9949140  59.3883668
  62.3639234  59.8028255  60.4385559  60.3304252  59.4985452  57.3944326
  60.4840011  58.3067267  57.5555787  60.1419102  60.0741456  56.2084746
  59.8343334  61.0333302  56.1345787  60.2311695  59.2832204  54.9917507
  60.0990745  58.2321322  55.2483896  59.1477383  59.6797088  53.9299692
  59.2103404  58.8261385  53.2549892  58.1324054  59.7618224  54.3178563
  59.4741549  60.9482426  53.1442745  60.1829152  61.7907858  53.6138369
  58.7955401  61.1416437  52.0350875  58.9710502  61.9644534  51.4762672
  58.1018158  60.4665208  51.7468920  61.6468267  59.3486177  54.4488142
  62.5354045  59.9560170  55.0790718  61.9214704  58.6613292  53.3259895
  60.9894622  57.8393540  52.5601851  60.4102500  58.4668373  51.8827797
  60.3138561  57.3152832  53.2362068  61.8943548  56.9206781  51.8462762
  61.4321265  56.6059391  50.9106570  62.0907502  56.0459082  52.4662020
  63.1391450  57.6874302  51.6038109  63.0151644  58.3005090  50.7111394
  64.0218250  57.0578015  51.4918133  63.2876156  58.5669924  52.8098589
  63.9084350  58.1820555  53.6188739  63.8617249  59.8817152  52.3141641
  65.0738549  60.0737325  52.4014062  63.0224225  60.7701141  51.7882802
  62.0662409  60.5074658  51.5963637  63.4900208  62.0510973  51.3105314
  64.5270312  61.9749188  50.9835674  62.6528891  62.4937065  50.1488780
  61.7047295  62.2054906  50.6027769  62.5815225  63.5160784  49.7777141
  62.8365580  61.6261145  48.9659183  63.8629309  61.8406792  48.0772711
  63.8930790  60.8453741  47.2059871  64.6005100  60.8555202  46.3768083
  62.9746400  59.9607116  47.5508538  62.7470488  59.1098373  47.0565714
  62.3689186  60.3856973  48.7038580  61.6572363  59.7382931  49.2161834
  63.6167643  63.0861816  52.4078147  63.9538253  64.2540904  52.1497935
  63.4209063  62.6449473  53.6469628  63.0774034  61.7067972  53.7952169
  63.6881840  63.4794034  54.8193756  63.9767617  62.8043453  55.6250546
  64.5322689  64.1194035  54.5624321  62.5267816  64.3542365  55.2948865
  62.6725421  65.1571122  56.2102288  61.3420653  64.0723443  54.7314133
  61.3575484  63.3907910  53.9861988  60.0584174  64.6668646  55.1003749
  60.1939421  65.7265323  55.3167925  59.0135189  64.5213441  53.9234128
  59.0303179  63.5119586  53.5123678  58.0596996  64.6942947  54.4218270
  59.1877735  65.5326476  52.7946477  59.1452047  66.8905546  53.0719945
  58.8579066  67.1941928  54.0786539  59.4548881  67.8567297  52.1131837
  59.4407455  68.9104741  52.3916161  59.7630979  67.4962826  50.8476915
  60.0300399  68.5483592  49.9559635  59.9589575  69.4139384  50.3650107
  59.8026496  66.1267069  50.5189663  60.0728717  65.8214829  49.5080663
  59.4948524  65.1533938  51.4902064  59.4961894  64.0967950  51.2224425
  59.4380069  64.0208667  56.3392932  59.3490485  62.7991120  56.4456314
  58.8986390  64.8697943  57.2207637  58.8522828  65.8619216  57.0373683
  58.3415663  64.3683835  58.4839487  58.7022280  63.3634456  58.7033163
  58.6016550  65.2562149  59.6988867  57.7424632  65.9041654  59.8722328
  58.8251583  64.3724966  60.9193285  59.6845325  63.7245410  60.7469027
  59.0117636  64.9980355  61.7922432  57.9393354  63.7616571  61.0933815
  59.7590314  66.2248679  59.4730011  59.5319487  66.8718212  58.6256600
  59.9036423  66.8334648  60.3656360  60.6693504  65.6621730  59.2661326
  56.8219494  64.2248791  58.4343806  56.0952822  65.1259335  57.9349572
  56.3324415  63.1215050  58.9856750  56.9244346  62.4351349  59.4312528
  54.8862855  62.8407936  58.8880784  54.3459082  63.7492058  58.6218476
  54.6322257  61.7906733  57.8138704  55.3957398  61.0180933  57.9047860
  53.6450033  61.3375557  57.9042946  54.7307200  62.3283042  56.4199870
  53.9168121  63.3389944  55.9502633  53.1893994  63.7867988  56.4891896
  54.2417446  63.6190865  54.6989091  53.7025100  64.3858547  54.1426794
  55.2475919  62.8390113  54.3464777  55.5763353  62.0270524  55.4075171
  56.3941888  61.3125666  55.3140994  54.3773023  62.4074442  60.2254528
  54.6838928  61.3067415  60.6828158  53.5446640  63.2628743  60.8117009
  53.4217177  64.2026653  60.4627363  52.8391711  62.8805980  62.0130442
  53.4691753  62.2149066  62.6030007  52.4781047  64.1024636  62.8706021
  51.4598323  64.3761066  62.5943049  52.4939251  63.7612857  63.9057095
  53.3903048  65.3191952  62.7217332  54.3944970  64.9682256  62.4839955
  53.0027707  65.9028120  61.8866835  53.4398026  66.1932414  63.9739869
  53.5253389  65.6239648  65.1120241  53.4110985  67.4579409  63.7911749
  51.5894282  62.0923304  61.5342145  50.5729480  62.6727609  61.1170941
  51.6928362  60.7752797  61.5381280  52.5483899  60.3135912  61.8119360
  50.6615069  59.9921916  60.9609028  49.9025471  60.6393818  60.5213301
  51.1516272  59.0325288  59.8999738  51.4295858  59.5965956  59.0096547
  52.3321609  58.2759762  60.3957289  52.0548366  57.7112560  61.2858311
  52.6749448  57.5887461  59.6222219  53.1331621  58.9726507  60.6429987
  50.0733862  58.1427977  59.5406398  50.3757467  57.5293676  58.8669321
  49.8102320  59.3215510  62.0083026  50.3061316  58.8766387  63.0373009
  48.5084997  59.2830542  61.7142805  48.2338774  59.5827855  60.7897033
  47.4776593  58.8071947  62.6175916  47.8397817  58.7403041  63.6435020
  46.3607651  59.8185270  62.5659156  46.8679524  60.7735688  62.7028660
  45.9714221  59.7569327  61.5496882  45.2170294  59.7090415  63.5516263
  44.8034081  58.7025278  63.4887914  45.6761788  59.9792621  64.9732471
  46.0895273  60.9858306  65.0369782  44.8281140  59.8916324  65.6523701
  46.4410203  59.2546093  65.2525248  44.1722538  60.7305792  63.1267067
  43.8341508  60.5060029  62.1150985  43.3241697  60.6895177  63.8102041
  44.6090125  61.7289766  63.1500178  46.9426737  57.4578455  62.1565229
  46.4771994  57.3322967  61.0428519  47.0093395  56.4732800  63.0272251
  47.3695376  56.6629753  63.9515477  46.6229228  55.1052077  62.7032613
  46.8717227  54.9119899  61.6597745  47.5316782  54.1881625  63.6178632
  46.9294022  53.3997137  64.0692084  48.5667370  53.5932956  62.7921934
  49.1697563  54.3811752  62.3408476  49.2027217  52.9573540  63.4079863
  48.1060956  52.9940191  62.0068413  48.2323029  54.9819770  64.6130769
  48.7765760  54.4068537  65.1558479  45.1080932  54.9093595  62.9655621
  44.6839925  55.0746195  64.0786985  44.3383080  54.6143070  61.9306592
  44.7589549  54.5380669  61.0155948  42.9109681  54.5043060  62.0347677
  42.5925215  54.3610297  63.0673193  42.2326455  55.7917726  61.4787111
  41.1518559  55.6506073  61.4706321  42.5789100  56.9822594  62.3456714
  43.6595786  57.1243474  62.3538703  42.0985630  57.8753802  61.9460436
  42.2284224  56.8059978  63.3626237  42.6210489  56.1010130  60.0521547
  42.3297042  55.2715610  59.4077715  42.1143983  57.0092661  59.7258403
  43.6997271  56.2456822  59.9919475  42.4143016  53.2235020  61.3386114
  43.0968654  52.7472676  60.4434033  41.3351766  52.6127723  61.8584232
  40.7792738  53.0852791  62.5568563  40.9334481  51.2683327  61.4454422
  41.8140695  50.6374305  61.3247460  40.0587980  50.6650566  62.4631501
  39.6905813  51.5546821  62.9741121  39.2173331  50.1117374  62.0461675
  40.7828843  49.8083180  63.4260888  41.5023216  48.6975719  62.9931093
  41.6067675  48.5135032  61.9238529  42.0842230  47.8278472  63.9082168
  42.6849510  46.9880028  63.5590907  41.9324379  48.0587419  65.2874872
  42.4790707  47.1892867  66.2076992  42.9450917  46.4557304  65.7998767
  41.1942194  49.1414562  65.7357796  41.0631781  49.3226682  66.8025931
  40.6178396  50.0010050  64.8094043  40.0216889  50.8479704  65.1490425
  40.1804388  51.2536910  60.1357042  40.5398926  50.5184613  59.2622746
  39.1313582  52.0443075  59.9584860  38.5698644  52.3737187  60.7306985
  38.6640298  52.3317185  58.5708080  39.3133069  51.7500885  57.9164038
  37.2118372  51.8698276  58.3593759  37.1262491  50.8124164  58.6096871
  36.5485325  52.4494807  59.0013488  36.8188057  52.0800474  56.9009665
  36.9037070  53.1373659  56.6500278  37.4814210  51.5003004  56.2583652
  35.3793332  51.6222045  56.6913860  35.2937436  50.5647940  56.9416986
  34.7160295  52.2018593  57.3333579  34.9863032  51.8324228  55.2329754
  35.0712051  52.8897409  54.9820356  35.6489169  51.2526736  54.5903768
  33.5987457  51.3910941  55.0309548  32.9845410  51.9284755  55.6259956
  33.3384435  51.5303192  54.0650567  33.5199504  50.4112791  55.2630174
  38.8763676  53.7993869  58.1939537  39.4842237  54.6154287  58.9447171
  38.3707548  54.1538292  57.0113297  38.0666862  53.4436111  56.3607669
  38.2912581  55.5722367  56.5905325  37.5975026  56.0832703  57.2581007
  39.6541177  56.2305175  56.7107579  40.3576138  55.7355092  56.0413103
  39.5748554  57.2833081  56.4397416  40.0096972  56.1459983  57.7376556
  37.7638583  55.7339677  55.1468727  37.9847385  54.8722736  54.2518531
  37.0398418  56.8183940  54.9464138  37.0487575  57.5780319  55.6119738
  36.1584232  56.9165857  53.8078530  36.0855029  55.9492220  53.3108729
  34.7303369  57.3521016  54.2637408  34.7525544  58.4321525  54.4089845
  34.0438122  57.1091319  53.4527232  33.9858545  56.6475922  55.7902327
  32.8408694  57.3194279  55.7093371  36.7113747  57.8860662  52.7536029
  37.6184488  58.6741814  53.0239138  36.1054030  57.8325474  51.5675358
  35.4708914  57.0685612  51.3836351  36.3292749  58.8283818  50.5012834
  35.7968567  58.5319972  49.5975212  35.8162307  60.1974905  50.9431886
  36.4020888  60.4408813  51.8295465  35.9608751  60.9710371  50.1889979
  34.3733283  60.1631300  51.3201419  34.0624235  60.0109778  52.4761410
  33.4826527  60.1986770  50.3313308  32.4955154  60.1772757  50.5439380
  33.7981529  60.2468849  49.3730843  37.7688027  58.9912549  50.1157784
  38.2251157  60.1076315  49.9062895  38.5021712  57.8875185  49.9790940
  38.1240827  56.9934141  50.2578873  39.8717805  57.9299513  49.4495074
  40.1084854  58.9586413  49.1777228  40.9205315  57.4349896  50.4647454
  40.5091176  56.4619462  50.7331191  41.8841757  57.2986051  49.9739408
  41.1075314  58.2776223  51.7320773  40.1196229  58.5281197  52.1185855
  41.9077924  57.5394326  52.8140520  42.8960541  57.2889955  52.4284111
  42.0117097  58.1795929  53.6901209  41.3847110  56.6247516  53.0930593
  41.7217310  59.6252070  51.3741172  41.0627057  60.1540495  50.6855603
  41.8514428  60.2179850  52.2795952  42.6910739  59.4690337  50.9007430
  39.9921377  57.0691689  48.1915659  39.2983584  56.0598970  47.9994600
  40.9696522  57.4270435  47.3779929  41.4335370  58.3141876  47.5117299
  41.4628633  56.5355832  46.3187543  40.7355792  55.7375548  46.1693972
  41.6766898  57.2518070  44.9952919  42.3471349  58.0993836  45.1374769
  42.1368588  56.5353765  44.3147981  40.4081928  57.7446698  44.3825278
  39.3506901  57.6667254  44.9767861  40.5157869  58.2917582  43.1938316
  39.6923876  58.6443882  42.7271781  41.4214528  58.3574309  42.7516133
  42.8330163  56.0134800  46.7185980  43.6395552  56.7273493  47.3429614
  43.1301569  54.8201732  46.2312466  42.3964092  54.2604233  45.8208887
  44.4563323  54.2777207  46.2724793  45.0933069  54.8926884  46.9082288
  44.4211048  52.9035258  46.8253015  44.0393173  52.3075870  45.9963295
  45.4148326  52.5492718  47.0993620  43.5025846  52.7701191  47.9999559
  43.0132379  53.7281627  48.1754356  42.4223290  51.6754868  47.7346882
  42.9109309  50.7169986  47.5595667  41.7655264  51.5950183  48.6008498
  41.8349630  51.9488209  46.8581096  44.3587221  52.5124574  49.2334019
  45.0434729  53.3474178  49.3819178  43.7158455  52.4105253  50.1077136
  44.9302898  51.5948093  49.0943655  45.0407666  54.2549062  44.8430259
  44.3213039  54.1433912  43.8416889  46.3206065  54.5724259  44.7747609
  46.7927973  54.8879807  45.6099617  47.0625880  54.5543727  43.5324310
  46.4794277  54.0729558  42.7474081  47.4324797  55.9715239  43.0954952
  48.1870821  55.9121651  42.3111789  46.2171926  56.7071554  42.5715176
  45.4622798  56.7673238  43.3554737  46.5044778  57.7133951  42.2664775
  45.8087138  56.1710666  41.7148654  48.0523118  56.7709198  44.2380399
  47.5335940  57.7272811  44.3044141  47.9044381  56.2130286  45.1626967
  49.5376443  57.0142016  44.0254781  49.6862871  57.5724867  43.1011822
  49.9361281  57.5865828  44.8631473  50.0571311  56.0582334  43.9594626
  48.2800906  53.6860109  43.7202186  48.9468037  53.7636655  44.7667545
  48.5754177  52.8670616  42.7155151  48.0111849  52.8475837  41.8780420
  49.7361085  51.9638894  42.7966741  50.0037342  51.6348892  41.7925653
  50.5758809  52.5001147  43.2386516  49.4223418  50.7410489  43.6524695
  48.2595391  50.5153408  44.0380970  50.4614352  49.9700151  43.9700507
  51.3787146  50.2193893  43.6287145  50.3099271  48.7194547  44.6726671
  49.2729666  48.5867906  44.9812324  50.7043270  47.5451920  43.7490498
  51.3713379  47.9489121  42.9873375  51.2470804  46.8257748  44.3622038
  49.5051512  46.8394730  43.0641651  49.4460495  45.8328832  43.4781516
  48.6079672  47.3962625  43.3346247  49.6156481  46.7573301  41.5242018
  48.7069803  46.2900371  41.1446506  49.6905752  47.7731425  41.1361160
  50.7775485  45.9840339  41.0506899  51.5175122  46.5075701  40.6051981
  50.9265718  44.6612811  41.1917994  52.0394703  44.0735103  40.7881813
  52.7765711  44.6253979  40.3732083  52.1476551  43.0751901  40.8965899
  49.9827556  43.9263197  41.7569876  49.1356791  44.3653652  42.0883493
  50.1136806  42.9295991  41.8544829  51.0788658  48.7261297  46.0013994
  52.0286998  49.5004167  46.2095703  50.6223505  47.8988604  46.9212283
  50.1963189  46.5517510  46.5373545  51.0285858  46.0196504  46.0765931
  49.3696295  46.6146793  45.8297360  49.7862545  45.9552397  47.8370558
  50.0589510  44.8999067  47.8342346  48.7048644  46.0502819  47.9353596
  50.4925376  46.7018402  48.9343911  51.2312757  46.0195779  49.3549660
  49.8358076  47.0593007  49.7275035  51.1959397  47.8823665  48.2688739
  50.9976856  48.8430058  48.7442323  52.7046455  47.6388255  48.2233276
  53.1677396  46.7452789  47.5316793  53.4513407  48.4618155  48.9687588
  52.9880342  49.1778672  49.5097914  54.8913855  48.3945129  49.0144903
  55.2483566  47.4504366  48.6029194  55.4536306  49.5348876  48.1754838
  55.5493380  49.1962368  47.1438564  54.7611704  50.3755649  48.2186177
  56.7094912  49.9388437  48.6532020  57.0427449  50.6567158  48.1098776
  55.3900843  48.4955155  50.4922282  54.8835975  49.3039625  51.2786031
  56.4065788  47.6992865  50.7815519  56.7572847  47.0983216  50.0494687
  57.0419127  47.6411957  52.0796063  56.3484306  48.0155217  52.8326415
  57.4288189  46.2023012  52.4419077  56.5315500  45.6479589  52.7170685
  58.0850888  45.5393475  51.2745830  58.9827522  46.0928980  50.9991163
  58.3562955  44.5179009  51.5414029  57.3956174  45.5229641  50.4305087
  58.3484738  46.2038147  53.5400473  58.5853590  45.2999438  53.7602817
  58.2994359  48.4796847  52.0986227  59.0794778  48.3952197  53.0414532
  58.5215627  49.2653996  51.0572650  57.8711780  49.3467989  50.2888424
  59.7225822  50.0652909  51.0248756  60.5998593  49.4289201  51.1411354
  59.8237785  50.7966131  49.6874314  60.0384761  50.0461747  48.9266119
  58.8491492  51.2435482  49.4913530  60.8947640  51.8783638  49.6493477
  60.7972623  52.4663781  50.5619447  61.8632360  51.3782611  49.6417075
  60.7900142  52.7886575  48.4516511  59.8268735  52.6518970  47.6827808
  61.6767184  53.6448245  48.2804419  59.6918422  51.1037421  52.1074417
  58.7793231  51.8917932  52.1815725  60.7160650  51.1156281  52.9378128
  61.4394319  50.4134035  52.8768179  60.8418296  52.1386415  53.9406168
  61.6866743  51.9443485  54.6013640  61.0823953  53.4556783  53.2184129
  61.7662785  53.3180589  52.3808785  60.1280257  53.8314790  52.8495599
  61.6634673  54.5313943  54.0711217  61.6120583  55.8616011  53.7181824
  61.1805247  56.2152599  52.8762774  62.2082258  56.5830763  54.6439360
  62.2683325  57.6676131  54.5530175  62.6526986  55.7668998  55.5807219
  62.3266378  54.4790783  55.2450117  62.6132983  53.6559947  55.8995806
  59.5810009  52.2302014  54.7406341  59.1771351  53.3141601  55.1189500
  58.9375878  51.1118374  55.0186476  59.2068609  50.1997480  54.6785237
  57.7018022  51.2269194  55.7857323  57.2032316  52.1484736  55.4852920
  56.7603801  50.0922681  55.5916247  56.4232831  50.0460878  54.5560899
  57.2355110  49.1489597  55.8609201  55.6476838  50.3201690  56.4409463
  55.0167585  49.6035520  56.3409800  57.9316343  51.4053844  57.2917956
  58.7546109  50.7117898  57.9018622  57.1705293  52.3312768  57.8574511
  56.4341521  52.7422984  57.3016551  57.2918407  52.7355425  59.2459290
  58.3232341  52.9842986  59.4958235  56.4351049  53.9706581  59.4399371
  55.4455787  53.7202231  59.0575507  56.3521554  54.2924638  60.4780414
  56.8904232  55.1141431  58.6886972  58.1435740  55.4034226  58.4006910
  58.9000850  54.6821668  58.7098527  58.2097765  56.5922737  57.7527363
  59.0620294  57.0495411  57.4617535  56.9491820  57.0884790  57.5905146
  56.5082420  58.2746673  56.9810615  57.2550611  58.9138598  56.5101126
  55.1770469  58.5563416  57.0139269  54.8019254  59.4759743  56.5648617
  54.2908038  57.6975686  57.6065196  53.2237420  57.9189480  57.6281934
  54.7305410  56.5007815  58.2068502  53.9845391  55.8500430  58.6630533
  56.0927523  56.2016368  58.1927140  56.7615565  51.7117508  60.2328034
  56.9509347  51.8351791  61.4399328  56.0231149  50.7520110  59.7104964
  55.9322511  50.6988765  58.7059966  55.3663763  49.7407197  60.5141550
  55.6046987  49.8775536  61.5689432  53.8607104  49.8634813  60.3361278
  53.6458830  49.8137886  59.2686640  53.3152358  49.0740094  60.8531304
  53.3086496  51.1435327  60.8185730  53.3365778  51.4591863  62.1704931
  53.7381799  50.7314401  62.8756180  52.8753182  52.6479742  62.6161127
  52.9356924  52.9186851  63.6702338  52.3249985  53.5182317  61.7175977
  51.9608176  54.4890578  62.0537061  52.2298260  53.1679770  60.3820780
  51.7557519  53.8490718  59.6753504  52.7228929  51.9848064  59.9533622
  52.6453521  51.7111877  58.9011169  55.7882795  48.3436827  60.0323083
  55.1474151  47.7750246  59.1228981  56.8595615  47.8005599  60.6388143
  57.0962358  47.9846933  62.0858686  56.1423891  47.9417582  62.6116379
  57.5579409  48.9582016  62.2508198  58.0089769  46.8481013  62.4522786
  57.4611297  46.1585600  63.0945367  58.8620020  47.2518621  62.9976469
  58.4554949  46.1749723  61.1727192  58.4608919  45.1030230  61.3701898
  59.4259393  46.4761050  60.7781863  57.3574207  46.5118100  60.1674832
  57.7346158  46.6135390  59.1499011  56.2086240  45.4908614  60.1876079
  55.4915798  45.3524078  61.2022346  55.9971185  44.8465747  59.0457085
  56.6090349  45.0082994  58.2586235  54.9048044  43.9065371  58.8854554
  55.3107458  42.9443604  58.5731625  54.3951004  43.7920065  59.8421079
  53.9099527  44.3789805  57.8520023  53.1861467  43.5574401  57.2783558
  53.8812766  45.6953604  57.6249282  54.5556459  46.2899923  58.0850784
  52.8879720  46.3233347  56.7355923  52.1817101  45.5739700  56.3781766
  52.1190544  47.3958278  57.4855850  52.9347061  47.9231566  57.9802928
  51.5603347  48.0943994  56.8627447  51.2111129  46.8105765  58.5125014
  51.7073515  46.4484429  59.7504604  52.7419550  46.6844914  59.9994108
  50.9130772  45.7985210  60.6622443  51.3161505  45.5008731  61.6302522
  49.6285557  45.4507265  60.3159849  48.8685995  44.8578602  61.2636146
  49.3300636  44.7444147  62.0977493  49.1065803  45.7667531  59.0852205
  48.0860124  45.4931072  58.8175274  49.8945869  46.4389890  58.1861568
  49.5026801  46.6932298  57.2013366  53.4841022  46.9819894  55.4906514
  54.6118591  47.4307157  55.5001399  52.7172235  46.9933134  54.4222377
  51.8684971  46.4468216  54.4555481  53.0271404  47.7164774  53.1920461
  54.0432349  48.1101263  53.2183449  52.9045511  46.7780488  52.0196269
  51.8897908  46.3826567  51.9746090  53.1253647  47.3164704  51.0979741
  53.6096872  45.9551758  52.1369401  52.0832573  48.8988301  53.0227810
  50.9167304  48.8500945  53.3892025  52.5518607  49.9075753  52.3392959
  53.4810164  49.8648949  51.9456622  51.7924179  51.1440121  52.1873426
  50.8682136  51.0914801  52.7628301  52.6279956  52.3332306  52.7041658
  52.0597962  53.2458374  52.5241726  52.8133131  52.2260665  53.7729377
  54.0035562  52.5308291  52.0355030  55.2104251  52.1885524  52.5430442
  55.2260519  51.7507200  53.5411216  56.1865815  52.4835933  51.6452389
  57.1779767  52.3707522  51.8017700  55.6142539  53.0345367  50.5266963
  56.1923425  53.5043539  49.3627796  57.2664195  53.3737605  49.2308601
  55.3819285  54.1027846  48.4507675  55.8151757  54.5499402  47.5560895
  54.0286395  54.1575946  48.6297611  53.3762169  54.5601919  47.8549324
  53.4527854  53.7101233  49.7836448  52.3672548  53.7641134  49.8661628
  54.2611175  53.1395976  50.7650180  51.3535551  51.3808421  50.7474700
  52.0610685  51.0505247  49.7830323  50.1939881  51.9871656  50.6215724
  49.6102350  52.1265192  51.4339223  49.6885893  52.4253003  49.3214047
  50.4768239  52.4160430  48.5686100  48.6237424  51.4542810  48.9115846
  47.6530724  51.8708458  49.1806086  48.6635686  51.1824693  47.3919289
  49.6338397  50.7654301  47.1222033  47.8782164  50.4740741  47.1283054
  48.5068020  52.1157800  46.8511371  48.8754907  50.2233162  49.6314397
  48.2107175  49.5724695  49.3946370  49.1955389  53.8055443  49.4608627
  48.5526865  54.1252189  50.4655333  49.6080370  54.6793956  48.5380999
  50.1528231  54.3724461  47.7449483  49.2906450  56.1215874  48.6563075
  49.6409789  56.4268891  49.6422873  49.9650902  57.0157188  47.5946546
  50.1003631  56.4299141  46.6854609  49.1212860  58.2500964  47.2836764
  48.9859608  58.8366853  48.1923576  49.6268877  58.8565820  46.5322493
  48.1479138  57.9392694  46.9041572  51.2807713  57.5249734  48.1016427
  51.9355966  56.6825429  48.3243908  51.7446074  58.1540751  47.3419146
  51.1200875  58.1091005  49.0077757  47.8056884  56.2878711  48.5266017
  47.1810080  55.7052533  47.6278782  47.2640294  57.0672636  49.4468489
  47.9259230  57.5303311  50.0531199  45.8479005  57.3669545  49.6132533
  45.1449586  56.7602519  49.0423909  45.5491126  57.1949427  51.0881251
  46.2391149  57.8035807  51.6725536  44.5257083  57.5103584  51.2912426
  45.6671878  56.1469259  51.3634761  45.6349851  58.7941097  49.2491036
  46.3205143  59.5646448  49.8162424  44.6658000  59.1457667  48.3934871
  44.2444115  58.4812207  47.7603128  44.2973247  60.5579546  48.2645525
  44.5647715  61.0823325  49.1819397  45.0084016  61.2215714  47.1026095
  44.8698730  62.2979607  47.2040739  46.0685947  60.9827074  47.1864813
  44.4943018  60.7711483  45.7473101  43.8844576  59.9216258  46.0547225
  43.8893927  61.4557620  45.1527588  45.6225415  60.2685494  44.8986197
  46.0438897  59.1225949  45.0481256  46.2787294  61.1872273  44.1849857
  47.0487954  60.9079533  43.5941339  46.0018798  62.1570161  44.2394395
  42.8141365  60.8763129  48.1778254  42.0303057  60.0599484  47.7559295
  42.4383978  62.0829731  48.5682747  43.1715471  62.7212477  48.8424952
  41.0398709  62.5495098  48.6437469  40.5113949  61.9872053  49.4135690
  40.9680340  64.0636194  48.9962546  41.6565034  64.2638322  49.8172442
  41.2689769  64.6402236  48.1215770  39.3360016  64.7435743  49.5201685
  39.7571607  65.9920952  49.7010517  40.3434596  62.3230255  47.3158327
  40.6959005  62.9616712  46.2885065  39.3854775  61.4354159  47.3455222
  39.3444102  60.8133716  48.1401755  38.4372138  61.2321815  46.2605809
  38.9332235  60.5876188  45.5349001  37.1776676  60.5001608  46.7945938
  37.4752961  59.5701231  47.2788939  36.6651418  61.1368714  47.5157159
  36.2391300  60.1903999  45.6332068  35.9406848  61.1200513  45.1486661
  36.7508369  59.5533012  44.9118447  35.0011803  59.4709331  46.1580623
  35.2988079  58.5408963  46.6423642  34.4886546  60.1076452  46.8791827
  34.0626441  59.1611708  44.9966740  33.7641992  60.0908214  44.5121321
  34.5743511  58.5240705  44.2753154  32.8693414  58.4676540  45.5026011
  32.3947991  59.0580105  46.1707242  32.2477536  58.2624985  44.7334198
  33.1456295  57.6059823  45.9512501  38.0353167  62.5353512  45.5238799
  37.9611548  62.5609388  44.3017361  37.7897595  63.6046239  46.2715286
  37.9722146  63.5629614  47.2640373  37.2863396  64.8630967  45.7088860
  36.6055528  64.7211370  44.8695554  36.5957029  65.7824742  46.7989915
  37.3503318  66.4135377  47.2684534  35.5400272  66.6581595  46.1428810
  34.7847510  66.0277595  45.6735684  35.0690518  67.2877524  46.8977953
  36.0083925  67.2876334  45.3862465  36.0307169  65.0112440  48.0354586
  36.7725518  64.2521425  48.2835448  35.9715190  65.7388859  48.8448610
  34.6662006  64.3474111  47.8464842  34.7247352  63.6192543  47.0374964
  34.3761310  63.8431187  48.7682477  33.9237026  65.1059981  47.5988102
  38.4546998  65.6964216  45.1089902  38.5525406  65.9467104  43.8922791
  39.3483886  66.0946196  46.0044301  39.2837454  65.7456536  46.9500216
  40.3581865  67.1060297  45.7075486  40.0572509  67.6988251  44.8437601
  40.5131809  68.0286130  46.8968450  41.2426669  68.8176833  46.7143141
  39.5654187  68.4736944  47.1997465  41.1070603  67.1250133  48.3084865
  41.1338642  68.1645099  49.1377190  41.7205849  66.5478910  45.2719031
  42.5818397  67.3160036  44.7872792  41.9153219  65.2325658  45.4095365
  41.2219229  64.6892631  45.9036208  43.1304162  64.5494619  44.9373501
  42.9368305  63.4767922  44.9391986  43.4791390  64.9783554  43.5190762
  43.6845712  66.0486970  43.5027548  44.3611378  64.4344363  43.1809484
  42.6417748  64.7594903  42.8564915  44.2913320  64.7986054  45.8635229
  45.3941134  64.2521807  45.6689435  44.0722454  65.6632129  46.8542363
  43.1814816  66.1323075  46.9354127  45.1418080  66.0471357  47.7686132
  46.0342541  66.2747582  47.1856663  44.7774601  67.2989048  48.6348317
  45.7115537  67.7367700  48.9867442  44.2659411  68.0090954  47.9851567
  43.9465707  66.9931020  49.7509251  43.7591076  67.7975048  50.2402037
  45.5435128  64.8598173  48.6338266  44.7000953  64.2179583  49.2663723
  46.8334728  64.5454289  48.6190842  47.4537799  65.0774484  48.0255578
  47.3630311  63.3389534  49.2804337  46.7537392  62.4841440  48.9868976
  48.8842734  63.0391097  48.8925092  48.8461124  62.4003896  48.0100809
  49.4605961  63.9362288  48.6663907  49.6638788  62.2768035  49.9464707
  50.4675925  62.8925432  50.8875731  50.6692481  63.8820847  50.9031458
  50.9194752  61.9937357  51.7455288  51.5415525  62.2903329  52.5900102
  50.4830549  60.8095909  51.3672756  49.6882644  60.9595072  50.2526760
  49.2204568  60.0875316  49.7956029  47.1238360  63.3496724  50.8210335
  47.7500351  64.0938101  51.5796928  46.2432880  62.4724433  51.2451152
  45.8827112  61.7849585  50.5990129  45.7649693  62.4405312  52.6370125
  45.8172554  63.4335374  53.0834473  44.3102227  61.9142348  52.7181200
  44.2958730  60.9110984  52.2919604  43.7603892  61.8667340  54.1787749
  43.7739975  62.8696538  54.6054683  42.7376642  61.4898180  54.1704893
  44.3851349  61.2075254  54.7814655  43.4012505  62.7779895  51.8645841
  43.9156387  62.9685261  50.9226704  42.4909241  62.2101151  51.6724279
  43.0433108  64.1013882  52.5230862  43.9531597  64.6700617  52.7151414
  42.3914331  64.6722569  51.8618271  42.5284468  63.9116504  53.4649006
  46.5915647  61.5296259  53.5558620  46.5464977  61.6705838  54.7494213
  47.2757094  60.5571518  52.9812481  47.3239599  60.4902771  51.9746206
  47.9825363  59.5499678  53.7797900  48.9132116  60.0004484  54.1247681
  47.3539524  59.3133027  54.6382602  48.2976341  58.2836685  53.0420716
  48.6750291  58.3035496  51.8717047  48.1465834  57.1661451  53.7429805
  47.8208802  57.2218043  54.6974012  48.4459511  55.8267875  53.1788163
  48.3238203  55.8259318  52.0956808  49.8863441  55.4823406  53.5042921
  49.9901985  55.5291727  54.5883218  50.1670090  54.4885150  53.1555258
  50.9043338  56.4474983  52.9289082  51.4949681  56.3847190  51.7044557
  51.2065330  55.5566632  51.0569770  52.3652244  57.4305040  51.5512318
  52.9463505  57.6017512  50.7431066  52.3514706  58.1829020  52.6935811
  53.0556683  59.3257919  53.0150689  53.7321872  59.7434885  52.2694481
  52.8575845  59.8680567  54.2635150  53.3512318  60.8023537  54.5309125
  52.0544443  59.2612153  55.1783753  51.9576435  59.6577913  56.1890466
  51.3339026  58.1195974  54.8543859  50.6544321  57.7122345  55.6030352
  51.4850212  57.5676546  53.5924638  47.5423912  54.7577531  53.7488643
  47.2424908  54.7877644  54.9379750  47.1903721  53.7829790  52.9124481
  47.3291068  53.9142063  51.9206662  46.5586448  52.5654418  53.3595004
  46.0688514  52.7024363  54.3235721  45.5084134  52.2004638  52.3304571
  45.3894121  53.0590328  51.6695508  45.8925884  51.3544334  51.7605956
  44.1710718  51.8376802  52.9292688  44.3380450  51.4437617  53.9317902
  43.5647300  52.7413709  52.9908700  43.4488762  50.8017627  52.0942015
  42.4174891  51.1282525  51.9609949  43.9392795  50.7432396  51.1225127
  43.4653486  49.4277089  52.7550334  44.4417463  49.2720350  53.2138510
  42.6942309  49.4006967  53.5249341  43.2087763  48.3524952  51.7584335
  43.9234449  48.3770774  51.0451704  43.2248928  47.4544766  52.2203888
  42.3038882  48.4963194  51.3334732  47.5999642  51.4383702  53.5574736
  48.4657380  51.2114996  52.7193427  47.5726821  50.8350099  54.7365025
  46.8299861  51.0558920  55.3843552  48.5553535  49.8652208  55.1321790
  49.3799282  49.8788480  54.4194448  49.0972403  50.1526816  56.4949076
  48.3006152  50.2273139  57.2351222  49.7878684  49.3604179  56.7837866
  49.8352987  51.3855460  56.5589715  49.2236340  52.5664836  56.2747591
  48.2034018  52.5586922  55.8911378  49.8727334  53.7531037  56.4647903
  49.3545204  54.6998977  56.3126812  51.1723565  53.7460527  56.8457718
  51.7077549  54.6834408  56.9966098  51.8118348  52.5555632  57.0409495
  52.8732238  52.5461841  57.2888721  51.1291491  51.3834754  56.9270351
  51.6307679  50.4382283  57.1343667  47.9414094  48.4999683  55.1648934
  46.8779484  48.3059190  55.6970779  48.6905536  47.5733147  54.6813923
  49.6562710  47.7905018  54.4805965  48.2041516  46.2792660  54.3387614
  47.2155767  46.1430697  54.7772468  48.0584549  46.3528051  52.8188721
  48.0008224  45.3450209  52.4075940  46.7737656  47.1229092  52.4696400
  46.8308637  48.1310092  52.8802173  46.6656115  47.1779167  51.3864151
  45.9130514  46.6063602  52.8944327  49.1426293  47.1332778  52.2952087
  49.0648452  47.1886736  51.3399699  49.2138175  45.2494587  54.8953203
  50.4018946  45.5239592  54.9569896  48.7170199  44.1210723  55.4267591
  47.7205973  43.9838790  55.5185155  49.6031158  43.1094137  55.9692080
  50.3780989  43.6325351  56.5294262  48.8683608  42.1914843  56.9075143
  48.0948969  41.6537750  56.3591328  49.5687743  41.4775195  57.3408450
  48.4082527  42.7770838  57.7034245  50.2935243  42.3150403  54.8773912
  49.8058467  42.2375764  53.7525464  51.4776190  41.8015172  55.1884278
  51.8791687  42.0323651  56.0859614  52.2377701  40.8955347  54.2885572
  51.8325005  40.9352416  53.2774790  53.7409791  41.2943144  54.2377294
  54.2012793  40.8044829  53.3796565  53.9111542  42.8176222  54.1102594
  53.4514767  43.3081497  54.9682682  54.9725078  43.0636732  54.0772943
  53.4302468  43.1621146  53.1947521  54.4093242  40.8450630  55.4246413
  55.3352907  41.0952299  55.3846045  52.1684025  39.4407588  54.7688249
  52.3398740  38.4911023  54.0003849  51.8397262  39.2939244  56.0468318
  51.7684450  40.1127210  56.6338501  51.5597952  37.9813031  56.6451168
  51.8100604  37.1919314  55.9363441  52.3953233  37.7802795  57.9192861
  52.1206624  38.5883378  58.5972996  52.0817188  36.8271031  58.3449702
  53.9081414  37.7752242  57.7210846  54.1515491  37.1205608  56.8842635
  54.2372469  38.7896386  57.4957958  54.6168165  37.2781796  58.9783762
  53.9316055  36.6289156  59.5233910  55.4933988  36.7064342  58.6737288
  55.0477247  38.4253258  59.8751029  54.3620454  39.2589657  59.7234816
  54.9917649  38.0934722  60.9118482  56.4399947  38.8649437  59.5684904
  56.4919634  39.1728914  58.6079868  56.6949616  39.6268063  60.1805829
  57.0755731  38.0927379  59.7093355  50.0712452  37.9253254  57.0099048
  49.4934955  38.9257482  57.4620525  49.4686937  36.7548906  56.8365869
  49.9864790  35.9645233  56.4797715  48.0263870  36.6014239  57.0511568
  47.5222385  37.5516196  56.8749137  47.4530717  35.5570912  56.0881761
  47.2493298  34.6624065  56.6765022  46.5157782  35.9607308  55.7052192
  48.3736708  35.1976061  54.9123743  49.1945880  34.6070792  55.3191591
  47.7899731  34.5834865  54.2266222  48.9387657  36.4069104  54.1597483
  48.8419090  37.2857756  54.7971757  49.9931043  36.2227423  53.9534678
  48.2035499  36.6451958  52.8563558  48.6059816  37.5383032  52.3783303
  48.3505745  35.7859269  52.2020318  46.7463981  36.8319521  53.1110376
  46.6099166  37.6283831  53.7169833  46.2690404  36.9896547  52.2350470
  46.3732113  36.0043214  53.5535962  47.6936400  36.2625181  58.5139392
  46.5362120  35.9737650  58.8363968  48.6940003  36.3802404  59.3901280
  49.6093499  36.6603402  59.0679813  48.5296773  36.0455309  60.8003959
  47.5039961  35.7287107  60.9893464  49.4757062  34.9021027  61.1900908
  49.1462765  34.4203637  62.1106899  49.4135410  34.1911306  60.3662254
  50.8924538  35.3614437  61.3467858  51.3840202  36.0506522  60.4303672
  51.4931946  35.0997732  62.4067801  48.7607447  37.2693753  61.6750311
  48.5864931  37.2083499  62.9011646  48.9935905  38.4350302  61.0442216
  49.1725925  38.4204623  60.0503175  49.0192663  39.7239246  61.7344339
  49.4789522  39.6000242  62.7149627  49.8160666  40.7554921  60.9510139
  49.7230310  40.5142233  59.8921310  49.3727350  41.7330262  61.1407089
  51.2632561  40.7822782  61.3308851  51.4118977  41.5467843  62.0934707
  51.5380841  39.8081189  61.7353420  52.2980338  41.1466262  59.9266303
  53.8542457  41.3830947  60.7893186  54.1181382  40.4688514  61.3209378
  54.6366576  41.6228019  60.0692681  53.7542945  42.2014326  61.5023642
  47.6177639  40.2818946  61.9537814  46.7554536  40.1889889  61.0733091
  47.4211596  40.9154495  63.1106582  48.0837516  40.8307319  63.8682162
  46.2018081  41.6871688  63.3399184  45.4257639  41.3499713  62.6527850
  45.7027241  41.5169739  64.7504072  45.7830805  40.4645805  65.0226390
  46.3290762  42.1124086  65.4146666  44.3573848  41.9336351  64.8727572
  44.0666422  41.8141724  65.7798389  46.3942883  43.1881191  63.0313721
  47.4975340  43.7143369  63.1228744  45.2866666  43.9187680  62.8191850
  45.1228335  44.8328657  63.9541577  45.7795244  44.5327852  64.7707414
  44.0881270  44.8182677  64.2966023  45.5137194  46.1676360  63.3537666
  46.5122173  46.4229085  63.7086426  44.8031719  46.9190860  63.6980724
  45.4788701  46.0428551  61.8606915  46.4678881  46.1615444  61.4181362
  44.7974188  46.7752035  61.4278065  44.9609905  44.6338147  61.6008922
  43.8745194  44.6227107  61.5139691  45.5769014  44.0621175  60.3311107
  46.7877544  44.1039990  60.1377043  44.7416779  43.5029244  59.4851114
  43.7805231  43.3615903  59.7613458  45.1471560  43.0880317  58.1324783
  46.1016174  42.5629509  58.1697995  44.0994430  42.1514849  57.5486953
  43.1531333  42.3638541  58.0461854  44.0096556  42.3780079  56.4862803
  44.4383854  40.7139120  57.7217595  44.6075645  40.4868145  58.7743306
  43.6109659  40.1102745  57.3487972  45.6664738  40.3630879  56.9558617
  45.7483528  40.6436093  55.7612687  46.6494920  39.7613608  57.6391339
  47.5037053  39.5024685  57.1664861  46.5317989  39.5694152  58.6237184
  45.2634016  44.3053553  57.2144254  45.9986469  44.3058041  56.2305782
  44.4619306  45.3205796  57.5387815  43.7757054  45.1717414  58.2647577
  44.5266930  46.6376427  56.9050604  45.5457612  46.7820277  56.5462399
  43.5587723  46.8207939  55.7232642  43.7806284  46.0817986  54.9533518
  42.5335118  46.6882006  56.0687492  43.7225857  48.2221754  55.1445421
  43.5004323  48.9617661  55.9137979  44.7475476  48.3553645  54.7983978
  42.7631724  48.4037180  53.9731356  42.9850263  47.6647221  53.2032234
  41.7379124  48.2711263  54.3186221  42.9269881  49.8050995  53.3944127
  42.7048358  50.5446908  54.1636679  43.9519484  49.9382856  53.0482667
  42.0021750  49.9800948  52.2652552  41.0523406  49.8571470  52.5858766
  42.1106696  50.9082221  51.8819686  42.2081344  49.2951428  51.5521489
  44.1877361  47.7177609  57.8934763  43.6006851  47.4762066  58.9269988
  44.5867352  48.9210089  57.5433692  45.0932367  49.0436441  56.6782009
  44.3326897  50.1104698  58.3803976  43.2603547  50.2117749  58.5475328
  45.0404242  49.9969896  59.7564980  44.6209873  50.5968931  60.5641412
  44.9264473  48.9391643  59.9933839  46.5139109  50.2756735  59.7356635
  46.9754225  51.5650471  59.7196740  46.2689642  52.3948458  59.6984439
  48.3311582  51.8141810  59.7303911  48.6835522  52.8434790  59.6635727
  49.2540717  50.7613760  59.8259022  50.3254449  50.9619197  59.8323502
  48.7955345  49.4656152  59.9119514  49.4918954  48.6294887  59.9757816
  47.4261378  49.2310845  59.9167625  47.0469217  48.2197448  60.0633478
  44.8476442  51.3008963  57.6351589  45.7561951  51.1434297  56.8338546
  44.3545840  52.4940757  57.9581921  43.5556446  52.5839892  58.5695110
  44.8805569  53.6817551  57.3462353  45.5113000  53.4075795  56.5006053
  43.7909369  54.5542817  56.8595201  43.0176149  54.3049393  57.5860878
  43.9386165  55.6341045  56.8429792  43.2713450  54.1874577  55.5594208
  43.4561551  54.8616490  54.3781776  44.1681293  55.6867493  54.3982262
  42.6811669  54.3339756  53.4009069  42.6527711  54.6212388  52.4330365
  41.9213028  53.3515239  53.9559907  40.9224898  52.5736268  53.3796283
  40.7194555  52.6933999  52.3154243  40.2538769  51.7013998  54.1916591
  39.4575124  51.0782503  53.7847338  40.5780448  51.5902895  55.5629635
  40.0315765  50.9080112  56.2140919  41.6161704  52.3569927  56.1298279
  41.7553448  52.3166728  57.2101545  42.3019960  53.2316095  55.3176839
  45.8152941  54.4399441  58.2492579  45.6466643  54.5033022  59.4667236
  46.8468214  54.9850673  57.6405009  47.0166817  54.7610856  56.6704086
  47.7705322  55.9131095  58.3149709  47.5146549  56.0090102  59.3701624
  48.7993045  55.5653359  58.2212668  47.6469403  57.2649366  57.6547334
  47.9559163  57.4233709  56.4617638  47.1383587  58.2406408  58.4027202
  46.9693476  58.1061255  59.3893509  46.7648419  59.4986196  57.8117941
  46.9430430  59.4524324  56.7374523  45.2794720  59.8343119  58.0507352
  45.2368621  59.9647040  59.1320685  45.0297907  60.7758753  57.5616363
  44.2746618  58.7557230  57.6261044  44.6406001  57.7832044  57.9553421
  42.9089264  59.0197745  58.2450299  42.5421052  59.9919829  57.9158616
  42.2110491  58.2434683  57.9313153  42.9944704  59.0131829  59.3316481
  44.1674071  58.6175920  56.1048117  45.1406061  58.3482349  55.6944095
  43.4428961  57.8408444  55.8601726  43.8422664  59.5652344  55.6754442
  47.6163218  60.6150186  58.3435988  47.7152512  60.8090339  59.5491563
  48.2074365  61.3660544  57.4470177  48.1516623  61.1420851  56.4637445
  49.0501328  62.4837606  57.8545922  49.6593447  62.2709333  58.7330366
  49.9892741  62.9515105  56.6972112  50.4607748  62.0769948  56.2488703
  49.1787530  63.7185878  55.6102126  48.7073088  64.5935531  56.0577344
  49.8500696  64.0363628  54.8124331  48.4109672  63.0633187  55.1988394
  51.1099941  63.7386973  57.2165614  51.6719287  64.0143099  56.4886414
  48.1988504  63.6394505  58.3847205  47.2713596  64.0794305  57.7653044
  48.6072916  64.1450489  59.5385728  49.2899385  63.6025431  60.0482592
  48.0286046  65.3189898  60.1897948  46.9553130  65.1716512  60.3099431
  48.6686122  65.5660507  61.6176552  48.3458378  64.7185799  62.2223940
  49.7453890  65.5088936  61.4583290  48.3238633  66.8902771  62.3558900
  48.4318639  67.6842677  61.6169613  47.2774414  66.8079846  62.6497116
  49.1837443  67.2224787  63.5989483  48.5280311  67.4998752  64.4242909
  49.7654467  66.3437041  63.8772951  50.1168069  68.3462366  63.3344652
  50.7735763  68.1752669  62.5864528  50.1707864  69.5309062  63.9814445
  51.0756556  70.4722649  63.6005584  51.7052609  70.2821690  62.8340333
  51.1139083  71.3571479  64.0859639  49.3571310  69.7969392  64.9934575
  48.6830459  69.1059727  65.2905679  49.4149844  70.6893884  65.4628041
  48.0328898  66.5956286  59.3478181  47.1465711  67.3719613  59.4658718
  48.9965447  66.7961154  58.4840159  49.7681756  66.1446013  58.4693679
  49.0451609  67.9458795  57.5877107  48.9687198  68.8684630  58.1631199
  50.4128789  67.9605944  56.7861643  50.2298406  68.5486994  55.8868709
  51.1295581  68.4817622  57.4208730  50.9498524  66.6622337  56.4145664
  51.7737666  66.7816274  55.9365390  47.8514267  67.9740589  56.5984192
  47.4609034  69.0265593  56.0800906  47.3151179  66.7956417  56.3468250
  47.7283166  65.9670007  56.7502112  46.2470174  66.6323228  55.4003426
  46.3278524  67.4524189  54.6868951  46.4450449  65.3253523  54.6600897
  46.3578683  64.4940934  55.3597388  45.6855313  65.2278537  53.8843750
  47.4344086  65.3124710  54.2028232  44.8321066  66.7693471  56.0545083
  43.8091002  66.7304079  55.3503380  44.7802819  66.9367208  57.3612115
  45.6239443  67.1342311  57.8801746  43.5075351  66.8158295  58.1094941
  42.7156448  66.4978183  57.4313512  43.6262428  65.7947087  59.2312070
  44.3894605  66.2593442  59.8554760  42.6992200  65.7053884  59.7975556
  44.0953908  64.4080537  58.8025404  45.1368981  64.4586277  58.4850412
  43.9674889  63.4357158  59.9840607  42.9261118  63.3842561  60.3018411
  44.3027392  62.4448166  59.6777491  44.5826937  63.7868680  60.8125024
  43.3832289  63.9215945  57.5241031  43.5868229  64.6148565  56.7079924
  43.7500558  62.9302479  57.2580745  42.3087314  63.8753581  57.7013492
  43.0212650  68.1238036  58.7435339  43.8178419  68.9732214  59.0981615
  41.7229483  68.1798575  59.0037216  41.1465093  67.4262641  58.6574351
  41.0763086  69.2634519  59.7471658  41.8086722  69.8571993  60.2941636
  40.3675856  70.1741784  58.7264926  41.1879958  70.4580186  58.0673560
  39.6452582  69.5768120  58.1701683  39.6888057  71.4243174  59.2561240
  39.7735312  72.1996992  58.4947401  38.2204929  71.1975763  59.5877560
  38.1349831  70.4225973  60.3494610  37.7847775  72.1239117  59.9621295
  37.6888638  70.8836339  58.6894737  40.4559723  71.9479397  60.4691137
  41.4786696  72.1869005  60.1774161  39.9677943  72.8455675  60.8486500
  40.4695749  71.1854660  61.2479254  40.0721508  68.6428631  60.7335521
  39.0536430  68.1360793  60.3241649  40.3835943  68.6329559  62.0415711
  41.7534619  68.3511125  62.4878815  42.3862354  69.2126165  62.2745534
  42.1341998  67.4802750  61.9542338  41.5977757  68.0942994  63.9848590
  42.2718835  68.7649389  64.5177008  41.8808768  67.0609308  64.1851197
  40.2012504  68.3348316  64.3548732  40.0968104  69.3496569  64.7386974
  39.8170590  67.6275898  65.0899280  39.4270786  68.1931571  63.0376639
  39.1743541  67.1530938  62.8315163  38.1503574  69.0409718  63.0228560
  38.2196051  70.2749902  62.9168170  36.9802854  68.3764881  63.0666047
  36.9340876  67.3920362  62.8456530  35.7487901  69.1037300  63.1958934
  36.0050881  70.1227394  63.4857732  34.8722810  69.1577598  61.8980731
  34.4044334  68.1834835  61.7566351  33.7431857  70.2793583  62.0009594
  34.2103187  71.2540418  62.1419505  33.1546369  70.2883933  61.0835567
  33.0918061  70.0633056  62.8477926  35.6942998  69.4637031  60.7700510
  35.1522729  69.4954642  59.9783450  34.9657934  68.6767681  64.4251715
  35.1127999  67.5266640  64.9538468  34.3686940  69.7182454  65.0014245
  34.8094316  70.6184140  64.8767405  33.1741959  69.6496603  65.7927326
  33.0376894  68.7730127  66.4259420  33.1489777  70.9263789  66.6673535
  33.9326631  70.8522055  67.4213004  33.3835674  72.1913371  65.8010174
  32.5999580  72.2664463  65.0470840  33.3617515  73.0767000  66.4364364
  34.3540866  72.1210916  65.3098379  31.8757264  70.9666869  67.5264718
  32.0201498  71.7479243  68.2727364  31.0545839  71.2437796  66.8653786
  31.5452478  69.6562175  68.2226462  32.3657853  69.3786939  68.8843098
  30.6324546  69.7744910  68.8065291  31.4002217  68.8745483  67.4769514
  31.9206631  69.5666410  64.8737614  31.4995230  70.5772443  64.2395524
  31.2920847  68.3571610  64.8302475  31.7656750  67.1457413  65.5165598
  32.2964549  67.4172208  66.4290683  32.4321672  66.5830548  64.8629001
  30.4985010  66.4248296  65.7878630  30.0298567  66.8173223  66.6903158
  30.6930796  65.3597691  65.9139048  29.6613907  66.6707648  64.5940333
  28.6008059  66.6486607  64.8445731  29.8678305  65.9275533  63.8238911
  30.0494479  68.0673505  64.0911197  30.3140476  68.1116998  63.0346547
  28.8702399  68.9884945  64.3563350  28.8574759  69.6065386  65.3923309
  27.9751066  69.1385714  63.3761278  28.0954455  68.5536563  62.5615775
  26.9248216  70.2004796  63.3367116  26.1517892  69.8929692  62.6324692
  26.2630559  70.4628321  64.7164215  26.9685041  70.8950952  65.4260628
  25.4875171  71.1930531  64.4853009  25.6336190  69.2374313  65.3191976
  26.2631898  68.1563376  65.2573687  24.5572013  69.3850371  65.9438427
  27.3107827  71.5867211  62.7119186  28.5073512  71.8937874  62.4024864
  26.2302041  72.3567742  62.4789955  25.3808671  71.8598293  62.2514618
  26.2136744  73.8344884  62.4252786  27.2188102  74.2494529  62.5001502
  25.5417857  74.3652835  61.0783227  26.2054464  75.1165927  60.6503165
  25.2934488  73.2234170  60.0240117  24.6294557  72.4719161  60.4511640
  24.8349759  73.6467750  59.1303284  26.2436840  72.7596275  59.7593365
  24.2969726  75.0334738  61.3369502  23.9200153  75.3395624  60.5088118
  25.5167432  74.4411114  63.6941046  24.8467457  75.4652362  63.5881532
  25.7785643  73.8668430  64.8886905  26.4603867  73.1223031  64.9183198
  25.0247107  74.1969892  66.1529975  24.2369688  74.9187352  65.9370235
  24.3802340  72.9252015  66.7405074  25.1370714  72.1421835  66.6938257
  24.1499277  73.1455080  67.7828720  23.1107370  72.4509429  66.0267264
  23.1772545  72.6934237  64.9661231  23.1102674  71.3681682  66.1520177
  21.8085454  73.0349951  66.6058559  21.7570490  74.2699528  66.8258552
  20.8172999  72.2651783  66.7852364  25.8309116  74.9445002  67.2947467
  25.2003076  75.4446502  68.2563868  27.1837742  74.8194332  67.2902833
  27.5518118  73.8807222  67.2313828  28.1648652  75.9697270  67.5213869
  27.6837654  76.8885497  67.1861154  28.6174909  76.1559408  69.0220665
  29.6939347  76.2512805  68.8796644  28.2323409  77.0602530  69.4932128
  28.3261088  74.9479746  69.9206600  27.1295055  74.6045028  70.0922893
  29.2825385  74.4616824  70.5880940  29.4461730  75.9490495  66.6056228
  30.4869028  76.4970215  66.9879043  29.3303094  75.4112888  65.3827058
  28.4176220  75.1431996  65.0432515  30.5053993  75.0967643  64.5506001
  31.1870305  74.5070066  65.1635144  30.0811477  74.2471028  63.3227170
  29.5744000  73.3439603  63.6627754  29.4054730  74.8275677  62.6945258
  31.3063570  73.8668149  62.5262602  31.8134139  74.7695000  62.1854468
  31.9823398  73.2858912  63.1536947  30.8890183  73.0309997  61.3183823
  30.6252352  73.6499988  60.2530843  30.8379819  71.7815050  61.4725200
  31.2790051  76.3786171  64.1195170  32.3950514  76.6703943  64.6002091
  35.4988565  76.9657687  63.2723956  35.5088049  76.9745291  62.2624829
  36.7839207  77.1178978  63.9873212  37.4880013  76.3678436  63.6270598
  37.4055878  78.5236569  63.7756416  37.5932287  78.6823666  62.7137088
  36.4402348  79.5883896  64.2856043  36.2524588  79.4306014  65.3476514
  36.8764935  80.5761817  64.1371271  35.5007770  79.5204900  63.7370513
  38.7196826  78.6191902  64.5435302  39.4100275  77.8583160  64.1793924
  39.1568467  79.6065975  64.3951586  38.5327652  78.4610337  65.6056739
  36.5683537  76.8842441  65.4899515  36.0823625  77.7860909  66.1879105
  36.8036676  75.6245692  65.9228299  36.7758801  74.9012849  65.2184245
  37.0348726  75.2234793  67.3371312  36.0630353  75.2100205  67.8305381
  37.6644720  73.7917778  67.3866719  37.0078401  73.0876590  66.8756417
  39.0244774  73.8104224  66.6969894  39.6818536  74.5140226  67.2077769
  39.4634970  72.8133311  66.7312173  38.9015358  74.1172600  65.6583195
  37.8372075  73.3624590  68.8397629  38.4941342  74.0658924  69.3513579
  36.8653701  73.3490020  69.3331698  38.4507932  71.9671786  68.8880440
  39.4229268  71.9799503  68.3952023  38.5744758  71.6598240  69.9264731
  37.7941632  71.2630599  68.3770118  37.9539965  76.2488427  68.1054391
  38.8102712  76.8866058  67.4951401  37.7106445  76.4827366  69.4057127
  36.8223181  76.2118691  69.8027093  38.7034950  77.1436060  70.2885176
  39.6505607  77.3301745  69.7821996  38.1553966  78.4737197  70.8049049
  37.9914047  79.1499738  69.9659256  37.2115444  78.3020125  71.3223599
  39.1582232  79.0961634  71.7705793  39.3223879  78.4206406  72.6101147
  40.4786782  79.3371223  71.0467255  40.3153894  80.0129690  70.2072811
  41.1958452  79.7820280  71.7365307  40.8699428  78.3888404  70.6782503
  38.6113748  80.4232425  72.2857908  37.6675238  80.2515338  72.8032470
  39.3278010  80.8685812  72.9760865  38.4473807  81.0994967  71.4468121
  38.9907872  76.1828845  71.4643893  38.0643049  75.6589297  72.0527889
  40.2583977  75.8905431  71.7675659  41.0098713  76.2833475  71.2188478
  40.6089342  74.9412583  72.8810328  40.1287903  73.9768980  72.7149899
  42.1429614  74.7245024  72.9578931  42.4978178  74.2991912  72.0191245
  42.6371340  75.6801331  73.1330029  42.7228124  73.6129679  74.2634069
  44.0160655  73.7181299  73.9712839  40.0564433  75.5079984  74.2372221
  39.9964884  76.7326212  74.4104919  39.6122688  74.6436954  75.1651263
  39.5969385  73.6541685  74.9633814  38.9766577  75.1207193  76.4407300
  38.9353370  76.2032643  76.3203627  37.5234509  74.5815569  76.5991750
  36.9455187  74.8258737  75.7078822  37.5489644  73.4997109  76.7297825
  36.8726216  75.2252736  77.8188776  37.4497762  74.9810019  78.7106874
  36.8361884  76.7388500  77.6361589  36.2587763  76.9839350  76.7447401
  36.3710790  77.1994655  78.5077135  37.8526331  77.1165233  77.5252373
  35.4502681  74.6975571  77.9739606  35.4757830  73.6157116  78.1045697
  34.9846068  75.1573634  78.8456481  34.8723354  74.9418717  77.0826675
  39.8385824  74.8396387  77.7152011  40.7255616  75.6353881  78.1034904
  39.5951998  73.8712250  78.4317061  66.3384853  56.0287523  47.5347046
  65.2560583  55.9183771  48.5483338  66.2755352  56.3116848  46.0651484
  63.8121614  56.0689970  48.3330842  65.0734386  56.5623370  45.2324070
  63.1061340  56.3678956  47.0496938  63.6653227  56.5873463  45.6681065
  61.6451534  56.4564517  47.1667381  60.8431167  56.7506972  45.9390122
  65.7108037  55.6145983  49.9651281  65.9771626  54.2029027  50.3721238
  65.9012842  56.7500884  50.9920532  66.4927341  56.4657845  52.3610708
  67.6989539  55.8236075  48.0650268  68.8513640  59.4454348  48.9702642
  68.1819501  58.3199271  48.2624709  69.7113274  59.2338880  50.1865700
  68.3693309  56.9492821  48.7726088  69.8987083  57.8632430  50.6967079
  69.2290086  56.7376358  49.9875332  66.0787876  60.5980709  48.9801801
  67.2810642  61.4071759  48.4589804  68.6640003  60.8168249  48.4607929
  67.1073343  62.8397824  47.9227383  69.8660082  61.6265757  47.9388784
  68.3093422  63.6495332  47.4008239  69.6925298  63.0577914  47.4026845
  68.1358638  65.0807489  46.8646299  66.2111419  63.2467985  47.9123369
  61.0126816  56.2509956  48.5045677  59.8049033  57.0128353  48.8450684
  59.3376335  55.8395965  49.6508690  58.5971078  57.7739299  49.1849024
  60.3299335  58.1570029  48.0192780  65.1737592  54.8402325  48.3440004
  66.9003266  57.2072473  45.9286330  66.5294260  55.3093663  45.6924352
  63.3762341  55.1206140  48.6782771  63.6670903  57.0371923  48.8341362
  65.2447482  57.5512844  44.7826769  65.0598231  55.6192956  44.6668192
  63.3046993  57.5856469  45.3805795  63.3384735  55.6417373  45.2109301
  65.6880008  56.1919337  53.0582968  67.2105443  55.6359714  52.2846190
  67.0090223  57.3642672  52.7310578  68.3403176  55.5499223  47.2129857
  67.5693777  55.0585004  48.8439845  67.5584518  58.5072719  47.3761279
  70.1921408  60.0872856  50.6858545  70.5222065  57.6758982  51.5830509
  69.3682267  55.7139983  50.3675628  70.5825502  61.6899961  48.7705529
  70.1566736  61.0670301  47.0373546  70.3283517  63.7151585  48.0135862
  69.9613907  62.9869246  46.3380302  58.2429367  55.8728700  49.7467949
  59.6326229  54.9070302  49.1466434  59.7946374  55.8755462  50.6504075
  57.7547542  57.0815485  49.3279102  58.7685933  58.3382044  50.1142684
  58.3623694  58.4740502  48.3694403  59.4904684  58.7822867  47.6824746
  61.0176089  58.7625162  48.6268050  60.8656315  57.7620122  47.1435354
  85.4740201  46.5494236  70.2406494  85.9629785  44.8489005  74.6877797
  82.2460950  46.6685195  79.1409472  81.6305998  44.7409123  77.1530820
  84.6002760  41.8039075  72.3906097  78.0772618  44.1646707  83.3163831
  74.8141623  45.4315301  90.3777670  70.7998591  44.6077349  91.0918628
  76.7356123  41.8755033  79.3184508  76.3311264  40.8551023  87.4691590
  79.4039636  41.4639152  86.2564999  88.1317447  44.4344178  69.2349307
  88.3431391  44.2349146  73.3773214  87.4254126  40.1117727  73.8074884
  76.7964172  37.9289789  70.8359802  77.0328063  37.7963288  75.5971798
  71.7548380  41.6025167  88.4539112  73.0575470  44.0506870  84.5527833
  71.6251329  40.0620170  80.0580661  74.8075124  37.1797114  78.8965853
  86.0254588  40.9338602  78.1655069  84.8299326  45.9595180  80.9769062
  86.0351871  46.9008875  78.6618732  80.5096674  40.5443591  70.7423105
  80.7213529  40.8684637  75.0361733  81.8553692  39.4499034  78.9901440
  80.3984714  40.3083447  81.2809444  90.2973676  47.3908773  75.8938013
  93.4335891  49.2671125  75.1784418  92.4786101  52.2723307  77.8163935
  89.1052513  50.4414395  75.1116881  94.7362980  51.7152828  71.2773139
  93.8093275  57.6562907  77.1623798  85.6468879  52.5089032  78.8965853
  95.5774916  55.1386586  68.1587991  91.5607283  56.1976555  75.0361733
  88.6948787  53.9869176  78.7242216  91.2378468  55.6375364  81.2809444
  95.4396515  57.1330993  72.3906097  95.7542220  57.9734453  68.4246365
  93.4940112  58.5972339  61.3351457  96.8023540  60.1780923  74.6877797
  90.2433390  56.7931069  86.2564999  91.9801526  54.7357477  64.1566652
  90.6040642  52.3854231  66.2234817  88.1887753  47.2303932  71.2820055
  93.4386802  45.6222750  70.3652268  95.5726216  47.8069361  73.1362956
  99.0544912  48.3529098  71.3296144  87.2796650  60.4850146  88.0857667
  96.3133955  61.8786154  70.2406494  98.0946389  66.0721181  66.8167818
  96.1320140  69.1263477  67.1313113  95.2864014  73.4640286  68.3322381
  98.6984053  71.2065013  64.5634594  95.2997538  70.4625439  63.6807596
  91.0689685  77.6922509  74.5080061  92.1207333  82.1409178  71.1181546
  95.8553281  78.8424823  70.4657949  94.2258811  78.5891826  74.7198504
  91.0605513  84.6585491  73.5108766  90.1432197  87.4413258  74.2409099
  85.6535377  60.7607219  90.3777670  84.4745630  60.6635339  93.0307065
  73.3713167  35.3485390  74.9238034  73.8097710  35.2378114  71.0846690
  80.3984713  63.3021324  94.5564138  77.5147845  61.9436017  94.8312697
  74.9229373  61.1592184  95.9591976  99.9446272  19.7830556  22.0098104
 101.9025871  22.5143939  22.5591497  70.3719474  38.5984175  77.2473619
  96.9097064  17.0096017  21.8700147  96.8023545  14.1905166  21.5859020
  89.4776093  36.4971264  72.9680317  93.4940111  35.6034464  74.6106154
  98.2776635  33.3822601  72.7841622  97.6393797  29.9043954  73.0180957
  94.2258811  32.6016073  74.7198507  91.0689685  31.7046756  74.5080064
  68.2106541  55.2803310 131.9992684  67.5368239  55.5835006 132.6077642
  68.5972363  56.0832390 131.6498142  72.1763281  52.8588793 133.2732508
  72.8714186  53.4795486 133.4919822  72.5186432  52.0084144 133.5484886
  66.2678150  52.9650545 132.1807601  65.6952117  53.5840732 131.7278073
  66.8410944  53.5149906 132.7147523  69.4875410  53.2487695 133.3116184
  70.4206083  53.1833257 133.5149059  69.3998622  54.0843962 132.8530716
  72.1163426  52.5653565 130.2720131  72.0377058  52.2313429 131.1655889
  72.9373093  53.0575333 130.2711603  69.6867378  49.8821561 129.8930109
  70.3903228  50.0871563 130.5087765  68.9630027  50.4498323 130.1579193
  71.5954076  50.3204090 131.9428569  72.4299679  49.8885288 131.7606044
  71.4338418  50.1486104 132.8705464  73.0567931  56.7741637 132.4563522
  72.2205243  57.1116324 132.7772797  72.9172701  56.6390617 131.5190659
  72.9306311  56.6188865 129.6561429  72.0535777  56.4977665 129.2923675
  73.4064064  55.8274943 129.4040317  70.6324779  57.5587867 133.2143084
  69.9394024  57.6332222 132.5583120  70.3876531  56.7948211 133.7364601
  75.6761620  57.5553252 129.4578539  74.7693075  57.2586364 129.5341253
  75.9537601  57.2583070 128.5912825  74.4460405  54.4140187 129.5990518
  75.3079569  54.7395085 129.8586336  74.6310749  53.6271683 129.0863584
  75.3989848  51.6536230 132.8870227  75.3868517  52.5978070 133.0438498
  76.2913270  51.4706375 132.5929688  68.2106542  32.2865432 118.7237991
  67.5368241  32.5897129 119.3322949  68.5972364  33.0894513 118.3743448
  72.1763283  29.8650916 119.9977814  72.8714187  30.4857608 120.2165129
  72.5186433  29.0146267 120.2730192  66.2678151  29.9712667 118.9052908
  65.6952118  30.5902855 118.4523380  66.8410945  30.5212029 119.4392830
  69.4875411  30.2549818 120.0361490  70.4206084  30.1895379 120.2394366
  69.3998624  31.0906084 119.5776023  72.1163428  29.5715688 116.9965438
  72.0377059  29.2375551 117.8901196  72.9373094  30.0637456 116.9956910
  69.6867379  26.8883683 116.6175416  70.3903230  27.0933686 117.2333072
  68.9630028  27.4560445 116.8824500  71.5954077  27.3266212 118.6673876
  72.4299681  26.8947411 118.4851351  71.4338420  27.1548226 119.5950771
  80.2238352  37.8435864 128.7629053  80.8616762  37.7242611 128.0592393
  80.1059195  38.7916708 128.8217005  72.8914874  39.6498768 124.6887468
  72.3279739  39.5588705 123.9203756  72.7767269  38.8298673 125.1689961
  78.4714433  43.3169736 120.0001933  77.8202412  43.9023816 119.6135947
  79.2658795  43.8475931 120.0596971  72.3970060  40.4058873 120.3989068
  73.1700936  39.8587860 120.2601944  72.7495459  41.2703122 120.6103529
  74.7336338  36.5651539 118.0307518  74.9861858  36.0433060 117.2690981
  73.7960897  36.4017685 118.1334201  79.7779620  35.5687317 125.8382261
  80.5642710  35.1506741 125.4872678  80.0418325  36.4733410 126.0063909
  79.9489698  41.0060168 120.5370918  79.3135531  41.0794794 121.2491822
  79.6187104  41.5953767 119.8589997  74.4532626  38.4679645 120.2331893
  74.3368884  37.7924548 120.9012977  74.5634886  37.9812019 119.4164046
  76.7964167  37.9289792 123.9378582  76.4322374  37.4020413 124.6491503
  77.6531283  37.5388261 123.7645067  76.4369654  32.9579692 118.9339930
  76.6044057  33.8259928 119.3010401  76.2466823  33.1206974 118.0101220
  76.4158875  35.4137349 119.9186597  76.2958500  35.8594400 120.7572077
  75.7211463  35.7622667 119.3600135  74.1765767  48.1840991 123.5676728
  74.0989797  49.1348816 123.6465209  73.5727411  47.8386864 124.2251655
  82.1143941  35.8858822 120.7466931  83.0261797  36.1186209 120.5714629
  81.6053588  36.4695867 120.1842010  80.7213524  40.8684641 128.1380513
  80.0922386  41.0330355 127.4356581  80.3339186  41.2826250 128.9091477
  84.6002755  41.8039079 125.4924876  83.9153794  42.1837980 124.9421910
  84.6846605  42.4134405 126.2256824  76.2741485  40.6059049 125.4030598
  76.7379831  40.8846752 124.6135220  76.0098284  39.7042494 125.2203688
  75.2110371  36.7282201 122.2120163  75.9134415  37.1803245 122.6794089
  74.8791000  36.0866020 122.8400056  76.4504136  43.5423144 122.2882268
  76.3149811  44.3874680 122.7167116  76.9913949  43.7442422 121.5248202
  69.9033533  41.0598582 122.8610193  70.4158054  41.8541832 123.0115758
  70.5556246  40.3624873 122.7943795  71.7128418  44.1764338 124.9432946
  71.8895047  45.0982303 124.7553930  72.5085252  43.8622758 125.3727326
  72.8359734  45.6942512 130.9443289  73.3867159  45.5659575 130.1720283
  71.9971210  45.9937401 130.5938182  67.8682450  39.3887236 123.6369764
  68.7057672  39.7984245 123.4203471  68.0460718  38.4486679 123.6069958
  79.7646882  37.0562317 119.3253597  79.2493506  37.8266922 119.5641984
  79.4924191  36.3827453 119.9486658  77.3493993  31.9012018 124.3838835
  76.4935590  31.5118868 124.2044474  77.7620945  31.9803979 123.5238621
  84.7381157  39.8094672 121.2606770  83.9610599  39.4705831 120.8161932
  85.4172637  39.8147295 120.5861735  79.5533186  34.9289409 121.1513378
  79.2483321  35.2435558 122.0023521  80.5063628  35.0070829 121.1940711
  77.9979617  41.0879632 122.8006332  77.4700979  40.3532392 122.4879569
  77.4967120  41.8654309 122.5546300  82.9772463  39.2828653 127.9173378
  82.3196138  39.9727914 128.0053507  83.7812863  39.6725085 128.2607365
  81.7877922  37.6373026 125.9677320  82.3009804  38.2703017 126.4699030
  82.4379146  37.0374221 125.6020680  73.0567932  33.7803760 119.1808829
  72.2205244  34.1178446 119.5018103  72.9172702  33.6452740 118.2435966
  76.1432218  38.9059843 115.8041305  75.2359279  38.6749096 116.0032454
  76.6403250  38.1097462 115.9915286  79.0500296  47.6157350 118.7237991
  78.3761995  47.9189047 119.3322949  79.4366118  48.4186430 118.3743448
  79.0493801  36.5113897 123.3438341  79.7965620  37.0235294 123.0345463
  79.3185390  36.1897950 124.2042734  77.3220451  39.0072438 120.3265295
  76.4131670  38.7231470 120.4237765  77.3515535  39.4271516 119.4668602
  82.5539718  42.6179027 124.0956463  82.1002046  41.7769937 124.1521653
  81.9233685  43.2540425 124.4331243  81.4972638  33.5471013 125.3257130
  80.7595395  33.0348399 125.6567373  81.7499412  33.1071395 124.5140407
  80.9972658  44.4555524 125.0306281  81.2895632  45.0160581 124.3118646
  81.5071278  44.7484085 125.7859440  75.8705345  36.6201058 126.4275090
  75.9253955  35.6674895 126.3517567  75.0596547  36.7760497 126.9116389
  77.0196539  40.5481181 117.6653374  76.5815969  39.8317040 117.2059011
  77.7606980  40.7757296 117.1038465  73.8097705  35.2378118 124.1865469
  72.9965571  35.5372288 124.5930661  74.3056699  34.8433807 124.9039951
  75.9606283  45.2335875 126.1199734  75.9182462  45.4596721 125.1908266
  76.8768982  44.9999249 126.2685535  85.1369654  38.8238378 123.7229692
  84.9987552  39.0139974 122.7950881  84.7805872  39.5857761 124.1797743
  74.0772084  42.1098904 125.9161697  74.8712682  41.6149224 125.7144272
  73.3663776  41.5816767 125.5529402  78.8966928  44.4916999 130.2674064
  78.9503950  45.0607936 131.0351780  78.0281709  44.6618884 129.9028101
  70.3854847  36.2541986 121.9921449  69.4552435  36.1926441 122.2091411
  70.4812319  35.7317938 121.1958091  76.6543360  42.6827926 129.5959534
  76.5154445  42.3146710 130.4685472  75.8657956  43.1975565 129.4243492
  77.2491512  47.7837022 120.9385070  77.4243267  47.3125065 121.7530693
  76.5624300  48.4102788 121.1666331  78.2048575  42.0609529 126.9848372
  77.8698407  42.0210298 127.8806021  77.7052520  41.3954244 126.5118782
  81.1407766  39.4065563 117.2585431  80.5236937  38.6812391 117.1618484
  80.6724255  40.1674923 116.9152505  71.8152597  50.9326385 127.7124930
  72.0549195  51.5644909 128.3903949  70.9721793  50.5814425 127.9990290
  72.9306312  33.6250987 116.3806735  72.0535779  33.5039788 116.0168982
  73.4064065  32.8337065 116.1285624  76.3280459  46.7405508 130.1166434
  76.2550630  47.5460479 130.6285739  75.8857852  46.9397473 129.2914456
  76.1170238  45.9777278 123.6269256  75.3337760  46.5198958 123.7207480
  76.8162984  46.4951257 124.0263497  78.7879142  46.6392342 132.2724593
  79.5007114  47.2739806 132.2000495  78.2969171  46.7356208 131.4564595
  80.5096669  40.5443594 123.8441885  79.5752948  40.6645057 123.6746589
  80.6873338  39.6416061 123.5801895  83.8969221  36.3860913 124.3791919
  84.3629673  37.2188905 124.3052222  84.3476721  35.9205895 125.0837177
  81.9645452  42.7304735 121.3778071  82.2405296  42.6161329 122.2871945
  81.0949950  42.3322220 121.3390244  78.5999516  46.9791086 125.0210885
  78.7821910  46.1612742 125.4838637  79.4232502  47.1958778 124.5835775
  78.9341681  45.9059271 122.2825933  79.4629448  45.3951725 121.6696095
  79.1969901  45.5901801 123.1471466  72.2897429  46.9574387 125.0423709
  71.6207804  47.4420515 124.5587749  72.1510299  47.2043608 125.9567088
  76.4302698  48.9918131 131.6406367  76.9821006  49.1549752 132.4055453
  76.7708891  49.5822569 130.9686392  67.6585006  35.2192842 121.8219641
  67.9538447  34.3103521 121.7686695  66.7573042  35.1980582 121.5000643
  79.5671085  46.9400106 128.6270050  79.4422224  46.1389846 128.1180995
  80.2250176  47.4346300 128.1384019  81.6305993  44.7409127 130.2549600
  80.6836329  44.6214478 130.1827926  81.9788766  43.8531625 130.3375861
  78.6352427  44.5361843 126.4553952  78.4877389  43.6078550 126.6361522
  79.4605920  44.5581933 125.9711027  72.5014671  33.1879910 122.3134444
  72.8410743  33.7165831 121.5913052  72.9486791  33.5260316 123.0893010
  82.2386548  45.3590402 127.5418825  83.1633096  45.1533263 127.4043276
  82.0701852  45.1106803 128.4508166  74.4882818  31.6854531 120.5127737
  75.2091181  32.0635784 120.0091454  73.8648122  32.4043408 120.6162715
  78.6313941  32.3899680 121.4486069  78.8477555  33.2724318 121.1474897
  78.1508008  31.9985894 120.7191711  82.0281865  45.8776069 122.8980916
  82.2018742  45.3122491 122.1454768  82.5210756  46.6776964 122.7160406
  87.8821256  38.6412492 124.5171216  88.3252402  37.8919817 124.1190339
  87.0047766  38.6322628 124.1344948  83.0157037  45.1942833 119.9977814
  83.7107942  45.8149526 120.2165129  83.3580187  44.3438185 120.2730192
  84.9148460  42.6442539 121.5265145  85.4399784  42.9829812 120.8014465
  84.8270813  41.7089554 121.3428280  76.5989121  48.7114522 125.8860398
  76.1594111  48.2190901 126.5793255  77.3497238  48.1687490 125.6452473
  69.0781460  44.9026063 125.8885026  69.9039480  44.6029835 125.5083670
  68.7275512  44.1333685 126.3374815  74.0462993  44.2552531 127.9582700
  73.4243002  43.5923236 127.6584928  74.7167860  44.2813663 127.2756348
  73.6076500  42.8056455 121.4341160  73.7564620  43.4891919 120.7807833
  74.4142944  42.7861545 121.9490616  71.3629133  38.8321632 122.4402229
  71.1175175  37.9283962 122.6382440  71.5325048  38.8338783 121.4981707
  70.6324781  34.5649990 119.9388391  69.9394026  34.6394345 119.2828427
  70.3876533  33.8010333 120.4609908  77.1071906  45.3004585 118.9052908
  76.5345873  45.9194772 118.4523380  77.6804699  45.8503947 119.4392830
  80.3269165  45.5841735 120.0361490  81.2599839  45.5187297 120.2394366
  80.2392378  46.4198002 119.5776023  82.9557182  44.9007606 116.9965438
  82.8770814  44.5667469 117.8901196  83.7766849  45.3929373 116.9956910
  77.4918704  36.6365398 116.2468960  78.4377809  36.5071606 116.3157378
  77.1132949  35.8980060 116.7238389  75.6761621  34.5615374 116.1823846
  74.7693077  34.2648487 116.2586559  75.9537602  34.2645192 115.3158132
  77.2923687  29.1052264 122.3368087  76.4824415  28.7599349 122.7123333
  77.9808104  28.7959808 122.9255698  74.4460406  31.4202309 116.3235825
  75.3079570  31.7457208 116.5831642  74.6310750  30.6333805 115.8108891
  82.5993042  30.2930836 123.4671048  82.0191711  30.9515640 123.0849100
  82.3328975  29.4708180 123.0558465  81.3817920  32.4530926 122.5227396
  80.4943775  32.7380577 122.3047591  81.7971909  32.2924690 121.6754673
  69.3902171  47.0338677 127.6098841  69.2556639  46.2739078 127.0436839
  68.9734233  47.7579577 127.1427630  80.5261134  42.2175601 116.6175416
  81.2296984  42.4225603 117.2333072  79.8023783  42.7852363 116.8824500
  81.3558944  37.9685462 122.7377686  81.2994146  38.4254014 121.8985319
  81.9087287  37.2076147 122.5600529  85.1663750  33.7575194 123.5627806
  84.9100684  33.3571830 124.3936013  84.5416618  34.4718988 123.4377945
  72.5471297  47.9307994 127.8217283  72.4303681  48.8753427 127.7195974
  71.7263743  47.6281556 128.2103083  82.4347831  42.6558130 118.6673876
  83.2693435  42.2239329 118.4851351  82.2732174  42.4840144 119.5950771
  82.0893723  39.1590243 120.0330215  82.0342527  38.9934515 119.0918660
  81.4639779  39.8666276 120.1892405  75.3989849  28.6598352 119.6115534
  75.3868519  29.6040192 119.7683805  76.2913271  28.4768498 119.3174995
  73.5725811  48.5836256 131.0373212  74.4753058  48.6159867 131.3539707
  73.3463181  47.6536707 131.0519548  75.3279413  47.3367243 127.6983290
  74.3775044  47.3369104 127.5847663  75.6311899  46.5899977 127.1819325
  83.7308628  54.9790686 124.6887468  83.1673493  54.8880623 123.9203756
  83.6161023  54.1590590 125.1689961  81.2773060  56.4741877 127.5271689
  82.0694352  56.1332702 127.1117988  81.5169710  56.5836852 128.4473842
  89.3108187  58.6461653 120.0001933  88.6596167  59.2315734 119.6135947
  90.1052550  59.1767848 120.0596971  83.2363814  55.7350791 120.3989068
  84.0094690  55.1879778 120.2601944  83.5889213  56.5995040 120.6103529
  85.5730092  51.8943457 118.0307518  85.8255613  51.3724978 117.2690981
  84.6354651  51.7309602 118.1334201  90.6173375  50.8979235 125.8382261
  91.4036464  50.4798658 125.4872678  90.8812079  51.8025327 126.0063909
  90.7883452  56.3352085 120.5370918  90.1529285  56.4086712 121.2491822
  90.4580859  56.9245684 119.8589997  85.2926381  53.7971563 120.2331893
  85.1762639  53.1216466 120.9012977  85.4028641  53.3103937 119.4164046
  87.6357922  53.2581710 123.9378582  87.2716129  52.7312331 124.6491503
  88.4925038  52.8680179 123.7645067  87.2763409  48.2871609 118.9339930
  87.4437811  49.1551846 119.3010401  87.0860578  48.4498891 118.0101220
  83.4851223  53.2002385 126.6342465  82.5601720  53.0678599 126.8420157
  83.7335637  53.9796604 127.1312408  87.2552630  50.7429267 119.9186597
  87.1352255  51.1886318 120.7572077  86.5605218  51.0914585 119.3600135
  80.8460034  52.8435659 127.4686254  80.9752416  53.0970138 128.3825666
  80.1657486  53.4363367 127.1490909  92.9537696  51.2150740 120.7466931
  93.8655552  51.4478127 120.5714629  92.4447343  51.7987784 120.1842010
  87.1135240  55.9350967 125.4030598  87.5773585  56.2138670 124.6135220
  86.8492038  55.0334411 125.2203688  86.0504126  52.0574119 122.2120163
  86.7528169  52.5095163 122.6794089  85.7184754  51.4157938 122.8400056
  79.7929460  50.3157672 127.5137296  79.0028514  50.5715200 127.0377407
  80.2840707  51.1306010 127.6189337  81.7444205  50.6802251 124.4720773
  80.9475369  50.7920945 124.9904269  81.5169797  51.0188903 123.6061664
  78.0767163  50.5688162 129.9452287  78.3275201  51.4535172 130.2109863
  78.6126711  50.3892764 129.1727379  87.2897891  58.8715062 122.2882268
  87.1543565  59.7166597 122.7167116  87.8307703  59.0734339 121.5248202
  80.7427288  56.3890500 122.8610193  81.2551809  57.1833750 123.0115758
  81.3950001  55.6916790 122.7943795  82.5522173  59.5056256 124.9432946
  82.7288801  60.4274221 124.7553930  83.3479006  59.1914675 125.3727326
  78.7076205  54.7179154 123.6369764  79.5451427  55.1276162 123.4203471
  78.8854472  53.7778596 123.6069958  90.6040637  52.3854235 119.3253597
  90.0887260  53.1558839 119.5641984  90.3317945  51.7119371 119.9486658
  88.1887748  47.2303935 124.3838835  87.3329344  46.8410786 124.2044474
  88.6014700  47.3095896 123.5238621  85.9629780  44.8489008 127.7896577
  86.8282777  44.6531817 127.4302466  86.0307289  44.6199360 128.7165933
  95.5774911  55.1386589 121.2606770  94.8004354  54.7997749 120.8161932
  96.2566392  55.1439212 120.5861735  90.3926940  50.2581327 121.1513378
  90.0877076  50.5727476 122.0023521  91.3457382  50.3362747 121.1940711
  88.8373372  56.4171550 122.8006332  88.3094733  55.6824310 122.4879569
  88.3360875  57.1946226 122.5546300  83.5692099  47.0791216 125.1612943
  84.1435851  46.8566398 124.4286136  84.1563082  47.1479911 125.9141545
  83.8961687  49.1095677 119.1808829  83.0598999  49.4470364 119.5018103
  83.7566456  48.9744657 118.2435966  85.8714767  43.9532465 123.8888013
  85.2179180  43.6381482 123.2644628  85.8295241  43.3308206 124.6147836
  86.9825972  54.2351760 115.8041305  86.0753034  54.0041014 116.0032454
  87.4797004  53.4389380 115.9915286  89.8894051  62.9449268 118.7237991
  89.2155750  63.2480964 119.3322949  90.2759873  63.7478348 118.3743448
  89.1052508  50.4414399 128.2135660  88.1875069  50.6629346 128.0557349
  89.5212651  50.5160709 127.3547368  89.8887555  51.8405815 123.3438341
  90.6359374  52.3527212 123.0345463  90.1579145  51.5189867 124.2042734
  88.1614206  54.3364355 120.3265295  87.2525425  54.0523388 120.4237765
  88.1909289  54.7563434 119.4668602  92.3366392  48.8762931 125.3257130
  91.5989149  48.3640317 125.6567373  92.5893166  48.4363312 124.5140407
  78.7302376  52.0569869 124.3080497  78.5326776  51.4639230 123.5831564
  78.1749040  51.7522080 125.0256436  86.7099100  51.9492976 126.4275090
  86.7647709  50.9966812 126.3517567  85.8990302  52.1052415 126.9116389
  87.8590293  55.8773099 117.6653374  87.4209723  55.1608958 117.2059011
  88.6000734  56.1049214 117.1038465  84.6491459  50.5670036 124.1865469
  83.8359325  50.8664206 124.5930661  85.1450454  50.1725724 124.9039951
  95.9763408  54.1530296 123.7229692  95.8381307  54.3431892 122.7950881
  95.6199627  54.9149679 124.1797743  84.1405534  48.1388391 129.8026704
  84.7804914  47.9977150 129.1049668  83.3083065  47.8522904 129.4265306
  84.9165838  57.4390822 125.9161697  85.7106437  56.9441142 125.7144272
  84.2057531  56.9108685 125.5529402  81.2248602  51.5833903 121.9921449
  80.2946190  51.5218359 122.2091411  81.3206074  51.0609856 121.1958091
  81.1434151  48.1088716 124.5799691  81.4040968  49.0234049 124.4708851
  81.9651323  47.6413159 124.7296304  82.6159076  49.5226473 131.7498516
  83.2882129  49.3143835 131.1011164  81.7888863  49.3248559 131.3103748
  88.0885266  63.1128940 120.9385070  88.2637022  62.6416983 121.7530693
  87.4018054  63.7394706 121.1666331  91.9801521  54.7357481 117.2585431
  91.3630692  54.0104309 117.1618484  91.5118009  55.4966841 116.9152505
  83.7700067  48.9542905 116.3806735  82.8929533  48.8331706 116.0168982
  84.2457820  48.1628983 116.1285624  75.2902207  53.7420065 126.4748243
  75.9773247  53.4281795 125.8869258  75.1350336  54.6461429 126.2015494
  80.0936929  48.6310261 130.9033266  80.0095118  48.0235931 130.1683676
  79.2719636  49.1219279 130.9042763  90.2660643  47.1163825 126.2703461
  90.7629343  46.3633787 125.9504532  89.4947624  47.1528141 125.7046671
  91.3490424  55.8735512 123.8441885  90.4146702  55.9936974 123.6746589
  91.5267092  54.9707979 123.5801895  86.8495612  49.2581208 125.9975146
  86.4793399  48.7052248 126.6856052  87.3454704  48.6539341 125.4450146
  94.7362975  51.7152831 124.3791919  95.2023427  52.5480823 124.3052222
  95.1870476  51.2497813 125.0837177  92.8039206  58.0596652 121.3778071
  93.0799050  57.9453247 122.2871945  91.9343705  57.6614137 121.3390244
  89.7735436  61.2351188 122.2825933  90.3023202  60.7243643 121.6696095
  90.0363655  60.9193719 123.1471466  74.8670183  51.8220658 128.7465710
  74.9054283  51.2884249 129.5402828  74.3610476  51.2955863 128.1276687
  82.2460945  46.6685198 132.2428252  82.3102272  47.5300029 131.8305650
  82.1828066  46.0559200 131.5100611  78.4978761  50.5484760 121.8219641
  78.7932202  49.6395439 121.7686695  77.5966796  50.5272500 121.5000643
  82.0273008  48.6240757 127.8047190  81.3059593  49.2376724 127.6654663
  82.8166263  49.1598521 127.7263836  80.2266602  48.2298858 121.9458966
  79.8979308  47.3496237 121.7634072  80.5805973  48.1746526 122.8335356
  83.3408425  48.5171828 122.3134444  83.6804498  49.0457749 121.5913052
  83.7880546  48.8552234 123.0893010  85.3276573  47.0146449 120.5127737
  86.0484935  47.3927702 120.0091454  84.7041877  47.7335326 120.6162715
  89.4707695  47.7191598 121.4486069  89.6871310  48.6016236 121.1474897
  88.9901763  47.3277812 120.7191711  84.2106917  50.6777311 128.0256814
  84.0651498  50.9917614 128.9181095  83.7332120  51.2962212 127.4727712
  86.0703300  47.6679859 128.0737703  86.0564868  46.7720953 127.7370001
  86.7875728  47.6750523 128.7075989  78.6852579  53.2182656 130.9644475
  78.1406047  53.9942464 131.0964749  79.5631929  53.5653460 130.8063596
  85.4740196  46.5494240 123.3425273  85.5956107  45.6210886 123.5416161
  85.1842238  46.5632926 122.4303589  88.3431386  44.2349150 126.4791993
  88.3653083  44.2988483 125.5243973  88.7599445  43.3953659 126.6732499
  93.8550792  60.5234751 119.9977814  94.5501696  61.1441444 120.2165129
  94.1973942  59.6730102 120.2730192  95.7542215  57.9734457 121.5265145
  96.2793539  58.3121729 120.8014465  95.6664567  57.0381472 121.3428280
  79.9175215  60.2317981 125.8885026  80.7433234  59.9321753 125.5083670
  79.5669267  59.4625603 126.3374815  78.1183820  58.1504307 126.8473960
  77.2815728  57.7226482 126.6657961  78.0907465  58.3436751 127.7844751
  84.4470255  58.1348372 121.4341160  84.5958375  58.8183837 120.7807833
  85.2536698  58.1153462 121.9490616  82.2022888  54.1613550 122.4402229
  81.9568930  53.2575880 122.6382440  82.3718802  54.1630700 121.4981707
  81.4718535  49.8941908 119.9388391  80.7787780  49.9686262 119.2828427
  81.2270287  49.1302251 120.4609908  87.9465660  60.6296503 118.9052908
  87.3739627  61.2486690 118.4523380  88.5198454  61.1795864 119.4392830
  91.1662920  60.9133653 120.0361490  92.0993593  60.8479215 120.2394366
  91.0786133  61.7489920 119.5776023  93.7950937  60.2299523 116.9965438
  93.7164568  59.8959387 117.8901196  94.6160603  60.7221291 116.9956910
  88.3312459  51.9657315 116.2468960  89.2771563  51.8363524 116.3157378
  87.9526704  51.2271977 116.7238389  86.5155376  49.8907292 116.1823846
  85.6086831  49.5940405 116.2586559  86.7931357  49.5937110 115.3158132
  77.4333316  51.2113655 126.6322892  77.1136100  50.3578963 126.3397266
  76.8866744  51.4262233 127.3880859  88.1317441  44.4344182 122.3368087
  87.3218170  44.0891267 122.7123333  88.8201858  44.1251725 122.9255698
  90.0607990  43.5122228 123.9592384  90.6139028  43.9317682 124.6182407
  90.2978076  42.5857977 124.0015340  85.2854160  46.7494227 116.3235825
  86.1473324  47.0749125 116.5831642  85.4704505  45.9625723 115.8108891
  77.3021576  54.8316567 128.6016014  76.6085048  54.4170520 128.0885968
  78.0494567  54.8737103 128.0049432  93.4386797  45.6222754 123.4671048
  92.8585466  46.2807558 123.0849100  93.1722730  44.8000098 123.0558465
  79.2158319  54.7634821 126.4782028  79.1929007  54.8622508 125.5263912
  79.5258955  55.6099971 126.7999195  92.2211675  47.7822844 122.5227396
  91.3337530  48.0672495 122.3047591  92.6365664  47.6216607 121.6754673
  91.3654888  57.5467519 116.6175416  92.0690738  57.7517521 117.2333072
  90.6417537  58.1144281 116.8824500  92.1952699  53.2977380 122.7377686
  92.1387900  53.7545931 121.8985319  92.7481041  52.5368064 122.5600529
  96.0057505  49.0867112 123.5627806  95.7494439  48.6863747 124.3936013
  95.3810373  49.8010906 123.4377945  93.2741586  57.9850048 118.6673876
  94.1087190  57.5531246 118.4851351  93.1125929  57.8132062 119.5950771
  92.9287478  54.4882161 120.0330215  92.8736282  54.3226433 119.0918660
  92.3033533  55.1958194 120.1892405  77.7179993  49.7250226 133.8591638
  78.3638857  49.2149179 134.3478863  77.5097144  50.4618907 134.4335063
  86.2383603  43.9890270 119.6115534  86.2262273  44.9332110 119.7683805
  87.1307025  43.8060416 119.3174995  94.7355441  64.4387595 119.1808829
  93.8992753  64.7762282 119.5018103  94.5960211  64.3036575 118.2435966
  94.6093821  64.2834823 116.3806735  93.7323288  64.1623623 116.0168982
  95.0851574  63.4920901 116.1285624  92.3112290  65.2233825 119.9388391
  91.6181535  65.2978180 119.2828427  92.0664042  64.4594169 120.4609908
  97.3549130  65.2199210 116.1823846  96.4480586  64.9232322 116.2586559
  97.6325111  64.9229028 115.3158132  96.1247915  62.0786145 116.3235825
  96.9867079  62.4041043 116.5831642  96.3098259  61.2917641 115.8108891
  97.0777358  59.3182188 119.6115534  97.0656028  60.2624028 119.7683805
  97.9700780  59.1352333 119.3174995  68.2106543   9.2927555 105.4483298
  67.5368242   9.5959252 106.0568256  68.5972365  10.0956635 105.0988755
  72.1763284   6.8713038 106.7223121  72.8714189   7.4919731 106.9410436
  72.5186434   6.0208390 106.9975499  66.2678152   6.9774790 105.6298215
  65.6952119   7.5964977 105.1768686  66.8410946   7.5274152 106.1638136
  69.4875412   7.2611940 106.7606797  70.4206085   7.1957502 106.9639672
  69.3998625   8.0968207 106.3021329  72.1163429   6.5777810 103.7210744
  72.0377060   6.2437674 104.6146502  72.9373096   7.0699578 103.7202217
  69.6867381   3.8945806 103.3420723  70.3903231   4.0995808 103.9578378
  68.9630029   4.4622568 103.6069806  71.5954078   4.3328335 105.3919183
  72.4299682   3.9009534 105.2096658  71.4338421   4.1610349 106.3196077
  80.2238353  14.8497986 115.4874359  80.8616763  14.7304734 114.7837700
  80.1059196  15.7978830 115.5462312  72.8914875  16.6560891 111.4132775
  72.3279740  16.5650828 110.6449063  72.7767270  15.8360795 111.8935268
  78.4714434  20.3231858 106.7247240  77.8202414  20.9085939 106.3381254
  79.2658797  20.8538053 106.7842278  72.3970061  17.4120996 107.1234374
  73.1700937  16.8649983 106.9847250  72.7495460  18.2765245 107.3348836
  74.7336339  13.5713662 104.7552824  74.9861859  13.0495183 103.9936287
  73.7960898  13.4079807 104.8579508  79.7779622  12.5749440 112.5627568
  80.5642711  12.1568863 112.2117985  80.0418326  13.4795532 112.7309216
  79.9489699  18.0122290 107.2616224  79.3135532  18.0856917 107.9737129
  79.6187105  18.6015889 106.5835304  74.4532628  15.4741768 106.9577199
  74.3368886  14.7986671 107.6258284  74.5634887  14.9874142 106.1409352
  76.7964168  14.9351915 110.6623888  76.4322376  14.4082536 111.3736810
  77.6531284  14.5450384 110.4890374  76.4369655   9.9641814 105.6585237
  76.6044058  10.8322051 106.0255708  76.2466825  10.1269096 104.7346526
  76.4158876  12.4199472 106.6431904  76.2958502  12.8656523 107.4817384
  75.7211465  12.7684790 106.0845442  74.1765768  25.1903114 110.2922035
  74.0989798  26.1410939 110.3710516  73.5727412  24.8448986 110.9496961
  82.1143942  12.8920945 107.4712238  83.0261799  13.1248332 107.2959935
  81.6053590  13.4757989 106.9087316  80.7213525  17.8746764 114.8625819
  80.0922387  18.0392478 114.1601887  80.3339187  18.2888373 115.6336783
  84.6002757  18.8101201 112.2170183  83.9153795  19.1900103 111.6667216
  84.6846606  19.4196528 112.9502131  76.2741487  17.6121172 112.1275904
  76.7379832  17.8908875 111.3380527  76.0098285  16.7104616 111.9448995
  75.2110373  13.7344324 108.9365470  75.9134416  14.1865368 109.4039396
  74.8791001  13.0928143 109.5645363  76.4504137  20.5485267 109.0127575
  76.3149812  21.3936802 109.4412423  76.9913950  20.7504544 108.2493509
  69.9033535  18.0660705 109.5855500  70.4158055  18.8603955 109.7361065
  70.5556248  17.3686995 109.5189101  71.7128419  21.1826461 111.6678253
  71.8895048  22.1044426 111.4799237  72.5085253  20.8684880 112.0972633
  72.8359735  22.7004635 117.6688595  73.3867160  22.5721698 116.8965589
  71.9971211  22.9999524 117.3183488  67.8682452  16.3949359 110.3615070
  68.7057674  16.8046367 110.1448778  68.0460719  15.4548801 110.3315264
  79.7646884  14.0624440 106.0498903  79.2493507  14.8329044 106.2887291
  79.4924192  13.3889576 106.6731965  77.3493995   8.9074140 111.1084142
  76.4935591   8.5180991 110.9289780  77.7620946   8.9866101 110.2483927
  84.7381158  16.8156794 107.9852077  83.9610601  16.4767954 107.5407239
  85.4172639  16.8209417 107.3107042  79.5533187  11.9351532 107.8758685
  79.2483322  12.2497681 108.7268828  80.5063629  12.0132952 107.9186018
  77.9979619  18.0941755 109.5251639  77.4700980  17.3594515 109.2124876
  77.4967121  18.8716431 109.2791607  82.9772465  16.2890776 114.6418685
  82.3196139  16.9790037 114.7298813  83.7812864  16.6787207 114.9852671
  81.7877923  14.6435148 112.6922627  82.3009805  15.2765140 113.1944336
  82.4379147  14.0436344 112.3265987  73.0567933  10.7865882 105.9054135
  72.2205246  11.1240569 106.2263410  72.9172703  10.6514862 104.9681272
  76.1432219  15.9121965 102.5286612  75.2359281  15.6811219 102.7277761
  76.6403251  15.1159585 102.7160593  79.0500298  24.6219472 105.4483298
  78.3761996  24.9251169 106.0568256  79.4366120  25.4248553 105.0988755
  79.0493802  13.5176019 110.0683647  79.7965621  14.0297417 109.7590769
  79.3185392  13.1960072 110.9288041  77.3220452  16.0134560 107.0510602
  76.4131672  15.7293593 107.1483071  77.3515536  16.4333639 106.1913909
  82.5539720  19.6241150 110.8201769  82.1002047  18.7832060 110.8766960
  81.9233686  20.2602548 111.1576549  81.4972639  10.5533136 112.0502437
  80.7595396  10.0410522 112.3812679  81.7499413  10.1133517 111.2385714
  80.9972659  21.4617646 111.7551587  81.2895633  22.0222703 111.0363953
  81.5071280  21.7546207 112.5104746  75.8705346  13.6263181 113.1520397
  75.9253956  12.6737017 113.0762874  75.0596548  13.7822620 113.6361695
  77.0196540  17.5543304 104.3898680  76.5815970  16.8379163 103.9304318
  77.7606981  17.7819419 103.8283772  73.8097706  12.2440240 110.9110776
  72.9965572  12.5434411 111.3175968  74.3056700  11.8495929 111.6285258
  75.9606284  22.2397997 112.8445041  75.9182463  22.4658844 111.9153573
  76.8768983  22.0061372 112.9930842  85.1369655  15.8300501 110.4474999
  84.9987553  16.0202097 109.5196188  84.7805874  16.5919884 110.9043050
  74.0772085  19.1161026 112.6407003  74.8712683  18.6211347 112.4389578
  73.3663777  18.5878890 112.2774709  78.8966929  21.4979122 116.9919371
  78.9503952  22.0670058 117.7597087  78.0281711  21.6681007 116.6273408
  70.3854848  13.2604108 108.7166756  69.4552436  13.1988564 108.9336718
  70.4812320  12.7380061 107.9203397  76.6543361  19.6890048 116.3204840
  76.5154447  19.3208833 117.1930778  75.8657957  20.2037688 116.1488798
  77.2491513  24.7899145 107.6630377  77.4243269  24.3187188 108.4776000
  76.5624301  25.4164911 107.8911638  78.2048576  19.0671651 113.7093678
  77.8698409  19.0272421 114.6051328  77.7052522  18.4016367 113.2364088
  81.1407768  16.4127685 103.9830738  80.5236938  15.6874514 103.8863790
  80.6724256  17.1737046 103.6397812  71.8152598  27.9388508 114.4370237
  72.0549196  28.5707032 115.1149256  70.9721795  27.5876548 114.7235596
  72.9306314  10.6313110 103.1052042  72.0535780  10.5101911 102.7414289
  73.4064067   9.8399188 102.8530931  76.3280460  23.7467630 116.8411741
  76.2550631  24.5522602 117.3531046  75.8857853  23.9459596 116.0159762
  76.1170240  22.9839400 110.3514563  75.3337762  23.5261080 110.4452787
  76.8162985  23.5013380 110.7508804  78.7879144  23.6454464 118.9969900
  79.5007116  24.2801929 118.9245801  78.2969172  23.7418330 118.1809902
  80.5096670  17.5505717 110.5687191  79.5752949  17.6707179 110.3991896
  80.6873339  16.6478184 110.3047201  83.8969222  13.3923036 111.1037226
  84.3629674  14.2251028 111.0297528  84.3476722  12.9268018 111.8082484
  81.9645453  19.7366857 108.1023378  82.2405297  19.6223452 109.0117252
  81.0949952  19.3384342 108.0635551  78.5999517  23.9853208 111.7456191
  78.7821911  23.1674864 112.2083944  79.4232503  24.2020900 111.3081081
  78.9341682  22.9121393 109.0071240  79.4629449  22.4013848 108.3941402
  79.1969902  22.5963924 109.8716773  72.2897430  23.9636510 111.7669016
  71.6207806  24.4482638 111.2833056  72.1510300  24.2105730 112.6812394
  76.4302699  25.9980254 118.3651674  76.9821007  26.1611875 119.1300759
  76.7708892  26.5884691 117.6931699  67.6585007  12.2254965 108.5464948
  67.9538449  11.3165643 108.4932001  66.7573043  12.2042704 108.2245950
  79.5671086  23.9462229 115.3515356  79.4422226  23.1451969 114.8426302
  80.2250177  24.4408422 114.8629326  81.6305995  21.7471249 116.9794906
  80.6836330  21.6276600 116.9073233  81.9788768  20.8593747 117.0621168
  78.6352428  21.5423965 113.1799258  78.4877390  20.6140673 113.3606828
  79.4605921  21.5644056 112.6956334  72.5014672  10.1942032 109.0379751
  72.8410745  10.7227954 108.3158359  72.9486793  10.5322439 109.8138317
  82.2386550  22.3652524 114.2664131  83.1633097  22.1595385 114.1288582
  82.0701853  22.1168925 115.1753473  74.4882819   8.6916654 107.2373043
  75.2091182   9.0697907 106.7336760  73.8648123   9.4105531 107.3408021
  78.6313942   9.3961803 108.1731376  78.8477557  10.2786441 107.8720204
  78.1508009   9.0048016 107.4437018  82.0281866  22.8838192 109.6226223
  82.2018743  22.3184614 108.8700075  82.5210757  23.6839086 109.4405713
  87.8821257  15.6474615 111.2416522  88.3252403  14.8981940 110.8435646
  87.0047767  15.6384751 110.8590254  83.0157038  22.2004956 106.7223121
  83.7107943  22.8211649 106.9410436  83.3580189  21.3500307 106.9975499
  84.9148462  19.6504662 108.2510452  85.4399786  19.9891934 107.5259772
  84.8270814  18.7151677 108.0673586  76.5989122  25.7176645 112.6105705
  76.1594113  25.2253023 113.3038562  77.3497239  25.1749612 112.3697780
  69.0781461  21.9088186 112.6130333  69.9039481  21.6091958 112.2328976
  68.7275513  21.1395808 113.0620122  74.0462994  21.2614654 114.6828007
  73.4243004  20.5985359 114.3830234  74.7167861  21.2875786 114.0001654
  73.6076501  19.8118577 108.1586467  73.7564622  20.4954042 107.5053140
  74.4142945  19.7923667 108.6735923  71.3629134  15.8383755 109.1647536
  71.1175176  14.9346085 109.3627746  71.5325049  15.8400905 108.2227014
  70.6324782  11.5712112 106.6633697  69.9394027  11.6456467 106.0073733
  70.3876534  10.8072456 107.1855214  77.1071907  22.3066708 105.6298215
  76.5345874  22.9256895 105.1768686  77.6804701  22.8566069 106.1638136
  80.3269167  22.5903858 106.7606797  81.2599840  22.5249419 106.9639672
  80.2392380  23.4260125 106.3021329  82.9557183  21.9069728 103.7210744
  82.8770815  21.5729592 104.6146502  83.7766850  22.3991496 103.7202217
  77.4918705  13.6427520 102.9714267  78.4377810  13.5133729 103.0402685
  77.1132950  12.9042182 103.4483695  75.6761623  11.5677497 102.9069152
  74.7693078  11.2710610 102.9831866  75.9537604  11.2707315 102.0403438
  77.2923688   6.1114387 109.0613394  76.4824417   5.7661471 109.4368640
  77.9808105   5.8021930 109.6501005  74.4460407   8.4264432 103.0481131
  75.3079571   8.7519330 103.3076949  74.6310751   7.6395928 102.5354197
  82.5993044   7.2992958 110.1916354  82.0191713   7.9577763 109.8094407
  82.3328976   6.4770303 109.7803772  81.3817922   9.4593049 109.2472703
  80.4943777   9.7442699 109.0292897  81.7971911   9.2986812 108.3999980
  69.3902172  24.0400800 114.3344147  69.2556640  23.2801201 113.7682145
  68.9734234  24.7641700 113.8672936  80.5261135  19.2237724 103.3420723
  81.2296985  19.4287726 103.9578378  79.8023784  19.7914485 103.6069806
  81.3558945  14.9747585 109.4622993  81.2994147  15.4316136 108.6230625
  81.9087288  14.2138269 109.2845836  85.1663751  10.7637317 110.2873112
  84.9100686  10.3633952 111.1181320  84.5416619  11.4781111 110.1623252
  72.5471298  24.9370117 114.5462590  72.4303682  25.8815550 114.4441280
  71.7263744  24.6343679 114.9348389  82.4347833  19.6620253 105.3919183
  83.2693436  19.2301451 105.2096658  82.2732175  19.4902266 106.3196077
  82.0893725  16.1652366 106.7575522  82.0342529  15.9996637 105.8163966
  81.4639780  16.8728399 106.9137712  75.3989850   5.6660475 106.3360840
  75.3868520   6.6102315 106.4929111  76.2913272   5.4830620 106.0420302
  73.5725812  25.5898379 117.7618518  74.4753059  25.6221989 118.0785013
  73.3463182  24.6598830 117.7764854  75.3279414  24.3429365 114.4228597
  74.3775045  24.3431227 114.3092969  75.6311900  23.5962100 113.9064632
  91.0632108  30.1789904 115.4874359  91.7010518  30.0596651 114.7837700
  90.9452951  31.1270748 115.5462312  87.8721814  30.1317332 115.4235884
  87.5340325  30.0158397 114.5356419  88.7411582  29.7308497 115.4036890
  83.7308630  31.9852808 111.4132775  83.1673495  31.8942745 110.6449063
  83.6161025  31.1652713 111.8935268  81.2773062  33.4804000 114.2516996
  82.0694353  33.1394825 113.8363295  81.5169712  33.5898975 115.1719149
  89.3108188  35.6523776 106.7247240  88.6596168  36.2377856 106.3381254
  90.1052551  36.1829971 106.7842278  83.2363815  32.7412913 107.1234374
  84.0094691  32.1941900 106.9847250  83.5889214  33.6057163 107.3348836
  85.0748858  34.0689295 120.3301274  84.7838724  34.9734926 120.2147940
  85.7105842  34.1105823 121.0445343  86.0005065  31.4466144 116.9202633
  86.5968637  31.2222166 116.2059596  86.0580036  30.7050889 117.5228081
  85.5730093  28.9005579 104.7552824  85.8255614  28.3787101 103.9936287
  84.6354652  28.7371725 104.8579508  90.6173376  27.9041358 112.5627568
  91.4036465  27.4860781 112.2117985  90.8812080  28.8087450 112.7309216
  90.7883453  33.3414208 107.2616224  90.1529286  33.4148835 107.9737129
  90.4580860  33.9307807 106.5835304  85.2926382  30.8033685 106.9577199
  85.1762640  30.1278589 107.6258284  85.4028642  30.3166059 106.1409352
  87.6357923  30.2643832 110.6623888  87.2716130  29.7374453 111.3736810
  88.4925039  29.8742301 110.4890374  87.2763410  25.2933732 105.6585237
  87.4437812  26.1613968 106.0255708  87.0860579  25.4561014 104.7346526
  90.0338743  33.7550711 117.3251067  89.7339466  34.6575750 117.2166875
  89.6889803  33.4882894 118.1772220  83.4851225  30.2064508 113.3587772
  82.5601721  30.0740722 113.5665464  83.7335638  30.9858727 113.8557714
  87.2552631  27.7491390 106.6431904  87.1352256  28.1948440 107.4817384
  86.5605219  28.0976707 106.0845442  80.8460036  29.8497781 114.1931561
  80.9752417  30.1032260 115.1070973  80.1657487  30.4425489 113.8736216
  85.0159523  40.5195031 110.2922035  84.9383553  41.4702856 110.3710516
  84.4121167  40.1740904 110.9496961  92.9537697  28.2212863 107.4712238
  93.8655553  28.4540250 107.2959935  92.4447344  28.8049907 106.9087316
  91.5607279  33.2038681 114.8625819  90.9316142  33.3684395 114.1601887
  91.1732941  33.6180291 115.6336783  95.4396511  34.1393119 112.2170183
  94.7547549  34.5192020 111.6667216  95.5240360  34.7488446 112.9502131
  87.1135241  32.9413089 112.1275904  87.5773587  33.2200792 111.3380527
  86.8492039  32.0396534 111.9448995  84.0059322  32.4884571 115.0655668
  84.5760679  32.9171839 114.4273152  84.5967434  32.2067156 115.7639853
  86.0504127  29.0636242 108.9365470  86.7528171  29.5157285 109.4039396
  85.7184756  28.4220061 109.5645363  79.7929461  27.3219794 114.2382603
  79.0028515  27.5777323 113.7622714  80.2840709  28.1368132 114.3434644
  81.7444207  27.6864374 111.1966080  80.9475370  27.7983068 111.7149576
  81.5169799  28.0251026 110.3306970  87.5749874  34.2109077 119.1448594
  87.6394307  34.6729484 119.9806766  86.8660798  33.5806442 119.2730904
  78.0767164  27.5750285 116.6697594  78.3275203  28.4597295 116.9355170
  78.6126713  27.3954886 115.8972686  87.2897892  35.8777184 109.0127575
  87.1543567  36.7228720 109.4412423  87.8307704  36.0796462 108.2493509
  80.7427289  33.3952622 109.5855500  81.2551810  34.1895873 109.7361065
  81.3950002  32.6978913 109.5189101  82.5522174  36.5118379 111.6678253
  82.7288802  37.4336343 111.4799237  83.3479007  36.1976798 112.0972633
  81.8374530  28.5583011 121.5440416  81.7228046  27.6568268 121.8447515
  80.9819048  28.8046707 121.1925233  83.6753489  38.0296552 117.6688595
  84.2260915  37.9013616 116.8965589  82.8364965  38.3291441 117.3183488
  87.4720660  34.2947680 122.0132827  88.0048997  33.5335968 121.7832134
  86.9434742  34.0021332 122.7556981  78.7076206  31.7241277 110.3615070
  79.5451428  32.1338285 110.1448778  78.8854474  30.7840719 110.3315264
  90.6040638  29.3916357 106.0498903  90.0887262  30.1620962 106.2887291
  90.3317947  28.7181493 106.6731965  88.1887749  24.2366058 111.1084142
  87.3329345  23.8472908 110.9289780  88.6014701  24.3158019 110.2483927
  85.9629782  21.8551131 114.5141883  86.8282778  21.6593940 114.1547773
  86.0307291  21.6261483 115.4411240  95.5774912  32.1448712 107.9852077
  94.8004355  31.8059871 107.5407239  96.2566393  32.1501335 107.3107042
  90.3926941  27.2643449 107.8758685  90.0877077  27.5789599 108.7268828
  91.3457383  27.3424869 107.9186018  88.8373373  33.4233673 109.5251639
  88.3094735  32.6886432 109.2124876  88.3360876  34.2008349 109.2791607
  93.8166219  31.6182693 114.6418685  93.1589894  32.3081955 114.7298813
  94.6206618  32.0079125 114.9852671  83.5692101  24.0853339 111.8858250
  84.1435853  23.8628520 111.1531443  84.1563083  24.1542033 112.6386851
  92.6271678  29.9727066 112.6922627  93.1403560  30.6057058 113.1944336
  93.2772902  29.3728261 112.3265987  83.8961688  26.1157800 105.9054135
  83.0599000  26.4532487 106.2263410  83.7566458  25.9806780 104.9681272
  85.8714768  20.9594588 110.6133319  85.2179181  20.6443605 109.9889934
  85.8295243  20.3370328 111.3393142  86.9825973  31.2413883 102.5286612
  86.0753035  31.0103136 102.7277761  87.4797005  30.4451502 102.7160593
  89.8894052  39.9511390 105.4483298  89.2155751  40.2543087 106.0568256
  90.2759874  40.7540470 105.0988755  89.1052509  27.4476521 114.9380967
  88.1875070  27.6691468 114.7802655  89.5212652  27.5222832 114.0792674
  89.8887557  28.8467937 110.0683647  90.6359376  29.3589334 109.7590769
  90.1579146  28.5251990 110.9288041  88.1614207  31.3426478 107.0510602
  87.2525426  31.0585511 107.1483071  88.1909291  31.7625556 106.1913909
  93.3933474  34.9533067 110.8201769  92.9395801  34.1123977 110.8766960
  92.7627441  35.5894466 111.1576549  92.3366394  25.8825053 112.0502437
  91.5989151  25.3702440 112.3812679  92.5893167  25.4425435 111.2385714
  91.8366413  36.7909564 111.7551587  92.1289388  37.3514621 111.0363953
  92.3465034  37.0838125 112.5104746  78.7302377  29.0631992 111.0325804
  78.5326777  28.4701353 110.3076870  78.1749041  28.7584202 111.7501743
  86.7099101  28.9555098 113.1520397  86.7647711  28.0028935 113.0762874
  85.8990303  29.1114538 113.6361695  87.8590295  32.8835221 104.3898680
  87.4209724  32.1671080 103.9304318  88.6000735  33.1111336 103.8283772
  84.6491461  27.5732158 110.9110776  83.8359326  27.8726329 111.3175968
  85.1450455  27.1787847 111.6285258  86.8000039  37.5689915 112.8445041
  86.7576217  37.7950761 111.9153573  87.7162737  37.3353290 112.9930842
  95.9763409  31.1592419 110.4474999  95.8381308  31.3494015 109.5196188
  95.6199628  31.9211801 110.9043050  84.1405535  25.1450514 116.5272011
  84.7804915  25.0039273 115.8294974  83.3083066  24.8585027 116.1510613
  84.9165839  34.4452944 112.6407003  85.7106438  33.9503264 112.4389578
  84.2057532  33.9170807 112.2774709  89.7360684  36.8271040 116.9919371
  89.7897706  37.3961976 117.7597087  88.8675465  36.9972925 116.6273408
  81.2248603  28.5896026 108.7166756  80.2946191  28.5280481 108.9336718
  81.3206075  28.0671979 107.9203397  81.1434152  25.1150839 111.3044998
  81.4040969  26.0296172 111.1954158  81.9651324  24.6475281 111.4541610
  82.6159077  26.5288596 118.4743822  83.2882131  26.3205958 117.8256471
  81.7888864  26.3310682 118.0349054  88.6948784  30.9931302 118.5506303
  89.6240844  31.1442461 118.3775270  88.2739814  31.0815322 117.6954949
  87.4937115  35.0181966 116.3204840  87.3548201  34.6500751 117.1930778
  86.7051712  35.5329606 116.1488798  88.0885267  40.1191063 107.6630377
  88.2637023  39.6479106 108.4776000  87.4018055  40.7456829 107.8911638
  89.0442331  34.3963569 113.7093678  88.7092163  34.3564339 114.6051328
  88.5446276  33.7308285 113.2364088  83.0186574  29.8031199 119.2346259
  82.8806372  29.0711438 119.8357798  83.9291498  29.7140099 118.9530447
  91.9801522  31.7419603 103.9830738  91.3630693  31.0166431 103.8863790
  91.5118011  32.5028963 103.6397812  85.6468875  29.5151158 118.7229939
  86.3568494  28.8744350 118.6816557  85.6038183  29.7664053 119.6456120
  82.6546353  43.2680425 114.4370237  82.8942951  43.8998949 115.1149256
  81.8115549  42.9168465 114.7235596  83.7700068  25.9605027 103.1052042
  82.8929534  25.8393828 102.7414289  84.2457821  25.1691106 102.8530931
  75.2902208  30.7482187 113.1993549  75.9773248  30.4343917 112.6114565
  75.1350337  31.6523552 112.9260801  80.0936930  25.6372384 117.6278573
  80.0095119  25.0298053 116.8928983  79.2719637  26.1281402 117.6288069
  87.1674215  39.0759548 116.8411741  87.0944386  39.8814519 117.3531046
  86.7251608  39.2751514 116.0159762  86.9563994  38.3131318 110.3514563
  86.1731516  38.8552998 110.4452787  87.6556739  38.8305297 110.7508804
  90.2660644  24.1225947 112.9948768  90.7629344  23.3695910 112.6749838
  89.4947626  24.1590264 112.4291977  89.6272898  38.9746382 118.9969900
  90.3400870  39.6093847 118.9245801  89.1362927  39.0710248 118.1809902
  91.3490425  32.8797634 110.5687191  90.4146704  32.9999097 110.3991896
  91.5267093  31.9770101 110.3047201  86.8495613  26.2643330 112.7220453
  86.4793401  25.7114371 113.4101358  87.3454705  25.6601464 112.1695453
  94.7362976  28.7214954 111.1037226  95.2023428  29.5542945 111.0297528
  95.1870477  28.2559935 111.8082484  84.6784812  36.7240825 119.8175471
  85.3794271  37.3577308 119.9704865  84.2079927  37.0655557 119.0571110
  92.8039207  35.0658775 108.1023378  93.0799051  34.9515370 109.0117252
  91.9343706  34.6676260 108.0635551  89.4393271  39.3145126 111.7456191
  89.6215666  38.4966782 112.2083944  90.2626257  39.5312818 111.3081081
  89.7735437  38.2413311 109.0071240  90.3023203  37.7305766 108.3941402
  90.0363656  37.9255841 109.8716773  80.2752530  36.2577180 116.7506573
  80.8605966  35.5120868 116.8834477  80.0777368  36.5681137 117.6343237
  83.1291185  39.2928428 111.7669016  82.4601560  39.7774555 111.2833056
  82.9904055  39.5397648 112.6812394  74.8670184  28.8282781 115.4711016
  74.9054284  28.2946371 116.2648134  74.3610477  28.3017986 114.8521994
  87.2696453  41.3272171 118.3651674  87.8214761  41.4903793 119.1300759
  87.6102647  41.9176609 117.6931699  82.2460947  23.6747321 118.9673559
  82.3102273  24.5362152 118.5550956  82.1828067  23.0621323 118.2345917
  78.4978762  27.5546883 108.5464948  78.7932203  26.6457561 108.4932001
  77.5966798  27.5334622 108.2245950  90.4064841  39.2754147 115.3515356
  90.2815980  38.4743887 114.8426302  91.0643932  39.7700340 114.8629326
  82.0273009  25.6302879 114.5292496  81.3059595  26.2438847 114.3899970
  82.8166265  26.1660644 114.4509142  92.4699749  37.0763167 116.9794906
  91.5230085  36.9568518 116.9073233  92.8182522  36.1885665 117.0621168
  80.2266604  25.2360980 108.6704273  79.8979310  24.3558359 108.4879379
  80.5805974  25.1808649 109.5580662  89.4746182  36.8715883 113.1799258
  89.3271145  35.9432590 113.3606828  90.2999676  36.8935974 112.6956334
  83.3408427  25.5233950 109.0379751  83.6804499  26.0519871 108.3158359
  83.7880547  25.8614356 109.8138317  93.0780304  37.6944442 114.2664131
  94.0026852  37.4887303 114.1288582  92.9095608  37.4460843 115.1753473
  85.3276574  24.0208572 107.2373043  86.0484936  24.3989825 106.7336760
  84.7041878  24.7397449 107.3408021  89.4707697  24.7253721 108.1731376
  89.6871311  25.6078359 107.8720204  88.9901764  24.3339934 107.4437018
  84.2106918  27.6839434 114.7502120  84.0651499  27.9979737 115.6426402
  83.7332122  28.3024334 114.1973019  86.0703301  24.6741982 114.7983010
  86.0564870  23.7783075 114.4615308  86.7875729  24.6812646 115.4321296
  92.8675620  38.2130109 109.6226223  93.0412498  37.6476532 108.8700075
  93.3604512  39.0131004 109.4405713  78.6852580  30.2244778 117.6889781
  78.1406048  31.0004586 117.8210056  79.5631930  30.5715583 117.5308903
  85.4740197  23.5556362 110.0670580  85.5956108  22.6273008 110.2661467
  85.1842239  23.5695048 109.1548895  88.3431387  21.2411273 113.2037300
  88.3653084  21.3050606 112.2489279  88.7599446  20.4015781 113.3977806
  98.7215012  30.9766532 111.2416522  99.1646158  30.2273857 110.8435646
  97.8441522  30.9676669 110.8590254  93.8550793  37.5296874 106.7223121
  94.5501698  38.1503566 106.9410436  94.1973943  36.6792225 106.9975499
  79.4718602  29.3514675 120.5819938  78.7300338  29.4997310 121.1684569
  79.1511346  29.6122940 119.7186688  95.7542216  34.9796579 108.2510452
  96.2793540  35.3183852 107.5259772  95.6664569  34.0443595 108.0673586
  87.4162265  38.8930653 120.3800328  87.7249391  38.6479800 121.2523028
  88.2137747  39.0977291 119.8919199  87.4382877  41.0468562 112.6105705
  86.9987867  40.5544941 113.3038562  88.1890994  40.5041530 112.3697780
  79.9175216  37.2380103 112.6130333  80.7433236  36.9383875 112.2328976
  79.5669268  36.4687726 113.0620122  84.8856749  36.5906572 114.6828007
  84.2636758  35.9277277 114.3830234  85.5561616  36.6167703 114.0001654
  78.1183821  35.1566430 113.5719267  77.2815729  34.7288604 113.3903268
  78.0907466  35.3498873 114.5090058  84.4470256  35.1410495 108.1586467
  84.5958376  35.8245959 107.5053140  85.2536699  35.1215585 108.6735923
  82.2022889  31.1675673 109.1647536  81.9568931  30.2638003 109.3627746
  82.3718803  31.1692823 108.2227014  81.4718536  26.9004030 106.6633697
  80.7787781  26.9748385 106.0073733  81.2270288  26.1364374 107.1855214
  87.9465661  37.6358625 105.6298215  87.3739628  38.2548812 105.1768686
  88.5198455  38.1857987 106.1638136  91.1662921  37.9195775 106.7606797
  92.0993594  37.8541337 106.9639672  91.0786134  38.7552042 106.3021329
  93.7950938  37.2361646 103.7210744  93.7164569  36.9021509 104.6146502
  94.6160605  37.7283414 103.7202217  88.3312460  28.9719438 102.9714267
  89.2771565  28.8425646 103.0402685  87.9526705  28.2334100 103.4483695
  86.5155377  26.8969414 102.9069152  85.6086832  26.6002527 102.9831866
  86.7931358  26.5999233 102.0403438  77.4333317  28.2175778 113.3568199
  77.1136102  27.3641086 113.0642573  76.8866746  28.4324356 114.1126166
  81.2113225  30.9338219 117.0737705  81.4299235  31.8655327 117.0925739
  81.6238999  30.5746193 117.8592509  88.1317443  21.4406304 109.0613394
  87.3218171  21.0953389 109.4368640  88.8201860  21.1313848 109.6501005
  90.0607991  20.5184351 110.6837690  90.6139030  20.9379804 111.3427713
  90.2978077  19.5920099 110.7260646  85.2854162  23.7556350 103.0481131
  86.1473326  24.0811248 103.3076949  85.4704506  22.9687846 102.5354197
  77.3021577  31.8378689 115.3261320  76.6085049  31.4232642 114.8131275
  78.0494568  31.8799226 114.7294739  93.4386798  22.6284876 110.1916354
  92.8585467  23.2869680 109.8094407  93.1722731  21.8062221 109.7803772
  79.2158320  31.7696943 113.2027335  79.1929008  31.8684630 112.2509218
  79.5258956  32.6162094 113.5244501  81.8745698  33.8273098 117.3173950
  82.8288951  33.7957041 117.2503881  81.6758221  33.3663722 118.1324175
  82.4645080  32.3974214 119.8844747  83.2837969  32.8918293 119.9079584
  82.7381888  31.4806182 119.8562315  92.2211676  24.7884967 109.2472703
  91.3337531  25.0734617 109.0292897  92.6365665  24.6278730 108.3999980
  80.2295927  39.3692718 114.3344147  80.0950395  38.6093119 113.7682145
  79.8127989  40.0933618 113.8672936  91.3654890  34.5529641 103.3420723
  92.0690740  34.7579644 103.9578378  90.6417538  35.1206403 103.6069806
  92.1952700  30.3039502 109.4622993  92.1387901  30.7608054 108.6230625
  92.7481042  29.5430187 109.2845836  96.0057506  26.0929234 110.2873112
  95.7494440  25.6925870 111.1181320  95.3810374  26.8073028 110.1623252
  83.3865052  40.2662035 114.5462590  83.2697437  41.2107467 114.4441280
  82.5657499  39.9635596 114.9348389  93.2741587  34.9912170 105.3919183
  94.1087191  34.5593369 105.2096658  93.1125930  34.8194184 106.3196077
  92.9287479  31.4944284 106.7575522  92.8736283  31.3288555 105.8163966
  92.3033534  32.2020317 106.9137712  77.7179994  26.7312348 120.5836944
  78.3638858  26.2211302 121.0724169  77.5097145  27.4681030 121.1580370
  86.2383605  20.9952393 106.3360840  86.2262274  21.9394233 106.4929111
  87.1307027  20.8122538 106.0420302  84.4119567  40.9190297 117.7618518
  85.3146813  40.9513907 118.0785013  84.1856937  39.9890748 117.7764854
  86.1673169  39.6721283 114.4228597  85.2168800  39.6723145 114.3092969
  86.4705655  38.9254018 113.9064632 101.9025862  45.5081822 115.4874359
 102.5404272  45.3888569 114.7837700 101.7846705  46.4562665 115.5462312
  98.7115568  45.4609250 115.4235884  98.3734080  45.3450314 114.5356419
  99.5805337  45.0600415 115.4036890  94.5702384  47.3144726 111.4132775
  94.0067249  47.2234663 110.6449063  94.4554779  46.4944630 111.8935268
  92.1166816  48.8095918 114.2516996  92.9088108  48.4686742 113.8363295
  92.3563466  48.9190893 115.1719149 100.1501943  50.9815694 106.7247240
  99.4989923  51.5669774 106.3381254 100.9446306  51.5121889 106.7842278
  94.0757570  48.0704831 107.1234374  94.8488446  47.5233818 106.9847250
  94.4282969  48.9349080 107.3348836  95.9142613  49.3981213 120.3301274
  95.6232479  50.3026844 120.2147940  96.5499597  49.4397741 121.0445343
  96.8398819  46.7758062 116.9202633  97.4362392  46.5514084 116.2059596
  96.8973791  46.0342807 117.5228081  96.4123848  44.2297497 104.7552824
  96.6649368  43.7079018 103.9936287  95.4748407  44.0663642 104.8579508
 101.4567131  43.2333275 112.5627568 102.2430220  42.8152699 112.2117985
 101.7205835  44.1379368 112.7309216 101.6277208  48.6706126 107.2616224
 100.9923041  48.7440752 107.9737129 101.2974614  49.2599725 106.5835304
  96.1320137  46.1325603 106.9577199  96.0156395  45.4570506 107.6258284
  96.2422396  45.6457977 106.1409352  98.4751677  45.5935750 110.6623888
  98.1109885  45.0666371 111.3736810  99.3318793  45.2034219 110.4890374
  98.1157164  40.6225650 105.6585237  98.2831567  41.4905886 106.0255708
  97.9254334  40.7852931 104.7346526 100.8732498  49.0842629 117.3251067
 100.5733221  49.9867667 117.2166875 100.5283557  48.8174812 118.1772220
  94.3244979  45.5356426 113.3587772  93.3995476  45.4032640 113.5665464
  94.5729392  46.3150645 113.8557714  98.0946385  43.0783307 106.6431904
  97.9746011  43.5240358 107.4817384  97.3998974  43.4268625 106.0845442
  91.6853790  45.1789699 114.1931561  91.8146171  45.4324178 115.1070973
  91.0051241  45.7717407 113.8736216  95.8553277  55.8486949 110.2922035
  95.7777307  56.7994774 110.3710516  95.2514921  55.5032822 110.9496961
 103.7931451  43.5504780 107.4712238 104.7049308  43.7832167 107.2959935
 103.2841099  44.1341825 106.9087316 102.4001034  48.5330599 114.8625819
 101.7709896  48.6976313 114.1601887 102.0126696  48.9472208 115.6336783
 106.2790266  49.4685037 112.2170183 105.5941304  49.8483938 111.6667216
 106.3634115  50.0780363 112.9502131  97.9528996  48.2705007 112.1275904
  98.4167341  48.5492710 111.3380527  97.6885794  47.3688452 111.9448995
  94.8453077  47.8176489 115.0655668  95.4154434  48.2463757 114.4273152
  95.4361189  47.5359073 115.7639853  96.8897882  44.3928159 108.9365470
  97.5921925  44.8449203 109.4039396  96.5578510  43.7511978 109.5645363
  90.6323216  42.6511712 114.2382603  89.8422270  42.9069241 113.7622714
  91.1234463  43.4660050 114.3434644  92.5837961  43.0156291 111.1966080
  91.7869124  43.1274986 111.7149576  92.3563553  43.3542943 110.3306970
  98.4143629  49.5400994 119.1448594  98.4788061  50.0021402 119.9806766
  97.7054553  48.9098359 119.2730904  88.9160919  42.9042202 116.6697594
  89.1668957  43.7889212 116.9355170  89.4520467  42.7246804 115.8972686
  98.1291646  51.2069102 109.0127575  97.9937321  52.0520638 109.4412423
  98.6701459  51.4088380 108.2493509  91.5821044  48.7244540 109.5855500
  92.0945564  49.5187790 109.7361065  92.2343757  48.0270830 109.5189101
  93.3915928  51.8410296 111.6678253  93.5682557  52.7628261 111.4799237
  94.1872762  51.5268715 112.0972633  92.6768285  43.8874928 121.5440416
  92.5621800  42.9860185 121.8447515  91.8212803  44.1338625 121.1925233
  94.5147244  53.3588470 117.6688595  95.0654669  53.2305533 116.8965589
  93.6758720  53.6583359 117.3183488  98.3114415  49.6239598 122.0132827
  98.8442752  48.8627886 121.7832134  97.7828496  49.3313250 122.7556981
  89.5469961  47.0533194 110.3615070  90.3845183  47.4630203 110.1448778
  89.7248228  46.1132636 110.3315264 101.4434393  44.7208275 106.0498903
 100.9281016  45.4912880 106.2887291 101.1711701  44.0473411 106.6731965
  99.0281504  39.5657976 111.1084142  98.1723100  39.1764826 110.9289780
  99.4408455  39.6449937 110.2483927  96.8023536  37.1843049 114.5141883
  97.6676533  36.9885857 114.1547773  96.8701045  36.9553401 115.4411240
 106.4168667  47.4740630 107.9852077 105.6398110  47.1351789 107.5407239
 107.0960148  47.4793253 107.3107042 101.2320696  42.5935367 107.8758685
 100.9270831  42.9081516 108.7268828 102.1851138  42.6716787 107.9186018
  99.6767128  48.7525590 109.5251639  99.1488489  48.0178350 109.2124876
  99.1754630  49.5300267 109.2791607 104.6559974  46.9474611 114.6418685
 103.9983648  47.6373872 114.7298813 105.4600373  47.3371043 114.9852671
  94.4085855  39.4145257 111.8858250  94.9829607  39.1920438 111.1531443
  94.9956838  39.4833951 112.6386851 103.4665432  45.3018984 112.6922627
 103.9797314  45.9348975 113.1944336 104.1166656  44.7020179 112.3265987
  94.7355442  41.4449718 105.9054135  93.8992755  41.7824404 106.2263410
  94.5960212  41.3098697 104.9681272  96.7108523  36.2886506 110.6133319
  96.0572935  35.9735523 109.9889934  96.6688997  35.6662246 111.3393142
  97.8219728  46.5705801 102.5286612  96.9146790  46.3395054 102.7277761
  98.3190760  45.7743420 102.7160593 100.7287807  55.2803308 105.4483298
 100.0549505  55.5835005 106.0568256 101.1153629  56.0832388 105.0988755
  99.9446263  42.7768439 114.9380967  99.0268825  42.9983386 114.7802655
 100.3606407  42.8514750 114.0792674 100.7281311  44.1759855 110.0683647
 101.4753130  44.6881252 109.7590769 100.9972901  43.8543908 110.9288041
  99.0007961  46.6718396 107.0510602  98.0919181  46.3877428 107.1483071
  99.0303045  47.0917474 106.1913909 104.2327229  50.2824985 110.8201769
 103.7789556  49.4415895 110.8766960 103.6021195  50.9186383 111.1576549
 103.1760148  41.2116971 112.0502437 102.4382905  40.6994357 112.3812679
 103.4286922  40.7717353 111.2385714 102.6760168  52.1201482 111.7551587
 102.9683142  52.6806539 111.0363953 103.1858788  52.4130043 112.5104746
  89.5696132  44.3923910 111.0325804  89.3720531  43.7993270 110.3076870
  89.0142796  44.0876120 111.7501743  97.5492855  44.2847016 113.1520397
  97.6041465  43.3320853 113.0762874  96.7384057  44.4406455 113.6361695
  98.6984049  48.2127139 104.3898680  98.2603479  47.4962998 103.9304318
  99.4394490  48.4403254 103.8283772  95.4885215  42.9024076 110.9110776
  94.6753081  43.2018246 111.3175968  95.9844209  42.5079765 111.6285258
  97.6393793  52.8981833 112.8445041  97.5969972  53.1242679 111.9153573
  98.5556492  52.6645207 112.9930842 106.8157164  46.4884336 110.4474999
 106.6775062  46.6785932 109.5196188 106.4593383  47.2503719 110.9043050
  94.9799290  40.4742431 116.5272011  95.6198669  40.3331190 115.8294974
  94.1476821  40.1876945 116.1510613  95.7559594  49.7744862 112.6407003
  96.5500192  49.2795182 112.4389578  95.0451286  49.2462725 112.2774709
 100.5754438  52.1562957 116.9919371 100.6291461  52.7253894 117.7597087
  99.7069220  52.3264842 116.6273408  92.0642357  43.9187944 108.7166756
  91.1339945  43.8572399 108.9336718  92.1599829  43.3963896 107.9203397
  91.9827906  40.4442756 111.3044998  92.2434724  41.3588090 111.1954158
  92.8045079  39.9767199 111.4541610  93.4552832  41.8580514 118.4743822
  94.1275885  41.6497876 117.8256471  92.6282618  41.6602600 118.0349054
  99.5342538  46.3223219 118.5506303 100.4634598  46.4734379 118.3775270
  99.1133568  46.4107240 117.6954949  98.3330870  50.3473884 116.3204840
  98.1941956  49.9792668 117.1930778  97.5445466  50.8621523 116.1488798
  98.9279022  55.4482980 107.6630377  99.1030778  54.9771023 108.4776000
  98.2411810  56.0748746 107.8911638  99.8836085  49.7255486 113.7093678
  99.5485918  49.6856256 114.6051328  99.3840031  49.0600202 113.2364088
  93.8580329  45.1323117 119.2346259  93.7200127  44.4003355 119.8357798
  94.7685252  45.0432017 118.9530447 102.8195277  47.0711521 103.9830738
 102.2024447  46.3458349 103.8863790 102.3511765  47.8320881 103.6397812
  96.4862630  44.8443076 118.7229939  97.1962248  44.2036268 118.6816557
  96.4431938  45.0955971 119.6456120  93.4940107  58.5972343 114.4370237
  93.7336705  59.2290867 115.1149256  92.6509304  58.2460383 114.7235596
  94.6093823  41.2896945 103.1052042  93.7323289  41.1685746 102.7414289
  95.0851576  40.4983023 102.8530931  86.1295963  46.0774105 113.1993549
  86.8167003  45.7635835 112.6114565  85.9744091  46.9815469 112.9260801
  90.9330685  40.9664301 117.6278573  90.8488874  40.3589971 116.8928983
  90.1113391  41.4573320 117.6288069  98.0067969  54.4051465 116.8411741
  97.9338140  55.2106437 117.3531046  97.5645362  54.6043431 116.0159762
  97.7957749  53.6423235 110.3514563  97.0125271  54.1844916 110.4452787
  98.4950494  54.1597215 110.7508804 101.1054399  39.4517865 112.9948768
 101.6023098  38.6987827 112.6749838 100.3341380  39.4882182 112.4291977
 100.4666653  54.3038299 118.9969900 101.1794625  54.9385764 118.9245801
  99.9756681  54.4002165 118.1809902 102.1884179  48.2089552 110.5687191
 101.2540458  48.3291015 110.3991896 102.3660848  47.3062019 110.3047201
  97.6889367  41.5935248 112.7220453  97.3187155  41.0406288 113.4101358
  98.1848460  40.9893381 112.1695453 105.5756731  44.0506871 111.1037226
 106.0417183  44.8834863 111.0297528 106.0264231  43.5851853 111.8082484
  95.5178566  52.0532743 119.8175471  96.2188026  52.6869226 119.9704865
  95.0473681  52.3947474 119.0571110 103.6432962  50.3950693 108.1023378
 103.9192806  50.2807287 109.0117252 102.7737461  49.9968178 108.0635551
 100.2787026  54.6437044 111.7456191 100.4609420  53.8258700 112.2083944
 101.1020012  54.8604736 111.3081081 100.6129191  53.5705229 109.0071240
 101.1416958  53.0597683 108.3941402 100.8757411  53.2547759 109.8716773
  91.1146284  51.5869098 116.7506573  91.6999721  50.8412786 116.8834477
  90.9171123  51.8973055 117.6343237  93.9684939  54.6220345 111.7669016
  93.2995315  55.1066473 111.2833056  93.8297809  54.8689566 112.6812394
  85.7063939  44.1574698 115.4711016  85.7448038  43.6238289 116.2648134
  85.2004232  43.6309904 114.8521994  98.1090208  56.6564089 118.3651674
  98.6608516  56.8195710 119.1300759  98.4496401  57.2468527 117.6931699
  93.0854701  39.0039239 118.9673559  93.1496028  39.8654070 118.5550956
  93.0221821  38.3913240 118.2345917  89.3372516  42.8838800 108.5464948
  89.6325958  41.9749479 108.4932001  88.4360552  42.8626540 108.2245950
 101.2458595  54.6046064 115.3515356 101.1209735  53.8035804 114.8426302
 101.9037686  55.0992258 114.8629326  92.8666763  40.9594797 114.5292496
  92.1453349  41.5730765 114.3899970  93.6560019  41.4952562 114.4509142
 103.3093504  52.4055085 116.9794906 102.3623839  52.2860436 116.9073233
 103.6576277  51.5177583 117.0621168  91.0660358  40.5652898 108.6704273
  90.7373064  39.6850277 108.4879379  91.4199729  40.5100567 109.5580662
 100.3139937  52.2007801 113.1799258 100.1664899  51.2724508 113.3606828
 101.1393430  52.2227891 112.6956334  94.1802181  40.8525868 109.0379751
  94.5198254  41.3811789 108.3158359  94.6274302  41.1906274 109.8138317
 103.9174059  53.0236359 114.2664131 104.8420606  52.8179221 114.1288582
 103.7489362  52.7752761 115.1753473  96.1670328  39.3500489 107.2373043
  96.8878691  39.7281742 106.7336760  95.5435632  40.0689366 107.3408021
 100.3101451  40.0545638 108.1731376 100.5265066  40.9370276 107.8720204
  99.8295518  39.6631852 107.4437018  95.0500673  43.0131352 114.7502120
  94.9045253  43.3271655 115.6426402  94.5725876  43.6316252 114.1973019
  96.9097055  40.0033900 114.7983010  96.8958624  39.1074993 114.4615308
  97.6269484  40.0104563 115.4321296 103.7069375  53.5422027 109.6226223
 103.8806252  52.9768449 108.8700075 104.1998266  54.3422922 109.4405713
  89.5246335  45.5536696 117.6889781  88.9799803  46.3296504 117.8210056
  90.4025685  45.9007500 117.5308903  96.3133951  38.8848280 110.0670580
  96.4349863  37.9564926 110.2661467  96.0235994  38.8986966 109.1548895
  99.1825142  36.5703190 113.2037300  99.2046839  36.6342523 112.2489279
  99.5993201  35.7307699 113.3977806 109.5608766  46.3058450 111.2416522
 110.0039912  45.5565775 110.8435646 108.6835276  46.2968586 110.8590254
 104.6944547  52.8588791 106.7223121 105.3895452  53.4795484 106.9410436
 105.0367698  52.0084143 106.9975499  90.3112357  44.6806592 120.5819938
  89.5694093  44.8289228 121.1684569  89.9905101  44.9414858 119.7186688
 106.5935971  50.3088497 108.2510452 107.1187295  50.6475770 107.5259772
 106.5058323  49.3735512 108.0673586  98.2556019  54.2222571 120.3800328
  98.5643146  53.9771717 121.2523028  99.0531501  54.4269209 119.8919199
  98.2776631  56.3760480 112.6105705  97.8381622  55.8836859 113.3038562
  99.0284748  55.8333448 112.3697780  90.7568970  52.5672021 112.6130333
  91.5826990  52.2675793 112.2328976  90.4063022  51.7979643 113.0620122
  95.7250503  51.9198489 114.6828007  95.1030513  51.2569194 114.3830234
  96.3955370  51.9459621 114.0001654  88.9577575  50.4858347 113.5719267
  88.1209484  50.0580522 113.3903268  88.9301221  50.6790791 114.5090058
  95.2864010  50.4702413 108.1586467  95.4352131  51.1537877 107.5053140
  96.0930454  50.4507503 108.6735923  93.0416643  46.4967590 109.1647536
  92.7962685  45.5929920 109.3627746  93.2112558  46.4984741 108.2227014
  92.3112291  42.2295948 106.6633697  91.6181536  42.3040303 106.0073733
  92.0664043  41.4656291 107.1855214  98.7859416  52.9650543 105.6298215
  98.2133383  53.5840730 105.1768686  99.3592210  53.5149905 106.1638136
 102.0056676  53.2487693 106.7606797 102.9387349  53.1833255 106.9639672
 101.9179888  54.0843960 106.3021329 104.6344692  52.5653563 103.7210744
 104.5558324  52.2313427 104.6146502 105.4554359  53.0575331 103.7202217
  99.1706214  44.3011356 102.9714267 100.1165319  44.1717564 103.0402685
  98.7920459  43.5626018 103.4483695  97.3549132  42.2261332 102.9069152
  96.4480587  41.9294445 102.9831866  97.6325113  41.9291150 102.0403438
  88.2727072  43.5467696 113.3568199  87.9529856  42.6933004 113.0642573
  87.7260500  43.7616274 114.1126166  92.0506979  46.2630137 117.0737705
  92.2692989  47.1947244 117.0925739  92.4632753  45.9038111 117.8592509
  98.9711197  36.7698222 109.0613394  98.1611926  36.4245307 109.4368640
  99.6595614  36.4605766 109.6501005 100.9001746  35.8476269 110.6837690
 101.4532784  36.2671722 111.3427713 101.1371832  34.9212017 110.7260646
  96.1247916  39.0848267 103.0481131  96.9867080  39.4103166 103.3076949
  96.3098260  38.2979763 102.5354197  88.1415332  47.1670607 115.3261320
  87.4478803  46.7524560 114.8131275  88.8888323  47.2091144 114.7294739
 104.2780553  37.9576794 110.1916354 103.6979222  38.6161598 109.8094407
 104.0116485  37.1354138 109.7803772  90.0552074  47.0988861 113.2027335
  90.0322763  47.1976548 112.2509218  90.3652711  47.9454012 113.5244501
  92.7139452  49.1565016 117.3173950  93.6682706  49.1248958 117.2503881
  92.5151976  48.6955640 118.1324175  93.3038834  47.7266132 119.8844747
  94.1231723  48.2210211 119.9079584  93.5775642  46.8098100 119.8562315
 103.0605431  40.1176884 109.2472703 102.1731286  40.4026535 109.0292897
 103.4759420  39.9570648 108.3999980  91.0689681  54.6984635 114.3344147
  90.9344149  53.9385036 113.7682145  90.6521743  55.4225535 113.8672936
 102.2048644  49.8821559 103.3420723 102.9084494  50.0871561 103.9578378
 101.4811293  50.4498321 103.6069806 103.0346454  45.6331420 109.4622993
 102.9781656  46.0899972 108.6230625 103.5874797  44.8722105 109.2845836
 106.8451260  41.4221152 110.2873112 106.5888195  41.0217788 111.1181320
 106.2204128  42.1364946 110.1623252  94.2258807  55.5953952 114.5462590
  94.1091191  56.5399385 114.4441280  93.4051253  55.2927514 114.9348389
 104.1135342  50.3204088 105.3919183 104.9480945  49.8885287 105.2096658
 103.9519684  50.1486102 106.3196077 103.7681234  46.8236201 106.7575522
 103.7130037  46.6580473 105.8163966 103.1427289  47.5312234 106.9137712
  88.5573749  42.0604266 120.5836944  89.2032612  41.5503220 121.0724169
  88.3490900  42.7972947 121.1580370  97.0777359  36.3244310 106.3360840
  97.0656029  37.2686150 106.4929111  97.9700781  36.1414456 106.0420302
  95.2513321  56.2482214 117.7618518  96.1540568  56.2805825 118.0785013
  95.0250691  55.3182665 117.7764854  97.0066923  55.0013201 114.4228597
  96.0562554  55.0015062 114.3092969  97.3099409  54.2545935 113.9064632
 105.4096139  62.6436644 111.4132775 104.8461004  62.5526581 110.6449063
 105.2948534  61.8236548 111.8935268 102.9560571  64.1387835 114.2516996
 103.7481862  63.7978660 113.8363295 103.1957221  64.2482810 115.1719149
 110.9895697  66.3107611 106.7247240 110.3383677  66.8961692 106.3381254
 111.7840060  66.8413806 106.7842278 104.9151324  63.3996749 107.1234374
 105.6882200  62.8525736 106.9847250 105.2676723  64.2640998 107.3348836
 107.2517602  59.5589415 104.7552824 107.5043123  59.0370936 103.9936287
 106.3142161  59.3955560 104.8579508 112.2960885  58.5625193 112.5627568
 113.0823974  58.1444616 112.2117985 112.5599589  59.4671285 112.7309216
 112.4670962  63.9998043 107.2616224 111.8316795  64.0732670 107.9737129
 112.1368369  64.5891642 106.5835304 106.9713891  61.4617521 106.9577199
 106.8550149  60.7862424 107.6258284 107.0816151  60.9749895 106.1409352
 109.3145432  60.9227668 110.6623888 108.9503639  60.3958289 111.3736810
 110.1712548  60.5326137 110.4890374 108.9550919  55.9517567 105.6585237
 109.1225321  56.8197804 106.0255708 108.7648088  56.1144849 104.7346526
 105.1638734  60.8648343 113.3587772 104.2389230  60.7324557 113.5665464
 105.4123147  61.6442562 113.8557714 108.9340140  58.4075225 106.6431904
 108.8139765  58.8532276 107.4817384 108.2392728  58.7560543 106.0845442
 102.5247545  60.5081617 114.1931561 102.6539926  60.7616096 115.1070973
 101.8444996  61.1009325 113.8736216 114.6325206  58.8796698 107.4712238
 115.5443062  59.1124085 107.2959935 114.1234853  59.4633742 106.9087316
 108.7922750  63.5996925 112.1275904 109.2561096  63.8784628 111.3380527
 108.5279548  62.6980369 111.9448995 107.7291636  59.7220077 108.9365470
 108.4315680  60.1741121 109.4039396 107.3972265  59.0803896 109.5645363
 101.4716970  57.9803630 114.2382603 100.6816024  58.2361158 113.7622714
 101.9628218  58.7951968 114.3434644 103.4231716  58.3448209 111.1966080
 102.6262879  58.4566903 111.7149576 103.1957308  58.6834861 110.3306970
  99.7554673  58.2334120 116.6697594 100.0062712  59.1181130 116.9355170
 100.2914222  58.0538722 115.8972686 108.9685401  66.5361020 109.0127575
 108.8331076  67.3812555 109.4412423 109.5095213  66.7380297 108.2493509
 102.4214798  64.0536458 109.5855500 102.9339319  64.8479708 109.7361065
 103.0737511  63.3562748 109.5189101 104.2309683  67.1702214 111.6678253
 104.4076311  68.0920179 111.4799237 105.0266516  66.8560633 112.0972633
 100.3863715  62.3825112 110.3615070 101.2238937  62.7922120 110.1448778
 100.5641983  61.4424554 110.3315264 112.2828147  60.0500193 106.0498903
 111.7674771  60.8204797 106.2887291 112.0105456  59.3765329 106.6731965
 109.8675258  54.8949893 111.1084142 109.0116854  54.5056744 110.9289780
 110.2802210  54.9741854 110.2483927 107.6417291  52.5134966 114.5141883
 108.5070287  52.3177775 114.1547773 107.7094800  52.2845318 115.4411240
 117.2562421  62.8032547 107.9852077 116.4791864  62.4643707 107.5407239
 117.9353902  62.8085170 107.3107042 112.0714450  57.9227285 107.8758685
 111.7664586  58.2373434 108.7268828 113.0244892  58.0008705 107.9186018
 110.5160882  64.0817508 109.5251639 109.9882244  63.3470268 109.2124876
 110.0148385  64.8592184 109.2791607 105.2479610  54.7437174 111.8858250
 105.8223362  54.5212356 111.1531443 105.8350592  54.8125869 112.6386851
 105.5749197  56.7741635 105.9054135 104.7386509  57.1116322 106.2263410
 105.4353966  56.6390615 104.9681272 107.5502277  51.6178423 110.6133319
 106.8966690  51.3027440 109.9889934 107.5082752  50.9954164 111.3393142
 108.6613482  61.8997718 102.5286612 107.7540544  61.6686972 102.7277761
 109.1584514  61.1035338 102.7160593 111.5681561  70.6095226 105.4483298
 110.8943260  70.9126922 106.0568256 111.9547383  71.4124306 105.0988755
 110.7840018  58.1060357 114.9380967 109.8662579  58.3275304 114.7802655
 111.2000161  58.1806667 114.0792674 111.5675066  59.5051772 110.0683647
 112.3146885  60.0173170 109.7590769 111.8366655  59.1835825 110.9288041
 109.8401716  62.0010313 107.0510602 108.9312935  61.7169346 107.1483071
 109.8696800  62.4209392 106.1913909 114.0153903  56.5408889 112.0502437
 113.2776660  56.0286275 112.3812679 114.2680676  56.1009270 111.2385714
 100.4089886  59.7215827 111.0325804 100.2114286  59.1285188 110.3076870
  99.8536550  59.4168037 111.7501743 108.3886610  59.6138934 113.1520397
 108.4435220  58.6612770 113.0762874 107.5777812  59.7698373 113.6361695
 109.5377804  63.5419057 104.3898680 109.0997233  62.8254916 103.9304318
 110.2788244  63.7695172 103.8283772 106.3278970  58.2315994 110.9110776
 105.5146835  58.5310164 111.3175968 106.8237964  57.8371682 111.6285258
 117.6550918  61.8176254 110.4474999 117.5168817  62.0077850 109.5196188
 117.2987137  62.5795637 110.9043050 105.8193044  55.8034349 116.5272011
 106.4592424  55.6623108 115.8294974 104.9870575  55.5168862 116.1510613
 106.5953348  65.1036779 112.6407003 107.3893947  64.6087100 112.4389578
 105.8845041  64.5754643 112.2774709 102.9036112  59.2479861 108.7166756
 101.9733700  59.1864317 108.9336718 102.9993584  58.7255814 107.9203397
 102.8221661  55.7734674 111.3044998 103.0828478  56.6880007 111.1954158
 103.6438833  55.3059117 111.4541610 104.2946586  57.1872431 118.4743822
 104.9669640  56.9789793 117.8256471 103.4676373  56.9894517 118.0349054
 109.7672776  70.7774898 107.6630377 109.9424532  70.3062941 108.4776000
 109.0805564  71.4040664 107.8911638 113.6589031  62.4003438 103.9830738
 113.0418202  61.6750267 103.8863790 113.1905520  63.1612799 103.6397812
 105.4487577  56.6188863 103.1052042 104.5717043  56.4977664 102.7414289
 105.9245330  55.8274941 102.8530931  96.9689717  61.4066023 113.1993549
  97.6560757  61.0927753 112.6114565  96.8137846  62.3107387 112.9260801
 101.7724439  56.2956219 117.6278573 101.6882628  55.6881889 116.8928983
 100.9507146  56.7865237 117.6288069 111.9448153  54.7809783 112.9948768
 112.4416853  54.0279745 112.6749838 111.1735135  54.8174099 112.4291977
 113.0277934  63.5381470 110.5687191 112.0934213  63.6582932 110.3991896
 113.2054602  62.6353937 110.3047201 108.5283122  56.9227166 112.7220453
 108.1580909  56.3698206 113.4101358 109.0242214  56.3185299 112.1695453
 116.4150485  59.3798789 111.1037226 116.8810937  60.2126781 111.0297528
 116.8657986  58.9143771 111.8082484 114.4826716  65.7242610 108.1023378
 114.7586560  65.6099205 109.0117252 113.6131215  65.3260095 108.0635551
 111.4522946  68.8997146 109.0071240 111.9810712  68.3889601 108.3941402
 111.7151165  68.5839677 109.8716773  96.5457693  59.4866616 115.4711016
  96.5841793  58.9530207 116.2648134  96.0397986  58.9601821 114.8521994
 103.9248456  54.3331156 118.9673559 103.9889782  55.1945987 118.5550956
 103.8615576  53.7205158 118.2345917 100.1766271  58.2130718 108.5464948
 100.4719712  57.3041396 108.4932001  99.2754307  58.1918457 108.2245950
 103.7060518  56.2886715 114.5292496 102.9847104  56.9022682 114.3899970
 104.4953774  56.8244479 114.4509142 101.9054113  55.8944816 108.6704273
 101.5766819  55.0142195 108.4879379 102.2593483  55.8392484 109.5580662
 105.0195936  56.1817785 109.0379751 105.3592008  56.7103707 108.3158359
 105.4668056  56.5198192 109.8138317 107.0064083  54.6792407 107.2373043
 107.7272445  55.0573660 106.7336760 106.3829387  55.3981284 107.3408021
 111.1495206  55.3837556 108.1731376 111.3658820  56.2662194 107.8720204
 110.6689273  54.9923769 107.4437018 105.8894427  58.3423269 114.7502120
 105.7439008  58.6563572 115.6426402 105.4119631  58.9608170 114.1973019
 107.7490810  55.3325817 114.7983010 107.7352379  54.4366911 114.4615308
 108.4663238  55.3396481 115.4321296 100.3640089  60.8828614 117.6889781
  99.8193557  61.6588422 117.8210056 101.2419439  61.2299418 117.5308903
 107.1527706  54.2140198 110.0670580 107.2743617  53.2856844 110.2661467
 106.8629748  54.2278884 109.1548895 110.0218896  51.8995108 113.2037300
 110.0440593  51.9634441 112.2489279 110.4386955  51.0599617 113.3977806
 115.5338302  68.1880709 106.7223121 116.2289207  68.8087402 106.9410436
 115.8761452  67.3376060 106.9975499 117.4329725  65.6380415 108.2510452
 117.9581049  65.9767687 107.5259772 117.3452078  64.7027430 108.0673586
 101.5962725  67.8963939 112.6130333 102.4220745  67.5967711 112.2328976
 101.2456777  67.1271561 113.0620122  99.7971330  65.8150265 113.5719267
  98.9603238  65.3872439 113.3903268  99.7694975  66.0082708 114.5090058
 106.1257765  65.7994330 108.1586467 106.2745885  66.4829795 107.5053140
 106.9324208  65.7799420 108.6735923 103.8810398  61.8259508 109.1647536
 103.6356440  60.9221838 109.3627746 104.0506312  61.8276658 108.2227014
 103.1506045  57.5587865 106.6633697 102.4575290  57.6332220 106.0073733
 102.9057797  56.7948209 107.1855214 109.6253170  68.2942461 105.6298215
 109.0527137  68.9132648 105.1768686 110.1985964  68.8441822 106.1638136
 112.8450430  68.5779611 106.7606797 113.7781103  68.5125172 106.9639672
 112.7573643  69.4135878 106.3021329 115.4738447  67.8945481 103.7210744
 115.3952078  67.5605345 104.6146502 116.2948114  68.3867249 103.7202217
 110.0099969  59.6303273 102.9714267 110.9559074  59.5009482 103.0402685
 109.6314214  58.8917935 103.4483695 108.1942886  57.5553250 102.9069152
 107.2874341  57.2586363 102.9831866 108.4718867  57.2583068 102.0403438
  99.1120826  58.8759613 113.3568199  98.7923611  58.0224921 113.0642573
  98.5654255  59.0908191 114.1126166 109.8104952  52.0990140 109.0613394
 109.0005680  51.7537225 109.4368640 110.4989369  51.7897683 109.6501005
 111.7395500  51.1768186 110.6837690 112.2926539  51.5963640 111.3427713
 111.9765586  50.2503934 110.7260646 106.9641671  54.4140185 103.0481131
 107.8260835  54.7395083 103.3076949 107.1492015  53.6271681 102.5354197
  98.9809086  62.4962525 115.3261320  98.2872558  62.0816478 114.8131275
  99.7282077  62.5383061 114.7294739 115.1174307  53.2868712 110.1916354
 114.5372976  53.9453516 109.8094407 114.8510240  52.4646056 109.7803772
 100.8945829  62.4280779 113.2027335 100.8716517  62.5268466 112.2509218
 101.2046465  63.2745929 113.5244501 113.8999185  55.4468802 109.2472703
 113.0125040  55.7318453 109.0292897 114.3153174  55.2862565 108.3999980
 113.0442399  65.2113477 103.3420723 113.7478249  65.4163479 103.9578378
 112.3205047  65.7790238 103.6069806 113.8740209  60.9623338 109.4622993
 113.8175410  61.4191889 108.6230625 114.4268551  60.2014022 109.2845836
 117.6845015  56.7513070 110.2873112 117.4281949  56.3509705 111.1181320
 117.0597883  57.4656864 110.1623252 114.9529096  65.6496006 105.3919183
 115.7874700  65.2177204 105.2096658 114.7913439  65.4778019 106.3196077
 114.6074988  62.1528119 106.7575522 114.5523792  61.9872390 105.8163966
 113.9821043  62.8604152 106.9137712  99.3967503  57.3896183 120.5836944
 100.0426367  56.8795137 121.0724169  99.1884654  58.1264865 121.1580370
 107.9171114  51.6536228 106.3360840 107.9049783  52.5978068 106.4929111
 108.8094536  51.4706373 106.0420302 116.4142951  72.1033553 105.9054135
 115.5780264  72.4408240 106.2263410 116.2747721  71.9682533 104.9681272
 116.2881332  71.9480780 103.1052042 115.4110798  71.8269581 102.7414289
 116.7639085  71.1566859 102.8530931 113.9899800  72.8879783 106.6633697
 113.2969045  72.9624138 106.0073733 113.7451552  72.1240127 107.1855214
 119.0336641  72.8845168 102.9069152 118.1268096  72.5878280 102.9831866
 119.3112622  72.5874986 102.0403438 117.8035425  69.7432103 103.0481131
 118.6654589  70.0687001 103.3076949 117.9885769  68.9563599 102.5354197
 118.7564868  66.9828146 106.3360840 118.7443538  67.9269986 106.4929111
 119.6488290  66.7998291 106.0420302  74.1765770   2.1965236  97.0167342
  74.0989799   3.1473061  97.0955822  73.5727413   1.8511109  97.6742268
  71.8152599   4.9450630 101.1615544  72.0549198   5.5769154 101.8394562
  70.9721796   4.5938670 101.4480903  72.2897432   0.9698633  98.4914322
  71.6207807   1.4544760  98.0078362  72.1510301   1.2167853  99.4057701
  76.4302700   3.0042376 105.0896981  76.9821008   3.1673998 105.8546066
  76.7708894   3.5946814 104.4177005  69.3902173   1.0462923 101.0589454
  69.2556641   0.2863323 100.4927452  68.9734236   1.7703822 100.5918243
  72.5471299   1.9432240 101.2707897  72.4303683   2.8877672 101.1686587
  71.7263746   1.6405801 101.6593696  73.5725813   2.5960502 104.4863825
  74.4753060   2.6284112 104.8030320  73.3463183   1.6660952 104.5010161
  87.8721815   7.1379455 102.1481191  87.5340327   7.0220519 101.2601726
  88.7411583   6.7370620 102.1282197  83.7308631   8.9914931  98.1378082
  83.1673496   8.9004868  97.3694370  83.6161026   8.1714835  98.6180574
  81.2773063  10.4866123 100.9762302  82.0694355  10.1456947 100.5608602
  81.5169713  10.5961098 101.8964456  89.3108190  12.6585899  93.4492547
  88.6596169  13.2439979  93.0626560  90.1052552  13.1892094  93.5087584
  83.2363817   9.7475036  93.8479681  84.0094693   9.2004023  93.7092557
  83.5889216  10.6119285  94.0594142  85.0748859  11.0751418 107.0546580
  84.7838725  11.9797049 106.9393247  85.7105844  11.1167946 107.7690650
  86.0005066   8.4528267 103.6447940  86.5968638   8.2284289 102.9304903
  86.0580038   7.7113012 104.2473388  90.7883455  10.3476331  93.9861531
  90.1529288  10.4210957  94.6982436  90.4580861  10.9369929  93.3080610
  85.2926383   7.8095808  93.6822506  85.1762641   7.1340711  94.3503590
  85.4028643   7.3228182  92.8654659  87.6357924   7.2705955  97.3869195
  87.2716131   6.7436576  98.0982117  88.4925040   6.8804424  97.2135681
  90.0338744  10.7612834 104.0496374  89.7339467  11.6637872 103.9412181
  89.6889804  10.4945017 104.9017527  83.4851226   7.2126630 100.0833078
  82.5601722   7.0802845 100.2910770  83.7335639   7.9920850 100.5803021
  80.8460037   6.8559904 100.9176868  80.9752418   7.1094383 101.8316279
  80.1657488   7.4487612 100.5981523  85.0159524  17.5257154  97.0167342
  84.9383554  18.4764979  97.0955822  84.4121168  17.1803026  97.6742268
  91.5607281  10.2100804 101.5871126  90.9316143  10.3746518 100.8847194
  91.1732943  10.6242413 102.3582090  95.4396512  11.1455242  98.9415490
  94.7547551  11.5254143  98.3912523  95.5240362  11.7550568  99.6747437
  87.1135242   9.9475212  98.8521211  87.5773588  10.2262915  98.0625834
  86.8492041   9.0458656  98.6694302  84.0059323   9.4946693 101.7900974
  84.5760681   9.9233962 101.1518459  84.5967435   9.2129278 102.4885160
  79.7929462   4.3281917 100.9627910  79.0028516   4.5839445 100.4868020
  80.2840710   5.1430255 101.0679950  81.7444208   4.6926496  97.9211386
  80.9475371   4.8045190  98.4394882  81.5169800   5.0313148  97.0552277
  87.5749875  11.2171199 105.8693901  87.6394308  11.6791607 106.7052073
  86.8660799  10.5868564 105.9976211  78.0767165   4.5812407 103.3942901
  78.3275204   5.4659417 103.6600477  78.6126714   4.4017009 102.6217992
  87.2897893  12.8839307  95.7372881  87.1543568  13.7290843  96.1657729
  87.8307706  13.0858585  94.9738815  80.7427290  10.4014745  96.3100807
  81.2551811  11.1957995  96.4606371  81.3950003   9.7041035  96.2434408
  82.5522175  13.5180501  98.3923560  82.7288804  14.4398466  98.2044544
  83.3479009  13.2038920  98.8217939  81.8374532   5.5645133 108.2685723
  81.7228047   4.6630390 108.5692822  80.9819049   5.8108830 107.9170539
  83.6753491  15.0358675 104.3933902  84.2260916  14.9075738 103.6210896
  82.8364967  15.3353564 104.0428795  87.4720662  11.3009803 108.7378133
  88.0048998  10.5398091 108.5077441  86.9434743  11.0083455 109.4802288
  78.7076207   8.7303399  97.0860377  79.5451429   9.1400408  96.8694085
  78.8854475   7.7902841  97.0560571  88.8373374  10.4295795  96.2496945
  88.3094736   9.6948555  95.9370183  88.3360877  11.2070472  96.0036913
  93.8166220   8.6244816 101.3663991  93.1589895   9.3144077 101.4544120
  94.6206620   9.0141248 101.7097978  86.9825975   8.2476006  89.2531918
  86.0753036   8.0165259  89.4523067  87.4797007   7.4513625  89.4405900
  89.8894053  16.9573513  92.1728604  89.2155752  17.2605210  92.7813562
  90.2759875  17.7602593  91.8234061  88.1614208   8.3488600  93.7755908
  87.2525427   8.0647633  93.8728378  88.1909292   8.7687679  92.9159215
  93.3933475  11.9595190  97.5447076  92.9395803  11.1186100  97.6012266
  92.7627442  12.5956588  97.8821856  91.8366415  13.7971687  98.4796894
  92.1289389  14.3576744  97.7609260  92.3465035  14.0900248  99.2350053
  78.7302378   6.0694115  97.7571110  78.5326778   5.4763475  97.0322177
  78.1749042   5.7646325  98.4747049  87.8590296   9.8897344  91.1143987
  87.4209726   9.1733203  90.6549624  88.6000737  10.1173459  90.5529078
  86.8000040  14.5752038  99.5690347  86.7576219  14.8012884  98.6398879
  87.7162739  14.3415412  99.7176148  84.9165841  11.4515067  99.3652310
  85.7106439  10.9565387  99.1634885  84.2057533  10.9232930  99.0020015
  89.7360685  13.8333162 103.7164678  89.7897707  14.4024099 104.4842393
  88.8675466  14.0035047 103.3518715  81.2248604   5.5958148  95.4412063
  80.2946192   5.5342604  95.6582025  81.3206076   5.0734101  94.6448704
  88.6948785   7.9993424 105.2751609  89.6240845   8.1504584 105.1020577
  88.2739815   8.0877445 104.4200256  87.4937117  12.0244089 103.0450147
  87.3548202  11.6562873 103.9176085  86.7051713  12.5391728 102.8734105
  88.0885269  17.1253185  94.3875684  88.2637024  16.6541228  95.2021306
  87.4018057  17.7518951  94.6156944  89.0442332  11.4025691 100.4338985
  88.7092164  11.3626461 101.3296635  88.5446277  10.7370407  99.9609395
  83.0186576   6.8093321 105.9591566  82.8806374   6.0773560 106.5603105
  83.9291499   6.7202222 105.6775754  91.9801523   8.7481726  90.7076044
  91.3630694   8.0228554  90.6109097  91.5118012   9.5091086  90.3643119
  85.6468876   6.5213281 105.4475246  86.3568495   5.8806473 105.4061864
  85.6038185   6.7726176 106.3701426  82.6546354  20.2742548 101.1615544
  82.8942952  20.9061072 101.8394562  81.8115550  19.9230588 101.4480903
  75.2902209   7.7544310  99.9238856  75.9773249   7.4406040  99.3359871
  75.1350338   8.6585674  99.6506107  87.1674216  16.0821670 103.5657048
  87.0944387  16.8876642 104.0776352  86.7251609  16.2813636 102.7405069
  86.9563995  15.3193440  97.0759869  86.1731517  15.8615121  97.1698094
  87.6556741  15.8367420  97.4754110  89.6272899  15.9808504 105.7215206
  90.3400871  16.6155969 105.6491108  89.1362928  16.0772370 104.9055208
  91.3490426   9.8859757  97.2932498  90.4146705  10.0061220  97.1237202
  91.5267095   8.9832224  97.0292508  84.6784813  13.7302948 106.5420777
  85.3794272  14.3639431 106.6950171  84.2079928  14.0717679 105.7816416
  92.8039209  12.0720898  94.8268684  93.0799053  11.9577492  95.7362558
  91.9343707  11.6738383  94.7880857  89.4393273  16.3207249  98.4701498
  89.6215667  15.5028904  98.9329250  90.2626259  16.5374941  98.0326388
  89.7735438  15.2475434  95.7316546  90.3023205  14.7367888  95.1186708
  90.0363658  14.9317964  96.5962079  80.2752531  13.2639303 103.4751880
  80.8605968  12.5182991 103.6079784  80.0777369  13.5743260 104.3588544
  83.1291186  16.2990550  98.4914322  82.4601561  16.7836678  98.0078362
  82.9904056  16.5459771  99.4057701  74.8670186   5.8344903 102.1956323
  74.9054285   5.3008494 102.9893441  74.3610478   5.3080109 101.5767300
  87.2696455  18.3334294 105.0896981  87.8214763  18.4965915 105.8546066
  87.6102648  18.9238732 104.4177005  78.4978763   4.5609005  95.2710254
  78.7932204   3.6519684  95.2177308  77.5966799   4.5396745  94.9491257
  90.4064842  16.2816269 102.0760663  90.2815981  15.4806009 101.5671608
  91.0643933  16.7762463 101.5874633  92.4699750  14.0825289 103.7040213
  91.5230086  13.9630641 103.6318540  92.8182523  13.1947787 103.7866474
  89.4746184  13.8778006  99.9044565  89.3271146  12.9494713 100.0852135
  90.2999677  13.8998096  99.4201640  93.0780305  14.7006564 100.9909438
  94.0026853  14.4949426 100.8533889  92.9095609  14.4522966 101.8998779
  92.8675622  15.2192232  96.3471529  93.0412499  14.6538654  95.5945382
  93.3604513  16.0193127  96.1651019  78.6852581   7.2306901 104.4135088
  78.1406050   8.0066709 104.5455362  79.5631931   7.5777705 104.2554210
  93.8550794  14.5358996  93.4468428  94.5501699  15.1565689  93.6655742
  94.1973944  13.6854347  93.7220805  79.4718603   6.3576797 107.3065245
  78.7300339   6.5059433 107.8929875  79.1511348   6.6185063 106.4431994
  95.7542217  11.9858702  94.9755758  96.2793541  12.3245975  94.2505078
  95.6664570  11.0505717  94.7918893  87.4162266  15.8992775 107.1045635
  87.7249392  15.6541922 107.9768335  88.2137748  16.1039414 106.6164505
  87.4382878  18.0530685  99.3351012  86.9987868  17.5607064 100.0283868
  88.1890995  17.5103653  99.0943087  79.9175217  14.2442226  99.3375640
  80.7433237  13.9445998  98.9574283  79.5669269  13.4749848  99.7865428
  84.8856750  13.5968694 101.4073313  84.2636759  12.9339399 101.1075541
  85.5561617  13.6229826 100.7246961  78.1183822  12.1628552 100.2964573
  77.2815730  11.7350727 100.1148574  78.0907468  12.3560996 101.2335364
  84.4470257  12.1472617  94.8831774  84.5958377  12.8308082  94.2298446
  85.2536701  12.1277708  95.3981229  82.2022890   8.1737795  95.8892843
  81.9568932   7.2700125  96.0873053  82.3718805   8.1754946  94.9472321
  87.9465663  14.6420748  92.3543521  87.3739630  15.2610935  91.9013993
  88.5198456  15.1920110  92.8883443  91.1662922  14.9257898  93.4852103
  92.0993596  14.8603460  93.6884979  91.0786135  15.7614165  93.0266636
  93.7950939  14.2423768  90.4456051  93.7164571  13.9083632  91.3391809
  94.6160606  14.7345536  90.4447523  77.4333319   5.2237900 100.0813505
  77.1136103   4.3703209  99.7887879  76.8866747   5.4386479 100.8371473
  81.2113226   7.9400341 103.7983012  81.4299236   8.8717449 103.8171046
  81.6239000   7.5808316 104.5837816  77.3021579   8.8440812 102.0506627
  76.6085050   8.4294765 101.5376581  78.0494570   8.8861348 101.4540046
  79.2158321   8.7759066  99.9272642  79.1929009   8.8746753  98.9754525
  79.5258958   9.6224217 100.2489808  81.8745699  10.8335221 104.0419256
  82.8288953  10.8019163 103.9749188  81.6758223  10.3725845 104.8569482
  82.4645081   9.4036337 106.6090054  83.2837970   9.8980415 106.6324891
  82.7381889   8.4868305 106.5807621  80.2295928  16.3754840 101.0589454
  80.0950396  15.6155241 100.4927452  79.8127990  17.0995740 100.5918243
  91.3654891  11.5591764  90.0666029  92.0690741  11.7641766  90.6823685
  90.6417540  12.1268526  90.3315113  83.3865054  17.2724157 101.2707897
  83.2697438  18.2169590 101.1686587  82.5657500  16.9697719 101.6593696
  93.2741588  11.9974293  92.1164489  94.1087192  11.5655491  91.9341964
  93.1125931  11.8256307  93.0441384  92.9287480   8.5006406  93.4820829
  92.8736284   8.3350678  92.5409273  92.3033536   9.2082439  93.6383018
  77.7179995   3.7374471 107.3082251  78.3638859   3.2273425 107.7969476
  77.5097147   4.4743152 107.8825676  84.4119568  17.9252419 104.4863825
  85.3146815  17.9576029 104.8030320  84.1856938  16.9952870 104.5010161
  86.1673170  16.6783406 101.1473904  85.2168801  16.6785267 101.0338276
  86.4705656  15.9316140 100.6309938 101.9025863  22.5143944 102.2119666
 102.5404273  22.3950691 101.5083006 101.7846706  23.4624788 102.2707618
  98.7115570  22.4671372 102.1481191  98.3734081  22.3512437 101.2601726
  99.5805338  22.0662537 102.1282197  94.5702385  24.3206849  98.1378082
  94.0067250  24.2296786  97.3694370  94.4554780  23.5006753  98.6180574
  92.1166817  25.8158040 100.9762302  92.9088109  25.4748865 100.5608602
  92.3563467  25.9253015 101.8964456 100.1501944  27.9877816  93.4492547
  99.4989924  28.5731897  93.0626560 100.9446307  28.5184011  93.5087584
  94.0757571  25.0766953  93.8479681  94.8488447  24.5295941  93.7092557
  94.4282970  25.9411203  94.0594142  95.9142614  26.4043336 107.0546580
  95.6232480  27.3088967 106.9393247  96.5499598  26.4459863 107.7690650
  96.8398821  23.7820184 103.6447940  97.4362393  23.5576207 102.9304903
  96.8973792  23.0404930 104.2473388  96.4123849  21.2359620  91.4798131
  96.6649370  20.7141141  90.7181594  95.4748408  21.0725765  91.5824815
 101.4567132  20.2395398  99.2872874 102.2430221  19.8214821  98.9363291
 101.7205836  21.1441490  99.4554523 101.6277209  25.6768248  93.9861531
 100.9923042  25.7502875  94.6982436 101.2974616  26.2661847  93.3080610
  96.1320138  23.1387726  93.6822506  96.0156396  22.4632629  94.3503590
  96.2422398  22.6520099  92.8654659  98.4751679  22.5997873  97.3869195
  98.1109886  22.0728494  98.0982117  99.3318795  22.2096342  97.2135681
  98.1157166  17.6287772  92.3830544  98.2831568  18.4968009  92.7501015
  97.9254335  17.7915054  91.4591833 100.8732499  26.0904751 104.0496374
 100.5733222  26.9929790 103.9412181 100.5283558  25.8236934 104.9017527
  94.3244980  22.5418548 100.0833078  93.3995477  22.4094762 100.2910770
  94.5729394  23.3212767 100.5803021  98.0946387  20.0845430  93.3677210
  97.9746012  20.5302481  94.2062691  97.3998975  20.4330748  92.8090749
  91.6853791  22.1851822 100.9176868  91.8146173  22.4386301 101.8316279
  91.0051243  22.7779530 100.5981523  95.8553279  32.8549072  97.0167342
  95.7777308  33.8056897  97.0955822  95.2514922  32.5094944  97.6742268
 103.7931453  20.5566903  94.1957545 104.7049309  20.7894290  94.0205242
 103.2841100  21.1403947  93.6332623 102.4001035  25.5392721 101.5871126
 101.7709897  25.7038436 100.8847194 102.0126697  25.9534331 102.3582090
 106.2790267  26.4747159  98.9415490 105.5941305  26.8546061  98.3912523
 106.3634116  27.0842486  99.6747437  97.9528997  25.2767130  98.8521211
  98.4167342  25.5554833  98.0625834  97.6885795  24.3750574  98.6694302
  94.8453078  24.8238611 101.7900974  95.4154435  25.2525879 101.1518459
  95.4361190  24.5421196 102.4885160  96.8897883  21.3990282  95.6610776
  97.5921926  21.8511326  96.1284703  96.5578511  20.7574101  96.2890669
  90.6323217  19.6573835 100.9627910  89.8422271  19.9131363 100.4868020
  91.1234464  20.4722172 101.0679950  92.5837962  20.0218414  97.9211386
  91.7869126  20.1337108  98.4394882  92.3563555  20.3605066  97.0552277
  98.4143630  26.5463117 105.8693901  98.4788062  27.0083524 106.7052073
  97.7054554  25.9160482 105.9976211  88.9160920  19.9104325 103.3942901
  89.1668958  20.7951335 103.6600477  89.4520468  19.7308927 102.6217992
  98.1291648  28.2131225  95.7372881  97.9937322  29.0582760  96.1657729
  98.6701460  28.4150502  94.9738815  91.5821045  25.7306663  96.3100807
  92.0945566  26.5249913  96.4606371  92.2343758  25.0332953  96.2434408
  93.3915930  28.8472419  98.3923560  93.5682558  29.7690384  98.2044544
  94.1872763  28.5330838  98.8217939  92.6768286  20.8937051 108.2685723
  92.5621801  19.9922308 108.5692822  91.8212804  21.1400748 107.9170539
  94.5147245  30.3650593 104.3933902  95.0654670  30.2367656 103.6210896
  93.6758721  30.6645482 104.0428795  98.3114416  26.6301720 108.7378133
  98.8442753  25.8690009 108.5077441  97.7828497  26.3375372 109.4802288
  89.5469962  24.0595317  97.0860377  90.3845184  24.4692325  96.8694085
  89.7248229  23.1194759  97.0560571 101.4434394  21.7270398  92.7744210
 100.9281017  22.4975002  93.0132597 101.1711702  21.0535534  93.3977271
  99.0281505  16.5720098  97.8329448  98.1723101  16.1826949  97.6535087
  99.4408457  16.6512059  96.9729234  96.8023537  14.1905171 101.2387190
  97.6676534  13.9947980 100.8793079  96.8701046  13.9615523 102.1656547
 106.4168668  24.4802752  94.7097383 105.6398111  24.1413912  94.2652546
 107.0960149  24.4855375  94.0352349 101.2320697  19.5997490  94.6003991
 100.9270833  19.9143639  95.4514134 102.1851139  19.6778910  94.6431324
  99.6767129  25.7587713  96.2496945  99.1488490  25.0240473  95.9370183
  99.1754632  26.5362389  96.0036913 104.6559975  23.9536733 101.3663991
 103.9983649  24.6435995 101.4544120 105.4600374  24.3433165 101.7097978
  94.4085857  16.4207379  98.6103557  94.9829608  16.1982561  97.8776750
  94.9956839  16.4896074  99.3632158 103.4665434  22.3081106  99.4167933
 103.9797315  22.9411098  99.9189643 104.1166658  21.7082302  99.0511293
  94.7355444  18.4511840  92.6299442  93.8992756  18.7886527  92.9508717
  94.5960213  18.3160820  91.6926579  96.7108524  13.2948628  97.3378626
  96.0572937  12.9797645  96.7135241  96.6688998  12.6724369  98.0638449
  97.8219729  23.5767923  89.2531918  96.9146791  23.3457177  89.4523067
  98.3190761  22.7805542  89.4405900 100.7287808  32.2865430  92.1728604
 100.0549507  32.5897127  92.7813562 101.1153630  33.0894511  91.8234061
  99.9446265  19.7830562 101.6626274  99.0268826  20.0045509 101.5047962
 100.3606408  19.8576872 100.8037981 100.7281312  21.1821977  96.7928954
 101.4753131  21.6943375  96.4836076 100.9972902  20.8606030  97.6533348
  99.0007963  23.6780518  93.7755908  98.0919182  23.3939551  93.8728378
  99.0303046  24.0979597  92.9159215 104.2327230  27.2887108  97.5447076
 103.7789557  26.4478017  97.6012266 103.6021197  27.9248506  97.8821856
 103.1760149  18.2179094  98.7747743 102.4382906  17.7056480  99.1057986
 103.4286923  17.7779475  97.9631020 102.6760169  29.1263604  98.4796894
 102.9683144  29.6868661  97.7609260 103.1858790  29.4192165  99.2350053
  89.5696133  21.3986032  97.7571110  89.3720533  20.8055393  97.0322177
  89.0142797  21.0938242  98.4747049  97.5492857  21.2909139  99.8765704
  97.6041466  20.3382975  99.8008180  96.7384059  21.4468578 100.3607002
  98.6984050  25.2189262  91.1143987  98.2603480  24.5025121  90.6549624
  99.4394491  25.4465377  90.5529078  95.4885216  19.9086198  97.6356083
  94.6753082  20.2080369  98.0421275  95.9844211  19.5141887  98.3530565
  97.6393794  29.9043955  99.5690347  97.5969973  30.1304802  98.6398879
  98.5556493  29.6707330  99.7176148 106.8157165  23.4946459  97.1720305
 106.6775064  23.6848055  96.2441495 106.4593384  24.2565842  97.6288357
  94.9799291  17.4804554 103.2517317  95.6198671  17.3393313 102.5540281
  94.1476822  17.1939067 102.8755919  95.7559595  26.7806984  99.3652310
  96.5500194  26.2857305  99.1634885  95.0451288  26.2524848  99.0020015
 100.5754440  29.1625080 103.7164678 100.6291462  29.7316016 104.4842393
  99.7069221  29.3326965 103.3518715  92.0642359  20.9250066  95.4412063
  91.1339947  20.8634522  95.6582025  92.1599831  20.4026019  94.6448704
  91.9827908  17.4504879  98.0290304  92.2434725  18.3650212  97.9199465
  92.8045080  16.9829322  98.1786917  93.4552833  18.8642636 105.1989129
  94.1275886  18.6559998 104.5501778  92.6282620  18.6664722 104.7594361
  99.5342539  23.3285342 105.2751609 100.4634599  23.4796502 105.1020577
  99.1133569  23.4169363 104.4200256  98.3330871  27.3536006 103.0450147
  98.1941957  26.9854791 103.9176085  97.5445467  27.8683646 102.8734105
  98.9279023  32.4545103  94.3875684  99.1030779  31.9833146  95.2021306
  98.2411811  33.0810869  94.6156944  99.8836086  26.7317609 100.4338985
  99.5485919  26.6918379 101.3296635  99.3840032  26.0662325  99.9609395
  93.8580330  22.1385239 105.9591566  93.7200128  21.4065478 106.5603105
  94.7685254  22.0494139 105.6775754 102.8195278  24.0773643  90.7076044
 102.2024449  23.3520472  90.6109097 102.3511766  24.8383004  90.3643119
  96.4862631  21.8505198 105.4475246  97.1962249  21.2098391 105.4061864
  96.4431939  22.1018093 106.3701426  93.4940108  35.6034466 101.1615544
  93.7336707  36.2352990 101.8394562  92.6509305  35.2522506 101.4480903
  94.6093824  18.2959068  89.8297349  93.7323290  18.1747869  89.4659595
  95.0851577  17.5045146  89.5776237  86.1295964  23.0836227  99.9238856
  86.8167004  22.7697957  99.3359871  85.9744093  23.9877592  99.6506107
  90.9330686  17.9726424 104.3523880  90.8488875  17.3652094 103.6174290
  90.1113393  18.4635442 104.3533376  98.0067970  31.4113588 103.5657048
  97.9338142  32.2168560 104.0776352  97.5645363  31.6105554 102.7405069
  97.7957750  30.6485358  97.0759869  97.0125272  31.1907038  97.1698094
  98.4950495  31.1659338  97.4754110 101.1054400  16.4579988  99.7194075
 101.6023100  15.7049950  99.3995145 100.3341381  16.4944304  99.1537284
 100.4666654  31.3100422 105.7215206 101.1794626  31.9447887 105.6491108
  99.9756682  31.4064288 104.9055208 102.1884181  25.2151675  97.2932498
 101.2540459  25.3353137  97.1237202 102.3660849  24.3124142  97.0292508
  97.6889369  18.5997371  99.4465759  97.3187156  18.0468411 100.1346665
  98.1848461  17.9955504  98.8940759 105.5756732  21.0568994  97.8282532
 106.0417184  21.8896986  97.7542835 106.0264233  20.5913976  98.5327791
  95.5178567  29.0594866 106.5420777  96.2188027  29.6931349 106.6950171
  95.0473682  29.4009597 105.7816416 103.6432963  27.4012815  94.8268684
 103.9192807  27.2869410  95.7362558 102.7737462  27.0030300  94.7880857
 100.2787027  31.6499166  98.4701498 100.4609422  30.8320822  98.9329250
 101.1020013  31.8666858  98.0326388 100.6129193  30.5767351  95.7316546
 101.1416959  30.0659806  95.1186708 100.8757412  30.2609882  96.5962079
  91.1146285  28.5931221 103.4751880  91.6999722  27.8474909 103.6079784
  90.9171124  28.9035177 104.3588544  93.9684941  31.6282468  98.4914322
  93.2995316  32.1128596  98.0078362  93.8297810  31.8751688  99.4057701
  85.7063940  21.1636821 102.1956323  85.7448040  20.6300411 102.9893441
  85.2004233  20.6372026 101.5767300  98.1090209  33.6626212 105.0896981
  98.6608517  33.8257833 105.8546066  98.4496403  34.2530649 104.4177005
  93.0854702  16.0101361 105.6918865  93.1496029  16.8716192 105.2796263
  93.0221823  15.3975363 104.9591224  89.3372518  19.8900923  95.2710254
  89.6325959  18.9811601  95.2177308  88.4360553  19.8688662  94.9491257
 101.2458596  31.6108187 102.0760663 101.1209736  30.8097927 101.5671608
 101.9037688  32.1054380 101.5874633  92.8666765  17.9656920 101.2537803
  92.1453350  18.5792887 101.1145276  93.6560020  18.5014684 101.1754449
 103.3093505  29.4117207 103.7040213 102.3623840  29.2922558 103.6318540
 103.6576278  28.5239705 103.7866474  91.0660359  17.5715021  95.3949580
  90.7373065  16.6912400  95.2124685  91.4199730  17.5162689  96.2825969
 100.3139938  29.2069923  99.9044565 100.1664901  28.2786631 100.0852135
 101.1393432  29.2290014  99.4201640  94.1802182  17.8587990  95.7625057
  94.5198255  18.3873912  95.0403666  94.6274303  18.1968397  96.5383624
 103.9174060  30.0298482 100.9909438 104.8420607  29.8241343 100.8533889
 103.7489363  29.7814883 101.8998779  96.1670330  16.3562612  93.9618350
  96.8878692  16.7343865  93.4582067  95.5435634  17.0751489  94.0653328
 100.3101452  17.0607761  94.8976682 100.5265067  17.9432399  94.5965510
  99.8295520  16.6693974  94.1682324  95.0500674  20.0193474 101.4747427
  94.9045255  20.3333777 102.3671708  94.5725877  20.6378375 100.9218326
  96.9097057  17.0096022 101.5228316  96.8958625  16.1137116 101.1860614
  97.6269485  17.0166686 102.1566603 103.7069376  30.5484150  96.3471529
 103.8806254  29.9830572  95.5945382 104.1998267  31.3485044  96.1651019
  89.5246336  22.5598819 104.4135088  88.9799804  23.3358627 104.5455362
  90.4025686  22.9069623 104.2554210  96.3133953  15.8910402  96.7915887
  96.4349864  14.9627049  96.9906774  96.0235995  15.9049088  95.8794202
  99.1825143  13.5765313  99.9282606  99.2046840  13.6404646  98.9734586
  99.5993202  12.7369822 100.1223113 109.5608767  23.3120572  97.9661829
 110.0039913  22.5627898  97.5680952 108.6835278  23.3030709  97.5835561
 104.6944549  29.8650914  93.4468428 105.3895453  30.4857607  93.6655742
 105.0367699  29.0146265  93.7220805  90.3112358  21.6868715 107.3065245
  89.5694094  21.8351350 107.8929875  89.9905102  21.9476980 106.4431994
 106.5935972  27.3150619  94.9755758 107.1187296  27.6537892  94.2505078
 106.5058324  26.3797635  94.7918893  98.2556020  31.2284693 107.1045635
  98.5643147  30.9833840 107.9768335  99.0531503  31.4331332 106.6164505
  98.2776633  33.3822603  99.3351012  97.8381623  32.8898981 100.0283868
  99.0284749  32.8395570  99.0943087  90.7568972  29.5734144  99.3375640
  91.5826991  29.2737915  98.9574283  90.4063024  28.8041766  99.7865428
  95.7250505  28.9260612 101.4073313  95.1030514  28.2631317 101.1075541
  96.3955372  28.9521744 100.7246961  88.9577577  27.4920470 100.2964573
  88.1209485  27.0642644 100.1148574  88.9301222  27.6852913 101.2335364
  95.2864012  27.4764535  94.8831774  95.4352132  28.1600000  94.2298446
  96.0930455  27.4569625  95.3981229  93.0416645  23.5029713  95.8892843
  92.7962687  22.5992043  96.0873053  93.2112559  23.5046863  94.9472321
  92.3112292  19.2358070  93.3879004  91.6181537  19.3102425  92.7319040
  92.0664044  18.4718414  93.9100521  98.7859417  29.9712666  92.3543521
  98.2133384  30.5902853  91.9013993  99.3592211  30.5212027  92.8883443
 102.0056677  30.2549816  93.4852103 102.9387350  30.1895377  93.6884979
 101.9179890  31.0906083  93.0266636 104.6344694  29.5715686  90.4456051
 104.5558325  29.2375550  91.3391809 105.4554360  30.0637454  90.4447523
  99.1706216  21.3073478  89.6959574 100.1165320  21.1779686  89.7647992
  98.7920461  20.5688140  90.1729002  97.3549133  19.2323455  89.6314459
  96.4480588  18.9356567  89.7077172  97.6325114  18.9353273  88.7648745
  88.2727073  20.5529818 100.0813505  87.9529858  19.6995126  99.7887879
  87.7260501  20.7678396 100.8371473  92.0506981  23.2692259 103.7983012
  92.2692990  24.2009367 103.8171046  92.4632755  22.9100234 104.5837816
  98.9711199  13.7760344  95.7858700  98.1611927  13.4307429  96.1613946
  99.6595615  13.4667888  96.3746312 100.9001747  12.8538391  97.4082997
 101.4532785  13.2733845  98.0673020 101.1371833  11.9274139  97.4505953
  96.1247917  16.0910390  89.7726438  96.9867081  16.4165288  90.0322255
  96.3098262  15.3041886  89.2599504  88.1415333  24.1732730 102.0506627
  87.4478805  23.7586682 101.5376581  88.8888324  24.2153266 101.4540046
 104.2780554  14.9638916  96.9161661 103.6979223  15.6223720  96.5339713
 104.0116487  14.1416261  96.5049079  90.0552076  24.1050983  99.9272642
  90.0322764  24.2038671  98.9754525  90.3652712  24.9516134 100.2489808
  92.7139454  26.1627138 104.0419256  93.6682707  26.1311081 103.9749188
  92.5151977  25.7017762 104.8569482  93.3038836  24.7328254 106.6090054
  94.1231725  25.2272333 106.6324891  93.5775643  23.8160223 106.5807621
 103.0605432  17.1239007  95.9718009 102.1731287  17.4088657  95.7538204
 103.4759421  16.9632770  95.1245286  91.0689682  31.7046758 101.0589454
  90.9344150  30.9447159 100.4927452  90.6521745  32.4287658 100.5918243
 102.2048645  26.8883681  90.0666029 102.9084495  27.0933684  90.6823685
 101.4811294  27.4560443  90.3315113 103.0346456  22.6393543  96.1868299
 102.9781657  23.0962094  95.3475932 103.5874798  21.8784227  96.0091142
 106.8451262  18.4283275  97.0118419 106.5888196  18.0279910  97.8426627
 106.2204130  19.1427069  96.8868558  94.2258808  32.6016075 101.2707897
  94.1091192  33.5461507 101.1686587  93.4051254  32.2989637 101.6593696
 104.1135343  27.3266211  92.1164489 104.9480947  26.8947409  91.9341964
 103.9519686  27.1548224  93.0441384 103.7681235  23.8298324  93.4820829
 103.7130039  23.6642595  92.5409273 103.1427290  24.5374357  93.6383018
  88.5573750  19.0666388 107.3082251  89.2032614  18.5565342 107.7969476
  88.3490901  19.8035070 107.8825676  97.0777360  13.3306433  93.0606147
  97.0656030  14.2748273  93.2174418  97.9700782  13.1476578  92.7665608
  95.2513322  33.2544337 104.4863825  96.1540569  33.2867947 104.8030320
  95.0250692  32.3244788 104.5010161  97.0066924  32.0075323 101.1473904
  96.0562555  32.0077185 101.0338276  97.3099411  31.2608058 100.6309938
 112.7419618  37.8435862 102.2119666 113.3798028  37.7242609 101.5083006
 112.6240461  38.7916706 102.2707618 109.5509324  37.7963290 102.1481191
 109.2127836  37.6804355 101.2601726 110.4199092  37.3954455 102.1282197
 105.4096140  39.6498766  98.1378082 104.8461005  39.5588703  97.3694370
 105.2948535  38.8298671  98.6180574 102.9560572  41.1449958 100.9762302
 103.7481864  40.8040783 100.5608602 103.1957222  41.2544933 101.8964456
 110.9895699  43.3169734  93.4492547 110.3383678  43.9023814  93.0626560
 111.7840061  43.8475929  93.5087584 104.9151326  40.4058871  93.8479681
 105.6882202  39.8587858  93.7092557 105.2676725  41.2703120  94.0594142
 106.7536368  41.7335253 107.0546580 106.4626234  42.6380884 106.9393247
 107.3893353  41.7751781 107.7690650 107.6792575  39.1112102 103.6447940
 108.2756147  38.8868124 102.9304903 107.7367547  38.3696847 104.2473388
 107.2517604  36.5651537  91.4798131 107.5043124  36.0433059  90.7181594
 106.3142163  36.4017683  91.5824815 112.2960886  35.5687316  99.2872874
 113.0823976  35.1506739  98.9363291 112.5599591  36.4733408  99.4554523
 112.4670964  41.0060166  93.9861531 111.8316797  41.0794792  94.6982436
 112.1368370  41.5953765  93.3080610 106.9713892  38.4679643  93.6822506
 106.8550150  37.7924547  94.3503590 107.0816152  37.9812017  92.8654659
 109.3145433  37.9289790  97.3869195 108.9503640  37.4020411  98.0982117
 110.1712549  37.5388259  97.2135681 108.9550920  32.9579690  92.3830544
 109.1225323  33.8259926  92.7501015 108.7648089  33.1206972  91.4591833
 111.7126253  41.4196669 104.0496374 111.4126976  42.3221708 103.9412181
 111.3677313  41.1528852 104.9017527 105.1638735  37.8710466 100.0833078
 104.2389231  37.7386680 100.2910770 105.4123148  38.6504685 100.5803021
 108.9340141  35.4137348  93.3677210 108.8139766  35.8594398  94.2062691
 108.2392729  35.7622665  92.8090749 102.5247546  37.5143739 100.9176868
 102.6539927  37.7678218 101.8316279 101.8444997  38.1071447 100.5981523
 106.6947033  48.1840989  97.0167342 106.6171063  49.1348814  97.0955822
 106.0908677  47.8386862  97.6742268 114.6325207  35.8858821  94.1957545
 115.5443063  36.1186207  94.0205242 114.1234854  36.4695865  93.6332623
 113.2394790  40.8684639 101.5871126 112.6103652  41.0330353 100.8847194
 112.8520452  41.2826249 102.3582090 117.1184021  41.8039077  98.9415490
 116.4335060  42.1837978  98.3912523 117.2027871  42.4134404  99.6747437
 108.7922751  40.6059047  98.8521211 109.2561097  40.8846750  98.0625834
 108.5279550  39.7042492  98.6694302 105.6846832  40.1530529 101.7900974
 106.2548190  40.5817797 101.1518459 106.2754944  39.8713113 102.4885160
 107.7291637  36.7282200  95.6610776 108.4315681  37.1803243  96.1284703
 107.3972266  36.0866018  96.2890669 101.4716971  34.9865752 100.9627910
 100.6816025  35.2423281 100.4868020 101.9628219  35.8014090 101.0679950
 103.4231717  35.3510332  97.9211386 102.6262880  35.4629026  98.4394882
 103.1957309  35.6896984  97.0552277 109.2537384  41.8755035 105.8693901
 109.3181817  42.3375442 106.7052073 108.5448308  41.2452400 105.9976211
  99.7554674  35.2396243 103.3942901 100.0062713  36.1243253 103.6600477
 100.2914223  35.0600844 102.6217992 108.9685402  43.5423142  95.7372881
 108.8331077  44.3874678  96.1657729 109.5095215  43.7442420  94.9738815
 102.4214799  41.0598580  96.3100807 102.9339320  41.8541831  96.4606371
 103.0737512  40.3624871  96.2434408 104.2309684  44.1764337  98.3923560
 104.4076313  45.0982301  98.2044544 105.0266518  43.8622756  98.8217939
 103.5162041  36.2228968 108.2685723 103.4015556  35.3214226 108.5692822
 102.6606558  36.4692665 107.9170539 105.3541000  45.6942510 104.3933902
 105.9048425  45.5659574 103.6210896 104.5152476  45.9937399 104.0428795
 109.1508171  41.9593638 108.7378133 109.6836507  41.1981926 108.5077441
 108.6222252  41.6667290 109.4802288 100.3863716  39.3887235  97.0860377
 101.2238938  39.7984243  96.8694085 100.5641984  38.4486677  97.0560571
 112.2828148  37.0562315  92.7744210 111.7674772  37.8266920  93.0132597
 112.0105457  36.3827451  93.3977271 109.8675259  31.9012016  97.8329448
 109.0116856  31.5118866  97.6535087 110.2802211  31.9803977  96.9729234
 107.6417292  29.5197089 101.2387190 108.5070289  29.3239898 100.8793079
 107.7094801  29.2907441 102.1656547 117.2562422  39.8094670  94.7097383
 116.4791865  39.4705829  94.2652546 117.9353903  39.8147293  94.0352349
 112.0714452  34.9289407  94.6003991 111.7664587  35.2435557  95.4514134
 113.0244894  35.0070827  94.6431324 110.5160883  41.0879631  96.2496945
 109.9882245  40.3532390  95.9370183 110.0148386  41.8654307  96.0036913
 115.4953729  39.2828651 101.3663991 114.8377404  39.9727913 101.4544120
 116.2994129  39.6725083 101.7097978 105.2479611  31.7499297  98.6103557
 105.8223363  31.5274478  97.8776750 105.8350593  31.8187991  99.3632158
 114.3059188  37.6373024  99.4167933 114.8191070  38.2703016  99.9189643
 114.9560412  37.0374219  99.0511293 105.5749198  33.7803758  92.6299442
 104.7386510  34.1178444  92.9508717 105.4353968  33.6452738  91.6926579
 107.5502279  28.6240546  97.3378626 106.8966691  28.3089563  96.7135241
 107.5082753  28.0016286  98.0638449 108.6613484  38.9059841  89.2531918
 107.7540545  38.6749094  89.4523067 109.1584516  38.1097460  89.4405900
 111.5681562  47.6157348  92.1728604 110.8943261  47.9189045  92.7813562
 111.9547384  48.4186428  91.8234061 110.7840019  35.1122479 101.6626274
 109.8662580  35.3337426 101.5047962 111.2000163  35.1868790 100.8037981
 111.5675067  36.5113895  96.7928954 112.3146886  37.0235292  96.4836076
 111.8366656  36.1897948  97.6533348 109.8401717  39.0072436  93.7755908
 108.9312936  38.7231469  93.8728378 109.8696801  39.4271514  92.9159215
 115.0720984  42.6179025  97.5447076 114.6183312  41.7769935  97.6012266
 114.4414951  43.2540424  97.8821856 114.0153904  33.5471011  98.7747743
 113.2776661  33.0348398  99.1057986 114.2680678  33.1071393  97.9631020
 113.5153924  44.4555522  98.4796894 113.8076898  45.0160579  97.7609260
 114.0252544  44.7484083  99.2350053 100.4089887  36.7277950  97.7571110
 100.2114287  36.1347311  97.0322177  99.8536551  36.4230160  98.4747049
 108.3886611  36.6201056  99.8765704 108.4435221  35.6674893  99.8008180
 107.5777813  36.7760495 100.3607002 109.5377805  40.5481179  91.1143987
 109.0997235  39.8317038  90.6549624 110.2788246  40.7757294  90.5529078
 106.3278971  35.2378116  97.6356083 105.5146836  35.5372287  98.0421275
 106.8237965  34.8433805  98.3530565 108.4787549  45.2335873  99.5690347
 108.4363728  45.4596719  98.6398879 109.3950248  44.9999248  99.7176148
 117.6550920  38.8238376  97.1720305 117.5168818  39.0139972  96.2441495
 117.2987138  39.5857759  97.6288357 105.8193046  32.8096472 103.2517317
 106.4592425  32.6685231 102.5540281 104.9870576  32.5230985 102.8755919
 106.5953350  42.1098902  99.3652310 107.3893948  41.6149222  99.1634885
 105.8845042  41.5816765  99.0020015 111.4148194  44.4916998 103.7164678
 111.4685216  45.0607934 104.4842393 110.5462975  44.6618883 103.3518715
 102.9036113  36.2541984  95.4412063 101.9733701  36.1926439  95.6582025
 102.9993585  35.7317937  94.6448704 102.8221662  32.7796797  98.0290304
 103.0828479  33.6942130  97.9199465 103.6438834  32.3121239  98.1786917
 104.2946587  34.1934554 105.1989129 104.9669641  33.9851916 104.5501778
 103.4676374  33.9956640 104.7594361 110.3736294  38.6577260 105.2751609
 111.3028354  38.8088419 105.1020577 109.9527324  38.7461280 104.4200256
 109.1724626  42.6827924 103.0450147 109.0335711  42.3146708 103.9176085
 108.3839222  43.1975563 102.8734105 109.7672778  47.7837021  94.3875684
 109.9424533  47.3125064  95.2021306 109.0805566  48.4102787  94.6156944
 110.7229841  42.0609527 100.4338985 110.3879673  42.0210297 101.3296635
 110.2233786  41.3954243  99.9609395 104.6974085  37.4677157 105.9591566
 104.5593883  36.7357396 106.5603105 105.6079008  37.3786057 105.6775754
 113.6589032  39.4065561  90.7076044 113.0418203  38.6812389  90.6109097
 113.1905521  40.1674921  90.3643119 107.3256385  37.1797116 105.4475246
 108.0356004  36.5390308 105.4061864 107.2825694  37.4310011 106.3701426
 104.3333863  50.9326383 101.1615544 104.5730461  51.5644907 101.8394562
 103.4903059  50.5814423 101.4480903 105.4487578  33.6250985  89.8297349
 104.5717045  33.5039786  89.4659595 105.9245331  32.8337064  89.5776237
  96.9689718  38.4128145  99.9238856  97.6560758  38.0989875  99.3359871
  96.8137847  39.3169510  99.6506107 101.7724441  33.3018342 104.3523880
 101.6882629  32.6944011 103.6174290 100.9507147  33.7927360 104.3533376
 108.8461725  46.7405506 103.5657048 108.7731896  47.5460477 104.0776352
 108.4039118  46.9397472 102.7405069 108.6351504  45.9777276  97.0759869
 107.8519026  46.5198956  97.1698094 109.3344250  46.4951255  97.4754110
 111.9448154  31.7871905  99.7194075 112.4416854  31.0341868  99.3995145
 111.1735136  31.8236222  99.1537284 111.3060408  46.6392340 105.7215206
 112.0188380  47.2739805 105.6491108 110.8150437  46.7356206 104.9055208
 113.0277935  40.5443592  97.2932498 112.0934214  40.6645055  97.1237202
 113.2054604  39.6416059  97.0292508 108.5283123  33.9289288  99.4465759
 108.1580911  33.3760329 100.1346665 109.0242216  33.3247422  98.8940759
 116.4150487  36.3860912  97.8282532 116.8810939  37.2188903  97.7542835
 116.8657987  35.9205893  98.5327791 106.3572322  44.3886783 106.5420777
 107.0581781  45.0223266 106.6950171 105.8867437  44.7301515 105.7816416
 114.4826718  42.7304733  94.8268684 114.7586562  42.6161328  95.7362558
 113.6131216  42.3322218  94.7880857 111.1180782  46.9791084  98.4701498
 111.3003176  46.1612740  98.9329250 111.9413768  47.1958776  98.0326388
 111.4522947  45.9059269  95.7316546 111.9810714  45.3951724  95.1186708
 111.7151167  45.5901799  96.5962079 101.9540040  43.9223138 103.4751880
 102.5393477  43.1766826 103.6079784 101.7564878  44.2327095 104.3588544
 104.8078695  46.9574386  98.4914322 104.1389070  47.4420513  98.0078362
 104.6691565  47.2043606  99.4057701  96.5457695  36.4928738 102.1956323
  96.5841794  35.9592329 102.9893441  96.0397987  35.9663944 101.5767300
 108.9483964  48.9918129 105.0896981 109.5002272  49.1549751 105.8546066
 109.2890157  49.5822567 104.4177005 103.9248457  31.3393279 105.6918865
 103.9889783  32.2008110 105.2796263 103.8615577  30.7267281 104.9591224
 100.1766272  35.2192841  95.2710254 100.4719713  34.3103519  95.2177308
  99.2754308  35.1980580  94.9491257 112.0852351  46.9400105 102.0760663
 111.9603490  46.1389845 101.5671608 112.7431442  47.4346298 101.5874633
 103.7060519  33.2948837 101.2537803 102.9847105  33.9084805 101.1145276
 104.4953775  33.8306602 101.1754449 114.1487259  44.7409125 103.7040213
 113.2017595  44.6214476 103.6318540 114.4970032  43.8531623 103.7866474
 101.9054114  32.9006938  95.3949580 101.5766820  32.0204317  95.2124685
 102.2593484  32.8454607  96.2825969 111.1533693  44.5361841  99.9044565
 111.0058655  43.6078548 100.0852135 111.9787186  44.5581932  99.4201640
 105.0195937  33.1879908  95.7625057 105.3592009  33.7165829  95.0403666
 105.4668057  33.5260314  96.5383624 114.7567814  45.3590400 100.9909438
 115.6814362  45.1533261 100.8533889 114.5883118  45.1106801 101.8998779
 107.0064084  31.6854530  93.9618350 107.7272447  32.0635782  93.4582067
 106.3829388  32.4043406  94.0653328 111.1495207  32.3899679  94.8976682
 111.3658821  33.2724317  94.5965510 110.6689274  31.9985892  94.1682324
 105.8894428  35.3485392 101.4747427 105.7439009  35.6625695 102.3671708
 105.4119632  35.9670292 100.9218326 107.7490811  32.3387940 101.5228316
 107.7352380  31.4429033 101.1860614 108.4663239  32.3458604 102.1566603
 114.5463131  45.8776067  96.3471529 114.7200008  45.3122490  95.5945382
 115.0392022  46.6776962  96.1651019 100.3640090  37.8890736 104.4135088
  99.8193559  38.6650544 104.5455362 101.2419440  38.2361541 104.2554210
 107.1527707  31.2202320  96.7915887 107.2743618  30.2918966  96.9906774
 106.8629750  31.2341006  95.8794202 110.0218898  28.9057231  99.9282606
 110.0440594  28.9696564  98.9734586 110.4386957  28.0661739 100.1223113
 120.4002522  38.6412490  97.9661829 120.8433668  37.8919815  97.5680952
 119.5229032  38.6322626  97.5835561 115.5338303  45.1942832  93.4468428
 116.2289208  45.8149524  93.6655742 115.8761453  44.3438183  93.7220805
 101.1506112  37.0160633 107.3065245 100.4087848  37.1643268 107.8929875
 100.8298857  37.2768898 106.4431994 117.4329726  42.6442537  94.9755758
 117.9581050  42.9829810  94.2505078 117.3452079  41.7089552  94.7918893
 109.0949775  46.5576611 107.1045635 109.4036901  46.3125758 107.9768335
 109.8925257  46.7623249 106.6164505 109.1170387  48.7114520  99.3351012
 108.6775377  48.2190899 100.0283868 109.8678504  48.1687488  99.0943087
 101.5962726  44.9026061  99.3375640 102.4220746  44.6029833  98.9574283
 101.2456778  44.1333684  99.7865428 106.5644259  44.2552529 101.4073313
 105.9424268  43.5923235 101.1075541 107.2349126  44.2813661 100.7246961
  99.7971331  42.8212388 100.2964573  98.9603239  42.3934562 100.1148574
  99.7694976  43.0144831 101.2335364 106.1257766  42.8056453  94.8831774
 106.2745886  43.4891917  94.2298446 106.9324210  42.7861543  95.3981229
 103.8810399  38.8321630  95.8892843 103.6356441  37.9283960  96.0873053
 104.0506314  38.8338781  94.9472321 103.1506047  34.5649988  93.3879004
 102.4575292  34.6394343  92.7319040 102.9057799  33.8010332  93.9100521
 109.6253172  45.3004583  92.3543521 109.0527139  45.9194770  91.9013993
 110.1985965  45.8503945  92.8883443 112.8450431  45.5841733  93.4852103
 113.7781105  45.5187295  93.6884979 112.7573644  46.4198000  93.0266636
 115.4738448  44.9007604  90.4456051 115.3952080  44.5667467  91.3391809
 116.2948115  45.3929372  90.4447523 110.0099970  36.6365396  89.6959574
 110.9559075  36.5071604  89.7647992 109.6314215  35.8980058  90.1729002
 108.1942887  34.5615372  89.6314459 107.2874343  34.2648485  89.7077172
 108.4718868  34.2645191  88.7648745  99.1120828  35.8821736 100.0813505
  98.7923612  35.0287044  99.7887879  98.5654256  36.0970314 100.8371473
 102.8900735  38.5984177 103.7983012 103.1086745  39.5301285 103.8171046
 103.3026509  38.2392151 104.5837816 109.8104953  29.1052262  95.7858700
 109.0005681  28.7599347  96.1613946 110.4989370  28.7959806  96.3746312
 111.7395501  28.1830309  97.4082997 112.2926540  28.6025762  98.0673020
 111.9765588  27.2566057  97.4505953 106.9641672  31.4202308  89.7726438
 107.8260836  31.7457206  90.0322255 107.1492016  30.6333804  89.2599504
  98.9809088  39.5024647 102.0506627  98.2872559  39.0878600 101.5376581
  99.7282079  39.5445184 101.4540046 115.1174308  30.2930834  96.9161661
 114.5372977  30.9515638  96.5339713 114.8510241  29.4708179  96.5049079
 100.8945830  39.4342901  99.9272642 100.8716518  39.5330588  98.9754525
 101.2046467  40.2808052 100.2489808 103.5533208  41.4919056 104.0419256
 104.5076462  41.4602998 103.9749188 103.3545732  41.0309680 104.8569482
 104.1432590  40.0620172 106.6090054 104.9625479  40.5564251 106.6324891
 104.4169398  39.1452140 106.5807621 113.8999186  32.4530924  95.9718009
 113.0125041  32.7380575  95.7538204 114.3153175  32.2924688  95.1245286
 101.9083437  47.0338676 101.0589454 101.7737905  46.2739077 100.4927452
 101.4915499  47.7579575 100.5918243 113.0442400  42.2175599  90.0666029
 113.7478250  42.4225602  90.6823685 112.3205049  42.7852361  90.3315113
 113.8740210  37.9685460  96.1868299 113.8175412  38.4254012  95.3475932
 114.4268553  37.2076145  96.0091142 117.6845016  33.7575192  97.0118419
 117.4281950  33.3571828  97.8426627 117.0597884  34.4718986  96.8868558
 105.0652563  47.9307993 101.2707897 104.9484947  48.8753425 101.1686587
 104.2445009  47.6281554 101.6593696 114.9529097  42.6558128  92.1164489
 115.7874701  42.2239327  91.9341964 114.7913440  42.4840142  93.0441384
 114.6074989  39.1590242  93.4820829 114.5523793  38.9934513  92.5409273
 113.9821045  39.8666275  93.6383018  99.3967504  34.3958306 107.3082251
 100.0426368  33.8857260 107.7969476  99.1884656  35.1326988 107.8825676
 107.9171115  28.6598351  93.0606147 107.9049785  29.6040191  93.2174418
 108.8094537  28.4768496  92.7665608 106.0907077  48.5836255 104.4863825
 106.9934324  48.6159865 104.8030320 105.8644447  47.6536705 104.5010161
 107.8460679  47.3367241 101.1473904 106.8956310  47.3369103 101.0338276
 108.1493165  46.5899976 100.6309938 120.3903079  53.1255208 102.1481191
 120.0521590  53.0096272 101.2601726 121.2592847  52.7246373 102.1282197
 116.2489894  54.9790684  98.1378082 115.6854759  54.8880621  97.3694370
 116.1342289  54.1590588  98.6180574 113.7954326  56.4741876 100.9762302
 114.5875618  56.1332700 100.5608602 114.0350976  56.5836851 101.8964456
 115.7545080  55.7350789  93.8479681 116.5275956  55.1879776  93.7092557
 116.1070479  56.5995038  94.0594142 117.5930123  57.0627171 107.0546580
 117.3019989  57.9672802 106.9393247 118.2287107  57.1043699 107.7690650
 118.5186330  54.4404020 103.6447940 119.1149902  54.2160042 102.9304903
 118.5761301  53.6988765 104.2473388 118.0911358  51.8943455  91.4798131
 118.3436879  51.3724976  90.7181594 117.1535917  51.7309600  91.5824815
 117.8107647  53.7971561  93.6822506 117.6943905  53.1216464  94.3503590
 117.9209907  53.3103935  92.8654659 120.1539188  53.2581708  97.3869195
 119.7897395  52.7312329  98.0982117 121.0106304  52.8680177  97.2135681
 119.7944675  48.2871608  92.3830544 119.9619077  49.1551844  92.7501015
 119.6041844  48.4498889  91.4591833 116.0032489  53.2002383 100.0833078
 115.0782986  53.0678598 100.2910770 116.2516903  53.9796603 100.5803021
 119.7733896  50.7429265  93.3677210 119.6533521  51.1886316  94.2062691
 119.0786484  51.0914583  92.8090749 113.3641300  52.8435657 100.9176868
 113.4933682  53.0970136 101.8316279 112.6838752  53.4363365 100.5981523
 117.5340788  63.5132907  97.0167342 117.4564817  64.4640732  97.0955822
 116.9302431  63.1678779  97.6742268 119.6316506  55.9350965  98.8521211
 120.0954851  56.2138668  98.0625834 119.3673304  55.0334410  98.6694302
 116.5240587  55.4822446 101.7900974 117.0941944  55.9109715 101.1518459
 117.1148699  55.2005031 102.4885160 118.5685392  52.0574117  95.6610776
 119.2709435  52.5095161  96.1284703 118.2366020  51.4157936  96.2890669
 112.3110726  50.3157670 100.9627910 111.5209780  50.5715198 100.4868020
 112.8021973  51.1306008 101.0679950 114.2625471  50.6802249  97.9211386
 113.4656635  50.7920943  98.4394882 114.0351063  51.0188901  97.0552277
 120.0931139  57.2046952 105.8693901 120.1575571  57.6667360 106.7052073
 119.3842063  56.5744317 105.9976211 110.5948429  50.5688160 103.3942901
 110.8456467  51.4535170 103.6600477 111.1307977  50.3892762 102.6217992
 119.8079157  58.8715060  95.7372881 119.6724831  59.7166596  96.1657729
 120.3488969  59.0734338  94.9738815 113.2608554  56.3890498  96.3100807
 113.7733075  57.1833748  96.4606371 113.9131267  55.6916788  96.2434408
 115.0703439  59.5056254  98.3923560 115.2470067  60.4274219  98.2044544
 115.8660272  59.1914673  98.8217939 114.3555795  51.5520886 108.2685723
 114.2409310  50.6506143 108.5692822 113.5000313  51.7984583 107.9170539
 116.1934754  61.0234428 104.3933902 116.7442179  60.8951491 103.6210896
 115.3546230  61.3229317 104.0428795 119.9901925  57.2885556 108.7378133
 120.5230262  56.5273844 108.5077441 119.4616006  56.9959208 109.4802288
 111.2257471  54.7179152  97.0860377 112.0632693  55.1276161  96.8694085
 111.4035738  53.7778594  97.0560571 120.7069014  47.2303934  97.8329448
 119.8510610  46.8410784  97.6535087 121.1195966  47.3095894  96.9729234
 118.4811046  44.8489007 101.2387190 119.3464043  44.6531815 100.8793079
 118.5488555  44.6199358 102.1656547 121.3554638  56.4171548  96.2496945
 120.8275999  55.6824308  95.9370183 120.8542141  57.1946225  96.0036913
 116.0873365  47.0791215  98.6103557 116.6617117  46.8566396  97.8776750
 116.6744348  47.1479909  99.3632158 116.4142953  49.1095676  92.6299442
 115.5780265  49.4470362  92.9508717 116.2747722  48.9744655  91.6926579
 118.3896033  43.9532464  97.3378626 117.7360446  43.6381481  96.7135241
 118.3476507  43.3308204  98.0638449 119.5007238  54.2351759  89.2531918
 118.5934300  54.0041012  89.4523067 119.9978270  53.4389378  89.4405900
 120.6795471  54.3364353  93.7755908 119.7706691  54.0523386  93.8728378
 120.7090555  54.7563432  92.9159215 111.2483642  52.0569868  97.7571110
 111.0508042  51.4639228  97.0322177 110.6930306  51.7522078  98.4747049
 119.2280366  51.9492974  99.8765704 119.2828975  50.9966810  99.8008180
 118.4171568  52.1052413 100.3607002 120.3771559  55.8773097  91.1143987
 119.9390989  55.1608956  90.6549624 121.1182000  56.1049212  90.5529078
 117.1672725  50.5670034  97.6356083 116.3540591  50.8664204  98.0421275
 117.6631720  50.1725723  98.3530565 119.3181303  60.5627791  99.5690347
 119.2757482  60.7888637  98.6398879 120.2344002  60.3291165  99.7176148
 116.6586800  48.1388389 103.2517317 117.2986180  47.9977148 102.5540281
 115.8264331  47.8522903 102.8755919 117.4347104  57.4390820  99.3652310
 118.2287703  56.9441140  99.1634885 116.7238796  56.9108683  99.0020015
 113.7429868  51.5833901  95.4412063 112.8127456  51.5218357  95.6582025
 113.8387340  51.0609854  94.6448704 113.6615417  48.1088714  98.0290304
 113.9222234  49.0234048  97.9199465 114.4832589  47.6413157  98.1786917
 115.1340342  49.5226471 105.1989129 115.8063395  49.3143834 104.5501778
 114.3070128  49.3248557 104.7594361 120.0118380  58.0119842 103.0450147
 119.8729466  57.6438626 103.9176085 119.2232976  58.5267481 102.8734105
 120.6066532  63.1128938  94.3875684 120.7818288  62.6416981  95.2021306
 119.9199320  63.7394704  94.6156944 121.5623595  57.3901444 100.4338985
 121.2273428  57.3502214 101.3296635 121.0627541  56.7246160  99.9609395
 115.5367839  52.7969074 105.9591566 115.3987637  52.0649313 106.5603105
 116.4472763  52.7077975 105.6775754 118.1650140  52.5089034 105.4475246
 118.8749758  51.8682226 105.4061864 118.1219448  52.7601929 106.3701426
 115.1727617  66.2618301 101.1615544 115.4124216  66.8936825 101.8394562
 114.3296814  65.9106341 101.4480903 116.2881333  48.9542903  89.8297349
 115.4110799  48.8331704  89.4659595 116.7639086  48.1628981  89.5776237
 107.8083473  53.7420063  99.9238856 108.4954513  53.4281793  99.3359871
 107.6531602  54.6461427  99.6506107 112.6118195  48.6310259 104.3523880
 112.5276384  48.0235929 103.6174290 111.7900901  49.1219278 104.3533376
 119.6855479  62.0697423 103.5657048 119.6125651  62.8752395 104.0776352
 119.2432872  62.2689389 102.7405069 119.4745259  61.3069193  97.0759869
 118.6912781  61.8490874  97.1698094 120.1738004  61.8243173  97.4754110
 119.3676878  49.2581206  99.4465759 118.9974665  48.7052246 100.1346665
 119.8635970  48.6539339  98.8940759 117.1966076  59.7178701 106.5420777
 117.8975536  60.3515184 106.6950171 116.7261191  60.0593432 105.7816416
 112.7933794  59.2515056 103.4751880 113.3787231  58.5058744 103.6079784
 112.5958633  59.5619013 104.3588544 115.6472450  62.2866303  98.4914322
 114.9782825  62.7712431  98.0078362 115.5085319  62.5335524  99.4057701
 107.3851449  51.8220656 102.1956323 107.4235549  51.2884247 102.9893441
 106.8791742  51.2955862 101.5767300 119.7877718  64.3210047 105.0896981
 120.3396026  64.4841668 105.8546066 120.1283912  64.9114485 104.4177005
 114.7642211  46.6685197 105.6918865 114.8283538  47.5300028 105.2796263
 114.7009332  46.0559198 104.9591224 111.0160027  50.5484758  95.2710254
 111.3113468  49.6395437  95.2177308 110.1148062  50.5272498  94.9491257
 114.5454274  48.6240755 101.2537803 113.8240859  49.2376723 101.1145276
 115.3347529  49.1598520 101.1754449 112.7447868  48.2298856  95.3949580
 112.4160574  47.3496235  95.2124685 113.0987239  48.1746525  96.2825969
 115.8589691  48.5171826  95.7625057 116.1985764  49.0457747  95.0403666
 116.3061812  48.8552232  96.5383624 117.8457839  47.0146447  93.9618350
 118.5666201  47.3927700  93.4582067 117.2223143  47.7335324  94.0653328
 116.7288183  50.6777310 101.4747427 116.5832764  50.9917613 102.3671708
 116.2513386  51.2962210 100.9218326 118.5884566  47.6679858 101.5228316
 118.5746134  46.7720951 101.1860614 119.3056994  47.6750521 102.1566603
 111.2033845  53.2182654 104.4135088 110.6587313  53.9942462 104.5455362
 112.0813195  53.5653458 104.2554210 117.9921462  46.5494238  96.7915887
 118.1137373  45.6210884  96.9906774 117.7023504  46.5632924  95.8794202
 120.8612652  44.2349148  99.9282606 120.8834349  44.2988481  98.9734586
 121.2780711  43.3953657 100.1223113 111.9899867  52.3452550 107.3065245
 111.2481603  52.4935186 107.8929875 111.6692611  52.6060816 106.4431994
 119.9343529  61.8868528 107.1045635 120.2430656  61.6417675 107.9768335
 120.7319011  62.0915167 106.6164505 119.9564142  64.0406438  99.3351012
 119.5169132  63.5482817 100.0283868 120.7072258  63.4979406  99.0943087
 112.4356481  60.2317979  99.3375640 113.2614500  59.9321751  98.9574283
 112.0850532  59.4625601  99.7865428 117.4038014  59.5844447 101.4073313
 116.7818023  58.9215152 101.1075541 118.0742881  59.6105579 100.7246961
 110.6365086  58.1504305 100.2964573 109.7996994  57.7226480 100.1148574
 110.6088731  58.3436749 101.2335364 116.9651521  58.1348371  94.8831774
 117.1139641  58.8183835  94.2298446 117.7717964  58.1153461  95.3981229
 114.7204154  54.1613548  95.8892843 114.4750195  53.2575878  96.0873053
 114.8900068  54.1630699  94.9472321 113.9899801  49.8941906  93.3879004
 113.2969046  49.9686261  92.7319040 113.7451553  49.1302249  93.9100521
 120.4646926  60.6296501  92.3543521 119.8920893  61.2486688  91.9013993
 121.0379720  61.1795863  92.8883443 119.0336642  49.8907290  89.6314459
 118.1268097  49.5940403  89.7077172 119.3112623  49.5937108  88.7648745
 109.9514582  51.2113654 100.0813505 109.6317366  50.3578962  99.7887879
 109.4048010  51.4262232 100.8371473 113.7294490  53.9276095 103.7983012
 113.9480499  54.8593202 103.8171046 114.1420264  53.5684069 104.5837816
 120.6498707  44.4344180  95.7858700 119.8399436  44.0891265  96.1613946
 121.3383124  44.1251724  96.3746312 117.8035426  46.7494225  89.7726438
 118.6654590  47.0749124  90.0322255 117.9885771  45.9625721  89.2599504
 109.8202842  54.8316565 102.0506627 109.1266314  54.4170518 101.5376581
 110.5675833  54.8737102 101.4540046 111.7339585  54.7634819  99.9272642
 111.7110273  54.8622506  98.9754525 112.0440221  55.6099970 100.2489808
 114.3926963  56.8210974 104.0419256 115.3470216  56.7894916 103.9749188
 114.1939486  56.3601598 104.8569482 114.9826345  55.3912090 106.6090054
 115.8019234  55.8856169 106.6324891 115.2563152  54.4744058 106.5807621
 112.7477191  62.3630593 101.0589454 112.6131659  61.6030994 100.4927452
 112.3309254  63.0871493 100.5918243 115.9046317  63.2599910 101.2707897
 115.7878701  64.2045343 101.1686587 115.0838763  62.9573472 101.6593696
 110.2361259  49.7250224 107.3082251 110.8820123  49.2149178 107.7969476
 110.0278410  50.4618905 107.8825676 118.7564869  43.9890268  93.0606147
 118.7443539  44.9332108  93.2174418 119.6488291  43.8060414  92.7665608
 116.9300831  63.9128172 104.4863825 117.8328078  63.9451782 104.8030320
 116.7038201  62.9828623 104.5010161 118.6854433  62.6659159 101.1473904
 117.7350064  62.6661020 101.0338276 118.9886919  61.9191893 100.6309938
 118.6477227  69.0711980  99.9238856 119.3348267  68.7573711  99.3359871
 118.4925356  69.9753345  99.6506107 118.2245204  67.1512574 102.1956323
 118.2629303  66.6176165 102.9893441 117.7185496  66.6247779 101.5767300
 121.4758840  73.4796223 100.2964573 120.6390748  73.0518397 100.1148574
 121.4482485  73.6728666 101.2335364 120.7908337  66.5405571 100.0813505
 120.4711121  65.6870879  99.7887879 120.2441765  66.7554149 100.8371473
 120.6596597  70.1608483 102.0506627 119.9660068  69.7462435 101.5376581
 121.4069588  70.2029019 101.4540046  95.8553280   9.8611194  83.7412648
  95.7777310  10.8119019  83.8201129  95.2514924   9.5157067  84.3987575
  93.4940110  12.6096588  87.8860850  93.7336708  13.2415112  88.5639869
  92.6509306  12.2584628  88.1726210  93.9684942   8.6344591  85.2159629
  93.2995317   9.1190718  84.7323669  93.8297812   8.8813811  86.1303007
  98.1090210  10.6688334  91.8142287  98.6608518  10.8319956  92.5791372
  98.4496404  11.2592772  91.1422312  91.0689684   8.7108881  87.7834761
  90.9344152   7.9509281  87.2172759  90.6521746   9.4349780  87.3163550
  94.2258809   9.6078198  87.9953203  94.1091194  10.5523630  87.8931894
  93.4051256   9.3051759  88.3839003  95.2513324  10.2606459  91.2109132
  96.1540570  10.2930070  91.5275627  95.0250694   9.3306910  91.2255468
 109.5509325  14.8025412  88.8726497 109.2127837  14.6866477  87.9847032
 110.4199094  14.4016578  88.8527504 105.4096141  16.6560889  84.8623388
 104.8461006  16.5650826  84.0939676 105.2948536  15.8360793  85.3425881
 102.9560573  18.1512081  87.7007609 103.7481865  17.8102905  87.2853908
 103.1957223  18.2607056  88.6209762 110.9895700  20.3231857  80.1737853
 110.3383680  20.9085937  79.7871867 111.7840063  20.8538052  80.2332891
 104.9151327  17.4120994  80.5724988 105.6882203  16.8649981  80.4337863
 105.2676726  18.2765243  80.7839449 106.7536370  18.7397376  93.7791887
 106.4626236  19.6443007  93.6638553 107.3893354  18.7813904  94.4935957
 107.6792576  16.1174225  90.3693247 108.2756149  15.8930247  89.6550210
 107.7367548  15.3758970  90.9718694 112.4670965  18.0122289  80.7106838
 111.8316798  18.0856915  81.4227742 112.1368371  18.6015887  80.0325917
 106.9713894  15.4741766  80.4067813 106.8550152  14.7986669  81.0748897
 107.0816153  14.9874140  79.5899966 109.3145434  14.9351913  84.1114502
 108.9503642  14.4082534  84.8227423 110.1712550  14.5450382  83.9380987
 111.7126255  18.4258792  90.7741681 111.4126978  19.3283830  90.6657488
 111.3677314  18.1590975  91.6262834 105.1638736  14.8772588  86.8078385
 104.2389233  14.7448802  87.0156077 105.4123149  15.6566808  87.3048327
 102.5247547  14.5205862  87.6422174 102.6539928  14.7740341  88.5561586
 101.8444998  15.1133570  87.3226829 106.6947034  25.1903112  83.7412648
 106.6171064  26.1410937  83.8201129 106.0908678  24.8448984  84.3987575
 113.2394791  17.8746762  88.3116433 112.6103653  18.0392476  87.6092500
 112.8520453  18.2888371  89.0827397 117.1184023  18.8101200  85.6660796
 116.4335061  19.1900101  85.1157830 117.2027872  19.4196526  86.3992744
 108.7922753  17.6121170  85.5766518 109.2561098  17.8908873  84.7871140
 108.5279551  16.7104614  85.3939608 105.6846834  17.1592651  88.5146281
 106.2548191  17.5879920  87.8763765 106.2754946  16.8775236  89.2130467
 101.4716973  11.9927875  87.6873216 100.6816027  12.2485403  87.2113327
 101.9628220  12.8076213  87.7925257 103.4231718  12.3572454  84.6456693
 102.6262881  12.4691148  85.1640189 103.1957310  12.6959106  83.7797584
 109.2537386  18.8817157  92.5939208 109.3181818  19.3437565  93.4297380
 108.5448310  18.2514522  92.7221518  99.7554676  12.2458365  90.1188207
 100.0062714  13.1305375  90.3845783 100.2914224  12.0662967  89.3463299
 108.9685403  20.5485265  82.4618188 108.8331078  21.3936801  82.8903036
 109.5095216  20.7504542  81.6984122 102.4214801  18.0660703  83.0346113
 102.9339321  18.8603953  83.1851678 103.0737514  17.3686993  82.9679715
 104.2309685  21.1826459  85.1168866 104.4076314  22.1044424  84.9289850
 105.0266519  20.8684878  85.5463246 103.5162042  13.2291091  94.9931030
 103.4015557  12.3276348  95.2938128 102.6606560  13.4754788  94.6415846
 105.3541001  22.7004633  91.1179209 105.9048426  22.5721696  90.3456203
 104.5152477  22.9999522  90.7674101 109.1508172  18.9655761  95.4623440
 109.6836509  18.2044049  95.2322748 108.6222253  18.6729413  96.2047594
 100.3863718  16.3949357  83.8105684 101.2238940  16.8046366  83.5939391
 100.5641985  15.4548799  83.7805878 110.5160885  18.0941753  82.9742252
 109.9882246  17.3594513  82.6615489 110.0148387  18.8716430  82.7282220
 115.4953731  16.2890774  88.0909298 114.8377405  16.9790035  88.1789427
 116.2994130  16.6787206  88.4343284 108.6613485  15.9121964  75.9777225
 107.7540547  15.6811217  76.1768374 109.1584517  15.1159583  76.1651206
 111.5681564  24.6219471  78.8973911 110.8943262  24.9251167  79.5058869
 111.9547386  25.4248551  78.5479368 109.8401718  16.0134558  80.5001215
 108.9312938  15.7293591  80.5973685 109.8696802  16.4333637  79.6404522
 115.0720986  19.6241148  84.2692382 114.6183313  18.7832058  84.3257573
 114.4414952  20.2602546  84.6067163 113.5153925  21.4617645  85.2042201
 113.8076899  22.0222702  84.4854566 114.0252545  21.7546206  85.9595360
 100.4089889  13.7340072  84.4816417 100.2114288  13.1409433  83.7567484
  99.8536553  13.4292283  85.1992356 109.5377806  17.5543302  77.8389294
 109.0997236  16.8379161  77.3794931 110.2788247  17.7819417  77.2774385
 108.4787550  22.2397996  86.2935654 108.4363729  22.4658842  85.3644186
 109.3950249  22.0061370  86.4421455 106.5953351  19.1161025  86.0897617
 107.3893949  18.6211345  85.8880192 105.8845043  18.5878888  85.7265322
 111.4148195  21.4979120  90.4409984 111.4685218  22.0670057  91.2087700
 110.5462977  21.6681005  90.0764021 102.9036114  13.2604106  82.1657369
 101.9733702  13.1988562  82.3827331 102.9993586  12.7380059  81.3694010
 110.3736295  15.6639382  91.9996916 111.3028355  15.8150542  91.8265883
 109.9527325  15.7523403  91.1445563 109.1724627  19.6890047  89.7695454
 109.0335713  19.3208831  90.6421392 108.3839223  20.2037686  89.5979411
 109.7672779  24.7899143  81.1120990 109.9424535  24.3187186  81.9266613
 109.0805567  25.4164909  81.3402251 110.7229842  19.0671649  87.1584291
 110.3879675  19.0272419  88.0541941 110.2233788  18.4016365  86.6854702
 104.6974086  14.4739279  92.6836873 104.5593884  13.7419518  93.2848412
 105.6079009  14.3848179  92.4021060 113.6589034  16.4127684  77.4321351
 113.0418204  15.6874512  77.3354404 113.1905522  17.1737044  77.0888425
 107.3256387  14.1859239  92.1720552 108.0356005  13.5452431  92.1307171
 107.2825695  14.4372134  93.0946733 104.3333864  27.9388506  87.8860850
 104.5730462  28.5707030  88.5639869 103.4903061  27.5876546  88.1726210
  96.9689720  15.4190268  86.6484163  97.6560760  15.1051998  86.0605178
  96.8137848  16.3231632  86.3751414 108.8461726  23.7467628  90.2902354
 108.7731897  24.5522600  90.8021659 108.4039119  23.9459594  89.4650376
 108.6351506  22.9839398  83.8005176 107.8519028  23.5261079  83.8943400
 109.3344251  23.5013378  84.1999417 111.3060410  23.6454462  92.4460513
 112.0188382  24.2801927  92.3736414 110.8150438  23.7418328  91.6300515
 113.0277936  17.5505715  84.0177805 112.0934215  17.6707177  83.8482509
 113.2054605  16.6478182  83.7537814 106.3572323  21.3948906  93.2666084
 107.0581783  22.0285389  93.4195478 105.8867438  21.7363637  92.5061723
 114.4826719  19.7366856  81.5513991 114.7586563  19.6223450  82.4607865
 113.6131218  19.3384340  81.5126164 111.1180783  23.9853206  85.1946804
 111.3003177  23.1674862  85.6574557 111.9413769  24.2020899  84.7571694
 111.4522948  22.9121392  82.4561853 111.9810715  22.4013846  81.8432015
 111.7151168  22.5963922  83.3207386 101.9540041  20.9285261  90.1997186
 102.5393478  20.1828949  90.3325091 101.7564880  21.2389218  91.0833850
 104.8078696  23.9636508  85.2159629 104.1389072  24.4482636  84.7323669
 104.6691566  24.2105729  86.1303007  96.5457696  13.4990861  88.9201630
  96.5841795  12.9654452  89.7138748  96.0397989  12.9726067  88.3012607
 108.9483965  25.9980252  91.8142287 109.5002273  26.1611873  92.5791372
 109.2890158  26.5884690  91.1422312 100.1766273  12.2254963  81.9955561
 100.4719715  11.3165642  81.9422615  99.2754309  12.2042703  81.6736563
 112.0852352  23.9462227  88.8005969 111.9603492  23.1451967  88.2916915
 112.7431443  24.4408421  88.3119939 114.1487261  21.7471247  90.4285519
 113.2017596  21.6276599  90.3563846 114.4970034  20.8593745  90.5111781
 111.1533694  21.5423964  86.6289872 111.0058656  20.6140671  86.8097442
 111.9787187  21.5644054  86.1446947 114.7567816  22.3652522  87.7154744
 115.6814363  22.1595384  87.5779196 114.5883119  22.1168924  88.6244086
 114.5463132  22.8838190  83.0716836 114.7200009  22.3184612  82.3190688
 115.0392023  23.6839085  82.8896326 100.3640092  14.8952859  91.1380395
  99.8193560  15.6712667  91.2700669 101.2419442  15.2423663  90.9799516
 115.5338304  22.2004954  80.1713734 116.2289209  22.8211647  80.3901049
 115.8761455  21.3500305  80.4466112 101.1506114  14.0222755  94.0310552
 100.4087850  14.1705390  94.6175182 100.8298858  14.2831021  93.1677301
 117.4329728  19.6504660  81.7001065 117.9581052  19.9891932  80.9750385
 117.3452080  18.7151675  81.5164200 109.0949776  23.5638733  93.8290942
 109.4036903  23.3187880  94.7013641 109.8925258  23.7685372  93.3409812
 109.1170388  25.7176643  86.0596318 108.6775379  25.2253022  86.7529175
 109.8678505  25.1749611  85.8188393 101.5962727  21.9088184  86.0620946
 102.4220747  21.6091956  85.6819590 101.2456779  21.1395806  86.5110735
 106.5644260  21.2614652  88.1318620 105.9424270  20.5985357  87.8320848
 107.2349127  21.2875784  87.4492268  99.7971332  19.8274510  87.0209880
  98.9603241  19.3996685  86.8393881  99.7694978  20.0206954  87.9580671
 106.1257767  19.8118575  81.6077080 106.2745888  20.4954040  80.9543753
 106.9324211  19.7923665  82.1226536 103.8810400  15.8383753  82.6138149
 103.6356442  14.9346083  82.8118359 104.0506315  15.8400904  81.6717627
 109.6253173  22.3066706  79.0788828 109.0527140  22.9256893  78.6259300
 110.1985967  22.8566068  79.6128750 112.8450433  22.5903856  80.2097410
 113.7781106  22.5249418  80.4130286 112.7573645  23.4260123  79.7511943
 115.4738449  21.9069726  77.1701358 115.3952081  21.5729590  78.0637116
 116.2948116  22.3991494  77.1692830  99.1120829  12.8883858  86.8058812
  98.7923613  12.0349167  86.5133186  98.5654257  13.1032437  87.5616779
 102.8900736  15.6046299  90.5228318 103.1086746  16.5363407  90.5416352
 103.3026510  15.2454274  91.3083122  98.9809089  16.5086770  88.7751933
  98.2872560  16.0940723  88.2621888  99.7282080  16.5507306  88.1785352
 100.8945831  16.4405024  86.6517948 100.8716520  16.5392711  85.6999831
 101.2046468  17.2870174  86.9735114 103.5533209  18.4981179  90.7664563
 104.5076463  18.4665121  90.6994494 103.3545733  18.0371802  91.5814789
 104.1432591  17.0682295  93.3335360 104.9625480  17.5626373  93.3570198
 104.4169399  16.1514263  93.3052928 101.9083438  24.0400798  87.7834761
 101.7737906  23.2801199  87.2172759 101.4915500  24.7641698  87.3163550
 113.0442401  19.2237722  76.7911336 113.7478251  19.4287724  77.4068992
 112.3205050  19.7914484  77.0560419 105.0652564  24.9370115  87.9953203
 104.9484948  25.8815548  87.8931894 104.2445010  24.6343677  88.3839003
 114.9529099  19.6620251  78.8409796 115.7874702  19.2301449  78.6587271
 114.7913441  19.4902265  79.7686690 114.6074991  16.1652364  80.2066135
 114.5523794  15.9996636  79.2654579 113.9821046  16.8728397  80.3628325
  99.3967506  11.4020429  94.0327558 100.0426369  10.8919383  94.5214783
  99.1884657  12.1389110  94.6070983 106.0907078  25.5898377  91.2109132
 106.9934325  25.6221987  91.5275627 105.8644448  24.6598828  91.2255468
 107.8460680  24.3429364  87.8719210 106.8956311  24.3431225  87.7583583
 108.1493166  23.5962098  87.3555245 120.3903080  30.1317330  88.8726497
 120.0521591  30.0158395  87.9847032 121.2592848  29.7308495  88.8527504
 116.2489896  31.9852807  84.8623388 115.6854761  31.8942744  84.0939676
 116.1342291  31.1652711  85.3425881 113.7954328  33.4803998  87.7007609
 114.5875619  33.1394823  87.2853908 114.0350978  33.5898973  88.6209762
 115.7545081  32.7412911  80.5724988 116.5275957  32.1941899  80.4337863
 116.1070480  33.6057161  80.7839449 117.5930124  34.0689294  93.7791887
 117.3019990  34.9734925  93.6638553 118.2287108  34.1105821  94.4935957
 118.5186331  31.4466142  90.3693247 119.1149903  31.2222165  89.6550210
 118.5761302  30.7050888  90.9718694 118.0911359  28.9005578  78.2043438
 118.3436880  28.3787099  77.4426901 117.1535918  28.7371723  78.3070121
 117.8107648  30.8033684  80.4067813 117.6943906  30.1278587  81.0748897
 117.9209908  30.3166057  79.5899966 120.1539189  30.2643831  84.1114502
 119.7897396  29.7374452  84.8227423 121.0106305  29.8742300  83.9380987
 119.7944676  25.2933730  79.1075850 119.9619078  26.1613967  79.4746321
 119.6041845  25.4561012  78.1837140 116.0032491  30.2064506  86.8078385
 115.0782987  30.0740720  87.0156077 116.2516904  30.9858725  87.3048327
 119.7733897  27.7491388  80.0922517 119.6533522  28.1948439  80.9307997
 119.0786485  28.0976705  79.5336055 113.3641302  29.8497780  87.6422174
 113.4933683  30.1032259  88.5561586 112.6838753  30.4425488  87.3226829
 117.5340789  40.5195030  83.7412648 117.4564819  41.4702855  83.8201129
 116.9302432  40.1740902  84.3987575 119.6316507  32.9413088  85.5766518
 120.0954853  33.2200791  84.7871140 119.3673305  32.0396532  85.3939608
 116.5240588  32.4884569  88.5146281 117.0941945  32.9171837  87.8763765
 117.1148700  32.2067154  89.2130467 118.5685393  29.0636240  82.3856083
 119.2709437  29.5157284  82.8530009 118.2366022  28.4220059  83.0135976
 112.3110727  27.3219793  87.6873216 111.5209781  27.5777321  87.2113327
 112.8021975  28.1368130  87.7925257 114.2625473  27.6864372  84.6456693
 113.4656636  27.7983066  85.1640189 114.0351065  28.0251024  83.7797584
 120.0931140  34.2109075  92.5939208 120.1575573  34.6729482  93.4297380
 119.3842064  33.5806440  92.7221518 110.5948430  27.5750283  90.1188207
 110.8456469  28.4597293  90.3845783 111.1307979  27.3954885  89.3463299
 119.8079158  35.8777183  82.4618188 119.6724833  36.7228718  82.8903036
 120.3488970  36.0796460  81.6984122 113.2608555  33.3952621  83.0346113
 113.7733076  34.1895871  83.1851678 113.9131268  32.6978911  82.9679715
 115.0703440  36.5118377  85.1168866 115.2470068  37.4336342  84.9289850
 115.8660273  36.1976796  85.5463246 114.3555796  28.5583009  94.9931030
 114.2409312  27.6568266  95.2938128 113.5000314  28.8046705  94.6415846
 116.1934755  38.0296551  91.1179209 116.7442180  37.9013614  90.3456203
 115.3546231  38.3291440  90.7674101 119.9901926  34.2947678  95.4623440
 120.5230263  33.5335967  95.2322748 119.4616008  34.0021330  96.2047594
 111.2257472  31.7241275  83.8105684 112.0632694  32.1338283  83.5939391
 111.4035740  30.7840717  83.7805878 120.7069015  24.2366056  84.5574755
 119.8510611  23.8472907  84.3780394 121.1195967  24.3158017  83.6974541
 118.4811048  21.8551129  87.9632497 119.3464044  21.6593938  87.6038386
 118.5488557  21.6261481  88.8901853 121.3554639  33.4233671  82.9742252
 120.8276001  32.6886430  82.6615489 120.8542142  34.2008347  82.7282220
 116.0873367  24.0853337  85.3348863 116.6617119  23.8628519  84.6022056
 116.6744349  24.1542032  86.0877465 116.4142954  26.1157798  79.3544749
 115.5780266  26.4532485  79.6754023 116.2747723  25.9806778  78.4171886
 118.3896034  20.9594586  84.0623933 117.7360447  20.6443603  83.4380548
 118.3476509  20.3370327  84.7883756 119.5007239  31.2413881  75.9777225
 118.5934301  31.0103135  76.1768374 119.9978271  30.4451500  76.1651206
 120.6795473  31.3426476  80.5001215 119.7706692  31.0585509  80.5973685
 120.7090557  31.7625555  79.6404522 111.2483643  29.0631990  84.4816417
 111.0508043  28.4701351  83.7567484 110.6930307  28.7584200  85.1992356
 119.2280367  28.9555097  86.6011010 119.2828977  28.0028933  86.5253487
 118.4171569  29.1114536  87.0852309 120.3771561  32.8835220  77.8389294
 119.9390990  32.1671079  77.3794931 121.1182001  33.1111335  77.2774385
 117.1672727  27.5732156  84.3601389 116.3540592  27.8726327  84.7666581
 117.6631721  27.1787845  85.0775871 119.3181305  37.5689913  86.2935654
 119.2757483  37.7950760  85.3644186 120.2344003  37.3353288  86.4421455
 116.6586801  25.1450512  89.9762624 117.2986181  25.0039271  89.2785587
 115.8264332  24.8585025  89.6001226 117.4347105  34.4452942  86.0897617
 118.2287704  33.9503262  85.8880192 116.7238798  33.9170805  85.7265322
 113.7429869  28.5896024  82.1657369 112.8127457  28.5280480  82.3827331
 113.8387341  28.0671977  81.3694010 113.6615418  25.1150837  84.7535611
 113.9222235  26.0296170  84.6444771 114.4832590  24.6475279  84.9032224
 115.1340343  26.5288594  91.9234435 115.8063397  26.3205956  91.2747084
 114.3070130  26.3310680  91.4839668 120.0118381  35.0181964  89.7695454
 119.8729467  34.6500749  90.6421392 119.2232978  35.5329604  89.5979411
 120.6066533  40.1191061  81.1120990 120.7818289  39.6479104  81.9266613
 119.9199321  40.7456827  81.3402251 121.5623597  34.3963567  87.1584291
 121.2273429  34.3564337  88.0541941 121.0627542  33.7308283  86.6854702
 115.5367840  29.8031197  92.6836873 115.3987638  29.0711436  93.2848412
 116.4472764  29.7140097  92.4021060 118.1650141  29.5151156  92.1720552
 118.8749760  28.8744349  92.1307171 118.1219449  29.7664051  93.0946733
 115.1727619  43.2680424  87.8860850 115.4124217  43.8998948  88.5639869
 114.3296815  42.9168464  88.1726210 116.2881334  25.9605026  76.5542655
 115.4110800  25.8393826  76.1904902 116.7639087  25.1691104  76.3021544
 107.8083474  30.7482185  86.6484163 108.4954514  30.4343915  86.0605178
 107.6531603  31.6523550  86.3751414 112.6118196  25.6372382  91.0769186
 112.5276385  25.0298052  90.3419596 111.7900903  26.1281400  91.0778683
 119.6855480  39.0759546  90.2902354 119.6125652  39.8814518  90.8021659
 119.2432874  39.2751512  89.4650376 119.4745260  38.3131316  83.8005176
 118.6912782  38.8552996  83.8943400 120.1738005  38.8305296  84.1999417
 119.3676879  26.2643328  86.1711066 118.9974666  25.7114369  86.8591971
 119.8635971  25.6601462  85.6186066 117.1966078  36.7240824  93.2666084
 117.8975537  37.3577306  93.4195478 116.7261193  37.0655555  92.5061723
 112.7933796  36.2577179  90.1997186 113.3787232  35.5120866  90.3325091
 112.5958634  36.5681135  91.0833850 115.6472451  39.2928426  85.2159629
 114.9782826  39.7774554  84.7323669 115.5085321  39.5397646  86.1303007
 107.3851450  28.8282779  88.9201630 107.4235550  28.2946369  89.7138748
 106.8791743  28.3017984  88.3012607 119.7877719  41.3272169  91.8142287
 120.3396027  41.4903791  92.5791372 120.1283913  41.9176607  91.1422312
 114.7642213  23.6747319  92.4164172 114.8283539  24.5362150  92.0041570
 114.7009333  23.0621321  91.6836530 111.0160028  27.5546881  81.9955561
 111.3113469  26.6457559  81.9422615 110.1148064  27.5334620  81.6736563
 114.5454275  25.6302877  87.9783110 113.8240861  26.2438845  87.8390583
 115.3347531  26.1660642  87.8999756 112.7447870  25.2360979  82.1194886
 112.4160576  24.3558357  81.9369992 113.0987240  25.1808647  83.0071275
 115.8589693  25.5233948  82.4870364 116.1985765  26.0519870  81.7648972
 116.3061813  25.8614354  83.2628930 117.8457840  24.0208570  80.6863657
 118.5666202  24.3989823  80.1827373 117.2223144  24.7397447  80.7898635
 116.7288184  27.6839432  88.1992734 116.5832765  27.9979735  89.0917015
 116.2513388  28.3024332  87.6463632 118.5884567  24.6741980  88.2473623
 118.5746136  23.7783073  87.9105921 119.3056995  24.6812644  88.8811909
 111.2033846  30.2244777  91.1380395 110.6587314  31.0004585  91.2700669
 112.0813196  30.5715581  90.9799516 117.9921463  23.5556360  83.5161193
 118.1137374  22.6273007  83.7152081 117.7023505  23.5695046  82.6039509
 120.8612653  21.2411271  86.6527913 120.8834350  21.3050604  85.6979893
 121.2780712  20.4015779  86.8468419 111.9899868  29.3514673  94.0310552
 111.2481604  29.4997308  94.6175182 111.6692612  29.6122938  93.1677301
 119.9343531  38.8930651  93.8290942 120.2430657  38.6479798  94.7013641
 120.7319013  39.0977290  93.3409812 119.9564143  41.0468561  86.0596318
 119.5169133  40.5544939  86.7529175 120.7072260  40.5041528  85.8188393
 112.4356482  37.2380102  86.0620946 113.2614502  36.9383873  85.6819590
 112.0850534  36.4687724  86.5110735 117.4038015  36.5906570  88.1318620
 116.7818024  35.9277275  87.8320848 118.0742882  36.6167702  87.4492268
 110.6365087  35.1566428  87.0209880 109.7996995  34.7288602  86.8393881
 110.6088732  35.3498871  87.9580671 116.9651522  35.1410493  81.6077080
 117.1139642  35.8245957  80.9543753 117.7717965  35.1215583  82.1226536
 114.7204155  31.1675671  82.6138149 114.4750197  30.2638001  82.8118359
 114.8900069  31.1692821  81.6717627 113.9899802  26.9004028  80.1124311
 113.2969047  26.9748383  79.4564347 113.7451554  26.1364372  80.6345828
 120.4646927  37.6358624  79.0788828 119.8920894  38.2548811  78.6259300
 121.0379721  38.1857985  79.6128750 119.0336643  26.8969413  76.3559766
 118.1268098  26.6002525  76.4322479 119.3112624  26.5999231  75.4894052
 109.9514583  28.2175776  86.8058812 109.6317368  27.3641084  86.5133186
 109.4048012  28.4324354  87.5616779 113.7294491  30.9338217  90.5228318
 113.9480501  31.8655325  90.5416352 114.1420265  30.5746192  91.3083122
 120.6498709  21.4406302  82.5104007 119.8399437  21.0953387  82.8859253
 121.3383126  21.1313846  83.0991618 117.8035428  23.7556348  76.4971745
 118.6654592  24.0811246  76.7567562 117.9885772  22.9687844  75.9844810
 109.8202843  31.8378688  88.7751933 109.1266315  31.4232640  88.2621888
 110.5675834  31.8799224  88.1785352 111.7339586  31.7696941  86.6517948
 111.7110274  31.8684629  85.6999831 112.0440222  32.6162092  86.9735114
 114.3926964  33.8273096  90.7664563 115.3470217  33.7957039  90.6994494
 114.1939487  33.3663720  91.5814789 114.9826346  32.3974212  93.3335360
 115.8019235  32.8918291  93.3570198 115.2563154  31.4806181  93.3052928
 112.7477193  39.3692716  87.7834761 112.6131661  38.6093117  87.2172759
 112.3309255  40.0933616  87.3163550 115.9046318  40.2662033  87.9953203
 115.7878703  41.2107465  87.8931894 115.0838765  39.9635594  88.3839003
 110.2361260  26.7312346  94.0327558 110.8820124  26.2211300  94.5214783
 110.0278411  27.4681028  94.6070983 118.7564871  20.9952391  79.7851454
 118.7443540  21.9394231  79.9419725 119.6488293  20.8122536  79.4910915
 116.9300833  40.9190295  91.2109132 117.8328079  40.9513905  91.5275627
 116.7038203  39.9890746  91.2255468 118.6854435  39.6721281  87.8719210
 117.7350066  39.6723143  87.7583583 118.9886921  38.9254016  87.3555245
 118.6477229  46.0774103  86.6484163 119.3348269  45.7635833  86.0605178
 118.4925357  46.9815468  86.3751414 118.2245205  44.1574696  88.9201630
 118.2629304  43.6238287  89.7138748 117.7185498  43.6309902  88.3012607
 121.4758841  50.4858346  87.0209880 120.6390750  50.0580520  86.8393881
 121.4482487  50.6790789  87.9580671 120.7908338  43.5467694  86.8058812
 120.4711122  42.6933002  86.5133186 120.2441766  43.7616272  87.5616779
 120.6596598  47.1670605  88.7751933 119.9660069  46.7524558  88.2621888
 121.4069589  47.2091142  88.1785352 117.5340790  17.5257152  70.4657955
 117.4564820  18.4764977  70.5446436 116.9302434  17.1803025  71.1232881
 115.1727620  20.2742546  74.6106157 115.4124218  20.9061070  75.2885176
 114.3296816  19.9230586  74.8971516 115.6472452  16.2990549  71.9404936
 114.9782827  16.7836676  71.4568976 115.5085322  16.5459769  72.8548314
 119.7877721  18.3334292  78.5387594 120.3396029  18.4965914  79.3036679
 120.1283914  18.9238730  77.8667619 112.7477194  16.3754838  74.5080067
 112.6131662  15.6155239  73.9418065 112.3309256  17.0995738  74.0408856
 115.9046320  17.2724156  74.7198510 115.7878704  18.2169588  74.6177200
 115.0838766  16.9697717  75.1084309 116.9300834  17.9252417  77.9354438
 117.8328081  17.9576028  78.2520933 116.7038204  16.9952868  77.9500774
 118.6477230  23.0836226  73.3729469 119.3348270  22.7697956  72.7850484
 118.4925359  23.9877590  73.0996721 118.2245206  21.1636819  75.6446936
 118.2629306  20.6300410  76.4384054 117.7185499  20.6372025  75.0257913
 121.4758843  27.4920468  73.7455186 120.6390751  27.0642643  73.5639188
 121.4482488  27.6852912  74.6825978 120.7908339  20.5529816  73.5304119
 120.4711123  19.6995125  73.2378493 120.2441767  20.7678395  74.2862086
 120.6596599  24.1732728  75.4997240 119.9660071  23.7586681  74.9867195
 121.4069590  24.2153264  74.9030659  46.5319032  70.6095227 131.9992681
  45.8580730  70.9126924 132.6077639  46.9184854  71.4124308 131.6498138
  50.4975772  68.1880711 133.2732505  51.1926677  68.8087403 133.4919819
  50.8398923  67.3376062 133.5484882  44.5890641  68.2942462 132.1807598
  44.0164608  68.9132650 131.7278070  45.1623435  68.8441824 132.7147520
  47.8087901  68.5779613 133.3116180  48.7418574  68.5125174 133.5149056
  47.7211114  69.4135879 132.8530713  50.4375917  67.8945483 130.2720128
  50.3589549  67.5605347 131.1655886  51.2585584  68.3867251 130.2711600
  48.0079869  65.2113478 129.8930106  48.7115719  65.4163481 130.5087762
  47.2842518  65.7790240 130.1579190  49.9166567  65.6496008 131.9428566
  50.7512170  65.2177206 131.7606041  49.7550909  65.4778021 132.8705461
  51.3780422  72.1033555 132.4563519  50.5417734  72.4408241 132.7772794
  51.2385192  71.9682535 131.5190656  51.2518802  71.9480782 129.6561426
  50.3748268  71.8269583 129.2923672  51.7276555  71.1566861 129.4040314
  48.9537270  72.8879785 133.2143081  48.2606515  72.9624140 132.5583117
  48.7089022  72.1240129 133.7364598  53.9974111  72.8845169 129.4578536
  53.0905566  72.5878282 129.5341249  54.2750092  72.5874987 128.5912822
  52.7672896  69.7432105 129.5990515  53.6292060  70.0687003 129.8586332
  52.9523240  68.9563600 129.0863581  53.7202339  66.9828148 132.8870224
  53.7081009  67.9269987 133.0438495  54.6125761  66.7998293 132.5929685
  46.5319033  47.6157350 118.7237988  45.8580732  47.9189047 119.3322946
  46.9184855  48.4186430 118.3743445  50.4975774  45.1942833 119.9977811
  51.1926678  45.8149526 120.2165126  50.8398924  44.3438185 120.2730189
  44.5890642  45.3004585 118.9052905  44.0164609  45.9194772 118.4523377
  45.1623436  45.8503947 119.4392827  47.8087902  45.5841735 120.0361487
  48.7418575  45.5187297 120.2394363  47.7211115  46.4198002 119.5776020
  50.4375919  44.9007606 116.9965435  50.3589550  44.5667469 117.8901193
  51.2585585  45.3929373 116.9956907  48.0079870  42.2175601 116.6175413
  48.7115721  42.4225603 117.2333069  47.2842519  42.7852363 116.8824496
  49.9166568  42.6558130 118.6673873  50.7512172  42.2239329 118.4851348
  49.7550911  42.4840144 119.5950767  58.5450843  53.1727781 128.7629050
  59.1829253  53.0534529 128.0592390  58.4271686  54.1208625 128.8217002
  51.2127365  54.9790686 124.6887465  50.6492230  54.8880623 123.9203753
  51.0979760  54.1590590 125.1689958  56.7926924  58.6461653 120.0001930
  56.1414903  59.2315734 119.6135944  57.5871286  59.1767848 120.0596968
  50.7182551  55.7350791 120.3989065  51.4913427  55.1879778 120.2601940
  51.0707950  56.5995040 120.6103526  53.0548829  51.8943457 118.0307515
  53.3074349  51.3724978 117.2690978  52.1173388  51.7309602 118.1334198
  58.0992111  50.8979235 125.8382258  58.8855201  50.4798658 125.4872675
  58.3630816  51.8025327 126.0063906  58.2702189  56.3352085 120.5370915
  57.6348022  56.4086712 121.2491819  57.9399595  56.9245684 119.8589994
  63.5000539  50.8354468 126.7415236  64.2325710  50.2653685 126.9753066
  62.7439894  50.4476069 127.1821742  52.7745117  53.7971563 120.2331890
  52.6581375  53.1216466 120.9012974  52.8847377  53.3103937 119.4164043
  55.1176658  53.2581710 123.9378579  54.7534865  52.7312331 124.6491500
  55.9743774  52.8680179 123.7645064  54.7582145  48.2871609 118.9339927
  54.9256548  49.1551846 119.3010398  54.5679314  48.4498891 118.0101217
  54.7371366  50.7429267 119.9186594  54.6170991  51.1886318 120.7572074
  54.0423954  51.0914585 119.3600132  52.4978258  63.5132909 123.5676725
  52.4202288  64.4640734 123.6465206  51.8939902  63.1678781 124.2251652
  60.4356432  51.2150740 120.7466928  61.3474288  51.4478127 120.5714626
  59.9266079  51.7987784 120.1842007  59.0426015  56.1976559 128.1380510
  58.4134877  56.3622273 127.4356577  58.6551677  56.6118168 128.9091474
  62.9215246  57.1330996 125.4924873  62.2366285  57.5129898 124.9421907
  63.0059096  57.7426323 126.2256821  54.5953976  55.9350967 125.4030595
  55.0592322  56.2138670 124.6135217  54.3310775  55.0334411 125.2203685
  53.5322862  52.0574119 122.2120160  54.2346906  52.5095163 122.6794086
  53.2003491  51.4157938 122.8400053  61.2912006  57.6562911 130.2642574
  62.1129450  57.2543098 129.9825256  61.2874409  57.5531145 131.2158690
  69.3817999  54.0001659 126.6127546  68.6281707  53.4309057 126.4571550
  69.5165540  53.9664324 127.5598180  54.7716627  58.8715062 122.2882265
  54.6362302  59.7166597 122.7167113  55.3126440  59.0734339 121.5248199
  48.2246025  56.3890500 122.8610190  48.7370545  57.1833750 123.0115755
  48.8768737  55.6916790 122.7943792  50.0340909  59.5056256 124.9432943
  50.2107538  60.4274221 124.7553927  50.8297743  59.1914675 125.3727323
  51.1572225  61.0234430 130.9443286  51.7079650  60.8951493 130.1720280
  50.3183701  61.3229319 130.5938178  46.1894941  54.7179154 123.6369761
  47.0270163  55.1276162 123.4203468  46.3673209  53.7778596 123.6069955
  58.0859373  52.3854235 119.3253594  57.5705997  53.1558839 119.5641981
  57.8136682  51.7119371 119.9486655  55.6706484  47.2303935 124.3838832
  54.8148081  46.8410786 124.2044471  56.0833436  47.3095896 123.5238618
  63.0593648  55.1386589 121.2606767  62.2823090  54.7997749 120.8161929
  63.7385129  55.1439212 120.5861732  57.8745677  50.2581327 121.1513375
  57.5695812  50.5727476 122.0023518  58.8276119  50.3362747 121.1940708
  56.3192108  56.4171550 122.8006329  55.7913470  55.6824310 122.4879566
  55.8179611  57.1946226 122.5546297  61.2984954  54.6120571 127.9173375
  60.6408629  55.3019832 128.0053504  62.1025354  55.0017003 128.2607361
  60.1090413  52.9664943 125.9677317  60.6222295  53.5994935 126.4699027
  60.7591637  52.3666139 125.6020677  51.3780423  49.1095677 119.1808826
  50.5417735  49.4470364 119.5018100  51.2385193  48.9744657 118.2435963
  54.4644709  54.2351760 115.8041302  53.5571770  54.0041014 116.0032451
  54.9615741  53.4389380 115.9915283  57.3712787  62.9449268 118.7237988
  56.6974486  63.2480964 119.3322946  57.7578609  63.7478348 118.3743445
  57.3706292  51.8405815 123.3438338  58.1178111  52.3527212 123.0345460
  57.6397881  51.5189867 124.2042731  55.6432942  54.3364355 120.3265292
  54.7344161  54.0523388 120.4237762  55.6728026  54.7563434 119.4668599
  60.8752209  57.9470945 124.0956460  60.4214537  57.1061855 124.1521650
  60.2446176  58.5832343 124.4331240  59.8185129  48.8762931 125.3257127
  59.0807886  48.3640317 125.6567370  60.0711903  48.4363312 124.5140404
  59.3185149  59.7847441 125.0306278  59.6108123  60.3452499 124.3118643
  59.8283769  60.0776002 125.7859437  54.1917836  51.9492976 126.4275087
  54.2466446  50.9966812 126.3517564  53.3809038  52.1052415 126.9116386
  55.3409030  55.8773099 117.6653371  54.9028460  55.1608958 117.2059008
  56.0819471  56.1049214 117.1038462  52.1310196  50.5670036 124.1865466
  51.3178062  50.8664206 124.5930658  52.6269190  50.1725724 124.9039948
  54.2818774  60.5627793 126.1199731  54.2394953  60.7888639 125.1908263
  55.1981473  60.3291167 126.2685532  63.4582145  54.1530296 123.7229689
  63.3200043  54.3431892 122.7950878  63.1018363  54.9149679 124.1797740
  63.4851524  56.2206823 128.7340961  63.9188031  56.1282112 129.5824015
  64.1983105  56.1964323 128.0960977  52.3984575  57.4390822 125.9161694
  53.1925173  56.9441142 125.7144269  51.6876267  56.9108685 125.5529399
  57.2179419  59.8208917 130.2674061  57.2716441  60.3899853 131.0351777
  56.3494200  59.9910802 129.9028098  48.7067338  51.5833903 121.9921446
  47.7764926  51.5218359 122.2091408  48.8024810  51.0609856 121.1958088
  64.3467074  56.2630524 131.2673846  64.5402964  57.1676334 131.5133121
  64.2467692  55.8037943 132.1012431  54.9755851  58.0119844 129.5959531
  54.8366936  57.6438628 130.4685469  54.1870447  58.5267483 129.4243488
  55.5704003  63.1128940 120.9385067  55.7455758  62.6416983 121.7530690
  54.8836791  63.7394706 121.1666328  56.5261066  57.3901446 126.9848368
  56.1910898  57.3502216 127.8806018  56.0265011  56.7246162 126.5118779
  59.4620257  54.7357481 117.2585428  58.8449428  54.0104309 117.1618481
  58.9936746  55.4966841 116.9152502  50.1365088  66.2618303 127.7124927
  50.3761686  66.8936827 128.3903946  49.2934284  65.9106343 127.9990287
  51.2518803  48.9542905 116.3806732  50.3748270  48.8331706 116.0168979
  51.7276556  48.1628983 116.1285621  54.6492950  62.0697425 130.1166431
  54.5763121  62.8752397 130.6285736  54.2070343  62.2689391 129.2914453
  54.4382729  61.3069195 123.6269253  53.6550251  61.8490875 123.7207477
  55.1375475  61.8243175 124.0263494  65.6009137  52.8204190 127.9121750
  65.5899013  53.7028906 127.5415683  64.7326516  52.4675741 127.7176287
  57.1091633  61.9684259 132.2724590  57.8219605  62.6031724 132.2000491
  56.6181662  62.0648125 131.4564592  58.8309160  55.8735512 123.8441882
  57.8965439  55.9936974 123.6746586  59.0085829  54.9707979 123.5801892
  62.2181712  51.7152831 124.3791916  62.6842164  52.5480823 124.3052218
  62.6689212  51.2497813 125.0837174  60.2857943  58.0596652 121.3778068
  60.5617787  57.9453247 122.2871942  59.4162441  57.6614137 121.3390241
  56.9212007  62.3083003 125.0210881  57.1034401  61.4904659 125.4838634
  57.7444993  62.5250696 124.5835771  57.2554172  61.2351188 122.2825930
  57.7841939  60.7243643 121.6696092  57.5182392  60.9193719 123.1471463
  50.6109920  62.2866305 125.0423706  49.9420295  62.7712433 124.5587746
  50.4722790  62.5335526 125.9567084  54.7515189  64.3210049 131.6406364
  55.3033497  64.4841670 132.4055449  55.0921382  64.9114486 130.9686389
  45.9797497  50.5484760 121.8219638  46.2750938  49.6395439 121.7686692
  45.0785533  50.5272500 121.5000640  57.8883576  62.2692024 128.6270046
  57.7634715  61.4681764 128.1180992  58.5462667  62.7638218 128.1384016
  59.9518484  60.0701044 130.2549596  59.0048820  59.9506395 130.1827923
  60.3001257  59.1823542 130.3375858  56.9564918  59.8653760 126.4553949
  56.8089880  58.9370468 126.6361519  57.7818411  59.8873851 125.9711024
  50.8227162  48.5171828 122.3134441  51.1623234  49.0457749 121.5913049
  51.2699282  48.8552234 123.0893007  60.5599039  60.6882319 127.5418821
  61.4845587  60.4825181 127.4043273  60.3914343  60.4398720 128.4508163
  52.8095309  47.0146449 120.5127734  53.5303672  47.3927702 120.0091450
  52.1860613  47.7335326 120.6162712  56.9526432  47.7191598 121.4486066
  57.1690046  48.6016236 121.1474894  56.4720499  47.3277812 120.7191708
  60.3494356  61.2067987 122.8980913  60.5231233  60.6414409 122.1454765
  60.8423247  62.0068882 122.7160403  66.2033747  53.9704410 124.5171213
  66.6464893  53.2211735 124.1190336  65.3260257  53.9614546 124.1344945
  61.3369528  60.5234751 119.9977811  62.0320433  61.1441444 120.2165126
  61.6792678  59.6730102 120.2730189  63.2360951  57.9734457 121.5265142
  63.7612275  58.3121729 120.8014462  63.1483304  57.0381472 121.3428277
  54.9201612  64.0406440 125.8860395  54.4806602  63.5482819 126.5793252
  55.6709729  63.4979408 125.6452470  47.3993951  60.2317981 125.8885023
  48.2251971  59.9321753 125.5083667  47.0488003  59.4625603 126.3374812
  52.3675484  59.5844449 127.9582697  51.7455494  58.9215154 127.6584925
  53.0380351  59.6105581 127.2756345  51.9288991  58.1348372 121.4341157
  52.0777111  58.8183837 120.7807830  52.7355435  58.1153462 121.9490613
  65.7466612  55.4409648 126.9093660  66.5813503  55.8799452 127.0731221
  65.8825740  54.9648301 126.0901906  49.6841624  54.1613550 122.4402226
  49.4387666  53.2575880 122.6382436  49.8537539  54.1630700 121.4981704
  48.9537272  49.8941908 119.9388388  48.2606517  49.9686262 119.2828424
  48.7089024  49.1302251 120.4609905  55.4284397  60.6296503 118.9052905
  54.8558364  61.2486690 118.4523377  56.0017190  61.1795864 119.4392827
  58.6481656  60.9133653 120.0361487  59.5812330  60.8479215 120.2394363
  58.5604869  61.7489920 119.5776020  61.2769673  60.2299523 116.9965435
  61.1983305  59.8959387 117.8901193  62.0979340  60.7221291 116.9956907
  63.9747864  53.0961263 130.2041753  63.9424184  52.1577263 130.3901437
  64.5848488  53.1745299 129.4707578  55.8131195  51.9657315 116.2468957
  56.7590300  51.8363524 116.3157375  55.4345440  51.2271977 116.7238385
  69.7924414  54.1577269 129.3447790  70.5227803  53.8962557 129.9055493
  69.1831360  53.4205991 129.3849858  67.8739711  52.2985132 129.9422241
  67.1472875  52.1641097 129.3338733  67.4586998  52.6061961 130.7478959
  53.9974112  49.8907292 116.1823843  53.0905568  49.5940405 116.2586556
  54.2750093  49.5937110 115.3158129  55.6136178  44.4344182 122.3368084
  54.8036906  44.0891267 122.7123330  56.3020595  44.1251725 122.9255695
  52.7672897  46.7494227 116.3235822  53.6292061  47.0749125 116.5831639
  52.9523241  45.9625723 115.8108888  60.9205533  45.6222754 123.4671045
  60.3404202  46.2807558 123.0849097  60.6541466  44.8000098 123.0558462
  59.7030411  47.7822844 122.5227393  58.8156266  48.0672495 122.3047588
  60.1184400  47.6216607 121.6754670  63.0544948  47.8069365 126.2381732
  63.8305338  48.2965817 126.5106349  62.3293082  48.2327419 126.6953602
  65.4917506  48.5196984 127.2955673  66.0861997  48.2792720 126.5848981
  65.5644090  47.8004115 127.9229209  47.7114662  62.3630595 127.6098838
  47.5769130  61.6030996 127.0436836  47.2946724  63.0871495 127.1427627
  58.8473625  57.5467519 116.6175413  59.5509475  57.7517521 117.2333069
  58.1236274  58.1144281 116.8824496  59.6771435  53.2977380 122.7377683
  59.6206637  53.7545931 121.8985316  60.2299778  52.5368064 122.5600526
  63.4876241  49.0867112 123.5627803  63.2313175  48.6863747 124.3936010
  62.8629109  49.8010906 123.4377942  67.7988579  51.8263185 126.0699094
  67.2388137  51.8956374 126.8430656  67.1932082  51.6504170 125.3498590
  50.8683788  63.2599912 127.8217280  50.7516172  64.2045345 127.7195971
  50.0476234  62.9573474 128.2103080  60.7560322  57.9850048 118.6673873
  61.5905926  57.5531246 118.4851348  60.5944665  57.8132062 119.5950767
  60.4106214  54.4882161 120.0330212  60.3555018  54.3226433 119.0918656
  59.7852270  55.1958194 120.1892402  53.7202340  43.9890270 119.6115531
  53.7081010  44.9332110 119.7683802  54.6125762  43.8060416 119.3174992
  51.8938302  63.9128174 131.0373209  52.7965549  63.9451784 131.3539704
  51.6675672  62.9828625 131.0519545  53.6491904  62.6659161 127.6983287
  52.6987535  62.6661022 127.5847660  53.9524390  61.9191895 127.1819322
  62.0521119  70.3082603 124.6887465  61.4885984  70.2172540 123.9203753
  61.9373514  69.4882508 125.1689958  59.5985551  71.8033795 127.5271686
  60.3906843  71.4624620 127.1117985  59.8382201  71.9128770 128.4473839
  67.6320678  73.9753571 120.0001930  66.9808658  74.5607652 119.6135944
  68.4265041  74.5059766 120.0596968  61.5576305  71.0642708 120.3989065
  62.3307181  70.5171695 120.2601940  61.9101704  71.9286958 120.6103526
  63.8942583  67.2235374 118.0307515  64.1468104  66.7016896 117.2690978
  62.9567142  67.0601520 118.1334198  68.9385866  66.2271153 125.8382258
  69.7248955  65.8090576 125.4872675  69.2024570  67.1317245 126.0063906
  69.1095943  71.6644003 120.5370915  68.4741776  71.7378630 121.2491819
  68.7793350  72.2537602 119.8589994  63.6138872  69.1263480 120.2331890
  63.4975130  68.4508384 120.9012974  63.7241132  68.6395854 119.4164043
  65.9570413  68.5873627 123.9378579  65.5928620  68.0604248 124.6491500
  66.8137529  68.1972097 123.7645064  65.5975900  63.6163527 118.9339927
  65.7650302  64.4843764 119.3010398  65.4073069  63.7790809 118.0101217
  61.8063714  68.5294303 126.6342462  60.8814211  68.3970517 126.8420154
  62.0548128  69.3088522 127.1312404  65.5765121  66.0721185 119.9186594
  65.4564746  66.5178235 120.7572074  64.8817709  66.4206502 119.3600132
  59.1672525  68.1727576 127.4686251  59.2964907  68.4262055 128.3825663
  58.4869977  68.7655284 127.1490906  71.2750187  66.5442658 120.7466928
  72.1868043  66.7770045 120.5714626  70.7659834  67.1279702 120.1842007
  68.6186162  62.7200694 128.9956789  67.7570641  63.0181947 129.2873527
  68.6448596  62.9371093 128.0637822  65.4347731  71.2642884 125.4030595
  65.8986076  71.5430587 124.6135217  65.1704529  70.3626329 125.2203685
  64.3716617  67.3866037 122.2120160  65.0740660  67.8387080 122.6794086
  64.0397245  66.7449856 122.8400053  58.1141951  65.6449589 127.5137293
  57.3241005  65.9007118 127.0377404  58.6053198  66.4597927 127.6189334
  60.0656696  66.0094169 124.4720770  59.2687860  66.1212863 124.9904266
  59.8382289  66.3480821 123.6061661  56.3979654  65.8980080 129.9452284
  56.6487692  66.7827090 130.2109860  56.9339202  65.7184681 129.1727376
  65.6110382  74.2006979 122.2882265  65.4756056  75.0458515 122.7167113
  66.1520194  74.4026257 121.5248199  59.0639779  71.7182417 122.8610190
  59.5764300  72.5125668 123.0115755  59.7162492  71.0208708 122.7943792
  60.8734664  74.8348174 124.9432943  61.0501292  75.7566138 124.7553927
  61.6691497  74.5206593 125.3727323  68.9602845  57.7237541 130.8181159
  68.6167115  58.6139183 130.7420269  69.3281808  57.5339199 129.9550744
  57.0288696  70.0471072 123.6369761  57.8663918  70.4568080 123.4203468
  57.2066963  69.1070514 123.6069955  68.9253128  67.7146152 119.3253594
  68.4099751  68.4850757 119.5641981  68.6530436  67.0411289 119.9486655
  66.5100239  62.5595853 124.3838832  65.6541835  62.1702704 124.2044471
  66.9227191  62.6387814 123.5238618  68.0399386  60.0942196 128.7830392
  67.5364181  60.0572332 127.9698197  68.3329992  61.0034939 128.8427048
  64.2842271  60.1780926 127.7896574  65.1495268  59.9823735 127.4302463
  64.3519780  59.9491278 128.7165930  73.8987402  70.4678507 121.2606767
  73.1216845  70.1289667 120.8161929  74.5778883  70.4731130 120.5861732
  68.7139431  65.5873244 121.1513375  68.4089567  65.9019394 122.0023518
  69.6669873  65.6654664 121.1940708  67.1585863  71.7463468 122.8006329
  66.6307224  71.0116227 122.4879566  66.6573366  72.5238144 122.5546297
  61.8904591  62.4083134 125.1612940  62.4648342  62.1858316 124.4286133
  62.4775573  62.4771829 125.9141542  62.2174178  64.4387595 119.1808826
  61.3811490  64.7762282 119.5018100  62.0778947  64.3036575 118.2435963
  64.1927258  59.2824383 123.8888010  63.5391671  58.9673400 123.2644625
  64.1507732  58.6600123 124.6147833  65.3038463  69.5643678 115.8041302
  64.3965525  69.3332931 116.0032451  65.8009495  68.7681297 115.9915283
  68.2106542  78.2741185 118.7237988  67.5368241  78.5772882 119.3322946
  68.5972364  79.0770266 118.3743445  67.4264999  65.7706317 128.2135657
  66.5087560  65.9921264 128.0557345  67.8425142  65.8452627 127.3547365
  68.2100046  67.1697732 123.3438338  68.9571865  67.6819129 123.0345460
  68.4791636  66.8481785 124.2042731  66.4826697  69.6656273 120.3265292
  65.5737916  69.3815306 120.4237762  66.5121780  70.0855351 119.4668599
  70.6578884  64.2054848 125.3257127  69.9201640  63.6932235 125.6567370
  70.9105657  63.7655230 124.5140404  70.7590511  56.9831100 125.9198896
  71.0649388  56.1228464 125.6324811  71.4843116  57.5748721 125.7197890
  57.0514867  67.3861787 124.3080494  56.8539267  66.7931148 123.5831561
  56.4961531  67.0813997 125.0256433  65.0311591  67.2784894 126.4275087
  65.0860200  66.3258730 126.3517564  64.2202793  67.4344333 126.9116386
  66.1802784  71.2065017 117.6653371  65.7422214  70.4900876 117.2059008
  66.9213225  71.4341131 117.1038462  62.9703950  65.8961953 124.1865466
  62.1571816  66.1956124 124.5930658  63.4662945  65.5017642 124.9039948
  74.2975899  69.4822214 123.7229689  74.1593798  69.6723810 122.7950878
  73.9412118  70.2441596 124.1797740  62.4618025  63.4680309 129.8026701
  63.1017405  63.3269068 129.1049664  61.6295556  63.1814822 129.4265303
  63.2378329  72.7682739 125.9161694  64.0318928  72.2733059 125.7144269
  62.5270022  72.2400602 125.5529399  59.5461093  66.9125821 121.9921446
  58.6158681  66.8510276 122.2091408  59.6418565  66.3901774 121.1958088
  59.4646642  63.4380634 124.5799688  59.7253459  64.3525967 124.4708848
  60.2863814  62.9705076 124.7296301  60.9371567  64.8518391 131.7498512
  61.6094620  64.6435753 131.1011161  60.1101354  64.6540477 131.3103745
  66.4097757  78.4420858 120.9385067  66.5849513  77.9708901 121.7530690
  65.7230545  79.0686624 121.1666328  70.3014012  70.0649398 117.2585428
  69.6843183  69.3396226 117.1618481  69.8330500  70.8258758 116.9152502
  62.0912558  64.2834823 116.3806732  61.2142024  64.1623623 116.0168979
  62.5670311  63.4920901 116.1285621  53.6114698  69.0711982 126.4748240
  54.2985738  68.7573712 125.8869255  53.4562827  69.9753347 126.2015491
  58.4149420  63.9602179 130.9033263  58.3307609  63.3527848 130.1683673
  57.5932127  64.4511197 130.9042760  68.5873134  62.4455742 126.2703458
  69.0841834  61.6925705 125.9504529  67.8160116  62.4820059 125.7046668
  69.6702915  71.2027430 123.8441882  68.7359193  71.3228892 123.6746586
  69.8479583  70.2999896 123.5801892  65.1708103  64.5873125 125.9975143
  64.8005890  64.0344166 126.6856048  65.6667195  63.9831259 125.4450143
  73.0575466  67.0444749 124.3791916  73.5235918  67.8772740 124.3052218
  73.5082967  66.5789730 125.0837174  71.1251697  73.3888570 121.3778068
  71.4011541  73.2745165 122.2871942  70.2556196  72.9906055 121.3390241
  71.0292129  59.4125336 128.4182817  70.1155209  59.6429563 128.5865024
  71.4585230  59.4963780 129.2696850  68.0947927  76.5643106 122.2825930
  68.6235693  76.0535561 121.6696092  68.3576146  76.2485636 123.1471463
  53.1882674  67.1512576 128.7465707  53.2266774  66.6176166 129.5402825
  52.6822967  66.6247781 128.1276684  60.5673436  61.9977116 132.2428249
  60.6314763  62.8591947 131.8305647  60.5040557  61.3851118 131.5100607
  56.8191252  65.8776678 121.8219638  57.1144693  64.9687356 121.7686692
  55.9179287  65.8564417 121.5000640  60.3485499  63.9532674 127.8047187
  59.6272084  64.5668642 127.6654660  61.1378754  64.4890439 127.7263833
  58.5479093  63.5590775 121.9458963  58.2191799  62.6788154 121.7634069
  58.9018464  63.5038444 122.8335352  61.6620916  63.8463745 122.3134441
  62.0016989  64.3749666 121.5913049  62.1093037  64.1844151 123.0893007
  64.3564357  62.2300796 131.7637509  64.0161178  61.4308609 132.1658189
  63.6503364  62.5302507 131.1914342  65.0080829  59.3150108 130.2164832
  65.8306898  58.8410587 130.0943722  65.2518893  60.0940592 130.7163518
  63.6489064  62.3438367 120.5127734  64.3697426  62.7219620 120.0091450
  63.0254368  63.0627244 120.6162712  67.7920186  63.0483516 121.4486066
  68.0083801  63.9308154 121.1474894  67.3114254  62.6569729 120.7191708
  62.5319408  66.0069229 128.0256811  62.3863989  66.3209532 128.9181092
  62.0544611  66.6254129 127.4727709  64.3915791  62.9971777 128.0737700
  64.3777359  62.1012870 127.7369998  65.1088219  63.0042441 128.7075986
  66.2441921  63.4309117 130.1190828  65.9859699  64.3526188 130.1175158
  65.7126962  63.0339552 130.8091292  57.0065070  68.5474573 130.9644472
  56.4618538  69.3234381 131.0964746  57.8844420  68.8945378 130.8063593
  63.7952687  61.8786157 123.3425270  63.9168598  60.9502803 123.5416158
  63.5054729  61.8924843 122.4303586  66.6643877  59.5641068 126.4791990
  66.6865574  59.6280401 125.5243970  67.0811936  58.7245576 126.6732496
  72.1763283  75.8526669 119.9977811  72.8714187  76.4733361 120.2165126
  72.5186433  75.0022020 120.2730189  74.0754706  73.3026374 121.5265142
  74.6006030  73.6413647 120.8014462  73.9877058  72.3673390 121.3428277
  58.2387706  75.5609898 125.8885023  59.0645725  75.2613670 125.5083667
  57.8881758  74.7917521 126.3374812  56.4396311  73.4796225 126.8473957
  55.6028219  73.0518399 126.6657958  56.4119956  73.6728668 127.7844748
  62.7682746  73.4640290 121.4341157  62.9170866  74.1475754 120.7807830
  63.5749189  73.4445380 121.9490613  60.5235379  69.4905468 122.4402226
  60.2781421  68.5867798 122.6382436  60.6931293  69.4922618 121.4981704
  59.7931026  65.2233825 119.9388388  59.1000271  65.2978180 119.2828424
  59.5482778  64.4594169 120.4609905  68.4644683  56.7829427 127.3427878
  68.7446436  56.1152616 127.9688305  69.2495290  56.9758522 126.8302542
  66.2678151  75.9588420 118.9052905  65.6952118  76.5778608 118.4523377
  66.8410945  76.5087782 119.4392827  69.4875411  76.2425571 120.0361487
  70.4206084  76.1771132 120.2394363  69.3998624  77.0781837 119.5776020
  72.1163428  75.5591441 116.9965435  72.0377059  75.2251304 117.8901193
  72.9373094  76.0513209 116.9956907  66.6524950  67.2949233 116.2468957
  67.5984054  67.1655441 116.3157375  66.2739195  66.5563895 116.7238385
  72.6246834  58.9605239 126.2095849  72.4271655  58.6520327 127.0939181
  73.2346540  59.6866878 126.3393779  64.8367867  65.2199210 116.1823843
  63.9299322  64.9232322 116.2586556  65.1143848  64.9229028 115.3158129
  55.7545807  66.5405573 126.6322889  55.4348592  65.6870881 126.3397263
  55.2079235  66.7554151 127.3880856  66.4529933  59.7636099 122.3368084
  65.6430661  59.4183184 122.7123330  67.1414349  59.4543643 122.9255695
  68.3820481  58.8414146 123.9592380  68.9351519  59.2609599 124.6182404
  68.6190567  57.9149894 124.0015336  63.6066651  62.0786145 116.3235822
  64.4685815  62.4041043 116.5831639  63.7916996  61.2917641 115.8108888
  55.6234067  70.1608484 128.6016011  54.9297539  69.7462437 128.0885965
  56.3707058  70.2029021 128.0049429  71.7599288  60.9514671 123.4671045
  71.1797957  61.6099475 123.0849097  71.4935221  60.1292016 123.0558462
  70.2102854  60.3519729 125.6692365  70.7102633  60.4636263 124.8606684
  70.8538462  60.0480782 126.3093173  57.5370810  70.0926738 126.4782025
  57.5141498  70.1914426 125.5263908  57.8471446  70.9391889 126.7999192
  70.5424166  63.1114762 122.5227393  69.6550021  63.3964412 122.3047588
  70.9578155  62.9508525 121.6754670  73.8938702  63.1361283 126.2381732
  74.6699092  63.6257735 126.5106349  73.1686836  63.5619337 126.6953602
  69.6867379  72.8759436 116.6175413  70.3903230  73.0809439 117.2333069
  68.9630028  73.4436198 116.8824496  70.5165190  68.6269298 122.7377683
  70.4600391  69.0837849 121.8985316  71.0693532  67.8659982 122.5600526
  74.3269996  64.4159029 123.5627803  74.0706930  64.0155665 124.3936010
  73.7022864  65.1302823 123.4377942  71.5954077  73.3141965 118.6673873
  72.4299681  72.8823164 118.4851348  71.4338420  73.1423979 119.5950767
  71.2499969  69.8174079 120.0330212  71.1948773  69.6518350 119.0918656
  70.6246024  70.5250112 120.1892402  56.0392484  65.0542143 133.8591635
  56.6851348  64.5441097 134.3478860  55.8309635  65.7910825 134.4335060
  64.5596094  59.3182188 119.6115531  64.5474764  60.2624028 119.7683802
  65.4519516  59.1352333 119.3174992  68.3748214  55.9124964 123.8661468
  67.6080610  55.3583451 124.0118150  68.7858919  55.9846833 124.7275619
  73.0567932  79.7679513 119.1808826  72.2205244  80.1054199 119.5018100
  72.9172702  79.6328493 118.2435963  72.9306312  79.6126740 116.3806732
  72.0535779  79.4915541 116.0168979  73.4064065  78.8212819 116.1285621
  70.6324781  80.5525743 119.9388388  69.9394026  80.6270098 119.2828424
  70.3876533  79.7886086 120.4609905  75.6761621  80.5491127 116.1823843
  74.7693077  80.2524240 116.2586556  75.9537602  80.2520945 115.3158129
  74.4460406  77.4078062 116.3235822  75.3079570  77.7332961 116.5831639
  74.6310750  76.6209558 115.8108888  75.3989849  74.6474105 119.6115531
  75.3868519  75.5915945 119.7683802  76.2913271  74.4644251 119.3174992
  46.5319034  24.6219472 105.4483295  45.8580733  24.9251169 106.0568252
  46.9184856  25.4248553 105.0988752  50.4975775  22.2004956 106.7223118
  51.1926680  22.8211649 106.9410432  50.8398925  21.3500307 106.9975496
  44.5890643  22.3066708 105.6298211  44.0164611  22.9256895 105.1768683
  45.1623437  22.8566069 106.1638133  47.8087903  22.5903858 106.7606794
  48.7418576  22.5249419 106.9639669  47.7211116  23.4260125 106.3021326
  50.4375920  21.9069728 103.7210741  50.3589551  21.5729592 104.6146499
  51.2585587  22.3991496 103.7202214  48.0079872  19.2237724 103.3420720
  48.7115722  19.4287726 103.9578375  47.2842520  19.7914485 103.6069803
  49.9166569  19.6620253 105.3919180  50.7512173  19.2301451 105.2096654
  49.7550912  19.4902266 106.3196074  58.5450844  30.1789904 115.4874356
  59.1829254  30.0596651 114.7837696  58.4271687  31.1270748 115.5462309
  51.2127366  31.9852808 111.4132772  50.6492231  31.8942745 110.6449060
  51.0979761  31.1652713 111.8935265  56.7926925  35.6523776 106.7247237
  56.1414905  36.2377856 106.3381251  57.5871288  36.1829971 106.7842274
  50.7182552  32.7412913 107.1234371  51.4913428  32.1941900 106.9847247
  51.0707951  33.6057163 107.3348833  53.0548830  28.9005579 104.7552821
  53.3074351  28.3787101 103.9936284  52.1173389  28.7371725 104.8579505
  58.0992113  27.9041358 112.5627564  58.8855202  27.4860781 112.2117981
  58.3630817  28.8087450 112.7309213  58.2702190  33.3414208 107.2616221
  57.6348023  33.4148835 107.9737126  57.9399596  33.9307807 106.5835300
  63.5000540  27.8416591 113.4660543  64.2325712  27.2715808 113.6998372
  62.7439895  27.4538191 113.9067049  52.7745119  30.8033685 106.9577196
  52.6581377  30.1278589 107.6258280  52.8847378  30.3166059 106.1409349
  55.1176659  30.2643832 110.6623885  54.7534867  29.7374453 111.3736807
  55.9743775  29.8742301 110.4890371  54.7582146  25.2933732 105.6585234
  54.9256549  26.1613968 106.0255705  54.5679316  25.4561014 104.7346523
  54.7371367  27.7491390 106.6431901  54.6170993  28.1948440 107.4817381
  54.0423956  28.0976707 106.0845439  52.4978259  40.5195031 110.2922032
  52.4202289  41.4702856 110.3710513  51.8939903  40.1740904 110.9496958
  60.4356434  28.2212863 107.4712235  61.3474290  28.4540250 107.2959932
  59.9266081  28.8049907 106.9087313  59.0426016  33.2038681 114.8625816
  58.4134878  33.3684395 114.1601884  58.6551678  33.6180291 115.6336780
  62.9215248  34.1393119 112.2170180  62.2366286  34.5192020 111.6667213
  63.0059097  34.7488446 112.9502128  54.5953978  32.9413089 112.1275901
  55.0592323  33.2200792 111.3380524  54.3310776  32.0396534 111.9448992
  53.5322864  29.0636242 108.9365466  54.2346907  29.5157285 109.4039393
  53.2003492  28.4220061 109.5645360  61.2912007  34.6625034 116.9887881
  62.1129451  34.2605221 116.7070563  61.2874410  34.5593268 117.9403997
  69.3818000  31.0063782 113.3372852  68.6281709  30.4371180 113.1816857
  69.5165542  30.9726446 114.2843487  54.7716628  35.8777184 109.0127572
  54.6362303  36.7228720 109.4412420  55.3126441  36.0796462 108.2493506
  48.2246026  33.3952622 109.5855497  48.7370546  34.1895873 109.7361061
  48.8768739  32.6978913 109.5189098  50.0340910  36.5118379 111.6678250
  50.2107539  37.4336343 111.4799234  50.8297744  36.1976798 112.0972630
  51.1572226  38.0296552 117.6688592  51.7079651  37.9013616 116.8965586
  50.3183702  38.3291441 117.3183485  46.1894943  31.7241277 110.3615067
  47.0270165  32.1338285 110.1448775  46.3673210  30.7840719 110.3315261
  58.0859375  29.3916357 106.0498900  57.5705998  30.1620962 106.2887288
  57.8136683  28.7181493 106.6731962  55.6706486  24.2366058 111.1084139
  54.8148082  23.8472908 110.9289777  56.0833437  24.3158019 110.2483924
  63.0593649  32.1448712 107.9852074  62.2823092  31.8059871 107.5407236
  63.7385130  32.1501335 107.3107039  57.8745678  27.2643449 107.8758681
  57.5695813  27.5789599 108.7268825  58.8276120  27.3424869 107.9186014
  56.3192110  33.4233673 109.5251635  55.7913471  32.6886432 109.2124873
  55.8179612  34.2008349 109.2791604  61.2984956  31.6182693 114.6418682
  60.6408630  32.3081955 114.7298810  62.1025355  32.0079125 114.9852668
  60.1090414  29.9727066 112.6922623  60.6222296  30.6057058 113.1944333
  60.7591638  29.3728261 112.3265984  51.3780424  26.1157800 105.9054132
  50.5417737  26.4532487 106.2263407  51.2385194  25.9806780 104.9681269
  54.4644710  31.2413883 102.5286608  53.5571772  31.0103136 102.7277757
  54.9615742  30.4451502 102.7160590  57.3712789  39.9511390 105.4483295
  56.6974487  40.2543087 106.0568252  57.7578611  40.7540470 105.0988752
  57.3706293  28.8467937 110.0683644  58.1178112  29.3589334 109.7590766
  57.6397883  28.5251990 110.9288038  55.6432943  31.3426478 107.0510599
  54.7344163  31.0585511 107.1483068  55.6728027  31.7625556 106.1913905
  60.8752211  34.9533067 110.8201766  60.4214538  34.1123977 110.8766957
  60.2446177  35.5894466 111.1576546  59.8185130  25.8825053 112.0502434
  59.0807887  25.3702440 112.3812676  60.0711904  25.4425435 111.2385710
  59.3185150  36.7909564 111.7551584  59.6108124  37.3514621 111.0363950
  59.8283771  37.0838125 112.5104743  54.1917837  28.9555098 113.1520394
  54.2466447  28.0028935 113.0762870  53.3809039  29.1114538 113.6361692
  55.3409031  32.8835221 104.3898677  54.9028461  32.1671080 103.9304314
  56.0819472  33.1111336 103.8283769  52.1310197  27.5732158 110.9110773
  51.3178063  27.8726329 111.3175965  52.6269191  27.1787847 111.6285255
  54.2818775  37.5689915 112.8445037  54.2394954  37.7950761 111.9153569
  55.1981474  37.3353290 112.9930839  63.4582146  31.1592419 110.4474996
  63.3200044  31.3494015 109.5196185  63.1018365  31.9211801 110.9043047
  63.4851525  33.2268946 115.4586267  63.9188032  33.1344235 116.3069321
  64.1983106  33.2026446 114.8206283  52.3984576  34.4452944 112.6407000
  53.1925174  33.9503264 112.4389575  51.6876268  33.9170807 112.2774706
  57.2179420  36.8271040 116.9919368  57.2716443  37.3961976 117.7597084
  56.3494202  36.9972925 116.6273405  48.7067339  28.5896026 108.7166753
  47.7764927  28.5280481 108.9336715  48.8024811  28.0671979 107.9203394
  64.3467075  33.2692646 117.9919153  64.5402965  34.1738457 118.2378428
  64.2467693  32.8100065 118.8257738  54.9755852  35.0181966 116.3204837
  54.8366938  34.6500751 117.1930775  54.1870448  35.5329606 116.1488795
  55.5704004  40.1191063 107.6630374  55.7455760  39.6479106 108.4775996
  54.8836792  40.7456829 107.8911635  56.5261067  34.3963569 113.7093675
  56.1910900  34.3564339 114.6051325  56.0265013  33.7308285 113.2364085
  59.4620259  31.7419603 103.9830735  58.8449429  31.0166431 103.8863787
  58.9936747  32.5028963 103.6397809  50.1365089  43.2680425 114.4370234
  50.3761687  43.8998949 115.1149253  49.2934286  42.9168465 114.7235593
  51.2518805  25.9605027 103.1052039  50.3748271  25.8393828 102.7414286
  51.7276558  25.1691106 102.8530928  54.6492951  39.0759548 116.8411738
  54.5763123  39.8814519 117.3531043  54.2070344  39.2751514 116.0159759
  54.4382731  38.3131318 110.3514560  53.6550253  38.8552998 110.4452784
  55.1375476  38.8305297 110.7508801  65.6009138  29.8266313 114.6367056
  65.5899014  30.7091028 114.2660990  64.7326518  29.4737864 114.4421593
  57.1091635  38.9746382 118.9969897  57.8219607  39.6093847 118.9245798
  56.6181663  39.0710248 118.1809898  58.8309161  32.8797634 110.5687188
  57.8965440  32.9999097 110.3991893  59.0085830  31.9770101 110.3047198
  62.2181713  28.7214954 111.1037222  62.6842165  29.5542945 111.0297525
  62.6689213  28.2559935 111.8082481  60.2857944  35.0658775 108.1023374
  60.5617788  34.9515370 109.0117249  59.4162443  34.6676260 108.0635548
  56.9212008  39.3145126 111.7456188  57.1034402  38.4966782 112.2083940
  57.7444994  39.5312818 111.3081078  57.2554173  38.2413311 109.0071237
  57.7841940  37.7305766 108.3941399  57.5182393  37.9255841 109.8716770
  50.6109921  39.2928428 111.7669013  49.9420297  39.7774555 111.2833053
  50.4722791  39.5397648 112.6812391  54.7515190  41.3272171 118.3651671
  55.3033498  41.4903793 119.1300756  55.0921383  41.9176609 117.6931696
  45.9797498  27.5546883 108.5464945  46.2750940  26.6457561 108.4931998
  45.0785534  27.5334622 108.2245947  57.8883577  39.2754147 115.3515353
  57.7634717  38.4743887 114.8426299  58.5462668  39.7700340 114.8629323
  59.9518486  37.0763167 116.9794903  59.0048821  36.9568518 116.9073230
  60.3001259  36.1885665 117.0621165  56.9564919  36.8715883 113.1799255
  56.8089881  35.9432590 113.3606825  57.7818412  36.8935974 112.6956331
  50.8227163  25.5233950 109.0379748  51.1623236  26.0519871 108.3158356
  51.2699284  25.8614356 109.8138314  60.5599041  37.6944442 114.2664128
  61.4845588  37.4887303 114.1288579  60.3914344  37.4460843 115.1753470
  52.8095310  24.0208572 107.2373040  53.5303673  24.3989825 106.7336757
  52.1860614  24.7397449 107.3408018  56.9526433  24.7253721 108.1731373
  57.1690048  25.6078359 107.8720201  56.4720500  24.3339934 107.4437015
  60.3494357  38.2130109 109.6226220  60.5231235  37.6476532 108.8700072
  60.8423248  39.0131004 109.4405710  66.2033748  30.9766532 111.2416519
  66.6464894  30.2273857 110.8435643  65.3260258  30.9676669 110.8590251
  61.3369529  37.5296874 106.7223118  62.0320434  38.1503566 106.9410432
  61.6792680  36.6792225 106.9975496  63.2360953  34.9796579 108.2510449
  63.7612277  35.3183852 107.5259769  63.1483305  34.0443595 108.0673583
  54.9201613  41.0468562 112.6105702  54.4806604  40.5544941 113.3038559
  55.6709730  40.5041530 112.3697777  47.3993952  37.2380103 112.6130330
  48.2251972  36.9383875 112.2328973  47.0488004  36.4687726 113.0620119
  52.3675485  36.5906572 114.6828003  51.7455495  35.9277277 114.3830231
  53.0380352  36.6167703 114.0001651  51.9288992  35.1410495 108.1586464
  52.0777113  35.8245959 107.5053137  52.7355436  35.1215585 108.6735920
  65.7466613  32.4471770 113.6338967  66.5813504  32.8861575 113.7976527
  65.8825742  31.9710424 112.8147213  49.6841625  31.1675673 109.1647533
  49.4387667  30.2638003 109.3627743  49.8537540  31.1692823 108.2227011
  48.9537273  26.9004030 106.6633694  48.2606518  26.9748385 106.0073730
  48.7089025  26.1364374 107.1855211  55.4284398  37.6358625 105.6298211
  54.8558365  38.2548812 105.1768683  56.0017192  38.1857987 106.1638133
  58.6481658  37.9195775 106.7606794  59.5812331  37.8541337 106.9639669
  58.5604871  38.7552042 106.3021326  61.2769674  37.2361646 103.7210741
  61.1983306  36.9021509 104.6146499  62.0979341  37.7283414 103.7202214
  63.9747866  30.1023385 116.9287060  63.9424186  29.1639386 117.1146744
  64.5848489  30.1807422 116.1952885  55.8131196  28.9719438 102.9714264
  56.7590301  28.8425646 103.0402682  55.4345441  28.2334100 103.4483692
  69.7924415  31.1639392 116.0693097  70.5227804  30.9024680 116.6300800
  69.1831361  30.4268114 116.1095165  67.8739713  29.3047255 116.6667548
  67.1472876  29.1703219 116.0584039  67.4586999  29.6124083 117.4724266
  53.9974114  26.8969414 102.9069149  53.0905569  26.6002527 102.9831863
  54.2750095  26.5999233 102.0403435  55.6136179  21.4406304 109.0613390
  54.8036908  21.0953389 109.4368637  56.3020596  21.1313848 109.6501002
  52.7672898  23.7556350 103.0481128  53.6292062  24.0811248 103.3076946
  52.9523242  22.9687846 102.5354194  60.9205535  22.6284876 110.1916351
  60.3404204  23.2869680 109.8094404  60.6541467  21.8062221 109.7803769
  59.7030413  24.7884967 109.2472700  58.8156268  25.0734617 109.0292894
  60.1184402  24.6278730 108.3999977  63.0544949  24.8131488 112.9627039
  63.8305339  25.3027940 113.2351656  62.3293083  25.2389542 113.4198908
  65.4917507  25.5259107 114.0200979  66.0861998  25.2854843 113.3094288
  65.5644091  24.8066237 114.6474516  47.7114663  39.3692718 114.3344144
  47.5769131  38.6093119 113.7682142  47.2946725  40.0933618 113.8672933
  58.8473626  34.5529641 103.3420720  59.5509476  34.7579644 103.9578375
  58.1236275  35.1206403 103.6069803  59.6771436  30.3039502 109.4622990
  59.6206638  30.7608054 108.6230622  60.2299779  29.5430187 109.2845833
  63.4876242  26.0929234 110.2873109  63.2313177  25.6925870 111.1181317
  62.8629110  26.8073028 110.1623248  67.7988580  28.8325308 112.7944401
  67.2388138  28.9018497 113.5675963  67.1932084  28.6566292 112.0743897
  50.8683789  40.2662035 114.5462587  50.7516173  41.2107467 114.4441277
  50.0476235  39.9635596 114.9348386  60.7560324  34.9912170 105.3919180
  61.5905927  34.5593369 105.2096654  60.5944666  34.8194184 106.3196074
  60.4106216  31.4944284 106.7575519  60.3555020  31.3288555 105.8163963
  59.7852271  32.2020317 106.9137709  53.7202341  20.9952393 106.3360837
  53.7081011  21.9394233 106.4929108  54.6125763  20.8122538 106.0420299
  51.8938303  40.9190297 117.7618515  52.7965550  40.9513907 118.0785010
  51.6675673  39.9890748 117.7764851  53.6491905  39.6721283 114.4228594
  52.6987536  39.6723145 114.3092966  53.9524391  38.9254018 113.9064629
  69.3844599  45.5081822 115.4874356  70.0223009  45.3888569 114.7837696
  69.2665442  46.4562665 115.5462309  66.1934305  45.4609250 115.4235881
  65.8552816  45.3450314 114.5356416  67.0624073  45.0600415 115.4036887
  62.0521121  47.3144726 111.4132772  61.4885986  47.2234663 110.6449060
  61.9373516  46.4944630 111.8935265  66.6754088  46.6144101 121.3822087
  66.6642729  46.2196900 120.5102590  66.8374727  45.8810174 121.9755858
  59.5985553  48.8095918 114.2516992  60.3906844  48.4686742 113.8363292
  59.8382203  48.9190893 115.1719146  67.6320679  50.9815694 106.7247237
  66.9808659  51.5669774 106.3381251  68.4265042  51.5121889 106.7842274
  61.5576306  48.0704831 107.1234371  62.3307182  47.5233818 106.9847247
  61.9101705  48.9349080 107.3348833  63.3961349  49.3981213 120.3301271
  63.1051215  50.3026844 120.2147937  64.0318333  49.4397741 121.0445340
  64.3217556  46.7758062 116.9202630  64.9181128  46.5514084 116.2059593
  64.3792527  46.0342807 117.5228078  63.8942584  44.2297497 104.7552821
  64.1468105  43.7079018 103.9936284  62.9567143  44.0663642 104.8579505
  68.9385867  43.2333275 112.5627564  69.7248956  42.8152699 112.2117981
  69.2024571  44.1379368 112.7309213  69.1095944  48.6706126 107.2616221
  68.4741777  48.7440752 107.9737126  68.7793351  49.2599725 106.5835300
  74.3394294  43.1708509 113.4660543  75.0719466  42.6007725 113.6998372
  73.5833650  42.7830109 113.9067049  63.6138873  46.1325603 106.9577196
  63.4975131  45.4570506 107.6258280  63.7241133  45.6457977 106.1409349
  65.9570414  45.5935750 110.6623885  65.5928621  45.0666371 111.3736807
  66.8137530  45.2034219 110.4890371  71.8619715  36.8830083 117.9255152
  71.5303039  37.7525494 117.7016367  71.2665328  36.5666367 118.6049182
  65.5975901  40.6225650 105.6585234  65.7650303  41.4905886 106.0255705
  65.4073070  40.7852931 104.7346523  68.3551234  49.0842629 117.3251064
  68.0551957  49.9867667 117.2166872  68.0102294  48.8174812 118.1772217
  61.8063716  45.5356426 113.3587769  60.8814212  45.4032640 113.5665460
  62.0548129  46.3150645 113.8557711  71.7548378  41.6025169 115.0048502
  70.8465255  41.5340577 114.7107263  71.7035974  42.0797114 115.8330327
  65.5765122  43.0783307 106.6431901  65.4564747  43.5240358 107.4817381
  64.8817710  43.4268625 106.0845439  59.1672527  45.1789699 114.1931558
  59.2964908  45.4324178 115.1070969  58.4869978  45.7717407 113.8736213
  63.3372014  55.8486949 110.2922032  63.2596044  56.7994774 110.3710513
  62.7333658  55.5032822 110.9496958  65.8289244  43.0214814 122.9483399
  65.0522578  43.5808735 122.9386264  66.4679807  43.5071597 123.4698269
  73.6210024  39.8041607 116.7826376  72.9784405  40.0974140 116.1366170
  73.1164953  39.6894528 117.5879572  71.2750188  43.5504780 107.4712235
  72.1868044  43.7832167 107.2959932  70.7659835  44.1341825 106.9087313
  64.0835616  45.8300268 122.5101366  64.8250300  46.3685312 122.2336189
  63.3772601  46.4566557 122.6672918  69.5590956  47.9729408 121.1073527
  69.9674312  47.5311819 120.3628160  68.8368217  47.3982036 121.3607720
  65.9122026  42.9102015 118.4807084  66.7583221  43.3341429 118.6241733
  65.8520663  42.2535639 119.1745647  69.8819770  48.5330599 114.8625816
  69.2528633  48.6976313 114.1601884  69.4945432  48.9472208 115.6336780
  73.7609002  49.4685037 112.2170180  73.0760040  49.8483938 111.6667213
  73.8452852  50.0780363 112.9502128  69.0621471  40.5706383 120.1388258
  68.8182403  41.3248444 119.6022534  69.3381402  40.9491731 120.9735505
  71.0159934  47.1144996 118.8165524  71.2276829  47.7576756 118.1399905
  70.9689682  46.2807312 118.3487454  68.6186163  39.7262816 115.7202096
  67.7570642  40.0244070 116.0118833  68.6448597  39.9433215 114.7883128
  65.4347732  48.2705007 112.1275901  65.8986078  48.5492710 111.3380524
  65.1704530  47.3688452 111.9448992  62.3271813  47.8176489 115.0655665
  62.8973170  48.2463757 114.4273149  62.9179925  47.5359073 115.7639850
  64.3716618  44.3928159 108.9365466  65.0740662  44.8449203 109.4039393
  64.0397247  43.7511978 109.5645360  62.8196980  42.9839916 123.3116676
  62.1895640  43.6656197 123.5452073  62.7133068  42.8722998 122.3669814
  58.1141952  42.6511712 114.2382600  57.3241006  42.9069241 113.7622711
  58.6053200  43.4660050 114.3434641  72.1305762  49.9916951 116.9887881
  72.9523205  49.5897138 116.7070563  72.1268165  49.8885185 117.9403997
  60.0656698  43.0156291 111.1966077  59.2687861  43.1274986 111.7149572
  59.8382290  43.3542943 110.3306967  65.8962365  49.5400994 119.1448591
  65.9606798  50.0021402 119.9806763  65.1873289  48.9098359 119.2730901
  56.3979655  42.9042202 116.6697591  56.6487694  43.7889212 116.9355167
  56.9339204  42.7246804 115.8972683  80.2211755  46.3355700 113.3372852
  79.4675463  45.7663098 113.1816857  80.3559296  46.3018364 114.2843487
  65.6110383  51.2069102 109.0127572  65.4756058  52.0520638 109.4412420
  66.1520195  51.4088380 108.2493506  59.0639780  48.7244540 109.5855497
  59.5764301  49.5187790 109.7361061  59.7162493  48.0270830 109.5189098
  60.8734665  51.8410296 111.6678250  61.0501293  52.7628261 111.4799234
  61.6691498  51.5268715 112.0972630  65.0145683  38.7018561 123.2662183
  65.7555397  39.3025714 123.1866646  65.2463606  37.9596199 122.7080226
  60.1587021  43.8874928 121.5440413  60.0440537  42.9860185 121.8447512
  59.3031539  44.1338625 121.1925230  67.2378859  51.8292668 123.1427914
  66.7942713  51.0429047 122.8248818  67.8996073  52.0171819 122.4771805
  61.9965980  53.3588470 117.6688592  62.5473406  53.2305533 116.8965586
  61.1577456  53.6583359 117.3183485  69.3360097  52.1095468 121.1709315
  69.3178573  52.9304349 120.6789584  70.2580017  51.9849544 121.3959456
  65.7933151  49.6239598 122.0132823  66.3261488  48.8627886 121.7832131
  65.2647233  49.3313250 122.7556978  68.9602846  34.7299664 117.5426465
  68.6167116  35.6201306 117.4665576  69.3281809  34.5401321 116.6796050
  57.0288697  47.0533194 110.3615067  57.8663919  47.4630203 110.1448775
  57.2066965  46.1132636 110.3315261  68.9253129  44.7208275 106.0498900
  68.4099753  45.4912880 106.2887288  68.6530438  44.0473411 106.6731962
  66.5100240  39.5657976 111.1084139  65.6541837  39.1764826 110.9289777
  66.9227192  39.6449937 110.2483924  68.0399387  37.1004319 115.5075698
  67.5364182  37.0634454 114.6943504  68.3329994  38.0097062 115.5672355
  64.2842273  37.1843049 114.5141880  65.1495269  36.9885857 114.1547770
  64.3519782  36.9553401 115.4411237  73.8987403  47.4740630 107.9852074
  73.1216846  47.1351789 107.5407236  74.5778884  47.4793253 107.3107039
  68.7139432  42.5935367 107.8758681  68.4089568  42.9081516 108.7268825
  69.6669874  42.6716787 107.9186014  67.1585864  48.7525590 109.5251635
  66.6307226  48.0178350 109.2124873  66.6573367  49.5300267 109.2791604
  72.1378710  46.9474611 114.6418682  71.4802385  47.6373872 114.7298810
  72.9419109  47.3371043 114.9852668  61.8904592  39.4145257 111.8858247
  62.4648344  39.1920438 111.1531440  62.4775574  39.4833951 112.6386848
  70.9484169  45.3018984 112.6922623  71.4616051  45.9348975 113.1944333
  71.5985393  44.7020179 112.3265984  62.2174179  41.4449718 105.9054132
  61.3811491  41.7824404 106.2263407  62.0778949  41.3098697 104.9681269
  64.1927259  36.2886506 110.6133316  63.5391672  35.9735523 109.9889931
  64.1507734  35.6662246 111.3393139  65.3038464  46.5705801 102.5286608
  64.3965526  46.3395054 102.7277757  65.8009496  45.7743420 102.7160590
  68.2106543  55.2803308 105.4483295  67.5368242  55.5835005 106.0568252
  68.5972365  56.0832388 105.0988752  67.4265000  42.7768439 114.9380964
  66.5087561  42.9983386 114.7802652  67.8425143  42.8514750 114.0792671
  68.2100048  44.1759855 110.0683644  68.9571867  44.6881252 109.7590766
  68.4791637  43.8543908 110.9288038  66.4826698  46.6718396 107.0510599
  65.5737917  46.3877428 107.1483068  66.5121782  47.0917474 106.1913905
  71.7145965  50.2824985 110.8201766  71.2608292  49.4415895 110.8766957
  71.0839932  50.9186383 111.1576546  70.6578885  41.2116971 112.0502434
  69.9201642  40.6994357 112.3812676  70.9105658  40.7717353 111.2385710
  70.1578904  52.1201482 111.7551584  70.4501879  52.6806539 111.0363950
  70.6677525  52.4130043 112.5104743  70.7590512  33.9893223 112.6444203
  71.0649389  33.1290586 112.3570118  71.4843117  34.5810843 112.4443197
  57.0514868  44.3923910 111.0325801  56.8539268  43.7993270 110.3076867
  56.4961532  44.0876120 111.7501740  65.0311592  44.2847016 113.1520394
  65.0860202  43.3320853 113.0762870  64.2202794  44.4406455 113.6361692
  66.1802786  48.2127139 104.3898677  65.7422216  47.4962998 103.9304314
  66.9213226  48.4403254 103.8283769  62.9703952  42.9024076 110.9110773
  62.1571817  43.2018246 111.3175965  63.4662946  42.5079765 111.6285255
  65.1212530  52.8981833 112.8445037  65.0788708  53.1242679 111.9153569
  66.0375228  52.6645207 112.9930839  68.5678163  43.3665900 119.7425667
  68.9227551  43.5937373 120.6020132  69.2150295  43.6984277 119.1202922
  74.2975900  46.4884336 110.4474996  74.1593799  46.6785932 109.5196185
  73.9412119  47.2503719 110.9043047  62.4618027  40.4742431 116.5272008
  63.1017406  40.3331190 115.8294971  61.6295557  40.1876945 116.1510610
  74.3245280  48.5560863 115.4586267  74.7581787  48.4636152 116.3069321
  75.0376861  48.5318364 114.8206283  63.2378330  49.7744862 112.6407000
  64.0318929  49.2795182 112.4389575  62.5270023  49.2462725 112.2774706
  68.0573175  52.1562957 116.9919368  68.1110197  52.7253894 117.7597084
  67.1887956  52.3264842 116.6273405  59.5461094  43.9187944 108.7166753
  58.6158682  43.8572399 108.9336715  59.6418566  43.3963896 107.9203394
  59.4646643  40.4442756 111.3044995  59.7253460  41.3588090 111.1954155
  60.2863815  39.9767199 111.4541607  60.9371568  41.8580514 118.4743819
  61.6094622  41.6497876 117.8256468  60.1101355  41.6602600 118.0349051
  75.1860830  48.5984564 117.9919153  75.3796720  49.5030374 118.2378428
  75.0861448  48.1391983 118.8257738  66.8397140  38.4842454 120.4909480
  66.1925055  39.1832404 120.3973956  67.6098156  38.9178598 120.8585728
  70.2475938  48.7491307 123.5660033  70.0961445  48.5201858 122.6490117
  70.2380618  49.7061908 123.5791378  67.0161275  46.3223219 118.5506300
  67.9453335  46.4734379 118.3775267  66.5952305  46.4107240 117.6954946
  65.8149606  50.3473884 116.3204837  65.6760692  49.9792668 117.1930775
  65.0264203  50.8621523 116.1488795  66.4097758  55.4482980 107.6630374
  66.5849514  54.9771023 108.4775996  65.7230546  56.0748746 107.8911635
  67.3654822  49.7255486 113.7093675  67.0304654  49.6856256 114.6051325
  66.8658767  49.0600202 113.2364085  61.3399066  45.1323117 119.2346256
  61.2018863  44.4003355 119.8357795  62.2503989  45.0432017 118.9530444
  70.3014013  47.0711521 103.9830735  69.6843184  46.3458349 103.8863787
  69.8330502  47.8320881 103.6397809  63.9681366  44.8443076 118.7229936
  64.6780985  44.2036268 118.6816554  63.9250674  45.0955971 119.6456117
  71.9568145  51.7810429 121.6436515  71.8980691  51.0969649 120.9767098
  72.3587663  52.5229419 121.1917141  62.6810300  41.8308294 120.5425575
  62.1447657  41.3799032 121.1947172  62.0927009  41.9654203 119.7996040
  60.9758844  58.5972343 114.4370234  61.2155442  59.2290867 115.1149253
  60.1328040  58.2460383 114.7235593  62.0912559  41.2896945 103.1052039
  61.2142025  41.1685746 102.7414286  62.5670312  40.4983023 102.8530928
  71.9585552  49.7450013 119.8750495  71.0712331  49.4075935 119.9976894
  72.5284103  49.0133044 120.1119260  53.6114699  46.0774105 113.1993546
  54.2985739  45.7635835 112.6114561  53.4562828  46.9815469 112.9260798
  58.4149421  40.9664301 117.6278570  58.3307610  40.3589971 116.8928980
  57.5932128  41.4573320 117.6288066  65.4886706  54.4051465 116.8411738
  65.4156877  55.2106437 117.3531043  65.0464099  54.6043431 116.0159759
  65.2776485  53.6423235 110.3514560  64.4944007  54.1844916 110.4452784
  65.9769230  54.1597215 110.7508801  68.5873135  39.4517865 112.9948765
  69.0841835  38.6987827 112.6749835  67.8160117  39.4882182 112.4291974
  76.4402893  45.1558230 114.6367056  76.4292769  46.0382946 114.2660990
  75.5720272  44.8029781 114.4421593  67.9485389  54.3038299 118.9969897
  68.6613361  54.9385764 118.9245798  67.4575418  54.4002165 118.1809898
  69.6702916  48.2089552 110.5687188  68.7359195  48.3291015 110.3991893
  69.8479584  47.3062019 110.3047198  65.1708104  41.5935248 112.7220449
  64.8005892  41.0406288 113.4101355  65.6667196  40.9893381 112.1695450
  73.0575467  44.0506871 111.1037222  73.5235920  44.8834863 111.0297525
  73.5082968  43.5851853 111.8082481  62.9997303  52.0532743 119.8175467
  63.7006762  52.6869226 119.9704862  62.5292418  52.3947474 119.0571107
  71.1251698  50.3950693 108.1023374  71.4011542  50.2807287 109.0117249
  70.2556197  49.9968178 108.0635548  71.0292130  36.4187458 115.1428124
  70.1155210  36.6491685 115.3110331  71.4585232  36.5025903 115.9942156
  70.7998589  44.6077350 117.6428018  70.1470039  44.8553258 116.9880471
  71.1778968  43.7941489 117.3090495  67.7605762  54.6437044 111.7456188
  67.9428157  53.8258700 112.2083940  68.5838748  54.8604736 111.3081078
  68.0947928  53.5705229 109.0071237  68.6235694  53.0597683 108.3941399
  68.3576148  53.2547759 109.8716770  66.8486162  45.3497161 124.1294055
  66.1726799  45.2491291 124.7996430  67.6713795  45.1936375 124.5930052
  58.5965021  51.5869098 116.7506570  59.1818457  50.8412786 116.8834474
  58.3989859  51.8973055 117.6343234  61.4503676  54.6220345 111.7669013
  60.7814051  55.1066473 111.2833053  61.3116546  54.8689566 112.6812391
  53.1882675  44.1574698 115.4711013  53.2266775  43.6238289 116.2648131
  52.6822968  43.6309904 114.8521990  65.5908944  56.6564089 118.3651671
  66.1427252  56.8195710 119.1300756  65.9315138  57.2468527 117.6931696
  60.5673438  39.0039239 118.9673556  60.6314764  39.8654070 118.5550953
  60.5040558  38.3913240 118.2345914  70.4419819  51.4825346 124.2200325
  70.9859723  52.0955305 123.7255280  69.8606664  52.0404925 124.7367338
  56.8191253  42.8838800 108.5464945  57.1144694  41.9749479 108.4931998
  55.9179289  42.8626540 108.2245947  68.7277332  54.6046064 115.3515353
  68.6028471  53.8035804 114.8426299  69.3856423  55.0992258 114.8629323
  60.3485500  40.9594797 114.5292493  59.6272086  41.5730765 114.3899967
  61.1378756  41.4952562 114.4509139  70.7912240  52.4055085 116.9794903
  69.8442576  52.2860436 116.9073230  71.1395013  51.5177583 117.0621165
  63.1511813  38.2949223 120.8033145  63.6746215  38.5411520 121.5659454
  62.9324147  39.1269258 120.3836282  58.5479095  40.5652898 108.6704270
  58.2191801  39.6850277 108.4879376  58.9018465  40.5100567 109.5580659
  67.7958673  52.2007801 113.1799255  67.6483636  51.2724508 113.3606825
  68.6212167  52.2227891 112.6956331  61.6620918  40.8525868 109.0379748
  62.0016990  41.3811789 108.3158356  62.1093038  41.1906274 109.8138314
  71.3992795  53.0236359 114.2664128  72.3239343  52.8179221 114.1288579
  71.2308099  52.7752761 115.1753470  64.3564359  39.2362919 118.4882816
  64.0161179  38.4370732 118.8903495  63.6503365  39.5364629 117.9159649
  65.0080830  36.3212231 116.9410139  65.8306900  35.8472709 116.8189029
  65.2518894  37.1002715 117.4408825  63.6489065  39.3500489 107.2373040
  64.3697427  39.7281742 106.7336757  63.0254369  40.0689366 107.3408018
  67.7920188  40.0545638 108.1731373  68.0083802  40.9370276 107.8720201
  67.3114255  39.6631852 107.4437015  62.5319409  43.0131352 114.7502117
  62.3863990  43.3271655 115.6426399  62.0544613  43.6316252 114.1973016
  64.3915792  40.0033900 114.7983007  64.3777361  39.1074993 114.4615305
  65.1088220  40.0104563 115.4321293  66.2441923  40.4371240 116.8436134
  65.9859701  41.3588310 116.8420465  65.7126963  40.0401674 117.5336598
  71.1888111  53.5422027 109.6226220  71.3624989  52.9768449 108.8700072
  71.6817003  54.3422922 109.4405710  57.0065071  45.5536696 117.6889778
  56.4618539  46.3296504 117.8210053  57.8844421  45.9007500 117.5308900
  63.7952688  38.8848280 110.0670577  63.9168599  37.9564926 110.2661464
  63.5054730  38.8986966 109.1548892  66.6643878  36.5703190 113.2037297
  66.6865575  36.6342523 112.2489276  67.0811937  35.7307699 113.3977803
  77.0427503  46.3058450 111.2416519  77.4858649  45.5565775 110.8435643
  76.1654013  46.2968586 110.8590251  72.1763284  52.8588791 106.7223118
  72.8714189  53.4795484 106.9410432  72.5186434  52.0084143 106.9975496
  57.7931093  44.6806592 120.5819935  57.0512829  44.8289228 121.1684566
  57.4723837  44.9414858 119.7186685  74.0754707  50.3088497 108.2510449
  74.6006031  50.6475770 107.5259769  73.9877060  49.3735512 108.0673583
  65.7374756  54.2222571 120.3800325  66.0461882  53.9771717 121.2523025
  66.5350238  54.4269209 119.8919195  65.7595368  56.3760480 112.6105702
  65.3200358  55.8836859 113.3038559  66.5103485  55.8333448 112.3697777
  58.2387707  52.5672021 112.6130330  59.0645727  52.2675793 112.2328973
  57.8881759  51.7979643 113.0620119  63.2069240  51.9198489 114.6828003
  62.5849249  51.2569194 114.3830231  63.8774107  51.9459621 114.0001651
  56.4396312  50.4858347 113.5719263  55.6028220  50.0580522 113.3903265
  56.4119957  50.6790791 114.5090055  73.7648613  50.9421400 123.5561647
  72.9744157  50.9245539 123.0166146  73.5281968  51.4809694 124.3110683
  73.8846488  47.7913867 120.8694375  73.9344493  47.6263874 121.8109898
  73.7760412  46.9241126 120.4792256  62.7682747  50.4702413 108.1586464
  62.9170867  51.1537877 107.5053137  63.5749190  50.4507503 108.6735920
  71.1750251  43.7744795 122.1853682  72.0760113  43.6351260 121.8937680
  71.2498225  43.9399250 123.1251859  65.5093056  41.1511650 121.0306868
  64.6396365  41.4445216 120.7589457  65.7452536  41.7352095 121.7514132
  75.3864685  50.2110808 121.1136397  75.0949493  50.5740789 121.9499858
  74.7736816  49.4977817 120.9349729  76.5860367  47.7763688 113.6338967
  77.4207259  48.2153492 113.7976527  76.7219496  47.3002341 112.8147213
  73.6351873  45.3343423 119.5816455  74.1105995  45.5271069 118.7735306
  72.7117439  45.3902609 119.3359838  60.5235380  46.4967590 109.1647533
  60.2781422  45.5929920 109.3627743  60.6931294  46.4984741 108.2227011
  68.2132090  37.3691267 118.5472289  68.7314034  38.1052294 118.2218777
  67.8587223  37.6755260 119.3819048  59.7931027  42.2295948 106.6633694
  59.1000272  42.3040303 106.0073730  59.5482779  41.4656291 107.1855211
  68.4644684  33.7891549 114.0673185  68.7446438  33.1214738 114.6933612
  69.2495291  33.9820645 113.5547849  66.2678152  52.9650543 105.6298211
  65.6952119  53.5840730 105.1768683  66.8410946  53.5149905 106.1638133
  72.3353542  42.2109183 117.8144760  73.2870965  42.3107281 117.8356984
  72.1656993  41.4187452 118.3242845  70.3567922  39.2964766 118.0004161
  69.7617854  39.5769779 117.3050650  70.0717618  39.7858667 118.7720902
  69.4875412  53.2487693 106.7606794  70.4206085  53.1833255 106.9639669
  69.3998625  54.0843960 106.3021326  72.1163429  52.5653563 103.7210741
  72.0377060  52.2313427 104.6146499  72.9373096  53.0575331 103.7202214
  74.8141620  45.4315303 116.9287060  74.7817940  44.4931304 117.1146744
  75.4242244  45.5099340 116.1952885  66.6524951  44.3011356 102.9714264
  67.5984056  44.1717564 103.0402682  66.2739196  43.5626018 103.4483692
  74.9636109  42.2226346 116.9745343  74.4475157  41.4384803 116.7875272
  75.8476057  41.8945063 117.1391863  72.6246835  35.9667362 112.9341156
  72.4271657  35.6582450 113.8184488  73.2346541  36.6929001 113.0639086
  80.6318170  46.4931310 116.0693097  81.3621558  46.2316598 116.6300800
  80.0225115  45.7560032 116.1095165  78.7133467  44.6339172 116.6667548
  77.9866631  44.4995137 116.0584039  78.2980754  44.9416001 117.4724266
  66.5363643  48.3529102 124.4314921  67.4566653  48.5307701 124.6254967
  66.5013226  47.4085147 124.2794620  64.8367868  42.2261332 102.9069149
  63.9299323  41.9294445 102.9831863  65.1143849  41.9291150 102.0403435
  55.7545808  43.5467696 113.3568196  55.4348593  42.6933004 113.0642570
  55.2079237  43.7616274 114.1126163  59.5325716  46.2630137 117.0737702
  59.7511726  47.1947244 117.0925736  59.9451490  45.9038111 117.8592506
  66.4529934  36.7698222 109.0613390  65.6430662  36.4245307 109.4368637
  67.1414351  36.4605766 109.6501002  68.3820482  35.8476269 110.6837687
  68.9351521  36.2671722 111.3427710  68.6190568  34.9212017 110.7260643
  63.6066653  39.0848267 103.0481128  64.4685817  39.4103166 103.3076946
  63.7916997  38.2979763 102.5354194  55.6234068  47.1670607 115.3261317
  54.9297540  46.7524560 114.8131272  56.3707059  47.2091144 114.7294736
  71.7599289  37.9576794 110.1916351  71.1797958  38.6161598 109.8094404
  71.4935222  37.1354138 109.7803769  70.2102856  37.3581852 112.3937672
  70.7102634  37.4698386 111.5851991  70.8538463  37.0542904 113.0338480
  64.2684851  45.2660481 125.2805513  63.7851933  46.0660841 125.4869402
  64.3545790  45.2768426 124.3272957  57.5370811  47.0988861 113.2027332
  57.5141499  47.1976548 112.2509215  57.8471447  47.9454012 113.5244498
  60.1958189  49.1565016 117.3173946  61.1501442  49.1248958 117.2503878
  59.9970712  48.6955640 118.1324172  60.7857571  47.7266132 119.8844744
  61.6050460  48.2210211 119.9079581  61.0594379  46.8098100 119.8562312
  70.5424167  40.1176884 109.2472700  69.6550022  40.4026535 109.0292894
  70.9578156  39.9570648 108.3999977  73.8938703  40.1423405 112.9627039
  74.6699093  40.6319858 113.2351656  73.1686837  40.5681459 113.4198908
  76.3311262  40.8551024 114.0200979  76.9255753  40.6146760 113.3094288
  76.4037846  40.1358155 114.6474516  58.5508418  54.6984635 114.3344144
  58.4162886  53.9385036 113.7682142  58.1340480  55.4225535 113.8672933
  69.6867381  49.8821559 103.3420720  70.3903231  50.0871561 103.9578375
  68.9630029  50.4498321 103.6069803  70.5165191  45.6331420 109.4622990
  70.4600392  46.0899972 108.6230622  71.0693533  44.8722105 109.2845833
  74.3269997  41.4221152 110.2873109  74.0706931  41.0217788 111.1181317
  73.7022865  42.1364946 110.1623248  78.6382335  44.1617225 112.7944401
  78.0781893  44.2310415 113.5675963  78.0325838  43.9858210 112.0743897
  61.7077543  55.5953952 114.5462587  61.5909928  56.5399385 114.4441277
  60.8869990  55.2927514 114.9348386  71.5954078  50.3204088 105.3919180
  72.4299682  49.8885287 105.2096654  71.4338421  50.1486102 106.3196074
  71.2499970  46.8236201 106.7575519  71.1948774  46.6580473 105.8163963
  70.6246025  47.5312234 106.9137709  56.0392485  42.0604266 120.5836941
  56.6851349  41.5503220 121.0724166  55.8309636  42.7972947 121.1580366
  68.5645877  49.1285113 126.0829082  69.4337037  49.3025766 125.7215717
  68.0852629  49.9479530 125.9604811  64.5596096  36.3244310 106.3360837
  64.5474766  37.2686150 106.4929108  65.4519518  36.1414456 106.0420299
  62.7332058  56.2482214 117.7618515  63.6359304  56.2805825 118.0785010
  62.5069428  55.3182665 117.7764851  64.4885660  55.0013201 114.4228594
  63.5381291  55.0015062 114.3092966  64.7918146  54.2545935 113.9064629
  68.3748215  32.9187087 110.5906774  67.6080611  32.3645574 110.7363457
  68.7858920  32.9908956 111.4520926  80.2238353  60.8373739 115.4874356
  80.8616763  60.7180487 114.7837696  80.1059196  61.7854583 115.5462309
  77.0328059  60.7901167 115.4235881  76.6946571  60.6742232 114.5356416
  77.9017828  60.3892332 115.4036887  72.8914875  62.6436644 111.4132772
  72.3279740  62.5526581 110.6449060  72.7767270  61.8236548 111.8935265
  77.5147842  61.9436019 121.3822087  77.5036483  61.5488817 120.5102590
  77.6768482  61.2102092 121.9755858  70.4379307  64.1387835 114.2516992
  71.2300599  63.7978660 113.8363292  70.6775957  64.2482810 115.1719146
  78.4714434  66.3107611 106.7247237  77.8202414  66.8961692 106.3381251
  79.2658797  66.8413806 106.7842274  72.3970061  63.3996749 107.1234371
  73.1700937  62.8525736 106.9847247  72.7495460  64.2640998 107.3348833
  74.2355104  64.7273131 120.3301271  73.9444970  65.6318762 120.2147937
  74.8712088  64.7689658 121.0445340  75.1611310  62.1049979 116.9202630
  75.7574883  61.8806002 116.2059593  75.2186282  61.3634725 117.5228078
  74.7336339  59.5589415 104.7552821  74.9861859  59.0370936 103.9936284
  73.7960898  59.3955560 104.8579505  79.7779622  58.5625193 112.5627564
  80.5642711  58.1444616 112.2117981  80.0418326  59.4671285 112.7309213
  79.9489699  63.9998043 107.2616221  79.3135532  64.0732670 107.9737126
  79.6187105  64.5891642 106.5835300  85.1788049  58.5000426 113.4660543
  85.9113221  57.9299643 113.6998372  84.4227404  58.1122027 113.9067049
  74.4532628  61.4617521 106.9577196  74.3368886  60.7862424 107.6258280
  74.5634887  60.9749895 106.1409349  76.7964168  60.9227668 110.6623885
  76.4322376  60.3958289 111.3736807  77.6531284  60.5326137 110.4890371
  82.7013469  52.2122000 117.9255152  82.3696794  53.0817411 117.7016367
  82.1059082  51.8958284 118.6049182  76.4369655  55.9517567 105.6585234
  76.6044058  56.8197804 106.0255705  76.2466825  56.1144849 104.7346523
  79.1944989  64.4134546 117.3251064  78.8945712  65.3159585 117.2166872
  78.8496048  64.1466730 118.1772217  72.6457470  60.8648343 113.3587769
  71.7207967  60.7324557 113.5665460  72.8941883  61.6442562 113.8557711
  82.5942132  56.9317087 115.0048502  81.6859010  56.8632495 114.7107263
  82.5429728  57.4089031 115.8330327  76.4158876  58.4075225 106.6431901
  76.2958502  58.8532276 107.4817381  75.7211465  58.7560543 106.0845439
  70.0066281  60.5081617 114.1931558  70.1358662  60.7616096 115.1070969
  69.3263732  61.1009325 113.8736213  74.1765768  71.1778867 110.2922032
  74.0989798  72.1286692 110.3710513  73.5727412  70.8324739 110.9496958
  76.6682998  58.3506732 122.9483399  75.8916332  58.9100652 122.9386264
  77.3073561  58.8363515 123.4698269  84.4603779  55.1333525 116.7826376
  83.8178159  55.4266058 116.1366170  83.9558707  55.0186445 117.5879572
  82.1143942  58.8796698 107.4712235  83.0261799  59.1124085 107.2959932
  81.6053590  59.4633742 106.9087313  74.9229371  61.1592185 122.5101366
  75.6644055  61.6977229 122.2336189  74.2166356  61.7858474 122.6672918
  80.3984710  63.3021326 121.1073527  80.8068066  62.8603736 120.3628160
  79.6761972  62.7273953 121.3607720  76.7515780  58.2393933 118.4807084
  77.5976975  58.6633346 118.6241733  76.6914418  57.5827557 119.1745647
  80.7213525  63.8622517 114.8625816  80.0922387  64.0268231 114.1601884
  80.3339187  64.2764126 115.6336780  84.6002757  64.7976954 112.2170180
  83.9153795  65.1775856 111.6667213  84.6846606  65.4072281 112.9502128
  79.9015226  55.8998301 120.1388258  79.6576157  56.6540362 119.6022534
  80.1775156  56.2783649 120.9735505  81.8553688  62.4436913 118.8165524
  82.0670584  63.0868673 118.1399905  81.8083437  61.6099230 118.3487454
  79.4579917  55.0554734 115.7202096  78.5964396  55.3535988 116.0118833
  79.4842352  55.2725133 114.7883128  76.2741487  63.5996925 112.1275901
  76.7379832  63.8784628 111.3380524  76.0098285  62.6980369 111.9448992
  73.1665568  63.1468406 115.0655665  73.7366925  63.5755675 114.4273149
  73.7573680  62.8650991 115.7639850  75.2110373  59.7220077 108.9365466
  75.9134416  60.1741121 109.4039393  74.8791001  59.0803896 109.5645360
  73.6590734  58.3131834 123.3116676  73.0289395  58.9948115 123.5452073
  73.5526822  58.2014915 122.3669814  68.9535707  57.9803630 114.2382600
  68.1634761  58.2361158 113.7622711  69.4446954  58.7951968 114.3434641
  82.9699516  65.3208869 116.9887881  83.7916960  64.9189056 116.7070563
  82.9661919  65.2177103 117.9403997  70.9050452  58.3448209 111.1966077
  70.1081615  58.4566903 111.7149572  70.6776044  58.6834861 110.3306967
  76.7356120  64.8692912 119.1448591  76.8000552  65.3313319 119.9806763
  76.0267044  64.2390277 119.2730901  67.2373410  58.2334120 116.6697591
  67.4881448  59.1181130 116.9355167  67.7732958  58.0538722 115.8972683
  91.0605509  61.6647617 113.3372852  90.3069218  61.0955015 113.1816857
  91.1953051  61.6310282 114.2843487  76.4504137  66.5361020 109.0127572
  76.3149812  67.3812555 109.4412420  76.9913950  66.7380297 108.2493506
  72.9371477  52.6152600 125.6741927  72.5438423  52.0618798 126.3489571
  73.7537617  52.9263178 126.0648444  69.9033535  64.0536458 109.5855497
  70.4158055  64.8479708 109.7361061  70.5556248  63.3562748 109.5189098
  71.7128419  67.1702214 111.6678250  71.8895048  68.0920179 111.4799234
  72.5085253  66.8560633 112.0972630  75.8539438  54.0310479 123.2662183
  76.5949151  54.6317632 123.1866646  76.0857361  53.2888116 122.7080226
  70.9980776  59.2166846 121.5440413  70.8834291  58.3152103 121.8447512
  70.1425294  59.4630543 121.1925230  78.0772614  67.1584586 123.1427914
  77.6336468  66.3720965 122.8248818  78.7389827  67.3463737 122.4771805
  72.8359735  68.6880388 117.6688592  73.3867160  68.5597451 116.8965586
  71.9971211  68.9875277 117.3183485  80.1753852  67.4387386 121.1709315
  80.1572327  68.2596267 120.6789584  81.0973772  67.3141461 121.3959456
  76.6326906  64.9531516 122.0132823  77.1655243  64.1919804 121.7832131
  76.1040987  64.6605167 122.7556978  79.7996601  50.0591582 117.5426465
  79.4560870  50.9493223 117.4665576  80.1675564  49.8693239 116.6796050
  67.8682452  62.3825112 110.3615067  68.7057674  62.7922120 110.1448775
  68.0460719  61.4424554 110.3315261  79.7646884  60.0500193 106.0498900
  79.2493507  60.8204797 106.2887288  79.4924192  59.3765329 106.6731962
  77.3493995  54.8949893 111.1084139  76.4935591  54.5056744 110.9289777
  77.7620946  54.9741854 110.2483924  78.8793141  52.4296237 115.5075698
  78.3757937  52.3926372 114.6943504  79.1723748  53.3388979 115.5672355
  75.1236027  52.5134966 114.5141880  75.9889024  52.3177775 114.1547770
  75.1913536  52.2845318 115.4411237  84.7381158  62.8032547 107.9852074
  83.9610601  62.4643707 107.5407236  85.4172639  62.8085170 107.3107039
  79.5533187  57.9227285 107.8758681  79.2483322  58.2373434 108.7268825
  80.5063629  58.0008705 107.9186014  77.9979619  64.0817508 109.5251635
  77.4700980  63.3470268 109.2124873  77.4967121  64.8592184 109.2791604
  82.9772465  62.2766529 114.6418682  82.3196139  62.9665790 114.7298810
  83.7812864  62.6662960 114.9852668  72.7298346  54.7437174 111.8858247
  73.3042098  54.5212356 111.1531440  73.3169329  54.8125869 112.6386848
  81.7877923  60.6310901 112.6922623  82.3009805  61.2640893 113.1944333
  82.4379147  60.0312097 112.3265984  73.0567933  56.7741635 105.9054132
  72.2205246  57.1116322 106.2263407  72.9172703  56.6390615 104.9681269
  75.0321014  51.6178423 110.6133316  74.3785426  51.3027440 109.9889931
  74.9901488  50.9954164 111.3393139  76.1432219  61.8997718 102.5286608
  75.2359281  61.6686972 102.7277757  76.6403251  61.1035338 102.7160590
  79.0500298  70.6095226 105.4483295  78.3761996  70.9126922 106.0568252
  79.4366120  71.4124306 105.0988752  78.2658754  58.1060357 114.9380964
  77.3481316  58.3275304 114.7802652  78.6818898  58.1806667 114.0792671
  79.0493802  59.5051772 110.0683644  79.7965621  60.0173170 109.7590766
  79.3185392  59.1835825 110.9288038  77.3220452  62.0010313 107.0510599
  76.4131672  61.7169346 107.1483068  77.3515536  62.4209392 106.1913905
  82.5539720  65.6116903 110.8201766  82.1002047  64.7707813 110.8766957
  81.9233686  66.2478301 111.1576546  81.4972639  56.5408889 112.0502434
  80.7595396  56.0286275 112.3812676  81.7499413  56.1009270 111.2385710
  80.9972659  67.4493399 111.7551584  81.2895633  68.0098456 111.0363950
  81.5071280  67.7421960 112.5104743  81.5984267  49.3185141 112.6444203
  81.9043143  48.4582504 112.3570118  82.3236871  49.9102761 112.4443197
  67.8908623  59.7215827 111.0325801  67.6933022  59.1285188 110.3076867
  67.3355287  59.4168037 111.7501740  75.8705346  59.6138934 113.1520394
  75.9253956  58.6612770 113.0762870  75.0596548  59.7698373 113.6361692
  77.0196540  63.5419057 104.3898677  76.5815970  62.8254916 103.9304314
  77.7606981  63.7695172 103.8283769  73.8097706  58.2315994 110.9110773
  72.9965572  58.5310164 111.3175965  74.3056700  57.8371682 111.6285255
  75.9606284  68.2273750 112.8445037  75.9182463  68.4534597 111.9153569
  76.8768983  67.9937125 112.9930839  79.4071918  58.6957818 119.7425667
  79.7621306  58.9229291 120.6020132  80.0544049  59.0276195 119.1202922
  85.1369655  61.8176254 110.4474996  84.9987553  62.0077850 109.5196185
  84.7805874  62.5795637 110.9043047  73.3011781  55.8034349 116.5272008
  73.9411160  55.6623108 115.8294971  72.4689312  55.5168862 116.1510610
  85.1639034  63.8852781 115.4586267  85.5975541  63.7928070 116.3069321
  85.8770615  63.8610281 114.8206283  74.0772085  65.1036779 112.6407000
  74.8712683  64.6087100 112.4389575  73.3663777  64.5754643 112.2774706
  78.8966929  67.4854875 116.9919368  78.9503952  68.0545811 117.7597084
  78.0281711  67.6556760 116.6273405  70.3854848  59.2479861 108.7166753
  69.4552436  59.1864317 108.9336715  70.4812320  58.7255814 107.9203394
  70.3040397  55.7734674 111.3044995  70.5647215  56.6880007 111.1954155
  71.1257570  55.3059117 111.4541607  71.7765323  57.1872431 118.4743819
  72.4488376  56.9789793 117.8256468  70.9495109  56.9894517 118.0349051
  86.0254584  63.9276482 117.9919153  86.2190474  64.8322292 118.2378428
  85.9255202  63.4683901 118.8257738  77.6790895  53.8134372 120.4909480
  77.0318810  54.5124322 120.3973956  78.4491910  54.2470516 120.8585728
  81.0869693  64.0783224 123.5660033  80.9355199  63.8493776 122.6490117
  81.0774372  65.0353826 123.5791378  77.8555029  61.6515137 118.5506300
  78.7847089  61.8026297 118.3775267  77.4346059  61.7399158 117.6954946
  76.6543361  65.6765801 116.3204837  76.5154447  65.3084586 117.1930775
  75.8657957  66.1913441 116.1488795  77.2491513  70.7774898 107.6630374
  77.4243269  70.3062941 108.4775996  76.5624301  71.4040664 107.8911635
  78.2048576  65.0547404 113.7093675  77.8698409  65.0148174 114.6051325
  77.7052522  64.3892120 113.2364085  72.1792820  60.4615034 119.2346256
  72.0412618  59.7295273 119.8357795  73.0897743  60.3723934 118.9530444
  81.1407768  62.4003438 103.9830735  80.5236938  61.6750267 103.8863787
  80.6724256  63.1612799 103.6397809  74.8075121  60.1734994 118.7229936
  75.5174739  59.5328186 118.6816554  74.7644429  60.4247888 119.6456117
  82.7961899  67.1102347 121.6436515  82.7374446  66.4261567 120.9767098
  83.1981418  67.8521337 121.1917141  73.5204055  57.1600211 120.5425575
  72.9841412  56.7090950 121.1947172  72.9320763  57.2946120 119.7996040
  71.8152598  73.9264261 114.4370234  72.0549196  74.5582785 115.1149253
  70.9721795  73.5752301 114.7235593  72.9306314  56.6188863 103.1052039
  72.0535780  56.4977664 102.7414286  73.4064067  55.8274941 102.8530928
  82.7979307  65.0741931 119.8750495  81.9106085  64.7367853 119.9976894
  83.3677858  64.3424962 120.1119260  64.4508454  61.4066023 113.1993546
  65.1379494  61.0927753 112.6114561  64.2956582  62.3107387 112.9260798
  69.2543176  56.2956219 117.6278570  69.1701365  55.6881889 116.8928980
  68.4325882  56.7865237 117.6288066  76.3280460  69.7343383 116.8411738
  76.2550631  70.5398355 117.3531043  75.8857853  69.9335349 116.0159759
  76.1170240  68.9715153 110.3514560  75.3337762  69.5136833 110.4452784
  76.8162985  69.4889133 110.7508801  79.4266890  54.7809783 112.9948765
  79.9235589  54.0279745 112.6749835  78.6553871  54.8174099 112.4291974
  87.2796647  60.4850148 114.6367056  87.2686523  61.3674864 114.2660990
  86.4114027  60.1321699 114.4421593  78.7879144  69.6330217 118.9969897
  79.5007116  70.2677682 118.9245798  78.2969172  69.7294083 118.1809898
  80.5096670  63.5381470 110.5687188  79.5752949  63.6582932 110.3991893
  80.6873339  62.6353937 110.3047198  76.0101859  56.9227166 112.7220449
  75.6399646  56.3698206 113.4101355  76.5060951  56.3185299 112.1695450
  83.8969222  59.3798789 111.1037222  84.3629674  60.2126781 111.0297525
  84.3476722  58.9143771 111.8082481  73.8391057  67.3824661 119.8175467
  74.5400517  68.0161144 119.9704862  73.3686172  67.7239392 119.0571107
  81.9645453  65.7242610 108.1023374  82.2405297  65.6099205 109.0117249
  81.0949952  65.3260095 108.0635548  81.8685885  51.7479376 115.1428124
  80.9548964  51.9783603 115.3110331  82.2978986  51.8317820 115.9942156
  81.6392343  59.9369268 117.6428018  80.9863793  60.1845176 116.9880471
  82.0172723  59.1233406 117.3090495  78.5999517  69.9728961 111.7456188
  78.7821911  69.1550617 112.2083940  79.4232503  70.1896654 111.3081078
  78.9341682  68.8997146 109.0071237  79.4629449  68.3889601 108.3941399
  79.1969902  68.5839677 109.8716770  77.6879916  60.6789079 124.1294055
  77.0120553  60.5783208 124.7996430  78.5107550  60.5228293 124.5930052
  69.4358775  66.9161016 116.7506570  70.0212212  66.1704704 116.8834474
  69.2383614  67.2264972 117.6343234  72.2897430  69.9512263 111.7669013
  71.6207806  70.4358391 111.2833053  72.1510300  70.1981484 112.6812391
  64.0276430  59.4866616 115.4711013  64.0660529  58.9530207 116.2648131
  63.5216723  58.9601821 114.8521990  76.4302699  71.9856007 118.3651671
  76.9821007  72.1487628 119.1300756  76.7708892  72.5760444 117.6931696
  71.4067192  54.3331156 118.9673556  71.4708519  55.1945987 118.5550953
  71.3434312  53.7205158 118.2345914  70.8819465  56.4054289 122.6146590
  71.5091504  56.0231366 123.2284114  70.0247384  56.1868491 122.9802282
  67.6585007  58.2130718 108.5464945  67.9538449  57.3041396 108.4931998
  66.7573043  58.1918457 108.2245947  79.5671086  69.9337982 115.3515353
  79.4422226  69.1327722 114.8426299  80.2250177  70.4284175 114.8629323
  71.1879254  56.2886715 114.5292493  70.4665840  56.9022682 114.3899967
  71.9772510  56.8244479 114.4509139  81.6305995  67.7347002 116.9794903
  80.6836330  67.6152353 116.9073230  81.9788768  66.8469500 117.0621165
  73.9905568  53.6241141 120.8033145  74.5139970  53.8703438 121.5659454
  73.7717901  54.4561176 120.3836282  69.3872849  55.8944816 108.6704270
  69.0585555  55.0142195 108.4879376  69.7412220  55.8392484 109.5580659
  78.6352428  67.5299718 113.1799255  78.4877390  66.6016426 113.3606825
  79.4605921  67.5519809 112.6956331  72.5014672  56.1817785 109.0379748
  72.8410745  56.7103707 108.3158356  72.9486793  56.5198192 109.8138314
  82.2386550  68.3528277 114.2664128  83.1633097  68.1471138 114.1288579
  82.0701853  68.1044678 115.1753470  75.1958113  54.5654836 118.4882816
  74.8554933  53.7662649 118.8903495  74.4897119  54.8656547 117.9159649
  75.8474585  51.6504149 116.9410139  76.6700654  51.1764627 116.8189029
  76.0912648  52.4294632 117.4408825  74.4882819  54.6792407 107.2373040
  75.2091182  55.0573660 106.7336757  73.8648123  55.3981284 107.3408018
  78.6313942  55.3837556 108.1731373  78.8477557  56.2662194 107.8720201
  78.1508009  54.9923769 107.4437015  73.3713164  58.3423269 114.7502117
  73.2257744  58.6563572 115.6426399  72.8938367  58.9608170 114.1973016
  75.2309546  55.3325817 114.7983007  75.2171115  54.4366911 114.4615305
  75.9481975  55.3396481 115.4321293  77.0835677  55.7663157 116.8436134
  76.8253455  56.6880228 116.8420465  76.5520718  55.3693592 117.5336598
  82.0281866  68.8713945 109.6226220  82.2018743  68.3060367 108.8700072
  82.5210757  69.6714839 109.4405710  67.8458826  60.8828614 117.6889778
  67.3012294  61.6588422 117.8210053  68.7238176  61.2299418 117.5308900
  74.6346442  54.2140198 110.0670577  74.7562354  53.2856844 110.2661464
  74.3448485  54.2278884 109.1548892  77.5037633  51.8995108 113.2037297
  77.5259330  51.9634441 112.2489276  77.9205692  51.0599617 113.3977803
  87.8821257  61.6350368 111.2416519  88.3252403  60.8857693 110.8435643
  87.0047767  61.6260504 110.8590251  83.0157038  68.1880709 106.7223118
  83.7107943  68.8087402 106.9410432  83.3580189  67.3376060 106.9975496
  68.6324848  60.0098510 120.5819935  67.8906584  60.1581145 121.1684566
  68.3117592  60.2706776 119.7186685  84.9148462  65.6380415 108.2510449
  85.4399786  65.9767687 107.5259769  84.8270814  64.7027430 108.0673583
  76.5768510  69.5514488 120.3800325  76.8855637  69.3063635 121.2523025
  77.3743992  69.7561127 119.8919195  76.5989122  71.7052398 112.6105702
  76.1594113  71.2128777 113.3038559  77.3497239  71.1625365 112.3697777
  69.0781461  67.8963939 112.6130330  69.9039481  67.5967711 112.2328973
  68.7275513  67.1271561 113.0620119  74.0462994  67.2490407 114.6828003
  73.4243004  66.5861112 114.3830231  74.7167861  67.2751539 114.0001651
  67.2790066  65.8150265 113.5719263  66.4421975  65.3872439 113.3903265
  67.2513712  66.0082708 114.5090055  74.1187522  55.7272195 124.2760510
  74.1675677  56.6034318 123.8938279  74.6610036  55.1849588 123.7032153
  84.7240243  63.1205785 120.8694375  84.7738248  62.9555792 121.8109898
  84.6154166  62.2533044 120.4792256  73.6076501  65.7994330 108.1586464
  73.7564622  66.4829795 107.5053137  74.4142945  65.7799420 108.6735920
  82.0144005  59.1036713 122.1853682  82.9153868  58.9643177 121.8937680
  82.0891980  59.2691167 123.1251859  76.3486810  56.4803567 121.0306868
  75.4790120  56.7737133 120.7589457  76.5846291  57.0644012 121.7514132
  86.2258440  65.5402726 121.1136397  85.9343248  65.9032707 121.9499858
  85.6130571  64.8269734 120.9349729  87.4254122  63.1055606 113.6338967
  88.2601013  63.5445410 113.7976527  87.5613251  62.6294259 112.8147213
  84.4745628  60.6635341 119.5816455  84.9499749  60.8562987 118.7735306
  83.5511193  60.7194527 119.3359838  71.3629134  61.8259508 109.1647533
  71.1175176  60.9221838 109.3627743  71.5325049  61.8276658 108.2227011
  79.0525844  52.6983184 118.5472289  79.5707788  53.4344211 118.2218777
  78.6980977  53.0047178 119.3819048  70.6324782  57.5587865 106.6633694
  69.9394027  57.6332220 106.0073730  70.3876534  56.7948209 107.1855211
  79.3038438  49.1183467 114.0673185  79.5840192  48.4506656 114.6933612
  80.0889045  49.3112562 113.5547849  77.1071907  68.2942461 105.6298211
  76.5345874  68.9132648 105.1768683  77.6804701  68.8441822 106.1638133
  83.1747297  57.5401101 117.8144760  84.1264720  57.6399198 117.8356984
  83.0050747  56.7479369 118.3242845  81.1961676  54.6256684 118.0004161
  80.6011608  54.9061697 117.3050650  80.9111373  55.1150585 118.7720902
  80.3269167  68.5779611 106.7606794  81.2599840  68.5125172 106.9639669
  80.2392380  69.4135878 106.3021326  82.9557183  67.8945481 103.7210741
  82.8770815  67.5605345 104.6146499  83.7766850  68.3867249 103.7202214
  85.6535375  60.7607220 116.9287060  85.6211695  59.8223221 117.1146744
  86.2635998  60.8391257 116.1952885  77.4918705  59.6303273 102.9714264
  78.4377810  59.5009482 103.0402682  77.1132950  58.8917935 103.4483692
  85.8029863  57.5518264 116.9745343  85.2868912  56.7676721 116.7875272
  86.6869812  57.2236981 117.1391863  83.4640590  51.2959279 112.9341156
  83.2665411  50.9874368 113.8184488  84.0740296  52.0220918 113.0639086
  91.4711924  61.8223227 116.0693097  92.2015313  61.5608515 116.6300800
  90.8618870  61.0851949 116.1095165  89.5527222  59.9631090 116.6667548
  88.8260385  59.8287055 116.0584039  89.1374508  60.2707919 117.4724266
  77.3757398  63.6821020 124.4314921  78.2960407  63.8599619 124.6254967
  77.3406981  62.7377065 124.2794620  75.6761623  57.5553250 102.9069149
  74.7693078  57.2586363 102.9831863  75.9537604  57.2583068 102.0403435
  66.5939563  58.8759613 113.3568196  66.2742347  58.0224921 113.0642570
  66.0472991  59.0908191 114.1126163  70.3719470  61.5922054 117.0737702
  70.5905480  62.5239162 117.0925736  70.7845244  61.2330029 117.8592506
  77.2923688  52.0990140 109.0613390  76.4824417  51.7537225 109.4368637
  77.9808105  51.7897683 109.6501002  79.2214237  51.1768186 110.6837687
  79.7745275  51.5963640 111.3427710  79.4584323  50.2503934 110.7260643
  75.2447336  57.1655260 126.4640451  75.1444063  58.1149617 126.3952542
  75.0268878  56.8373499 125.5916521  74.4460407  54.4140185 103.0481128
  75.3079571  54.7395083 103.3076946  74.6310751  53.6271681 102.5354194
  66.4627823  62.4962525 115.3261317  65.7691294  62.0816478 114.8131272
  67.2100814  62.5383061 114.7294736  82.5993044  53.2868712 110.1916351
  82.0191713  53.9453516 109.8094404  82.3328976  52.4646056 109.7803769
  81.0496610  52.6873769 112.3937672  81.5496388  52.7990304 111.5851991
  81.6932218  52.3834822 113.0338480  75.1078606  60.5952399 125.2805513
  74.6245688  61.3952759 125.4869402  75.1939545  60.6060344 124.3272957
  68.3764565  62.4280779 113.2027332  68.3535254  62.5268466 112.2509215
  68.6865202  63.2745929 113.5244498  71.0351943  64.4856934 117.3173946
  71.9895197  64.4540876 117.2503878  70.8364467  64.0247557 118.1324172
  71.6251325  63.0558050 119.8844744  72.4444214  63.5502128 119.9079581
  71.8988133  62.1390018 119.8562312  81.3817922  55.4468802 109.2472700
  80.4943777  55.7318453 109.0292894  81.7971911  55.2862565 108.3999977
  84.7332458  55.4715323 112.9627039  85.5092848  55.9611775 113.2351656
  84.0080592  55.8973377 113.4198908  87.1705016  56.1842942 114.0200979
  87.7649507  55.9438678 113.3094288  87.2431600  55.4650073 114.6474516
  69.3902172  70.0276553 114.3344144  69.2556640  69.2676954 113.7682142
  68.9734234  70.7517453 113.8672933  80.5261135  65.2113477 103.3420720
  81.2296985  65.4163479 103.9578375  79.8023784  65.7790238 103.6069803
  81.3558945  60.9623338 109.4622990  81.2994147  61.4191889 108.6230622
  81.9087288  60.2014022 109.2845833  85.1663751  56.7513070 110.2873109
  84.9100686  56.3509705 111.1181317  84.5416619  57.4656864 110.1623248
  89.4776089  59.4909143 112.7944401  88.9175647  59.5602332 113.5675963
  88.8719593  59.3150128 112.0743897  72.5471298  70.9245870 114.5462587
  72.4303682  71.8691303 114.4441277  71.7263744  70.6219432 114.9348386
  82.4347833  65.6496006 105.3919180  83.2693436  65.2177204 105.2096654
  82.2732175  65.4778019 106.3196074  82.0893725  62.1528119 106.7575519
  82.0342529  61.9872390 105.8163963  81.4639780  62.8604152 106.9137709
  66.8786240  57.3896183 120.5836941  67.5245103  56.8795137 121.0724166
  66.6703391  58.1264865 121.1580366  75.3989850  51.6536228 106.3360837
  75.3868520  52.5978068 106.4929108  76.2913272  51.4706373 106.0420299
  73.5725812  71.5774132 117.7618515  74.4753059  71.6097742 118.0785010
  73.3463182  70.6474583 117.7764851  75.3279414  70.3305118 114.4228594
  74.3775045  70.3306980 114.3092966  75.6311900  69.5837853 113.9064629
  79.2141970  48.2479005 110.5906774  78.4474365  47.6937491 110.7363457
  79.6252675  48.3200873 111.4520926  71.2183731  54.5363801 124.6811955
  72.0815192  54.1800605 124.8915280  70.6449141  54.1977695 125.3687360
  83.7308630  77.9728561 111.4132772  83.1673495  77.8818498 110.6449060
  83.6161025  77.1528466 111.8935265  81.2773062  79.4679753 114.2516992
  82.0694353  79.1270578 113.8363292  81.5169712  79.5774728 115.1719146
  89.3108188  81.6399529 106.7247237  88.6596168  82.2253610 106.3381251
  90.1052551  82.1705724 106.7842274  83.2363815  78.7288666 107.1234371
  84.0094691  78.1817653 106.9847247  83.5889214  79.5932916 107.3348833
  85.5730093  74.8881332 104.7552821  85.8255614  74.3662854 103.9936284
  84.6354652  74.7247478 104.8579505  90.6173376  73.8917111 112.5627564
  91.4036465  73.4736534 112.2117981  90.8812080  74.7963203 112.7309213
  90.7883453  79.3289961 107.2616221  90.1529286  79.4024588 107.9737126
  90.4580860  79.9183560 106.5835300  85.2926382  76.7909438 106.9577196
  85.1762640  76.1154342 107.6258280  85.4028642  76.3041812 106.1409349
  87.6357923  76.2519585 110.6623885  87.2716130  75.7250206 111.3736807
  88.4925039  75.8618054 110.4890371  87.2763410  71.2809485 105.6585234
  87.4437812  72.1489722 106.0255705  87.0860579  71.4436767 104.7346523
  83.4851225  76.1940261 113.3587769  82.5601721  76.0616475 113.5665460
  83.7335638  76.9734480 113.8557711  87.2552631  73.7367143 106.6431901
  87.1352256  74.1824193 107.4817381  86.5605219  74.0852460 106.0845439
  80.8460036  75.8373534 114.1931558  80.9752417  76.0908013 115.1070969
  80.1657487  76.4301242 113.8736213  92.9537697  74.2088616 107.4712235
  93.8655553  74.4416003 107.2959932  92.4447344  74.7925660 106.9087313
  90.2973672  70.3846652 115.7202096  89.4358151  70.6827905 116.0118833
  90.3236106  70.6017051 114.7883128  87.1135241  78.9288842 112.1275901
  87.5773587  79.2076545 111.3380524  86.8492039  78.0272287 111.9448992
  86.0504127  75.0511995 108.9365466  86.7528171  75.5033038 109.4039393
  85.7184756  74.4095814 109.5645360  79.7929461  73.3095547 114.2382600
  79.0028515  73.5653076 113.7622711  80.2840709  74.1243885 114.3434641
  81.7444207  73.6740127 111.1966077  80.9475370  73.7858821 111.7149572
  81.5169799  74.0126779 110.3306967  78.0767164  73.5626038 116.6697591
  78.3275203  74.4473048 116.9355167  78.6126713  73.3830639 115.8972683
  87.2897892  81.8652937 109.0127572  87.1543567  82.7104473 109.4412420
  87.8307704  82.0672215 108.2493506  80.7427289  79.3828375 109.5855497
  81.2551810  80.1771626 109.7361061  81.3950002  78.6854666 109.5189098
  82.5522174  82.4994132 111.6678250  82.7288802  83.4212096 111.4799234
  83.3479007  82.1852551 112.0972630  90.6390355  65.3883499 117.5426465
  90.2954625  66.2785141 117.4665576  91.0069318  65.1985157 116.6796050
  78.7076206  77.7117030 110.3615067  79.5451428  78.1214038 110.1448775
  78.8854474  76.7716472 110.3315261  90.6040638  75.3792110 106.0498900
  90.0887262  76.1496715 106.2887288  90.3317947  74.7057246 106.6731962
  88.1887749  70.2241811 111.1084139  87.3329345  69.8348661 110.9289777
  88.6014701  70.3033772 110.2483924  89.7186896  67.7588154 115.5075698
  89.2151691  67.7218290 114.6943504  90.0117503  68.6680897 115.5672355
  85.9629782  67.8426884 114.5141880  86.8282778  67.6469693 114.1547770
  86.0307291  67.6137236 115.4411237  95.5774912  78.1324465 107.9852074
  94.8004355  77.7935624 107.5407236  96.2566393  78.1377088 107.3107039
  90.3926941  73.2519202 107.8758681  90.0877077  73.5665352 108.7268825
  91.3457383  73.3300622 107.9186014  88.8373373  79.4109426 109.5251635
  88.3094735  78.6762185 109.2124873  88.3360876  80.1884102 109.2791604
  83.5692101  70.0729092 111.8858247  84.1435853  69.8504274 111.1531440
  84.1563083  70.1417787 112.6386848  83.8961688  72.1033553 105.9054132
  83.0599000  72.4408240 106.2263407  83.7566458  71.9682533 104.9681269
  85.8714768  66.9470341 110.6133316  85.2179181  66.6319358 109.9889931
  85.8295243  66.3246081 111.3393139  86.9825973  77.2289636 102.5286608
  86.0753035  76.9978889 102.7277757  87.4797005  76.4327255 102.7160590
  89.8894052  85.9387143 105.4483295  89.2155751  86.2418840 106.0568252
  90.2759874  86.7416224 105.0988752  89.1052509  73.4352274 114.9380964
  88.1875070  73.6567221 114.7802652  89.5212652  73.5098585 114.0792671
  89.8887557  74.8343690 110.0683644  90.6359376  75.3465087 109.7590766
  90.1579146  74.5127743 110.9288038  88.1614207  77.3302231 107.0510599
  87.2525426  77.0461264 107.1483068  88.1909291  77.7501309 106.1913905
  92.3366394  71.8700806 112.0502434  91.5989151  71.3578193 112.3812676
  92.5893167  71.4301188 111.2385710  92.4378021  64.6477058 112.6444203
  92.7436898  63.7874422 112.3570118  93.1630626  65.2394679 112.4443197
  78.7302377  75.0507745 111.0325801  78.5326777  74.4577106 110.3076867
  78.1749041  74.7459955 111.7501740  86.7099101  74.9430851 113.1520394
  86.7647711  73.9904688 113.0762870  85.8990303  75.0990291 113.6361692
  87.8590295  78.8710975 104.3898677  87.4209724  78.1546833 103.9304314
  88.6000735  79.0987089 103.8283769  84.6491461  73.5607911 110.9110773
  83.8359326  73.8602082 111.3175965  85.1450455  73.1663600 111.6285255
  95.9763409  77.1468172 110.4474996  95.8381308  77.3369768 109.5196185
  95.6199628  77.9087554 110.9043047  84.1405535  71.1326267 116.5272008
  84.7804915  70.9915026 115.8294971  83.3083066  70.8460780 116.1510610
  84.9165839  80.4328697 112.6407000  85.7106438  79.9379017 112.4389575
  84.2057532  79.9046560 112.2774706  81.2248603  74.5771779 108.7166753
  80.2946191  74.5156234 108.9336715  81.3206075  74.0547732 107.9203394
  81.1434152  71.1026592 111.3044995  81.4040969  72.0171925 111.1954155
  81.9651324  70.6351034 111.4541607  82.6159077  72.5164349 118.4743819
  83.2882131  72.3081711 117.8256468  81.7888864  72.3186435 118.0349051
  88.0885267  86.1066816 107.6630374  88.2637023  85.6354859 108.4775996
  87.4018055  86.7332582 107.8911635  91.9801522  77.7295356 103.9830735
  91.3630693  77.0042184 103.8863787  91.5118011  78.4904716 103.6397809
  83.7700068  71.9480780 103.1052039  82.8929534  71.8269581 102.7414286
  84.2457821  71.1566859 102.8530928  75.2902208  76.7357940 113.1993546
  75.9773248  76.4219670 112.6114561  75.1350337  77.6399305 112.9260798
  80.0936930  71.6248137 117.6278570  80.0095119  71.0173806 116.8928980
  79.2719637  72.1157155 117.6288066  90.2660644  70.1101700 112.9948765
  90.7629344  69.3571663 112.6749835  89.4947626  70.1466017 112.4291974
  91.3490425  78.8673388 110.5687188  90.4146704  78.9874850 110.3991893
  91.5267093  77.9645854 110.3047198  86.8495613  72.2519083 112.7220449
  86.4793401  71.6990124 113.4101355  87.3454705  71.6477217 112.1695450
  94.7362976  74.7090707 111.1037222  95.2023428  75.5418698 111.0297525
  95.1870477  74.2435688 111.8082481  92.8039207  81.0534528 108.1023374
  93.0799051  80.9391123 109.0117249  91.9343706  80.6552013 108.0635548
  92.7079639  67.0771294 115.1428124  91.7942719  67.3075521 115.3110331
  93.1372740  67.1609738 115.9942156  89.7735437  84.2289064 109.0071237
  90.3023203  83.7181519 108.3941399  90.0363656  83.9131594 109.8716770
  74.8670184  74.8158534 115.4711013  74.9054284  74.2822124 116.2648131
  74.3610477  74.2893739 114.8521990  82.2460947  69.6623074 118.9673556
  82.3102273  70.5237905 118.5550953  82.1828067  69.0497076 118.2345914
  78.4978762  73.5422636 108.5464945  78.7932203  72.6333314 108.4931998
  77.5966798  73.5210375 108.2245947  82.0273009  71.6178632 114.5292493
  81.3059595  72.2314600 114.3899967  82.8166265  72.1536397 114.4509139
  80.2266604  71.2236733 108.6704270  79.8979310  70.3434112 108.4879376
  80.5805974  71.1684402 109.5580659  83.3408427  71.5109703 109.0379748
  83.6804499  72.0395624 108.3158356  83.7880547  71.8490109 109.8138314
  86.0351868  69.8946754 118.4882816  85.6948688  69.0954567 118.8903495
  85.3290874  70.1948465 117.9159649  86.6868339  66.9796066 116.9410139
  87.5094409  66.5056545 116.8189029  86.9306403  67.7586550 117.4408825
  85.3276574  70.0084325 107.2373040  86.0484936  70.3865578 106.7336757
  84.7041878  70.7273202 107.3408018  89.4707697  70.7129474 108.1731373
  89.6871311  71.5954112 107.8720201  88.9901764  70.3215687 107.4437015
  84.2106918  73.6715187 114.7502117  84.0651499  73.9855490 115.6426399
  83.7332122  74.2900087 114.1973016  86.0703301  70.6617735 114.7983007
  86.0564870  69.7658828 114.4615305  86.7875729  70.6688399 115.4321293
  87.9229432  71.0955075 116.8436134  87.6647210  72.0172146 116.8420465
  87.3914472  70.6985510 117.5336598  78.6852580  76.2120531 117.6889778
  78.1406048  76.9880339 117.8210053  79.5631930  76.5591336 117.5308900
  85.4740197  69.5432115 110.0670577  85.5956108  68.6148761 110.2661464
  85.1842239  69.5570801 109.1548892  88.3431387  67.2287026 113.2037297
  88.3653084  67.2926359 112.2489276  88.7599446  66.3891534 113.3977803
  93.8550793  83.5172627 106.7223118  94.5501698  84.1379319 106.9410432
  94.1973943  82.6667978 106.9975496  95.7542216  80.9672332 108.2510449
  96.2793540  81.3059605 107.5259769  95.6664569  80.0319348 108.0673583
  79.9175216  83.2255856 112.6130330  80.7433236  82.9259628 112.2328973
  79.5669268  82.4563479 113.0620119  78.1183821  81.1442183 113.5719263
  77.2815729  80.7164357 113.3903265  78.0907466  81.3374626 114.5090055
  84.4470256  81.1286248 108.1586464  84.5958376  81.8121712 107.5053137
  85.2536699  81.1091338 108.6735920  82.2022889  77.1551426 109.1647533
  81.9568931  76.2513756 109.3627743  82.3718803  77.1568576 108.2227011
  81.4718536  72.8879783 106.6633694  80.7787781  72.9624138 106.0073730
  81.2270288  72.1240127 107.1855211  90.1432193  64.4475384 114.0673185
  90.4233947  63.7798574 114.6933612  90.9282800  64.6404480 113.5547849
  87.9465661  83.6234378 105.6298211  87.3739628  84.2424565 105.1768683
  88.5198455  84.1733740 106.1638133  91.1662921  83.9071528 106.7606794
  92.0993594  83.8417090 106.9639669  91.0786134  84.7427795 106.3021326
  93.7950938  83.2237399 103.7210741  93.7164569  82.8897262 104.6146499
  94.6160605  83.7159167 103.7202214  88.3312460  74.9595191 102.9714264
  89.2771565  74.8301399 103.0402682  87.9526705  74.2209853 103.4483692
  94.3034344  66.6251197 112.9341156  94.1059166  66.3166285 113.8184488
  94.9134050  67.3512836 113.0639086  86.5155377  72.8845168 102.9069149
  85.6086832  72.5878280 102.9831863  86.7931358  72.5874986 102.0403435
  77.4333317  74.2051531 113.3568196  77.1136102  73.3516839 113.0642570
  76.8866746  74.4200109 114.1126163  88.1317443  67.4282057 109.0613390
  87.3218171  67.0829142 109.4368637  88.8201860  67.1189601 109.6501002
  90.0607991  66.5060104 110.6837687  90.6139030  66.9255557 111.3427710
  90.2978077  65.5795852 110.7260643  85.2854162  69.7432103 103.0481128
  86.1473326  70.0687001 103.3076946  85.4704506  68.9563599 102.5354194
  77.3021577  77.8254442 115.3261317  76.6085049  77.4108395 114.8131272
  78.0494568  77.8674979 114.7294736  93.4386798  68.6160629 110.1916351
  92.8585467  69.2745433 109.8094404  93.1722731  67.7937974 109.7803769
  91.8890365  68.0165687 112.3937672  92.3890143  68.1282221 111.5851991
  92.5325972  67.7126740 113.0338480  79.2158320  77.7572696 113.2027332
  79.1929008  77.8560383 112.2509215  79.5258956  78.6037847 113.5244498
  92.2211676  70.7760720 109.2472700  91.3337531  71.0610370 109.0292894
  92.6365665  70.6154483 108.3999977  95.5726212  70.8007241 112.9627039
  96.3486602  71.2903693 113.2351656  94.8474346  71.2265295 113.4198908
  91.3654890  80.5405394 103.3420720  92.0690740  80.7455397 103.9578375
  90.6417538  81.1082156 103.6069803  92.1952700  76.2915255 109.4622990
  92.1387901  76.7483807 108.6230622  92.7481042  75.5305940 109.2845833
  96.0057506  72.0804987 110.2873109  95.7494440  71.6801623 111.1181317
  95.3810374  72.7948781 110.1623248  93.2741587  80.9787923 105.3919180
  94.1087191  80.5469122 105.2096654  93.1125930  80.8069937 106.3196074
  92.9287479  77.4820037 106.7575519  92.8736283  77.3164308 105.8163963
  92.3033534  78.1896070 106.9137709  77.7179994  72.7188101 120.5836941
  78.3638858  72.2087055 121.0724166  77.5097145  73.4556783 121.1580366
  86.2383605  66.9828146 106.3360837  86.2262274  67.9269986 106.4929108
  87.1307027  66.7998291 106.0420299  90.0535724  63.5770922 110.5906774
  89.2868120  63.0229409 110.7363457  90.4646429  63.6492791 111.4520926
  94.7355442  87.4325471 105.9054132  93.8992755  87.7700157 106.2263407
  94.5960212  87.2974451 104.9681269  94.6093823  87.2772698 103.1052039
  93.7323289  87.1561499 102.7414286  95.0851576  86.4858776 102.8530928
  92.3112291  88.2171701 106.6633694  91.6181536  88.2916056 106.0073730
  92.0664043  87.4532044 107.1855211  97.3549132  88.2137085 102.9069149
  96.4480587  87.9170198 102.9831863  97.6325113  87.9166903 102.0403435
  96.1247916  85.0724020 103.0481128  96.9867080  85.3978919 103.3076946
  96.3098260  84.2855516 102.5354194  97.0777359  82.3120063 106.3360837
  97.0656029  83.2561903 106.4929108  97.9700781  82.1290209 106.0420299
  46.5319036   1.6281595  92.1728601  45.8580734   1.9313292  92.7813559
  46.9184857   2.4310675  91.8234058  50.4975776  -0.7932921  93.4468424
  51.1926681  -0.1726229  93.6655739  50.8398926  -1.6437570  93.7220802
  44.5890645  -0.6871170  92.3543518  44.0164612  -0.0680983  91.9013990
  45.1623438  -0.1371808  92.8883440  47.8087904  -0.4034020  93.4852100
  48.7418578  -0.4688458  93.6884976  47.7211117   0.4322247  93.0266633
  50.4375921  -1.0868149  90.4456048  50.3589553  -1.4208286  91.3391806
  51.2585588  -0.5946381  90.4447520  48.0079873  -3.7700154  90.0666026
  48.7115723  -3.5650151  90.6823682  47.2842522  -3.2023392  90.3315110
  49.9166570  -3.3317625  92.1164486  50.7512174  -3.7636426  91.9341961
  49.7550913  -3.5035611  93.0441381  58.5450845   7.1852026 102.2119663
  59.1829255   7.0658774 101.5083003  58.4271688   8.1332870 102.2707615
  51.2127367   8.9914931  98.1378079  50.6492233   8.9004868  97.3694366
  51.0979762   8.1714835  98.6180571  56.7926926  12.6585899  93.4492544
  56.1414906  13.2439979  93.0626557  57.5871289  13.1892094  93.5087581
  50.7182553   9.7475036  93.8479678  51.4913429   9.2004023  93.7092554
  51.0707952  10.6119285  94.0594139  53.0548831   5.9067702  91.4798128
  53.3074352   5.3849223  90.7181591  52.1173390   5.7433847  91.5824811
  58.0992114   4.9103480  99.2872871  58.8855203   4.4922903  98.9363288
  58.3630818   5.8149572  99.4554519  58.2702191  10.3476331  93.9861528
  57.6348024  10.4210957  94.6982433  57.9399598  10.9369929  93.3080607
  63.5000541   4.8478713 100.1905850  64.2325713   4.2777930 100.4243679
  62.7439897   4.4600314 100.6312355  52.7745120   7.8095808  93.6822503
  52.6581378   7.1340711  94.3503587  52.8847380   7.3228182  92.8654656
  55.1176661   7.2705955  97.3869192  54.7534868   6.7436576  98.0982114
  55.9743777   6.8804424  97.2135677  54.7582148   2.2995855  92.3830541
  54.9256550   3.1676091  92.7501012  54.5679317   2.4623136  91.4591830
  54.7371369   4.7553512  93.3677207  54.6170994   5.2010563  94.2062688
  54.0423957   5.1038830  92.8090746  52.4978261  17.5257154  97.0167339
  52.4202290  18.4764979  97.0955819  51.8939904  17.1803026  97.6742265
  60.4356435   5.2274985  94.1957541  61.3474291   5.4602372  94.0205239
  59.9266082   5.8112030  93.6332620  59.0426017  10.2100804 101.5871123
  58.4134880  10.3746518 100.8847191  58.6551679  10.6242413 102.3582087
  62.9215249  11.1455242  98.9415487  62.2366287  11.5254143  98.3912520
  63.0059098  11.7550568  99.6747434  54.5953979   9.9475212  98.8521208
  55.0592324  10.2262915  98.0625830  54.3310777   9.0458656  98.6694299
  53.5322865   6.0698364  95.6610773  54.2346908   6.5219408  96.1284699
  53.2003494   5.4282183  96.2890666  61.2912009  11.6687156 103.7133188
  62.1129452  11.2667343 103.4315869  61.2874411  11.5655390 104.6649303
  69.3818002   8.0125905 100.0618159  68.6281710   7.4433303  99.9062163
  69.5165543   7.9788569 101.0088794  54.7716630  12.8839307  95.7372878
  54.6362304  13.7290843  96.1657726  55.3126442  13.0858585  94.9738812
  48.2246027  10.4014745  96.3100803  48.7370548  11.1957995  96.4606368
  48.8768740   9.7041035  96.2434405  50.0340912  13.5180501  98.3923557
  50.2107540  14.4398466  98.2044541  50.8297745  13.2038920  98.8217936
  51.1572227  15.0358675 104.3933899  51.7079652  14.9075738 103.6210893
  50.3183703  15.3353564 104.0428792  46.1894944   8.7303399  97.0860374
  47.0270166   9.1400408  96.8694082  46.3673211   7.7902841  97.0560568
  58.0859376   6.3978480  92.7744207  57.5705999   7.1683085  93.0132594
  57.8136684   5.7243616  93.3977268  55.6706487   1.2428181  97.8329445
  54.8148083   0.8535031  97.6535084  56.0833439   1.3220141  96.9729231
  63.0593650   9.1510835  94.7097380  62.2823093   8.8121994  94.2652542
  63.7385131   9.1563458  94.0352345  57.8745679   4.2705572  94.6003988
  57.5695815   4.5851721  95.4514131  58.8276121   4.3486992  94.6431321
  56.3192111  10.4295795  96.2496942  55.7913473   9.6948555  95.9370180
  55.8179614  11.2070472  96.0036910  61.2984957   8.6244816 101.3663988
  60.6408631   9.3144077 101.4544117  62.1025356   9.0141248 101.7097975
  60.1090416   6.9789188  99.4167930  60.6222298   7.6119180  99.9189640
  60.7591640   6.3790384  99.0511290  51.3780426   3.1219923  92.6299439
  50.5417738   3.4594609  92.9508714  51.2385195   2.9868902  91.6926576
  54.4644711   8.2476006  89.2531915  53.5571773   8.0165259  89.4523064
  54.9615743   7.4513625  89.4405897  57.3712790  16.9573513  92.1728601
  56.6974489  17.2605210  92.7813559  57.7578612  17.7602593  91.8234058
  57.3706294   5.8530060  96.7928951  58.1178113   6.3651457  96.4836073
  57.6397884   5.5314112  97.6533344  55.6432945   8.3488600  93.7755905
  54.7344164   8.0647633  93.8728375  55.6728028   8.7687679  92.9159212
  60.8752212  11.9595190  97.5447073  60.4214539  11.1186100  97.6012263
  60.2446179  12.5956588  97.8821853  59.8185132   2.8887176  98.7747740
  59.0807888   2.3764562  99.1057983  60.0711905   2.4487558  97.9631017
  59.3185151  13.7971687  98.4796891  59.6108126  14.3576744  97.7609257
  59.8283772  14.0900248  99.2350050  54.1917839   5.9617221  99.8765701
  54.2466448   5.0091057  99.8008177  53.3809041   6.1176660 100.3606999
  55.3409032   9.8897344  91.1143984  54.9028462   9.1733203  90.6549621
  56.0819473  10.1173459  90.5529075  52.1310199   4.5794281  97.6356079
  51.3178064   4.8788451  98.0421272  52.6269193   4.1849970  98.3530562
  54.2818776  14.5752038  99.5690344  54.2394955  14.8012884  98.6398876
  55.1981475  14.3415412  99.7176145  63.4582147   8.1654541  97.1720302
  63.3200046   8.3556137  96.2441492  63.1018366   8.9273924  97.6288353
  63.4851527  10.2331068 102.1831574  63.9188033  10.1406357 103.0314628
  64.1983107  10.2088569 101.5451590  52.3984577  11.4515067  99.3652307
  53.1925176  10.9565387  99.1634882  51.6876270  10.9232930  99.0020012
  57.2179422  13.8333162 103.7164674  57.2716444  14.4024099 104.4842390
  56.3494203  14.0035047 103.3518712  48.7067341   5.5958148  95.4412060
  47.7764929   5.5342604  95.6582022  48.8024813   5.0734101  94.6448701
  64.3467076  10.2754769 104.7164459  64.5402966  11.1800579 104.9623734
  64.2467694   9.8162188 105.5503044  54.9755853  12.0244089 103.0450144
  54.8366939  11.6562873 103.9176082  54.1870449  12.5391728 102.8734102
  55.5704005  17.1253185  94.3875680  55.7455761  16.6541228  95.2021303
  54.8836793  17.7518951  94.6156941  56.5261068  11.4025691 100.4338982
  56.1910901  11.3626461 101.3296632  56.0265014  10.7370407  99.9609392
  59.4620260   8.7481726  90.7076041  58.8449431   8.0228554  90.6109094
  58.9936748   9.5091086  90.3643116  50.1365090  20.2742548 101.1615541
  50.3761689  20.9061072 101.8394559  49.2934287  19.9230588 101.4480900
  51.2518806   2.9667150  89.8297346  50.3748272   2.8455951  89.4659592
  51.7276559   2.1753228  89.5776234  54.6492952  16.0821670 103.5657045
  54.5763124  16.8876642 104.0776349  54.2070345  16.2813636 102.7405066
  54.4382732  15.3193440  97.0759866  53.6550254  15.8615121  97.1698091
  55.1375477  15.8367420  97.4754107  65.6009139   6.8328435 101.3612363
  65.5899016   7.7153151 100.9906296  64.7326519   6.4799986 101.1666900
  57.1091636  15.9808504 105.7215203  57.8219608  16.6155969 105.6491105
  56.6181664  16.0772370 104.9055205  58.8309163   9.8859757  97.2932495
  57.8965441  10.0061220  97.1237199  59.0085831   8.9832224  97.0292505
  62.2181714   5.7277076  97.8282529  62.6842166   6.5605068  97.7542832
  62.6689215   5.2622058  98.5327788  60.2857945  12.0720898  94.8268681
  60.5617789  11.9577492  95.7362555  59.4162444  11.6738383  94.7880854
  56.9212009  16.3207249  98.4701495  57.1034404  15.5028904  98.9329247
  57.7444995  16.5374941  98.0326385  57.2554175  15.2475434  95.7316543
  57.7841941  14.7367888  95.1186705  57.5182394  14.9317964  96.5962076
  50.6109923  16.2990550  98.4914319  49.9420298  16.7836678  98.0078359
  50.4722792  16.5459771  99.4057698  54.7515191  18.3334294 105.0896978
  55.3033499  18.4965915 105.8546063  55.0921385  18.9238732 104.4177002
  45.9797500   4.5609005  95.2710251  46.2750941   3.6519684  95.2177305
  45.0785535   4.5396745  94.9491254  57.8883578  16.2816269 102.0760660
  57.7634718  15.4806009 101.5671605  58.5462670  16.7762463 101.5874630
  59.9518487  14.0825289 103.7040210  59.0048822  13.9630641 103.6318536
  60.3001260  13.1947787 103.7866471  56.9564920  13.8778006  99.9044562
  56.8089883  12.9494713 100.0852132  57.7818414  13.8998096  99.4201637
  50.8227164   2.5296073  95.7625054  51.1623237   3.0581994  95.0403663
  51.2699285   2.8676479  96.5383621  60.5599042  14.7006564 100.9909435
  61.4845589  14.4949426 100.8533886  60.3914345  14.4522966 101.8998776
  52.8095312   1.0270694  93.9618347  53.5303674   1.4051947  93.4582064
  52.1860616   1.7459571  94.0653325  56.9526434   1.7315843  94.8976679
  57.1690049   2.6140481  94.5965507  56.4720502   1.3402057  94.1682321
  60.3494358  15.2192232  96.3471526  60.5231236  14.6538654  95.5945379
  60.8423249  16.0193127  96.1651016  66.2033749   7.9828655  97.9661826
  66.6464895   7.2335980  97.5680949  65.3260260   7.9738791  97.5835558
  61.3369531  14.5358996  93.4468424  62.0320435  15.1565689  93.6655739
  61.6792681  13.6854347  93.7220802  63.2360954  11.9858702  94.9755755
  63.7612278  12.3245975  94.2505075  63.1483306  11.0505717  94.7918890
  54.9201615  18.0530685  99.3351008  54.4806605  17.5607064 100.0283865
  55.6709732  17.5103653  99.0943084  47.3993954  14.2442226  99.3375637
  48.2251973  13.9445998  98.9574280  47.0488006  13.4749848  99.7865425
  52.3675487  13.5968694 101.4073310  51.7455496  12.9339399 101.1075538
  53.0380354  13.6229826 100.7246958  51.9288994  12.1472617  94.8831771
  52.0777114  12.8308082  94.2298443  52.7355437  12.1277708  95.3981226
  65.7466614   9.4533893 100.3584274  66.5813505   9.8923697 100.5221834
  65.8825743   8.9772546  99.5392519  49.6841627   8.1737795  95.8892840
  49.4387669   7.2700125  96.0873050  49.8537541   8.1754946  94.9472318
  48.9537274   3.9066153  93.3879001  48.2606519   3.9810508  92.7319037
  48.7089026   3.1426496  93.9100518  55.4284399  14.6420748  92.3543518
  54.8558366  15.2610935  91.9013990  56.0017193  15.1920110  92.8883440
  58.6481659  14.9257898  93.4852100  59.5812332  14.8603460  93.6884976
  58.5604872  15.7614165  93.0266633  61.2769676  14.2423768  90.4456048
  61.1983307  13.9083632  91.3391806  62.0979342  14.7345536  90.4447520
  63.9747867   7.1085508 103.6532367  63.9424187   6.1701508 103.8392050
  64.5848490   7.1869544 102.9198191  55.8131198   5.9781561  89.6959571
  56.7590302   5.8487769  89.7647989  55.4345443   5.2396223  90.1728999
  69.7924417   8.1701515 102.7938403  70.5227805   7.9086803 103.3546107
  69.1831362   7.4330236 102.8340471  67.8739714   6.3109377 103.3912855
  67.1472877   6.1765342 102.7829346  67.4587001   6.6186206 104.1969573
  53.9974115   3.9031537  89.6314456  53.0905570   3.6064650  89.7077169
  54.2750096   3.6061355  88.7648742  55.6136181  -1.5531573  95.7858697
  54.8036909  -1.8984488  96.1613943  56.3020597  -1.8624029  96.3746309
  52.7672899   0.7618472  89.7726435  53.6292063   1.0873371  90.0322252
  52.9523244  -0.0250032  89.2599501  60.9205536  -0.3653001  96.9161658
  60.3404205   0.2931803  96.5339710  60.6541469  -1.1875657  96.5049075
  59.7030414   1.7947089  95.9718006  58.8156269   2.0796740  95.7538201
  60.1184403   1.6340853  95.1245283  63.0544950   1.8193610  99.6872345
  63.8305340   2.3090063  99.9596962  62.3293084   2.2451664 100.1444215
  65.4917509   2.5321229 100.7446286  66.0862000   2.2916965 100.0339594
  65.5644092   1.8128360 101.3719822  47.7114664  16.3754840 101.0589451
  47.5769132  15.6155241 100.4927449  47.2946727  17.0995740 100.5918240
  58.8473627  11.5591764  90.0666026  59.5509478  11.7641766  90.6823682
  58.1236276  12.1268526  90.3315110  59.6771438   7.3101625  96.1868296
  59.6206639   7.7670176  95.3475929  60.2299780   6.5492310  96.0091139
  63.4876244   3.0991357  97.0118416  63.2313178   2.6987993  97.8426624
  62.8629112   3.8135151  96.8868555  67.7988581   5.8387430  99.5189707
  67.2388139   5.9080619 100.2921269  67.1932085   5.6628415  98.7989204
  50.8683790  17.2724157 101.2707894  50.7516174  18.2169590 101.1686584
  50.0476237  16.9697719 101.6593693  60.7560325  11.9974293  92.1164486
  61.5905929  11.5655491  91.9341961  60.5944668  11.8256307  93.0441381
  60.4106217   8.5006406  93.4820826  60.3555021   8.3350678  92.5409270
  59.7852272   9.2082439  93.6383015  53.7202342  -1.9985485  93.0606144
  53.7081012  -1.0543645  93.2174415  54.6125764  -2.1815339  92.7665605
  51.8938304  17.9252419 104.4863822  52.7965551  17.9576029 104.8030317
  51.6675674  16.9952870 104.5010158  53.6491906  16.6783406 101.1473901
  52.6987537  16.6785267 101.0338273  53.9524393  15.9316140 100.6309935
  69.3844600  22.5143944 102.2119663  70.0223010  22.3950691 101.5083003
  69.2665443  23.4624788 102.2707615  66.1934306  22.4671372 102.1481188
  65.8552818  22.3512437 101.2601723  67.0624074  22.0662537 102.1282194
  62.0521122  24.3206849  98.1378079  61.4885987  24.2296786  97.3694366
  61.9373517  23.5006753  98.6180571  66.6754089  23.6206224 108.1067393
  66.6642730  23.2259022 107.2347897  66.8374729  22.8872297 108.7001165
  59.5985554  25.8158040 100.9762299  60.3906846  25.4748865 100.5608598
  59.8382204  25.9253015 101.8964452  67.6320681  27.9877816  93.4492544
  66.9808660  28.5731897  93.0626557  68.4265043  28.5184011  93.5087581
  61.5576308  25.0766953  93.8479678  62.3307184  24.5295941  93.7092554
  61.9101707  25.9411203  94.0594139  63.3961350  26.4043336 107.0546577
  63.1051216  27.3088967 106.9393244  64.0318335  26.4459863 107.7690647
  64.3217557  23.7820184 103.6447937  64.9181129  23.5576207 102.9304900
  64.3792529  23.0404930 104.2473385  63.8942586  21.2359620  91.4798128
  64.1468106  20.7141141  90.7181591  62.9567145  21.0725765  91.5824811
  68.9385868  20.2395398  99.2872871  69.7248958  19.8214821  98.9363288
  69.2024573  21.1441490  99.4554519  69.1095946  25.6768248  93.9861528
  68.4741779  25.7502875  94.6982433  68.7793352  26.2661847  93.3080607
  74.3394296  20.1770631 100.1905850  75.0719467  19.6069848 100.4243679
  73.5833651  19.7892232 100.6312355  63.6138874  23.1387726  93.6822503
  63.4975132  22.4632629  94.3503587  63.7241134  22.6520099  92.8654656
  65.9570415  22.5997873  97.3869192  65.5928622  22.0728494  98.0982114
  66.8137531  22.2096342  97.2135677  71.8619716  13.8892205 104.6500458
  71.5303041  14.7587616 104.4261673  71.2665329  13.5728489 105.3294489
  65.5975902  17.6287772  92.3830541  65.7650305  18.4968009  92.7501012
  65.4073071  17.7915054  91.4591830  68.3551235  26.0904751 104.0496371
  68.0551958  26.9929790 103.9412178  68.0102295  25.8236934 104.9017524
  61.8063717  22.5418548 100.0833075  60.8814213  22.4094762 100.2910767
  62.0548130  23.3212767 100.5803018  71.7548379  18.6087291 101.7293808
  70.8465257  18.5402700 101.4352569  71.7035975  19.0859236 102.5575634
  65.5765123  20.0845430  93.3677207  65.4564748  20.5302481  94.2062688
  64.8817711  20.4330748  92.8090746  59.1672528  22.1851822 100.9176864
  59.2964909  22.4386301 101.8316276  58.4869979  22.7779530 100.5981519
  63.3372015  32.8549072  97.0167339  63.2596045  33.8056897  97.0955819
  62.7333659  32.5094944  97.6742265  65.8289245  20.0276937 109.6728706
  65.0522579  20.5870857 109.6631570  66.4679808  20.5133720 110.1943576
  73.6210026  16.8103730 103.5071682  72.9784406  17.1036263 102.8611477
  73.1164954  16.6956650 104.3124879  71.2750189  20.5566903  94.1957541
  72.1868045  20.7894290  94.0205239  70.7659836  21.1403947  93.6332620
  64.0835617  22.8362390 109.2346673  64.8250302  23.3747434 108.9581496
  63.3772603  23.4628679 109.3918224  69.5590957  24.9791531 107.8318834
  69.9674313  24.5373941 107.0873466  68.8368218  24.4044158 108.0853027
  65.9122027  19.9164138 105.2052391  66.7583222  20.3403551 105.3487040
  65.8520665  19.2597762 105.8990954  69.8819772  25.5392721 101.5871123
  69.2528634  25.7038436 100.8847191  69.4945434  25.9534331 102.3582087
  73.7609003  26.4747159  98.9415487  73.0760042  26.8546061  98.3912520
  73.8452853  27.0842486  99.6747434  69.0621472  17.5768506 106.8633565
  68.8182404  18.3310567 106.3267840  69.3381403  17.9553854 107.6980812
  71.0159935  24.1207118 105.5410830  71.2276830  24.7638878 104.8645211
  70.9689683  23.2869435 105.0732760  68.6186164  16.7324939 102.4447402
  67.7570643  17.0306193 102.7364140  68.6448599  16.9495338 101.5128435
  65.4347733  25.2767130  98.8521208  65.8986079  25.5554833  98.0625830
  65.1704532  24.3750574  98.6694299  62.3271815  24.8238611 101.7900971
  62.8973172  25.2525879 101.1518456  62.9179926  24.5421196 102.4885157
  64.3716619  21.3990282  95.6610773  65.0740663  21.8511326  96.1284699
  64.0397248  20.7574101  96.2890666  62.8196981  19.9902039 110.0361983
  62.1895642  20.6718319 110.2697379  62.7133069  19.8785120 109.0915121
  58.1141953  19.6573835 100.9627907  57.3241007  19.9131363 100.4868017
  58.6053201  20.4722172 101.0679947  72.1305763  26.9979074 103.7133188
  72.9523207  26.5959261 103.4315869  72.1268166  26.8947308 104.6649303
  60.0656699  20.0218414  97.9211383  59.2687862  20.1337108  98.4394879
  59.8382291  20.3605066  97.0552274  65.8962366  26.5463117 105.8693898
  65.9606799  27.0083524 106.7052070  65.1873290  25.9160482 105.9976208
  56.3979656  19.9104325 103.3942897  56.6487695  20.7951335 103.6600473
  56.9339205  19.7308927 102.6217989  80.2211756  23.3417822 100.0618159
  79.4675464  22.7725220  99.9062163  80.3559297  23.3080487 101.0088794
  65.6110384  28.2131225  95.7372878  65.4756059  29.0582760  96.1657726
  66.1520197  28.4150502  94.9738812  59.0639782  25.7306663  96.3100803
  59.5764302  26.5249913  96.4606368  59.7162494  25.0332953  96.2434405
  60.8734666  28.8472419  98.3923557  61.0501295  29.7690384  98.2044541
  61.6691500  28.5330838  98.8217936  65.0145685  15.7080684 109.9907490
  65.7555398  16.3087837 109.9111953  65.2463608  14.9658321 109.4325533
  60.1587023  20.8937051 108.2685720  60.0440538  19.9922308 108.5692819
  59.3031541  21.1400748 107.9170536  67.2378860  28.8354791 109.8673220
  66.7942715  28.0491170 109.5494125  67.8996074  29.0233942 109.2017111
  61.9965982  30.3650593 104.3933899  62.5473407  30.2367656 103.6210893
  61.1577458  30.6645482 104.0428792  69.3360099  29.1157591 107.8954622
  69.3178574  29.9366472 107.4034891  70.2580019  28.9911666 108.1204763
  65.7933153  26.6301720 108.7378130  66.3261490  25.8690009 108.5077438
  65.2647234  26.3375372 109.4802285  68.9602848  11.7361786 104.2671772
  68.6167117  12.6263428 104.1910882  69.3281810  11.5463444 103.4041357
  57.0288698  24.0595317  97.0860374  57.8663920  24.4692325  96.8694082
  57.2066966  23.1194759  97.0560568  68.9253130  21.7270398  92.7744207
  68.4099754  22.4975002  93.0132594  68.6530439  21.0535534  93.3977268
  66.5100241  16.5720098  97.8329445  65.6541838  16.1826949  97.6535084
  66.9227193  16.6512059  96.9729231  68.0399388  14.1066442 102.2321005
  67.5364184  14.0696577 101.4188810  68.3329995  15.0159184 102.2917662
  64.2842274  14.1905171 101.2387187  65.1495271  13.9947980 100.8793076
  64.3519783  13.9615523 102.1656544  73.8987405  24.4802752  94.7097380
  73.1216847  24.1413912  94.2652542  74.5778886  24.4855375  94.0352345
  68.7139434  19.5997490  94.6003988  68.4089569  19.9143639  95.4514131
  69.6669876  19.6778910  94.6431321  67.1585865  25.7587713  96.2496942
  66.6307227  25.0240473  95.9370180  66.6573368  26.5362389  96.0036910
  72.1378711  23.9536733 101.3663988  71.4802386  24.6435995 101.4544117
  72.9419111  24.3433165 101.7097975  61.8904593  16.4207379  98.6103554
  62.4648345  16.1982561  97.8776747  62.4775575  16.4896074  99.3632155
  70.9484170  22.3081106  99.4167930  71.4616052  22.9411098  99.9189640
  71.5985394  21.7082302  99.0511290  62.2174180  18.4511840  92.6299439
  61.3811492  18.7886527  92.9508714  62.0778950  18.3160820  91.6926576
  64.1927261  13.2948628  97.3378623  63.5391673  12.9797645  96.7135238
  64.1507735  12.6724369  98.0638446  65.3038466  23.5767923  89.2531915
  64.3965527  23.3457177  89.4523064  65.8009498  22.7805542  89.4405897
  68.2106544  32.2865430  92.1728601  67.5368243  32.5897127  92.7813559
  68.5972366  33.0894511  91.8234058  67.4265001  19.7830562 101.6626271
  66.5087562  20.0045509 101.5047959  67.8425145  19.8576872 100.8037978
  68.2100049  21.1821977  96.7928951  68.9571868  21.6943375  96.4836073
  68.4791638  20.8606030  97.6533344  66.4826699  23.6780518  93.7755905
  65.5737918  23.3939551  93.8728375  66.5121783  24.0979597  92.9159212
  71.7145966  27.2887108  97.5447073  71.2608294  26.4478017  97.6012263
  71.0839933  27.9248506  97.8821853  70.6578886  18.2179094  98.7747740
  69.9201643  17.7056480  99.1057983  70.9105660  17.7779475  97.9631017
  70.1578906  29.1263604  98.4796891  70.4501880  29.6868661  97.7609257
  70.6677526  29.4192165  99.2350050  70.7590513  10.9955346  99.3689509
  71.0649390  10.1352709  99.0815425  71.4843118  11.5872966  99.1688503
  57.0514869  21.3986032  97.7571107  56.8539269  20.8055393  97.0322174
  56.4961533  21.0938242  98.4747046  65.0311593  21.2909139  99.8765701
  65.0860203  20.3382975  99.8008177  64.2202795  21.4468578 100.3606999
  66.1802787  25.2189262  91.1143984  65.7422217  24.5025121  90.6549621
  66.9213228  25.4465377  90.5529075  62.9703953  19.9086198  97.6356079
  62.1571819  20.2080369  98.0421272  63.4662947  19.5141887  98.3530562
  65.1212531  29.9043955  99.5690344  65.0788710  30.1304802  98.6398876
  66.0375230  29.6707330  99.7176145  68.5678165  20.3728023 106.4670973
  68.9227552  20.5999496 107.3265439  69.2150296  20.7046400 105.8448229
  74.2975902  23.4946459  97.1720302  74.1593800  23.6848055  96.2441492
  73.9412120  24.2565842  97.6288353  62.4618028  17.4804554 103.2517314
  63.1017407  17.3393313 102.5540278  61.6295558  17.1939067 102.8755916
  74.3245281  25.5622986 102.1831574  74.7581788  25.4698275 103.0314628
  75.0376862  25.5380486 101.5451590  63.2378332  26.7806984  99.3652307
  64.0318930  26.2857305  99.1634882  62.5270024  26.2524848  99.0020012
  68.0573176  29.1625080 103.7164674  68.1110198  29.7316016 104.4842390
  67.1887958  29.3326965 103.3518712  59.5461095  20.9250066  95.4412060
  58.6158683  20.8634522  95.6582022  59.6418567  20.4026019  94.6448701
  59.4646644  17.4504879  98.0290301  59.7253461  18.3650212  97.9199462
  60.2863817  16.9829322  98.1786914  60.9371570  18.8642636 105.1989126
  61.6094623  18.6559998 104.5501775  60.1101356  18.6664722 104.7594358
  75.1860831  25.6046686 104.7164459  75.3796721  26.5092497 104.9623734
  75.0861449  25.1454106 105.5503044  66.8397142  15.4904577 107.2154787
  66.1925057  16.1894527 107.1219263  67.6098157  15.9240721 107.5831035
  70.2475939  25.7553429 110.2905340  70.0961446  25.5263981 109.3735424
  70.2380619  26.7124031 110.3036685  67.0161276  23.3285342 105.2751606
  67.9453336  23.4796502 105.1020574  66.5952306  23.4169363 104.4200253
  65.8149608  27.3536006 103.0450144  65.6760693  26.9854791 103.9176082
  65.0264204  27.8683646 102.8734102  66.4097760  32.4545103  94.3875680
  66.5849515  31.9833146  95.2021303  65.7230548  33.0810869  94.6156941
  67.3654823  26.7317609 100.4338982  67.0304655  26.6918379 101.3296632
  66.8658768  26.0662325  99.9609392  61.3399067  22.1385239 105.9591563
  61.2018865  21.4065478 106.5603102  62.2503990  22.0494139 105.6775751
  70.3014014  24.0773643  90.7076041  69.6843185  23.3520472  90.6109094
  69.8330503  24.8383004  90.3643116  63.9681367  21.8505198 105.4475243
  64.6780986  21.2098391 105.4061861  63.9250676  22.1018093 106.3701423
  71.9568146  28.7872552 108.3681822  71.8980692  28.1031772 107.7012405
  72.3587664  29.5291542 107.9162448  62.6810301  18.8370416 107.2670882
  62.1447658  18.3861155 107.9192478  62.0927010  18.9716325 106.5241346
  60.9758845  35.6034466 101.1615541  61.2155443  36.2352990 101.8394559
  60.1328041  35.2522506 101.4480900  62.0912560  18.2959068  89.8297346
  61.2142027  18.1747869  89.4659592  62.5670313  17.5045146  89.5776234
  71.9585553  26.7512136 106.5995801  71.0712332  26.4138057 106.7222200
  72.5284104  26.0195167 106.8364567  53.6114701  23.0836227  99.9238853
  54.2985740  22.7697957  99.3359868  53.4562829  23.9877592  99.6506104
  58.4149423  17.9726424 104.3523876  58.3307611  17.3652094 103.6174286
  57.5932129  18.4635442 104.3533373  65.4886707  31.4113588 103.5657045
  65.4156878  32.2168560 104.0776349  65.0464100  31.6105554 102.7405066
  65.2776486  30.6485358  97.0759866  64.4944008  31.1907038  97.1698091
  65.9769232  31.1659338  97.4754107  68.5873137  16.4579988  99.7194072
  69.0841836  15.7049950  99.3995142  67.8160118  16.4944304  99.1537281
  76.4402894  22.1620353 101.3612363  76.4292770  23.0445069 100.9906296
  75.5720273  21.8091904 101.1666900  67.9485390  31.3100422 105.7215203
  68.6613363  31.9447887 105.6491105  67.4575419  31.4064288 104.9055205
  69.6702917  25.2151675  97.2932495  68.7359196  25.3353137  97.1237199
  69.8479586  24.3124142  97.0292505  65.1708105  18.5997371  99.4465756
  64.8005893  18.0468411 100.1346662  65.6667198  17.9955504  98.8940756
  73.0575469  21.0568994  97.8282529  73.5235921  21.8896986  97.7542832
  73.5082969  20.5913976  98.5327788  62.9997304  29.0594866 106.5420774
  63.7006763  29.6931349 106.6950168  62.5292419  29.4009597 105.7816413
  71.1251700  27.4012815  94.8268681  71.4011544  27.2869410  95.7362555
  70.2556198  27.0030300  94.7880854  71.0292131  13.4249581 101.8673430
  70.1155211  13.6553808 102.0355637  71.4585233  13.5088025 102.7187463
  70.7998590  21.6139473 104.3673324  70.1470040  21.8615380 103.7125777
  71.1778970  20.8003611 104.0335802  67.7605764  31.6499166  98.4701495
  67.9428158  30.8320822  98.9329247  68.5838750  31.8666858  98.0326385
  68.0947929  30.5767351  95.7316543  68.6235696  30.0659806  95.1186705
  68.3576149  30.2609882  96.5962076  66.8486163  22.3559284 110.8539362
  66.1726800  22.2553413 111.5241737  67.6713797  22.1998498 111.3175359
  58.5965022  28.5931221 103.4751877  59.1818459  27.8474909 103.6079781
  58.3989860  28.9035177 104.3588541  61.4503677  31.6282468  98.4914319
  60.7814052  32.1128596  98.0078359  61.3116547  31.8751688  99.4057698
  53.1882677  21.1636821 102.1956320  53.2266776  20.6300411 102.9893438
  52.6822969  20.6372026 101.5767297  65.5908946  33.6626212 105.0896978
  66.1427254  33.8257833 105.8546063  65.9315139  34.2530649 104.4177002
  60.5673439  16.0101361 105.6918862  60.6314765  16.8716192 105.2796260
  60.5040559  15.3975363 104.9591221  70.4419820  28.4887469 110.9445632
  70.9859724  29.1017427 110.4500587  69.8606665  29.0467047 111.4612645
  56.8191254  19.8900923  95.2710251  57.1144695  18.9811601  95.2177305
  55.9179290  19.8688662  94.9491254  68.7277333  31.6108187 102.0760660
  68.6028472  30.8097927 101.5671605  69.3856424  32.1054380 101.5874630
  60.3485501  17.9656920 101.2537800  59.6272087  18.5792887 101.1145273
  61.1378757  18.5014684 101.1754446  70.7912241  29.4117207 103.7040210
  69.8442577  29.2922558 103.6318536  71.1395014  28.5239705 103.7866471
  63.1511815  15.3011346 107.5278452  63.6746217  15.5473643 108.2904761
  62.9324148  16.1331381 107.1081589  58.5479096  17.5715021  95.3949576
  58.2191802  16.6912400  95.2124682  58.9018466  17.5162689  96.2825966
  67.7958675  29.2069923  99.9044562  67.6483637  28.2786631 100.0852132
  68.6212168  29.2290014  99.4201637  61.6620919  17.8587990  95.7625054
  62.0016991  18.3873912  95.0403663  62.1093039  18.1968397  96.5383621
  71.3992796  30.0298482 100.9909435  72.3239344  29.8241343 100.8533886
  71.2308100  29.7814883 101.8998776  64.3564360  16.2425041 105.2128122
  64.0161180  15.4432854 105.6148802  63.6503366  16.5426752 104.6404955
  65.0080832  13.3274354 103.6655445  65.8306901  12.8534832 103.5434336
  65.2518895  14.1064837 104.1654132  63.6489066  16.3562612  93.9618347
  64.3697429  16.7343865  93.4582064  63.0254370  17.0751489  94.0653325
  67.7920189  17.0607761  94.8976679  68.0083803  17.9432399  94.5965507
  67.3114256  16.6693974  94.1682321  62.5319410  20.0193474 101.4747424
  62.3863991  20.3333777 102.3671705  62.0544614  20.6378375 100.9218322
  64.3915793  17.0096022 101.5228313  64.3777362  16.1137116 101.1860611
  65.1088221  17.0166686 102.1566599  66.2441924  17.4433362 103.5681441
  65.9859702  18.3650433 103.5665771  65.7126964  17.0463797 104.2581905
  71.1888113  30.5484150  96.3471526  71.3624990  29.9830572  95.5945379
  71.6817004  31.3485044  96.1651016  57.0065073  22.5598819 104.4135085
  56.4618541  23.3358627 104.5455359  57.8844422  22.9069623 104.2554206
  63.7952689  15.8910402  96.7915884  63.9168600  14.9627049  96.9906771
  63.5054732  15.9049088  95.8794199  66.6643880  13.5765313  99.9282603
  66.6865576  13.6404646  98.9734583  67.0811939  12.7369822 100.1223110
  77.0427504  23.3120572  97.9661826  77.4858650  22.5627898  97.5680949
  76.1654014  23.3030709  97.5835558  72.1763285  29.8650914  93.4468424
  72.8714190  30.4857607  93.6655739  72.5186435  29.0146265  93.7220802
  57.7931094  21.6868715 107.3065242  57.0512830  21.8351350 107.8929872
  57.4723839  21.9476980 106.4431991  74.0754708  27.3150619  94.9755755
  74.6006032  27.6537892  94.2505075  73.9877061  26.3797635  94.7918890
  65.7374757  31.2284693 107.1045632  66.0461883  30.9833840 107.9768331
  66.5350239  31.4331332 106.6164502  65.7595369  33.3822603  99.3351008
  65.3200359  32.8898981 100.0283865  66.5103486  32.8395570  99.0943084
  58.2387708  29.5734144  99.3375637  59.0645728  29.2737915  98.9574280
  57.8881760  28.8041766  99.7865425  63.2069241  28.9260612 101.4073310
  62.5849251  28.2631317 101.1075538  63.8774108  28.9521744 100.7246958
  56.4396313  27.4920470 100.2964570  55.6028221  27.0642644 100.1148571
  56.4119959  27.6852913 101.2335361  73.7648614  27.9483523 110.2806953
  72.9744158  27.9307662 109.7411453  73.5281969  28.4871817 111.0355990
  73.8846489  24.7975989 107.5939682  73.9344494  24.6325997 108.5355205
  73.7760413  23.9303248 107.2037563  62.7682748  27.4764535  94.8831771
  62.9170869  28.1600000  94.2298443  63.5749192  27.4569625  95.3981226
  71.1750252  20.7806917 108.9098988  72.0760115  20.6413382 108.6182986
  71.2498226  20.9461372 109.8497166  65.5093057  18.1573772 107.7552175
  64.6396367  18.4507338 107.4834763  65.7452538  18.7414217 108.4759438
  75.3864686  27.2172931 107.8381703  75.0949495  27.5802912 108.6745164
  74.7736818  26.5039939 107.6595035  76.5860369  24.7825811 100.3584274
  77.4207260  25.2215615 100.5221834  76.7219497  24.3064464  99.5392519
  73.6351875  22.3405546 106.3061761  74.1105996  22.5333192 105.4980613
  72.7117440  22.3964731 106.0605145  60.5235381  23.5029713  95.8892840
  60.2781423  22.5992043  96.0873050  60.6931296  23.5046863  94.9472318
  68.2132091  14.3753389 105.2717595  68.7314035  15.1114416 104.9464084
  67.8587224  14.6817382 106.1064354  59.7931029  19.2358070  93.3879001
  59.1000274  19.3102425  92.7319037  59.5482781  18.4718414  93.9100518
  68.4644685  10.7953672 100.7918492  68.7446439  10.1276861 101.4178918
  69.2495292  10.9882767 100.2793156  66.2678154  29.9712666  92.3543518
  65.6952121  30.5902853  91.9013990  66.8410947  30.5212027  92.8883440
  72.3353544  19.2171306 104.5390067  73.2870966  19.3169403 104.5602291
  72.1656994  18.4249574 105.0488151  70.3567923  16.3026889 104.7249468
  69.7617855  16.5831902 104.0295956  70.0717620  16.7920790 105.4966209
  69.4875413  30.2549816  93.4852100  70.4206087  30.1895377  93.6884976
  69.3998626  31.0906083  93.0266633  72.1163430  29.5715686  90.4456048
  72.0377062  29.2375550  91.3391806  72.9373097  30.0637454  90.4447520
  74.8141621  22.4377425 103.6532367  74.7817941  21.4993426 103.8392050
  75.4242245  22.5161462 102.9198191  66.6524952  21.3073478  89.6959571
  67.5984057  21.1779686  89.7647989  66.2739197  20.5688140  90.1728999
  74.9636110  19.2288469 103.6990650  74.4475158  18.4446925 103.5120579
  75.8476058  18.9007185 103.8637169  72.6246837  12.9729484  99.6586462
  72.4271658  12.6644573 100.5429794  73.2346542  13.6991123  99.7884392
  80.6318171  23.4993432 102.7938403  81.3621560  23.2378720 103.3546107
  80.0225117  22.7622154 102.8340471  78.7133468  21.6401295 103.3912855
  77.9866632  21.5057260 102.7829346  78.2980755  21.9478123 104.1969573
  66.5363645  25.3591224 111.1560228  67.4566654  25.5369823 111.3500274
  66.5013228  24.4147270 111.0039927  64.8367869  19.2323455  89.6314456
  63.9299325  18.9356567  89.7077169  65.1143850  18.9353273  88.7648742
  55.7545810  20.5529818 100.0813502  55.4348594  19.6995126  99.7887876
  55.2079238  20.7678396 100.8371470  59.5325717  23.2692259 103.7983009
  59.7511727  24.2009367 103.8171043  59.9451491  22.9100234 104.5837813
  66.4529935  13.7760344  95.7858697  65.6430663  13.4307429  96.1613943
  67.1414352  13.4667888  96.3746309  68.3820483  12.8538391  97.4082994
  68.9351522  13.2733845  98.0673017  68.6190570  11.9274139  97.4505950
  63.6066654  16.0910390  89.7726435  64.4685818  16.4165288  90.0322252
  63.7916998  15.3041886  89.2599501  55.6234070  24.1732730 102.0506624
  54.9297541  23.7586682 101.5376578  56.3707061  24.2153266 101.4540043
  71.7599290  14.9638916  96.9161658  71.1797959  15.6223720  96.5339710
  71.4935223  14.1416261  96.5049075  70.2102857  14.3643974  99.1182978
  70.7102635  14.4760509  98.3097297  70.8538465  14.0605027  99.7583787
  64.2684853  22.2722604 112.0050819  63.7851934  23.0722964 112.2114708
  64.3545792  22.2830549 111.0518263  57.5370812  24.1050983  99.9272639
  57.5141500  24.2038671  98.9754522  57.8471449  24.9516134 100.2489805
  60.1958190  26.1627138 104.0419253  61.1501444  26.1311081 103.9749185
  59.9970714  25.7017762 104.8569479  60.7857572  24.7328254 106.6090051
  61.6050461  25.2272333 106.6324888  61.0594380  23.8160223 106.5807618
  70.5424168  17.1239007  95.9718006  69.6550023  17.4088657  95.7538201
  70.9578158  16.9632770  95.1245283  73.8938705  17.1485528  99.6872345
  74.6699095  17.6381980  99.9596962  73.1686839  17.5743582 100.1444215
  76.3311263  17.8613147 100.7446286  76.9255754  17.6208883 100.0339594
  76.4037847  17.1420278 101.3719822  58.5508419  31.7046758 101.0589451
  58.4162887  30.9447159 100.4927449  58.1340481  32.4287658 100.5918240
  69.6867382  26.8883681  90.0666026  70.3903232  27.0933684  90.6823682
  68.9630031  27.4560443  90.3315110  70.5165192  22.6393543  96.1868296
  70.4600394  23.0962094  95.3475929  71.0693535  21.8784227  96.0091139
  74.3269998  18.4283275  97.0118416  74.0706932  18.0279910  97.8426624
  73.7022866  19.1427069  96.8868555  78.6382336  21.1679348  99.5189707
  78.0781894  21.2372537 100.2921269  78.0325839  20.9920332  98.7989204
  61.7077545  32.6016075 101.2707894  61.5909929  33.5461507 101.1686584
  60.8869991  32.2989637 101.6593693  71.5954079  27.3266211  92.1164486
  72.4299683  26.8947409  91.9341961  71.4338422  27.1548224  93.0441381
  71.2499971  23.8298324  93.4820826  71.1948775  23.6642595  92.5409270
  70.6246027  24.5374357  93.6383015  56.0392486  19.0666388 107.3082248
  56.6851350  18.5565342 107.7969473  55.8309638  19.8035070 107.8825673
  68.5645879  26.1347236 112.8074388  69.4337038  26.3087888 112.4461023
  68.0852630  26.9541653 112.6850118  64.5596097  13.3306433  93.0606144
  64.5474767  14.2748273  93.2174415  65.4519519  13.1476578  92.7665605
  62.7332059  33.2544337 104.4863822  63.6359306  33.2867947 104.8030317
  62.5069429  32.3244788 104.5010158  64.4885661  32.0075323 101.1473901
  63.5381292  32.0077185 101.0338273  64.7918147  31.2608058 100.6309935
  68.3748216   9.9249210  97.3152081  67.6080612   9.3707696  97.4608763
  68.7858921   9.9971078  98.1766232  80.2238354  37.8435862 102.2119663
  80.8616764  37.7242609 101.5083003  80.1059197  38.7916706 102.2707615
  77.0328061  37.7963290 102.1481188  76.6946572  37.6804355 101.2601723
  77.9017829  37.3954455 102.1282194  72.8914876  39.6498766  98.1378079
  72.3279742  39.5588703  97.3694366  72.7767271  38.8298671  98.6180571
  77.5147844  38.9498142 108.1067393  77.5036484  38.5550940 107.2347897
  77.6768483  38.2164214 108.7001165  70.4379308  41.1449958 100.9762299
  71.2300600  40.8040783 100.5608598  70.6775958  41.2544933 101.8964452
  78.4714435  43.3169734  93.4492544  77.8202415  43.9023814  93.0626557
  79.2658798  43.8475929  93.5087581  72.3970062  40.4058871  93.8479678
  73.1700938  39.8587858  93.7092554  72.7495461  41.2703120  94.0594139
  74.2355105  41.7335253 107.0546577  73.9444971  42.6380884 106.9393244
  74.8712089  41.7751781 107.7690647  75.1611312  39.1112102 103.6447937
  75.7574884  38.8868124 102.9304900  75.2186283  38.3696847 104.2473385
  74.7336340  36.5651537  91.4798128  74.9861861  36.0433059  90.7181591
  73.7960899  36.4017683  91.5824811  79.7779623  35.5687316  99.2872871
  80.5642712  35.1506739  98.9363288  80.0418327  36.4733408  99.4554519
  79.9489700  41.0060166  93.9861528  79.3135533  41.0794792  94.6982433
  79.6187107  41.5953765  93.3080607  85.1788050  35.5062549 100.1905850
  85.9113222  34.9361766 100.4243679  84.4227406  35.1184149 100.6312355
  74.4532629  38.4679643  93.6822503  74.3368887  37.7924547  94.3503587
  74.5634889  37.9812017  92.8654656  76.7964170  37.9289790  97.3869192
  76.4322377  37.4020411  98.0982114  77.6531286  37.5388259  97.2135677
  82.7013470  29.2184123 104.6500458  82.3696795  30.0879534 104.4261673
  82.1059084  28.9020407 105.3294489  76.4369657  32.9579690  92.3830541
  76.6044059  33.8259926  92.7501012  76.2466826  33.1206972  91.4591830
  79.1944990  41.4196669 104.0496371  78.8945713  42.3221708 103.9412178
  78.8496049  41.1528852 104.9017524  72.6457471  37.8710466 100.0833075
  71.7207968  37.7386680 100.2910767  72.8941885  38.6504685 100.5803018
  82.5942134  33.9379209 101.7293808  81.6859011  33.8694618 101.4352569
  82.5429729  34.4151154 102.5575634  76.4158878  35.4137348  93.3677207
  76.2958503  35.8594398  94.2062688  75.7211466  35.7622665  92.8090746
  70.0066282  37.5143739 100.9176864  70.1358664  37.7678218 101.8316276
  69.3263734  38.1071447 100.5981519  74.1765770  48.1840989  97.0167339
  74.0989799  49.1348814  97.0955819  73.5727413  47.8386862  97.6742265
  76.6682999  35.3568855 109.6728706  75.8916334  35.9162775 109.6631570
  77.3073563  35.8425638 110.1943576  84.4603780  32.1395648 103.5071682
  83.8178160  32.4328181 102.8611477  83.9558709  32.0248568 104.3124879
  82.1143944  35.8858821  94.1957541  83.0261800  36.1186207  94.0205239
  81.6053591  36.4695865  93.6332620  74.9229372  38.1654308 109.2346673
  75.6644056  38.7039352 108.9581496  74.2166357  38.7920597 109.3918224
  80.3984711  40.3083449 107.8318834  80.8068067  39.8665859 107.0873466
  79.6761973  39.7336076 108.0853027  76.7515781  35.2456055 105.2052391
  77.5976977  35.6695469 105.3487040  76.6914419  34.5889680 105.8990954
  80.7213526  40.8684639 101.5871123  80.0922388  41.0330353 100.8847191
  80.3339188  41.2826249 102.3582087  84.6002758  41.8039077  98.9415487
  83.9153796  42.1837978  98.3912520  84.6846607  42.4134404  99.6747434
  79.9015227  32.9060424 106.8633565  79.6576159  33.6602484 106.3267840
  80.1775157  33.2845771 107.6980812  81.8553690  39.4499036 105.5410830
  82.0670585  40.0930796 104.8645211  81.8083438  38.6161353 105.0732760
  79.4579919  32.0616857 102.4447402  78.5964398  32.3598110 102.7364140
  79.4842353  32.2787256 101.5128435  76.2741488  40.6059047  98.8521208
  76.7379833  40.8846750  98.0625830  76.0098286  39.7042492  98.6694299
  73.1665569  40.1530529 101.7900971  73.7366926  40.5817797 101.1518456
  73.7573681  39.8713113 102.4885157  75.2110374  36.7282200  95.6610773
  75.9134417  37.1803243  96.1284699  74.8791002  36.0866018  96.2890666
  73.6590736  35.3193956 110.0361983  73.0289396  36.0010237 110.2697379
  73.5526823  35.2077038 109.0915121  68.9535708  34.9865752 100.9627907
  68.1634762  35.2423281 100.4868017  69.4446955  35.8014090 101.0679947
  82.9699518  42.3270991 103.7133188  83.7916961  41.9251179 103.4315869
  82.9661920  42.2239226 104.6649303  70.9050453  35.3510332  97.9211383
  70.1081617  35.4629026  98.4394879  70.6776046  35.6896984  97.0552274
  76.7356121  41.8755035 105.8693898  76.8000553  42.3375442 106.7052070
  76.0267045  41.2452400 105.9976208  67.2373411  35.2396243 103.3942897
  67.4881449  36.1243253 103.6600473  67.7732959  35.0600844 102.6217989
  91.0605511  38.6709740 100.0618159  90.3069219  38.1017138  99.9062163
  91.1953052  38.6372404 101.0088794  76.4504139  43.5423142  95.7372878
  76.3149813  44.3874678  96.1657726  76.9913951  43.7442420  94.9738812
  72.9371478  29.6214722 112.3987234  72.5438424  29.0680921 113.0734878
  73.7537619  29.9325301 112.7893751  69.9033536  41.0598580  96.3100803
  70.4158057  41.8541831  96.4606368  70.5556249  40.3624871  96.2434405
  71.7128421  44.1764337  98.3923557  71.8895049  45.0982301  98.2044541
  72.5085254  43.8622756  98.8217936  75.8539439  31.0372601 109.9907490
  76.5949153  31.6379754 109.9111953  76.0857362  30.2950239 109.4325533
  70.9980777  36.2228968 108.2685720  70.8834292  35.3214226 108.5692819
  70.1425295  36.4692665 107.9170536  78.0772615  44.1646709 109.8673220
  77.6336469  43.3783087 109.5494125  78.7389829  44.3525859 109.2017111
  72.8359736  45.6942510 104.3933899  73.3867161  45.5659574 103.6210893
  71.9971212  45.9937399 104.0428792  80.1753853  44.4449509 107.8954622
  80.1572328  45.2658390 107.4034891  81.0973773  44.3203584 108.1204763
  76.6326907  41.9593638 108.7378130  77.1655244  41.1981926 108.5077438
  76.1040988  41.6667290 109.4802285  79.7996602  27.0653704 104.2671772
  79.4560872  27.9555346 104.1910882  80.1675565  26.8755362 103.4041357
  67.8682453  39.3887235  97.0860374  68.7057675  39.7984243  96.8694082
  68.0460720  38.4486677  97.0560568  79.7646885  37.0562315  92.7744207
  79.2493508  37.8266920  93.0132594  79.4924193  36.3827451  93.3977268
  77.3493996  31.9012016  97.8329445  76.4935592  31.5118866  97.6535084
  77.7620948  31.9803977  96.9729231  78.8793143  29.4358359 102.2321005
  78.3757938  29.3988494 101.4188810  79.1723749  30.3451102 102.2917662
  75.1236028  29.5197089 101.2387187  75.9889025  29.3239898 100.8793076
  75.1913537  29.2907441 102.1656544  84.7381159  39.8094670  94.7097380
  83.9610602  39.4705829  94.2652542  85.4172640  39.8147293  94.0352345
  79.5533188  34.9289407  94.6003988  79.2483324  35.2435557  95.4514131
  80.5063630  35.0070827  94.6431321  77.9979620  41.0879631  96.2496942
  77.4700981  40.3532390  95.9370180  77.4967123  41.8654307  96.0036910
  82.9772466  39.2828651 101.3663988  82.3196140  39.9727913 101.4544117
  83.7812865  39.6725083 101.7097975  72.7298348  31.7499297  98.6103554
  73.3042099  31.5274478  97.8776747  73.3169330  31.8187991  99.3632155
  81.7877925  37.6373024  99.4167930  82.3009806  38.2703016  99.9189640
  82.4379149  37.0374219  99.0511290  73.0567935  33.7803758  92.6299439
  72.2205247  34.1178444  92.9508714  72.9172704  33.6452738  91.6926576
  75.0321015  28.6240546  97.3378623  74.3785428  28.3089563  96.7135238
  74.9901489  28.0016286  98.0638446  76.1432220  38.9059841  89.2531915
  75.2359282  38.6749094  89.4523064  76.6403252  38.1097460  89.4405897
  79.0500299  47.6157348  92.1728601  78.3761998  47.9189045  92.7813559
  79.4366121  48.4186428  91.8234058  78.2658756  35.1122479 101.6626271
  77.3481317  35.3337426 101.5047959  78.6818899  35.1868790 100.8037978
  79.0493803  36.5113895  96.7928951  79.7965622  37.0235292  96.4836073
  79.3185393  36.1897948  97.6533344  77.3220454  39.0072436  93.7755905
  76.4131673  38.7231469  93.8728375  77.3515537  39.4271514  92.9159212
  82.5539721  42.6179025  97.5447073  82.1002048  41.7769935  97.6012263
  81.9233688  43.2540424  97.8821853  81.4972641  33.5471011  98.7747740
  80.7595397  33.0348398  99.1057983  81.7499414  33.1071393  97.9631017
  80.9972660  44.4555522  98.4796891  81.2895635  45.0160579  97.7609257
  81.5071281  44.7484083  99.2350050  81.5984268  26.3247263  99.3689509
  81.9043145  25.4644627  99.0815425  82.3236873  26.9164884  99.1688503
  67.8908624  36.7277950  97.7571107  67.6933024  36.1347311  97.0322174
  67.3355288  36.4230160  98.4747046  75.8705348  36.6201056  99.8765701
  75.9253957  35.6674893  99.8008177  75.0596550  36.7760495 100.3606999
  77.0196541  40.5481179  91.1143984  76.5815971  39.8317038  90.6549621
  77.7606982  40.7757294  90.5529075  73.8097707  35.2378116  97.6356079
  72.9965573  35.5372287  98.0421272  74.3056702  34.8433805  98.3530562
  75.9606285  45.2335873  99.5690344  75.9182464  45.4596719  98.6398876
  76.8768984  44.9999248  99.7176145  79.4071919  35.7019941 106.4670973
  79.7621307  35.9291414 107.3265439  80.0544050  36.0338317 105.8448229
  85.1369656  38.8238376  97.1720302  84.9987555  39.0139972  96.2441492
  84.7805875  39.5857759  97.6288353  73.3011782  32.8096472 103.2517314
  73.9411162  32.6685231 102.5540278  72.4689313  32.5230985 102.8755916
  85.1639036  40.8914903 102.1831574  85.5975542  40.7990193 103.0314628
  85.8770616  40.8672404 101.5451590  74.0772086  42.1098902  99.3652307
  74.8712685  41.6149222  99.1634882  73.3663779  41.5816765  99.0020012
  78.8966931  44.4916998 103.7164674  78.9503953  45.0607934 104.4842390
  78.0281712  44.6618883 103.3518712  70.3854850  36.2541984  95.4412060
  69.4552438  36.1926439  95.6582022  70.4812322  35.7317937  94.6448701
  70.3040399  32.7796797  98.0290301  70.5647216  33.6942130  97.9199462
  71.1257571  32.3121239  98.1786914  71.7765324  34.1934554 105.1989126
  72.4488377  33.9851916 104.5501775  70.9495111  33.9956640 104.7594358
  86.0254585  40.9338604 104.7164459  86.2190475  41.8384415 104.9623734
  85.9255203  40.4746023 105.5503044  77.6790896  30.8196495 107.2154787
  77.0318811  31.5186444 107.1219263  78.4491911  31.2532639 107.5831035
  81.0869694  41.0845347 110.2905340  80.9355200  40.8555899 109.3735424
  81.0774373  42.0415948 110.3036685  77.8555030  38.6577260 105.2751606
  78.7847090  38.8088419 105.1020574  77.4346060  38.7461280 104.4200253
  76.6543362  42.6827924 103.0450144  76.5154448  42.3146708 103.9176082
  75.8657958  43.1975563 102.8734102  77.2491514  47.7837021  94.3875680
  77.4243270  47.3125064  95.2021303  76.5624302  48.4102787  94.6156941
  78.2048577  42.0609527 100.4338982  77.8698410  42.0210297 101.3296632
  77.7052523  41.3954243  99.9609392  72.1792821  37.4677157 105.9591563
  72.0412619  36.7357396 106.5603102  73.0897745  37.3786057 105.6775751
  81.1407769  39.4065561  90.7076041  80.5236940  38.6812389  90.6109094
  80.6724257  40.1674921  90.3643116  74.8075122  37.1797116 105.4475243
  75.5174740  36.5390308 105.4061861  74.7644430  37.4310011 106.3701423
  82.7961901  44.1164469 108.3681822  82.7374447  43.4323690 107.7012405
  83.1981419  44.8583459 107.9162448  73.5204056  34.1662334 107.2670882
  72.9841413  33.7153072 107.9192478  72.9320764  34.3008243 106.5241346
  71.8152599  50.9326383 101.1615541  72.0549198  51.5644907 101.8394559
  70.9721796  50.5814423 101.4480900  72.9306315  33.6250985  89.8297346
  72.0535781  33.5039786  89.4659592  73.4064068  32.8337064  89.5776234
  82.7979308  42.0804053 106.5995801  81.9106087  41.7429975 106.7222200
  83.3677859  41.3487085 106.8364567  64.4508455  38.4128145  99.9238853
  65.1379495  38.0989875  99.3359868  64.2956584  39.3169510  99.6506104
  69.2543177  33.3018342 104.3523876  69.1701366  32.6944011 103.6174286
  68.4325884  33.7927360 104.3533373  76.3280461  46.7405506 103.5657045
  76.2550633  47.5460477 104.0776349  75.8857854  46.9397472 102.7405066
  76.1170241  45.9777276  97.0759866  75.3337763  46.5198956  97.1698091
  76.8162986  46.4951255  97.4754107  79.4266891  31.7871905  99.7194072
  79.9235591  31.0341868  99.3995142  78.6553873  31.8236222  99.1537281
  87.2796648  37.4912271 101.3612363  87.2686525  38.3736986 100.9906296
  86.4114028  37.1383822 101.1666900  78.7879145  46.6392340 105.7215203
  79.5007117  47.2739805 105.6491105  78.2969173  46.7356206 104.9055205
  80.5096672  40.5443592  97.2932495  79.5752950  40.6645055  97.1237199
  80.6873340  39.6416059  97.0292505  76.0101860  33.9289288  99.4465756
  75.6399647  33.3760329 100.1346662  76.5060952  33.3247422  98.8940756
  83.8969223  36.3860912  97.8282529  84.3629675  37.2188903  97.7542832
  84.3476724  35.9205893  98.5327788  73.8391058  44.3886783 106.5420774
  74.5400518  45.0223266 106.6950168  73.3686173  44.7301515 105.7816413
  81.9645454  42.7304733  94.8268681  82.2405298  42.6161328  95.7362555
  81.0949953  42.3322218  94.7880854  81.8685886  28.7541499 101.8673430
  80.9548966  28.9845726 102.0355637  82.2978987  28.8379943 102.7187463
  81.6392344  36.9431391 104.3673324  80.9863795  37.1907298 103.7125777
  82.0172724  36.1295529 104.0335802  78.5999518  46.9791084  98.4701495
  78.7821913  46.1612740  98.9329247  79.4232504  47.1958776  98.0326385
  78.9341684  45.9059269  95.7316543  79.4629450  45.3951724  95.1186705
  79.1969903  45.5901799  96.5962076  77.6879917  37.6851202 110.8539362
  77.0120554  37.5845331 111.5241737  78.5107551  37.5290415 111.3175359
  69.4358776  43.9223138 103.4751877  70.0212213  43.1766826 103.6079781
  69.2383615  44.2327095 104.3588541  72.2897432  46.9574386  98.4914319
  71.6207807  47.4420513  98.0078359  72.1510301  47.2043606  99.4057698
  64.0276431  36.4928738 102.1956320  64.0660531  35.9592329 102.9893438
  63.5216724  35.9663944 101.5767297  76.4302700  48.9918129 105.0896978
  76.9821008  49.1549751 105.8546063  76.7708894  49.5822567 104.4177002
  71.4067193  31.3393279 105.6918862  71.4708520  32.2008110 105.2796260
  71.3434314  30.7267281 104.9591221  70.8819466  33.4116412 109.3391896
  71.5091505  33.0293489 109.9529421  70.0247385  33.1930613 109.7047589
  81.2813575  43.8179387 110.9445632  81.8253478  44.4309345 110.4500587
  80.7000419  44.3758965 111.4612645  67.6585009  35.2192841  95.2710251
  67.9538450  34.3103519  95.2177305  66.7573044  35.1980580  94.9491254
  79.5671087  46.9400105 102.0760660  79.4422227  46.1389845 101.5671605
  80.2250179  47.4346298 101.5874630  71.1879256  33.2948837 101.2537800
  70.4665841  33.9084805 101.1145273  71.9772511  33.8306602 101.1754446
  81.6305996  44.7409125 103.7040210  80.6836331  44.6214476 103.6318536
  81.9788769  43.8531623 103.7866471  73.9905569  30.6303264 107.5278452
  74.5139971  30.8765560 108.2904761  73.7717902  31.4623299 107.1081589
  69.3872850  32.9006938  95.3949576  69.0585556  32.0204317  95.2124682
  69.7412221  32.8454607  96.2825966  78.6352429  44.5361841  99.9044562
  78.4877392  43.6078548 100.0852132  79.4605923  44.5581932  99.4201637
  72.5014673  33.1879908  95.7625054  72.8410746  33.7165829  95.0403663
  72.9486794  33.5260314  96.5383621  82.2386551  45.3590400 100.9909435
  83.1633098  45.1533261 100.8533886  82.0701854  45.1106801 101.8998776
  75.1958114  31.5716959 105.2128122  74.8554935  30.7724772 105.6148802
  74.4897121  31.8718670 104.6404955  75.8474586  28.6566271 103.6655445
  76.6700655  28.1826749 103.5434336  76.0912650  29.4356755 104.1654132
  74.4882821  31.6854530  93.9618347  75.2091183  32.0635782  93.4582064
  73.8648125  32.4043406  94.0653325  78.6313943  32.3899679  94.8976679
  78.8477558  33.2724317  94.5965507  78.1508011  31.9985892  94.1682321
  73.3713165  35.3485392 101.4747424  73.2257746  35.6625695 102.3671705
  72.8938368  35.9670292 100.9218322  75.2309548  32.3387940 101.5228313
  75.2171116  31.4429033 101.1860611  75.9481976  32.3458604 102.1566599
  77.0835678  32.7725280 103.5681441  76.8253456  33.6942351 103.5665771
  76.5520719  32.3755715 104.2581905  82.0281867  45.8776067  96.3471526
  82.2018745  45.3122490  95.5945379  82.5210758  46.6776962  96.1651016
  67.8458827  37.8890736 104.4135085  67.3012295  38.6650544 104.5455359
  68.7238177  38.2361541 104.2554206  74.6346444  31.2202320  96.7915884
  74.7562355  30.2918966  96.9906771  74.3448486  31.2341006  95.8794199
  77.5037634  28.9057231  99.9282603  77.5259331  28.9696564  98.9734583
  77.9205693  28.0661739 100.1223110  87.8821258  38.6412490  97.9661826
  88.3252404  37.8919815  97.5680949  87.0047769  38.6322626  97.5835558
  83.0157040  45.1942832  93.4468424  83.7107944  45.8149524  93.6655739
  83.3580190  44.3438183  93.7220802  68.6324849  37.0160633 107.3065242
  67.8906585  37.1643268 107.8929872  68.3117593  37.2768898 106.4431991
  84.9148463  42.6442537  94.9755755  85.4399787  42.9829810  94.2505075
  84.8270815  41.7089552  94.7918890  76.5768512  46.5576611 107.1045632
  76.8855638  46.3125758 107.9768331  77.3743994  46.7623249 106.6164502
  76.5989124  48.7114520  99.3351008  76.1594114  48.2190899 100.0283865
  77.3497241  48.1687488  99.0943084  69.0781463  44.9026061  99.3375637
  69.9039482  44.6029833  98.9574280  68.7275515  44.1333684  99.7865425
  74.0462996  44.2552529 101.4073310  73.4243005  43.5923235 101.1075538
  74.7167863  44.2813661 100.7246958  67.2790068  42.8212388 100.2964570
  66.4421976  42.3934562 100.1148571  67.2513713  43.0144831 101.2335361
  74.1187523  32.7334318 111.0005816  74.1675679  33.6096440 110.6183586
  74.6610037  32.1911711 110.4277459  84.6042369  43.2775441 110.2806953
  83.8137913  43.2599580 109.7411453  84.3675723  43.8163734 111.0355990
  84.7240244  40.1267907 107.5939682  84.7738249  39.9617915 108.5355205
  84.6154167  39.2595166 107.2037563  73.6076503  42.8056453  94.8831771
  73.7564623  43.4891917  94.2298443  74.4142946  42.7861543  95.3981226
  82.0144006  36.1098835 108.9098988  82.9153869  35.9705300 108.6182986
  82.0891981  36.2753290 109.8497166  76.3486812  33.4865690 107.7552175
  75.4790121  33.7799256 107.4834763  76.5846292  34.0706135 108.4759438
  86.2258441  42.5464849 107.8381703  85.9343249  42.9094829 108.6745164
  85.6130572  41.8331857 107.6595035  87.4254123  40.1117728 100.3584274
  88.2601014  40.5507533 100.5221834  87.5613252  39.6356382  99.5392519
  84.4745629  37.6697463 106.3061761  84.9499751  37.8625110 105.4980613
  83.5511194  37.7256649 106.0605145  71.3629136  38.8321630  95.8892840
  71.1175178  37.9283960  96.0873050  71.5325050  38.8338781  94.9472318
  79.0525845  29.7045307 105.2717595  79.5707789  30.4406334 104.9464084
  78.6980978  30.0109300 106.1064354  70.6324783  34.5649988  93.3879001
  69.9394028  34.6394343  92.7319037  70.3876535  33.8010332  93.9100518
  79.3038440  26.1245589 100.7918492  79.5840193  25.4568778 101.4178918
  80.0889047  26.3174685 100.2793156  77.1071908  45.3004583  92.3543518
  76.5345875  45.9194770  91.9013990  77.6804702  45.8503945  92.8883440
  83.1747298  34.5463223 104.5390067  84.1264721  34.6461321 104.5602291
  83.0050748  33.7541492 105.0488151  81.1961677  31.6318807 104.7249468
  80.6011610  31.9123819 104.0295956  80.9111374  32.1212708 105.4966209
  80.3269168  45.5841733  93.4852100  81.2599841  45.5187295  93.6884976
  80.2392381  46.4198000  93.0266633  82.9557185  44.9007604  90.4456048
  82.8770816  44.5667467  91.3391806  83.7766851  45.3929372  90.4447520
  85.6535376  37.7669343 103.6532367  85.6211696  36.8285344 103.8392050
  86.2635999  37.8453380 102.9198191  77.4918707  36.6365396  89.6959571
  78.4377811  36.5071604  89.7647989  77.1132952  35.8980058  90.1728999
  85.8029864  34.5580386 103.6990650  85.2868913  33.7738843 103.5120579
  86.6869813  34.2299103 103.8637169  83.4640591  28.3021402  99.6586462
  83.2665412  27.9936490 100.5429794  84.0740297  29.0283041  99.7884392
  91.4711926  38.8285350 102.7938403  92.2015314  38.5670638 103.3546107
  90.8618871  38.0914072 102.8340471  89.5527223  36.9693212 103.3912855
  88.8260386  36.8349177 102.7829346  89.1374510  37.2770041 104.1969573
  77.3757399  40.6883142 111.1560228  78.2960409  40.8661741 111.3500274
  77.3406982  39.7439188 111.0039927  75.6761624  34.5615372  89.6314456
  74.7693079  34.2648485  89.7077169  75.9537605  34.2645191  88.7648742
  66.5939564  35.8821736 100.0813502  66.2742349  35.0287044  99.7887876
  66.0472992  36.0970314 100.8371470  70.3719472  38.5984177 103.7983009
  70.5905482  39.5301285 103.8171043  70.7845246  38.2392151 104.5837813
  77.2923690  29.1052262  95.7858697  76.4824418  28.7599347  96.1613943
  77.9808106  28.7959806  96.3746309  79.2214238  28.1830309  97.4082994
  79.7745276  28.6025762  98.0673017  79.4584324  27.2566057  97.4505950
  75.2447337  34.1717383 113.1885758  75.1444064  35.1211740 113.1197849
  75.0268879  33.8435621 112.3161828  74.4460408  31.4202308  89.7726435
  75.3079572  31.7457206  90.0322252  74.6310753  30.6333804  89.2599501
  66.4627824  39.5024647 102.0506624  65.7691296  39.0878600 101.5376578
  67.2100815  39.5445184 101.4540043  82.5993045  30.2930834  96.9161658
  82.0191714  30.9515638  96.5339710  82.3328978  29.4708179  96.5049075
  81.0496611  29.6935892  99.1182978  81.5496390  29.8052426  98.3097297
  81.6932219  29.3896945  99.7583787  75.1078607  37.6014521 112.0050819
  74.6245689  38.4014882 112.2114708  75.1939546  37.6122466 111.0518263
  68.3764567  39.4342901  99.9272639  68.3535255  39.5330588  98.9754522
  68.6865203  40.2808052 100.2489805  71.0351945  41.4919056 104.0419253
  71.9895198  41.4602998 103.9749185  70.8364468  41.0309680 104.8569479
  71.6251327  40.0620172 106.6090051  72.4444216  40.5564251 106.6324888
  71.8988134  39.1452140 106.5807618  81.3817923  32.4530924  95.9718006
  80.4943778  32.7380575  95.7538201  81.7971912  32.2924688  95.1245283
  84.7332459  32.4777445  99.6872345  85.5092849  32.9673898  99.9596962
  84.0080593  32.9035500 100.1444215  87.1705018  33.1905065 100.7446286
  87.7649508  32.9500801 100.0339594  87.2431601  32.4712195 101.3719822
  69.3902173  47.0338676 101.0589451  69.2556641  46.2739077 100.4927449
  68.9734236  47.7579575 100.5918240  80.5261136  42.2175599  90.0666026
  81.2296987  42.4225602  90.6823682  79.8023785  42.7852361  90.3315110
  81.3558947  37.9685460  96.1868296  81.2994148  38.4254012  95.3475929
  81.9087289  37.2076145  96.0091139  85.1663753  33.7575192  97.0118416
  84.9100687  33.3571828  97.8426624  84.5416621  34.4718986  96.8868555
  89.4776090  36.4971266  99.5189707  88.9175648  36.5664455 100.2921269
  88.8719594  36.3212250  98.7989204  72.5471299  47.9307993 101.2707894
  72.4303683  48.8753425 101.1686584  71.7263746  47.6281554 101.6593693
  82.4347834  42.6558128  92.1164486  83.2693438  42.2239327  91.9341961
  82.2732177  42.4840142  93.0441381  82.0893726  39.1590242  93.4820826
  82.0342530  38.9934513  92.5409270  81.4639781  39.8666275  93.6383015
  66.8786241  34.3958306 107.3082248  67.5245105  33.8857260 107.7969473
  66.6703392  35.1326988 107.8825673  79.4039633  41.4639154 112.8074388
  80.2730793  41.6379806 112.4461023  78.9246385  42.2833570 112.6850118
  75.3989851  28.6598351  93.0606144  75.3868521  29.6040191  93.2174415
  76.2913273  28.4768496  92.7665605  73.5725813  48.5836255 104.4863822
  74.4753060  48.6159865 104.8030317  73.3463183  47.6536705 104.5010158
  75.3279415  47.3367241 101.1473901  74.3775046  47.3369103 101.0338273
  75.6311902  46.5899976 100.6309935  79.2141971  25.2541127  97.3152081
  78.4474367  24.6999614  97.4608763  79.6252676  25.3262996  98.1766232
  71.2183732  31.5425923 111.4057262  72.0815194  31.1862728 111.6160587
  70.6449143  31.2039818 112.0932666  91.0632109  53.1727779 102.2119663
  91.7010519  53.0534527 101.5083003  90.9452952  54.1208623 102.2707615
  87.8721815  53.1255208 102.1481188  87.5340327  53.0096272 101.2601723
  88.7411583  52.7246373 102.1282194  83.7308631  54.9790684  98.1378079
  83.1673496  54.8880621  97.3694366  83.6161026  54.1590588  98.6180571
  88.3541598  54.2790059 108.1067393  88.3430239  53.8842858 107.2347897
  88.5162238  53.5456132 108.7001165  81.2773063  56.4741876 100.9762299
  82.0694355  56.1332700 100.5608598  81.5169713  56.5836851 101.8964452
  89.3108190  58.6461652  93.4492544  88.6596169  59.2315732  93.0626557
  90.1052552  59.1767847  93.5087581  83.2363817  55.7350789  93.8479678
  84.0094693  55.1879776  93.7092554  83.5889216  56.5995038  94.0594139
  85.0748859  57.0627171 107.0546577  84.7838725  57.9672802 106.9393244
  85.7105844  57.1043699 107.7690647  86.0005066  54.4404020 103.6447937
  86.5968638  54.2160042 102.9304900  86.0580038  53.6988765 104.2473385
  85.5730095  51.8943455  91.4798128  85.8255615  51.3724976  90.7181591
  84.6354654  51.7309600  91.5824811  90.6173377  50.8979233  99.2872871
  91.4036467  50.4798656  98.9363288  90.8812082  51.8025326  99.4554519
  90.7883455  56.3352084  93.9861528  90.1529288  56.4086710  94.6982433
  90.4580861  56.9245682  93.3080607  96.0181805  50.8354467 100.1905850
  96.7506976  50.2653683 100.4243679  95.2621160  50.4476067 100.6312355
  85.2926383  53.7971561  93.6822503  85.1762641  53.1216464  94.3503587
  85.4028643  53.3103935  92.8654656  87.6357924  53.2581708  97.3869192
  87.2716131  52.7312329  98.0982114  88.4925040  52.8680177  97.2135677
  93.5407225  44.5476041 104.6500458  93.2090550  45.4171452 104.4261673
  92.9452838  44.2312325 105.3294489  87.2763411  48.2871608  92.3830541
  87.4437814  49.1551844  92.7501012  87.0860580  48.4498889  91.4591830
  90.0338744  56.7488587 104.0496371  89.7339467  57.6513625 103.9412178
  89.6889804  56.4820770 104.9017524  83.4851226  53.2002383 100.0833075
  82.5601722  53.0678598 100.2910767  83.7335639  53.9796603 100.5803018
  93.4335888  49.2671127 101.7293808  92.5252766  49.1986535 101.4352569
  93.3823484  49.7443072 102.5575634  87.2552632  50.7429265  93.3677207
  87.1352257  51.1886316  94.2062688  86.5605220  51.0914583  92.8090746
  80.8460037  52.8435657 100.9176864  80.9752418  53.0970136 101.8316276
  80.1657488  53.4363365 100.5981519  85.0159524  63.5132907  97.0167339
  84.9383554  64.4640732  97.0955819  84.4121168  63.1678779  97.6742265
  87.5076754  50.6860772 109.6728706  86.7310088  51.2454693 109.6631570
  88.1467317  51.1717555 110.1943576  95.2997535  47.4687565 103.5071682
  94.6571915  47.7620098 102.8611477  94.7952463  47.3540486 104.3124879
  92.9537698  51.2150738  94.1957541  93.8655554  51.4478125  94.0205239
  92.4447345  51.7987783  93.6332620  85.7623126  53.4946226 109.2346673
  86.5037811  54.0331270 108.9581496  85.0560112  54.1212515 109.3918224
  91.2378466  55.6375366 107.8318834  91.6461822  55.1957777 107.0873466
  90.5155727  55.0627994 108.0853027  87.5909536  50.5747973 105.2052391
  88.4370731  50.9987387 105.3487040  87.5308174  49.9181597 105.8990954
  91.5607281  56.1976557 101.5871123  90.9316143  56.3622271 100.8847191
  91.1732943  56.6118166 102.3582087  95.4396512  57.1330995  98.9415487
  94.7547551  57.5129896  98.3912520  95.5240362  57.7426321  99.6747434
  90.7408981  48.2352341 106.8633565  90.4969913  48.9894402 106.3267840
  91.0168912  48.6137689 107.6980812  92.6947444  54.7790954 105.5410830
  92.9064339  55.4222714 104.8645211  92.6477192  53.9453270 105.0732760
  90.2973673  47.3908774 102.4447402  89.4358152  47.6890028 102.7364140
  90.3236108  47.6079173 101.5128435  87.1135242  55.9350965  98.8521208
  87.5773588  56.2138668  98.0625830  86.8492041  55.0334410  98.6694299
  84.0059323  55.4822446 101.7900971  84.5760681  55.9109715 101.1518456
  84.5967435  55.2005031 102.4885157  86.0504128  52.0574117  95.6610773
  86.7528172  52.5095161  96.1284699  85.7184757  51.4157936  96.2890666
  84.4984490  50.6485874 110.0361983  83.8683151  51.3302155 110.2697379
  84.3920578  50.5368956 109.0915121  79.7929462  50.3157670 100.9627907
  79.0028516  50.5715198 100.4868017  80.2840710  51.1306008 101.0679947
  93.8093272  57.6562909 103.7133188  94.6310716  57.2543096 103.4315869
  93.8055675  57.5531143 104.6649303  81.7444208  50.6802249  97.9211383
  80.9475371  50.7920943  98.4394879  81.5169800  51.0188901  97.0552274
  87.5749875  57.2046952 105.8693898  87.6394308  57.6667360 106.7052070
  86.8660799  56.5744317 105.9976208  78.0767165  50.5688160 103.3942897
  78.3275204  51.4535170 103.6600473  78.6126714  50.3892762 102.6217989
 101.8999265  54.0001658 100.0618159 101.1462973  53.4309056  99.9062163
 102.0346806  53.9664322 101.0088794  87.2897893  58.8715060  95.7372878
  87.1543568  59.7166596  96.1657726  87.8307706  59.0734338  94.9738812
  83.7765233  44.9506640 112.3987234  83.3832178  44.3972838 113.0734878
  84.5931373  45.2617218 112.7893751  80.7427290  56.3890498  96.3100803
  81.2551811  57.1833748  96.4606368  81.3950003  55.6916788  96.2434405
  82.5522175  59.5056254  98.3923557  82.7288804  60.4274219  98.2044541
  83.3479009  59.1914673  98.8217936  86.6933194  46.3664519 109.9907490
  87.4342907  46.9671672 109.9111953  86.9251117  45.6242157 109.4325533
  81.8374532  51.5520886 108.2685720  81.7228047  50.6506143 108.5692819
  80.9819049  51.7984583 107.9170536  88.9166369  59.4938626 109.8673220
  88.4730224  58.7075005 109.5494125  89.5783583  59.6817777 109.2017111
  83.6753491  61.0234428 104.3933899  84.2260916  60.8951491 103.6210893
  82.8364967  61.3229317 104.0428792  91.0147608  59.7741426 107.8954622
  90.9966083  60.5950307 107.4034891  91.9367528  59.6495502 108.1204763
  87.4720662  57.2885556 108.7378130  88.0048998  56.5273844 108.5077438
  86.9434743  56.9959208 109.4802285  90.6390357  42.3945622 104.2671772
  90.2954626  43.2847263 104.1910882  91.0069319  42.2047279 103.4041357
  78.7076207  54.7179152  97.0860374  79.5451429  55.1276161  96.8694082
  78.8854475  53.7778594  97.0560568  90.6040639  52.3854233  92.7744207
  90.0887263  53.1558838  93.0132594  90.3317948  51.7119369  93.3977268
  88.1887750  47.2303934  97.8329445  87.3329347  46.8410784  97.6535084
  88.6014702  47.3095894  96.9729231  89.7186897  44.7650277 102.2321005
  89.2151693  44.7280412 101.4188810  90.0117504  45.6743020 102.2917662
  85.9629783  44.8489007 101.2387187  86.8282780  44.6531815 100.8793076
  86.0307292  44.6199358 102.1656544  95.5774914  55.1386588  94.7097380
  94.8004356  54.7997747  94.2652542  96.2566394  55.1439211  94.0352345
  90.3926943  50.2581325  94.6003988  90.0877078  50.5727474  95.4514131
  91.3457385  50.3362745  94.6431321  88.8373374  56.4171548  96.2496942
  88.3094736  55.6824308  95.9370180  88.3360877  57.1946225  96.0036910
  93.8166220  54.6120569 101.3663988  93.1589895  55.3019830 101.4544117
  94.6206620  55.0017001 101.7097975  83.5692102  47.0791215  98.6103554
  84.1435854  46.8566396  97.8776747  84.1563084  47.1479909  99.3632155
  92.6271679  52.9664941  99.4167930  93.1403561  53.5994933  99.9189640
  93.2772903  52.3666137  99.0511290  83.8961689  49.1095676  92.6299439
  83.0599001  49.4470362  92.9508714  83.7566459  48.9744655  91.6926576
  85.8714770  43.9532464  97.3378623  85.2179182  43.6381481  96.7135238
  85.8295244  43.3308204  98.0638446  86.9825975  54.2351759  89.2531915
  86.0753036  54.0041012  89.4523064  87.4797007  53.4389378  89.4405897
  89.8894053  62.9449266  92.1728601  89.2155752  63.2480963  92.7813559
  90.2759875  63.7478346  91.8234058  89.1052510  50.4414397 101.6626271
  88.1875071  50.6629344 101.5047959  89.5212654  50.5160708 100.8037978
  89.8887558  51.8405813  96.7928951  90.6359377  52.3527210  96.4836073
  90.1579147  51.5189865  97.6533344  88.1614208  54.3364353  93.7755905
  87.2525427  54.0523386  93.8728375  88.1909292  54.7563432  92.9159212
  93.3933475  57.9470943  97.5447073  92.9395803  57.1061853  97.6012263
  92.7627442  58.5832341  97.8821853  92.3366395  48.8762929  98.7747740
  91.5989152  48.3640315  99.1057983  92.5893169  48.4363311  97.9631017
  91.8366415  59.7847440  98.4796891  92.1289389  60.3452497  97.7609257
  92.3465035  60.0776001  99.2350050  92.4378022  41.6539181  99.3689509
  92.7436899  40.7936544  99.0815425  93.1630627  42.2456801  99.1688503
  78.7302378  52.0569868  97.7571107  78.5326778  51.4639228  97.0322174
  78.1749042  51.7522078  98.4747046  86.7099102  51.9492974  99.8765701
  86.7647712  50.9966810  99.8008177  85.8990304  52.1052413 100.3606999
  87.8590296  55.8773097  91.1143984  87.4209726  55.1608956  90.6549621
  88.6000737  56.1049212  90.5529075  84.6491462  50.5670034  97.6356079
  83.8359328  50.8664204  98.0421272  85.1450456  50.1725723  98.3530562
  86.8000040  60.5627791  99.5690344  86.7576219  60.7888637  98.6398876
  87.7162739  60.3291165  99.7176145  90.2465674  51.0311858 106.4670973
  90.6015061  51.2583331 107.3265439  90.8937805  51.3630235 105.8448229
  95.9763411  54.1530294  97.1720302  95.8381309  54.3431890  96.2441492
  95.6199629  54.9149677  97.6288353  84.1405537  48.1388389 103.2517314
  84.7804916  47.9977148 102.5540278  83.3083067  47.8522903 102.8755916
  96.0032790  56.2206821 102.1831574  96.4369297  56.1282110 103.0314628
  96.7164371  56.1964322 101.5451590  84.9165841  57.4390820  99.3652307
  85.7106439  56.9441140  99.1634882  84.2057533  56.9108683  99.0020012
  89.7360685  59.8208915 103.7164674  89.7897707  60.3899852 104.4842390
  88.8675466  59.9910800 103.3518712  81.2248604  51.5833901  95.4412060
  80.2946192  51.5218357  95.6582022  81.3206076  51.0609854  94.6448701
  81.1434153  48.1088714  98.0290301  81.4040970  49.0234048  97.9199462
  81.9651325  47.6413157  98.1786914  82.6159078  49.5226471 105.1989126
  83.2882132  49.3143834 104.5501775  81.7888865  49.3248557 104.7594358
  96.8648340  56.2630522 104.7164459  97.0584230  57.1676332 104.9623734
  96.7648958  55.8037941 105.5503044  88.5184651  46.1488412 107.2154787
  87.8712566  46.8478362 107.1219263  89.2885666  46.5824556 107.5831035
  91.9263448  56.4137265 110.2905340  91.7748955  56.1847816 109.3735424
  91.9168128  57.3707866 110.3036685  88.6948785  53.9869177 105.2751606
  89.6240845  54.1380337 105.1020574  88.2739815  54.0753198 104.4200253
  87.4937117  58.0119842 103.0450144  87.3548202  57.6438626 103.9176082
  86.7051713  58.5267481 102.8734102  88.0885269  63.1128938  94.3875680
  88.2637024  62.6416981  95.2021303  87.4018057  63.7394704  94.6156941
  89.0442332  57.3901444 100.4338982  88.7092164  57.3502214 101.3296632
  88.5446277  56.7246160  99.9609392  83.0186576  52.7969074 105.9591563
  82.8806374  52.0649313 106.5603102  83.9291499  52.7077975 105.6775751
  91.9801523  54.7357479  90.7076041  91.3630694  54.0104307  90.6109094
  91.5118012  55.4966839  90.3643116  85.6468876  52.5089034 105.4475243
  86.3568495  51.8682226 105.4061861  85.6038185  52.7601929 106.3701423
  93.6355655  59.4456387 108.3681822  93.5768201  58.7615607 107.7012405
  94.0375173  60.1875377 107.9162448  84.3597810  49.4954252 107.2670882
  83.8235167  49.0444990 107.9192478  83.7714519  49.6300160 106.5241346
  82.6546354  66.2618301 101.1615541  82.8942952  66.8936825 101.8394559
  81.8115550  65.9106341 101.4480900  83.7700069  48.9542903  89.8297346
  82.8929536  48.8331704  89.4659592  84.2457822  48.1628981  89.5776234
  93.6373062  57.4095971 106.5995801  92.7499841  57.0721893 106.7222200
  94.2071613  56.6779002 106.8364567  75.2902209  53.7420063  99.9238853
  75.9773249  53.4281793  99.3359868  75.1350338  54.6461427  99.6506104
  80.0936932  48.6310259 104.3523876  80.0095120  48.0235929 103.6174286
  79.2719638  49.1219278 104.3533373  87.1674216  62.0697423 103.5657045
  87.0944387  62.8752395 104.0776349  86.7251609  62.2689389 102.7405066
  86.9563995  61.3069193  97.0759866  86.1731517  61.8490874  97.1698091
  87.6556741  61.8243173  97.4754107  90.2660645  47.1163823  99.7194072
  90.7629345  46.3633785  99.3995142  89.4947627  47.1528140  99.1537281
  98.1190403  52.8204188 101.3612363  98.1080279  53.7028904 100.9906296
  97.2507782  52.4675739 101.1666900  89.6272899  61.9684257 105.7215203
  90.3400871  62.6031722 105.6491105  89.1362928  62.0648123 104.9055205
  91.3490426  55.8735510  97.2932495  90.4146705  55.9936973  97.1237199
  91.5267095  54.9707977  97.0292505  86.8495614  49.2581206  99.4465756
  86.4793402  48.7052246 100.1346662  87.3454707  48.6539339  98.8940756
  94.7362978  51.7152829  97.8282529  95.2023430  52.5480821  97.7542832
  95.1870478  51.2497811  98.5327788  84.6784813  59.7178701 106.5420774
  85.3794272  60.3515184 106.6950168  84.2079928  60.0593432 105.7816413
  92.8039209  58.0596651  94.8268681  93.0799053  57.9453245  95.7362555
  91.9343707  57.6614136  94.7880854  92.7079640  44.0833416 101.8673430
  91.7942720  44.3137643 102.0355637  93.1372742  44.1671860 102.7187463
  92.4786099  52.2723308 104.3673324  91.8257549  52.5199216 103.7125777
  92.8566479  51.4587447 104.0335802  89.4393273  62.3083002  98.4701495
  89.6215667  61.4904657  98.9329247  90.2626259  62.5250694  98.0326385
  89.7735438  61.2351187  95.7316543  90.3023205  60.7243641  95.1186705
  90.0363658  60.9193717  96.5962076  88.5273672  53.0143119 110.8539362
  87.8514309  52.9137249 111.5241737  89.3501306  52.8582333 111.3175359
  80.2752531  59.2515056 103.4751877  80.8605968  58.5058744 103.6079781
  80.0777369  59.5619013 104.3588541  83.1291186  62.2866303  98.4914319
  82.4601561  62.7712431  98.0078359  82.9904056  62.5335524  99.4057698
  74.8670186  51.8220656 102.1956320  74.9054285  51.2884247 102.9893438
  74.3610478  51.2955862 101.5767297  87.2696455  64.3210047 105.0896978
  87.8214763  64.4841668 105.8546063  87.6102648  64.9114485 104.4177002
  82.2460948  46.6685197 105.6918862  82.3102274  47.5300028 105.2796260
  82.1828068  46.0559198 104.9591221  81.7213220  48.7408329 109.3391896
  82.3485259  48.3585407 109.9529421  80.8641139  48.5222531 109.7047589
  92.1207329  59.1471304 110.9445632  92.6647233  59.7601263 110.4500587
  91.5394174  59.7050883 111.4612645  78.4978763  50.5484758  95.2710251
  78.7932204  49.6395437  95.2177305  77.5966799  50.5272498  94.9491254
  90.4064842  62.2692022 102.0760660  90.2815981  61.4681762 101.5671605
  91.0643933  62.7638216 101.5874630  82.0273010  48.6240755 101.2537800
  81.3059596  49.2376723 101.1145273  82.8166266  49.1598520 101.1754446
  92.4699750  60.0701042 103.7040210  91.5230086  59.9506394 103.6318536
  92.8182523  59.1823541 103.7866471  84.8299324  45.9595181 107.5278452
  85.3533726  46.2057478 108.2904761  84.6111657  46.7915216 107.1081589
  80.2266605  48.2298856  95.3949576  79.8979311  47.3496235  95.2124682
  80.5805975  48.1746525  96.2825966  89.4746184  59.8653759  99.9044562
  89.3271146  58.9370466 100.0852132  90.2999677  59.8873849  99.4201637
  83.3408428  48.5171826  95.7625054  83.6804500  49.0457747  95.0403663
  83.7880548  48.8552232  96.5383621  93.0780305  60.6882317 100.9909435
  94.0026853  60.4825179 100.8533886  92.9095609  60.4398719 101.8998776
  86.0351869  46.9008877 105.2128122  85.6948689  46.1016690 105.6148802
  85.3290875  47.2010587 104.6404955  86.6868341  43.9858189 103.6655445
  87.5094410  43.5118667 103.5434336  86.9306404  44.7648673 104.1654132
  85.3276575  47.0146447  93.9618347  86.0484938  47.3927700  93.4582064
  84.7041879  47.7335324  94.0653325  89.4707698  47.7191596  94.8976679
  89.6871312  48.6016234  94.5965507  88.9901765  47.3277810  94.1682321
  84.2106919  50.6777310 101.4747424  84.0651500  50.9917613 102.3671705
  83.7332123  51.2962210 100.9218322  86.0703302  47.6679858 101.5228313
  86.0564871  46.7720951 101.1860611  86.7875730  47.6750521 102.1566599
  87.9229433  48.1017198 103.5681441  87.6647211  49.0234268 103.5665771
  87.3914473  47.7047632 104.2581905  92.8675622  61.2067985  96.3471526
  93.0412499  60.6414407  95.5945379  93.3604513  62.0068880  96.1651016
  78.6852581  53.2182654 104.4135085  78.1406050  53.9942462 104.5455359
  79.5631931  53.5653458 104.2554206  85.4740198  46.5494238  96.7915884
  85.5956109  45.6210884  96.9906771  85.1842241  46.5632924  95.8794199
  88.3431389  44.2349148  99.9282603  88.3653085  44.2988481  98.9734583
  88.7599448  43.3953657 100.1223110  98.7215013  53.9704408  97.9661826
  99.1646159  53.2211733  97.5680949  97.8441523  53.9614544  97.5835558
  93.8550794  60.5234749  93.4468424  94.5501699  61.1441442  93.6655739
  94.1973944  59.6730100  93.7220802  79.4718603  52.3452550 107.3065242
  78.7300339  52.4935186 107.8929872  79.1511348  52.6060816 106.4431991
  95.7542217  57.9734455  94.9755755  96.2793541  58.3121728  94.2505075
  95.6664570  57.0381470  94.7918890  87.4162266  61.8868528 107.1045632
  87.7249392  61.6417675 107.9768331  88.2137748  62.0915167 106.6164502
  87.4382878  64.0406438  99.3351008  86.9987868  63.5482817 100.0283865
  88.1890995  63.4979406  99.0943084  79.9175217  60.2317979  99.3375637
  80.7433237  59.9321751  98.9574280  79.5669269  59.4625601  99.7865425
  84.8856750  59.5844447 101.4073310  84.2636759  58.9215152 101.1075538
  85.5561617  59.6105579 100.7246958  78.1183822  58.1504305 100.2964570
  77.2815730  57.7226480 100.1148571  78.0907468  58.3436749 101.2335361
  84.9581278  48.0626235 111.0005816  85.0069433  48.9388358 110.6183586
  85.5003792  47.5203628 110.4277459  95.4436123  58.6067358 110.2806953
  94.6531667  58.5891497 109.7411453  95.2069478  59.1455652 111.0355990
  95.5633998  55.4559825 107.5939682  95.6132003  55.2909832 108.5355205
  95.4547922  54.5887084 107.2037563  84.4470257  58.1348371  94.8831771
  84.5958377  58.8183835  94.2298443  85.2536701  58.1153461  95.3981226
  92.8537761  51.4390753 108.9098988  93.7547624  51.2997218 108.6182986
  92.9285735  51.6045208 109.8497166  87.1880566  48.8157608 107.7552175
  86.3183876  49.1091174 107.4834763  87.4240046  49.3998053 108.4759438
  97.0652195  57.8756766 107.8381703  96.7737004  58.2386747 108.6745164
  96.4524327  57.1623775 107.6595035  98.2647878  55.4409646 100.3584274
  99.0994769  55.8799450 100.5221834  98.4007006  54.9648299  99.5392519
  95.3139383  52.9989381 106.3061761  95.7893505  53.1917027 105.4980613
  94.3904949  53.0548567 106.0605145  82.2022890  54.1613548  95.8892840
  81.9568932  53.2575878  96.0873050  82.3718805  54.1630699  94.9472318
  89.8919600  45.0337225 105.2717595  90.4101544  45.7698251 104.9464084
  89.5374733  45.3401218 106.1064354  81.4718538  49.8941906  93.3879001
  80.7787783  49.9686261  92.7319037  81.2270290  49.1302249  93.9100518
  90.1432194  41.4537507 100.7918492  90.4233948  40.7860696 101.4178918
  90.9282801  41.6466603 100.2793156  87.9465663  60.6296501  92.3543518
  87.3739630  61.2486688  91.9013990  88.5198456  61.1795863  92.8883440
  94.0141052  49.8755141 104.5390067  94.9658475  49.9753239 104.5602291
  93.8444503  49.0833410 105.0488151  92.0355432  46.9610724 104.7249468
  91.4405364  47.2415737 104.0295956  91.7505129  47.4504625 105.4966209
  91.1662922  60.9133651  93.4852100  92.0993596  60.8479213  93.6884976
  91.0786135  61.7489918  93.0266633  93.7950939  60.2299521  90.4456048
  93.7164571  59.8959385  91.3391806  94.6160606  60.7221289  90.4447520
  96.4929130  53.0961261 103.6532367  96.4605450  52.1577261 103.8392050
  97.1029754  53.1745297 102.9198191  88.3312461  51.9657314  89.6959571
  89.2771566  51.8363522  89.7647989  87.9526706  51.2271976  90.1728999
  96.6423619  49.8872304 103.6990650  96.1262667  49.1030761 103.5120579
  97.5263567  49.5591021 103.8637169  94.3034346  43.6313320  99.6586462
  94.1059167  43.3228408 100.5429794  94.9134051  44.3574959  99.7884392
 102.3105680  54.1577268 102.7938403 103.0409069  53.8962556 103.3546107
 101.7012626  53.4205990 102.8340471 100.3920977  52.2985130 103.3912855
  99.6654141  52.1641095 102.7829346  99.9768264  52.6061959 104.1969573
  88.2151154  56.0175060 111.1560228  89.1354163  56.1953659 111.3500274
  88.1800737  55.0731105 111.0039927  86.5155378  49.8907290  89.6314456
  85.6086834  49.5940403  89.7077169  86.7931359  49.5937108  88.7648742
  77.4333319  51.2113654 100.0813502  77.1136103  50.3578962  99.7887876
  76.8866747  51.4262232 100.8371470  81.2113226  53.9276095 103.7983009
  81.4299236  54.8593202 103.8171043  81.6239000  53.5684069 104.5837813
  88.1317444  44.4344180  95.7858697  87.3218172  44.0891265  96.1613943
  88.8201861  44.1251724  96.3746309  90.0607992  43.5122227  97.4082994
  90.6139031  43.9317680  98.0673017  90.2978079  42.5857975  97.4505950
  86.0841092  49.5009300 113.1885758  85.9837818  50.4503657 113.1197849
  85.8662634  49.1727539 112.3161828  85.2854163  46.7494225  89.7726435
  86.1473327  47.0749124  90.0322252  85.4704507  45.9625721  89.2599501
  77.3021579  54.8316565 102.0506624  76.6085050  54.4170518 101.5376578
  78.0494570  54.8737102 101.4540043  93.4386799  45.6222752  96.9161658
  92.8585468  46.2807556  96.5339710  93.1722732  44.8000096  96.5049075
  91.8890366  45.0227809  99.1182978  92.3890144  45.1344344  98.3097297
  92.5325974  44.7188862  99.7583787  85.9472362  52.9306439 112.0050819
  85.4639443  53.7306799 112.2114708  86.0333301  52.9414384 111.0518263
  79.2158321  54.7634819  99.9272639  79.1929009  54.8622506  98.9754522
  79.5258958  55.6099970 100.2489805  81.8745699  56.8210974 104.0419253
  82.8288953  56.7894916 103.9749185  81.6758223  56.3601598 104.8569479
  82.4645081  55.3912090 106.6090051  83.2837970  55.8856169 106.6324888
  82.7381889  54.4744058 106.5807618  92.2211677  47.7822842  95.9718006
  91.3337532  48.0672493  95.7538201  92.6365666  47.6216606  95.1245283
  95.5726214  47.8069363  99.6872345  96.3486604  48.2965816  99.9596962
  94.8474348  48.2327417 100.1444215  98.0098772  48.5196982 100.7446286
  98.6043263  48.2792718 100.0339594  98.0825356  47.8004113 101.3719822
  80.2295928  62.3630593 101.0589451  80.0950396  61.6030994 100.4927449
  79.8127990  63.0871493 100.5918240  91.3654891  57.5467517  90.0666026
  92.0690741  57.7517519  90.6823682  90.6417540  58.1144279  90.3315110
  92.1952701  53.2977378  96.1868296  92.1387903  53.7545930  95.3475929
  92.7481044  52.5368063  96.0091139  96.0057507  49.0867110  97.0118416
  95.7494441  48.6863746  97.8426624  95.3810375  49.8010904  96.8868555
 100.3169845  51.8263183  99.5189707  99.7569403  51.8956373 100.2921269
  99.7113348  51.6504168  98.7989204  83.3865054  63.2599910 101.2707894
  83.2697438  64.2045343 101.1686584  82.5657500  62.9573472 101.6593693
  93.2741588  57.9850046  92.1164486  94.1087192  57.5531245  91.9341961
  93.1125931  57.8132060  93.0441381  92.9287480  54.4882159  93.4820826
  92.8736284  54.3226431  92.5409270  92.3033536  55.1958192  93.6383015
  77.7179995  49.7250224 107.3082248  78.3638859  49.2149178 107.7969473
  77.5097147  50.4618905 107.8825673  90.2433388  56.7931071 112.8074388
  91.1124547  56.9671723 112.4461023  89.7640139  57.6125488 112.6850118
  86.2383606  43.9890268  93.0606144  86.2262276  44.9332108  93.2174415
  87.1307028  43.8060414  92.7665605  84.4119568  63.9128172 104.4863822
  85.3146815  63.9451782 104.8030317  84.1856938  62.9828623 104.5010158
  86.1673170  62.6659159 101.1473901  85.2168801  62.6661020 101.0338273
  86.4705656  61.9191893 100.6309935  90.0535725  40.5833045  97.3152081
  89.2868121  40.0291532  97.4608763  90.4646430  40.6554914  98.1766232
  82.0577486  46.8717841 111.4057262  82.9208948  46.5154646 111.6160587
  81.4842897  46.5331736 112.0932666 101.9025863  68.5019697 102.2119663
 102.5404273  68.3826445 101.5083003 101.7846706  69.4500541 102.2707615
  98.7115570  68.4547125 102.1481188  98.3734081  68.3388190 101.2601723
  99.5805338  68.0538290 102.1282194  94.5702385  70.3082602  98.1378079
  94.0067250  70.2172539  97.3694366  94.4554780  69.4882506  98.6180571
  99.1935353  69.6081977 108.1067393  99.1823993  69.2134775 107.2347897
  99.3555992  68.8748050 108.7001165  92.1166817  71.8033793 100.9762299
  92.9088109  71.4624618 100.5608598  92.3563467  71.9128768 101.8964452
 100.1501944  73.9753569  93.4492544  99.4989924  74.5607650  93.0626557
 100.9446307  74.5059764  93.5087581  94.0757571  71.0642707  93.8479678
  94.8488447  70.5171694  93.7092554  94.4282970  71.9286956  94.0594139
  95.9142614  72.3919089 107.0546577  95.6232480  73.2964720 106.9393244
  96.5499598  72.4335616 107.7690647  96.8398821  69.7695937 103.6447937
  97.4362393  69.5451960 102.9304900  96.8973792  69.0280683 104.2473385
  96.4123849  67.2235373  91.4798128  96.6649370  66.7016894  90.7181591
  95.4748408  67.0601518  91.5824811 101.4567132  66.2271151  99.2872871
 102.2430221  65.8090574  98.9363288 101.7205836  67.1317243  99.4554519
 101.6277209  71.6644001  93.9861528 100.9923042  71.7378628  94.6982433
 101.2974616  72.2537600  93.3080607 106.8575559  66.1646384 100.1905850
 107.5900731  65.5945601 100.4243679 106.1014915  65.7767985 100.6312355
  96.1320138  69.1263479  93.6822503  96.0156396  68.4508382  94.3503587
  96.2422398  68.6395853  92.8654656  98.4751679  68.5873626  97.3869192
  98.1109886  68.0604247  98.0982114  99.3318795  68.1972095  97.2135677
 104.3800979  59.8767958 104.6500458 104.0484304  60.7463369 104.4261673
 103.7846593  59.5604242 105.3294489  98.1157166  63.6163525  92.3830541
  98.2831568  64.4843762  92.7501012  97.9254335  63.7790807  91.4591830
 100.8732499  72.0780504 104.0496371 100.5733222  72.9805543 103.9412178
 100.5283558  71.8112688 104.9017524  94.3244980  68.5294301 100.0833075
  93.3995477  68.3970515 100.2910767  94.5729394  69.3088520 100.5803018
 104.2729643  64.5963044 101.7293808 103.3646520  64.5278453 101.4352569
 104.2217238  65.0734989 102.5575634  98.0946387  66.0721183  93.3677207
  97.9746012  66.5178234  94.2062688  97.3998975  66.4206501  92.8090746
  91.6853791  68.1727575 100.9176864  91.8146173  68.4262054 101.8316276
  91.0051243  68.7655283 100.5981519  95.8553279  78.8424825  97.0167339
  95.7777308  79.7932650  97.0955819  95.2514922  78.4970697  97.6742265
  98.3470508  66.0152690 109.6728706  97.5703843  66.5746610 109.6631570
  98.9861071  66.5009473 110.1943576 106.1391289  62.7979483 103.5071682
 105.4965669  63.0912016 102.8611477 105.6346218  62.6832403 104.3124879
 103.7931453  66.5442656  94.1957541 104.7049309  66.7770043  94.0205239
 103.2841100  67.1279700  93.6332620  96.6016881  68.8238143 109.2346673
  97.3431565  69.3623187 108.9581496  95.8953866  69.4504432 109.3918224
 102.0772220  70.9667284 107.8318834 102.4855576  70.5249694 107.0873466
 101.3549482  70.3919911 108.0853027  98.4303290  65.9039891 105.2052391
  99.2764486  66.3279304 105.3487040  98.3701928  65.2473515 105.8990954
 102.4001035  71.5268475 101.5871123 101.7709897  71.6914189 100.8847191
 102.0126697  71.9410084 102.3582087 106.2790267  72.4622912  98.9415487
 105.5941305  72.8421814  98.3912520 106.3634116  73.0718239  99.6747434
 101.5802736  63.5644259 106.8633565 101.3363668  64.3186320 106.3267840
 101.8562666  63.9429607 107.6980812 103.5341199  70.1082871 105.5410830
 103.7458094  70.7514631 104.8645211 103.4870947  69.2745188 105.0732760
 101.1367427  62.7200692 102.4447402 100.2751907  63.0181946 102.7364140
 101.1629862  62.9371091 101.5128435  97.9528997  71.2642883  98.8521208
  98.4167342  71.5430586  98.0625830  97.6885795  70.3626327  98.6694299
  94.8453078  70.8114364 101.7900971  95.4154435  71.2401633 101.1518456
  95.4361190  70.5296949 102.4885157  96.8897883  67.3866035  95.6610773
  97.5921926  67.8387079  96.1284699  96.5578511  66.7449854  96.2890666
  95.3378244  65.9777792 110.0361983  94.7076905  66.6594072 110.2697379
  95.2314332  65.8660873 109.0915121  90.6323217  65.6449588 100.9627907
  89.8422271  65.9007116 100.4868017  91.1234464  66.4597925 101.0679947
 104.6487026  72.9854827 103.7133188 105.4704470  72.5835014 103.4315869
 104.6449429  72.8823061 104.6649303  92.5837962  66.0094167  97.9211383
  91.7869126  66.1212861  98.4394879  92.3563555  66.3480819  97.0552274
  98.4143630  72.5338870 105.8693898  98.4788062  72.9959277 106.7052070
  97.7054554  71.9036235 105.9976208  88.9160920  65.8980078 103.3942897
  89.1668958  66.7827088 103.6600473  89.4520468  65.7184680 102.6217989
 112.7393020  69.3293575 100.0618159 111.9856728  68.7600973  99.9062163
 112.8740561  69.2956240 101.0088794  98.1291648  74.2006978  95.7372878
  97.9937322  75.0458513  96.1657726  98.6701460  74.4026255  94.9738812
  94.6158987  60.2798557 112.3987234  94.2225933  59.7264756 113.0734878
  95.4325128  60.5909136 112.7893751  91.5821045  71.7182416  96.3100803
  92.0945566  72.5125666  96.4606368  92.2343758  71.0208706  96.2434405
  93.3915930  74.8348172  98.3923557  93.5682558  75.7566137  98.2044541
  94.1872763  74.5206591  98.8217936  97.5326948  61.6956437 109.9907490
  98.2736662  62.2963590 109.9111953  97.7644871  60.9534074 109.4325533
  92.6768286  66.8812804 108.2685720  92.5621801  65.9798061 108.5692819
  91.8212804  67.1276501 107.9170536  99.7560124  74.8230544 109.8673220
  99.3123978  74.0366923 109.5494125 100.4177338  75.0109695 109.2017111
  94.5147245  76.3526346 104.3933899  95.0654670  76.2243409 103.6210893
  93.6758721  76.6521235 104.0428792 101.8541362  75.1033344 107.8954622
 101.8359837  75.9242225 107.4034891 102.7761282  74.9787419 108.1204763
  98.3114416  72.6177474 108.7378130  98.8442753  71.8565762 108.5077438
  97.7828497  72.3251125 109.4802285 101.4784111  57.7237539 104.2671772
 101.1348381  58.6139181 104.1910882 101.8463074  57.5339197 103.4041357
  89.5469962  70.0471070  97.0860374  90.3845184  70.4568078  96.8694082
  89.7248229  69.1070512  97.0560568 101.4434394  67.7146151  92.7744207
 100.9281017  68.4850755  93.0132594 101.1711702  67.0411287  93.3977268
  99.0281505  62.5595851  97.8329445  98.1723101  62.1702702  97.6535084
  99.4408457  62.6387812  96.9729231 100.5580652  60.0942195 102.2321005
 100.0545447  60.0572330 101.4188810 100.8511258  61.0034937 102.2917662
  96.8023537  60.1780924 101.2387187  97.6676534  59.9823733 100.8793076
  96.8701046  59.9491276 102.1656544 106.4168668  70.4678505  94.7097380
 105.6398111  70.1289665  94.2652542 107.0960149  70.4731128  94.0352345
 101.2320697  65.5873243  94.6003988 100.9270833  65.9019392  95.4514131
 102.1851139  65.6654663  94.6431321  99.6767129  71.7463466  96.2496942
  99.1488490  71.0116226  95.9370180  99.1754632  72.5238142  96.0036910
 104.6559975  69.9412486 101.3663988 103.9983649  70.6311748 101.4544117
 105.4600374  70.3308918 101.7097975  94.4085857  62.4083132  98.6103554
  94.9829608  62.1858314  97.8776747  94.9956839  62.4771827  99.3632155
 103.4665434  68.2956859  99.4167930 103.9797315  68.9286851  99.9189640
 104.1166658  67.6958055  99.0511290  94.7355444  64.4387593  92.6299439
  93.8992756  64.7762280  92.9508714  94.5960213  64.3036573  91.6926576
  96.7108524  59.2824381  97.3378623  96.0572937  58.9673398  96.7135238
  96.6688998  58.6600122  98.0638446  97.8219729  69.5643676  89.2531915
  96.9146791  69.3332930  89.4523064  98.3190761  68.7681296  89.4405897
 100.7287808  78.2741183  92.1728601 100.0549507  78.5772880  92.7813559
 101.1153630  79.0770264  91.8234058  99.9446265  65.7706315 101.6626271
  99.0268826  65.9921262 101.5047959 100.3606408  65.8452625 100.8037978
 100.7281312  67.1697730  96.7928951 101.4753131  67.6819128  96.4836073
 100.9972902  66.8481783  97.6533344  99.0007963  69.6656271  93.7755905
  98.0919182  69.3815304  93.8728375  99.0303046  70.0855350  92.9159212
 104.2327230  73.2762861  97.5447073 103.7789557  72.4353771  97.6012263
 103.6021197  73.9124259  97.8821853 103.1760149  64.2054847  98.7747740
 102.4382906  63.6932233  99.1057983 103.4286923  63.7655228  97.9631017
 102.6760169  75.1139357  98.4796891 102.9683144  75.6744414  97.7609257
 103.1858790  75.4067918  99.2350050 103.2771777  56.9831099  99.3689509
 103.5830654  56.1228462  99.0815425 104.0024382  57.5748719  99.1688503
  89.5696133  67.3861785  97.7571107  89.3720533  66.7931146  97.0322174
  89.0142797  67.0813995  98.4747046  97.5492857  67.2784892  99.8765701
  97.6041466  66.3258728  99.8008177  96.7384059  67.4344331 100.3606999
  98.6984050  71.2065015  91.1143984  98.2603480  70.4900874  90.6549621
  99.4394491  71.4341130  90.5529075  95.4885216  65.8961951  97.6356079
  94.6753082  66.1956122  98.0421272  95.9844211  65.5017640  98.3530562
  97.6393794  75.8919708  99.5690344  97.5969973  76.1180555  98.6398876
  98.5556493  75.6583083  99.7176145 101.0859428  66.3603776 106.4670973
 101.4408816  66.5875249 107.3265439 101.7331559  66.6922153 105.8448229
 106.8157165  69.4822212  97.1720302 106.6775064  69.6723808  96.2441492
 106.4593384  70.2441595  97.6288353  94.9799291  63.4680307 103.2517314
  95.6198671  63.3269066 102.5540278  94.1476822  63.1814820 102.8755916
 106.8426545  71.5498739 102.1831574 107.2763051  71.4574028 103.0314628
 107.5558125  71.5256239 101.5451590  95.7559595  72.7682737  99.3652307
  96.5500194  72.2733058  99.1634882  95.0451288  72.2400601  99.0020012
 100.5754440  75.1500833 103.7164674 100.6291462  75.7191769 104.4842390
  99.7069221  75.3202718 103.3518712  92.0642359  66.9125819  95.4412060
  91.1339947  66.8510275  95.6582022  92.1599831  66.3901772  94.6448701
  91.9827908  63.4380632  98.0290301  92.2434725  64.3525965  97.9199462
  92.8045080  62.9705075  98.1786914  93.4552833  64.8518389 105.1989126
  94.1275886  64.6435751 104.5501775  92.6282620  64.6540475 104.7594358
 107.7042094  71.5922439 104.7164459 107.8977984  72.4968250 104.9623734
 107.6042712  71.1329859 105.5503044  99.3578405  61.4780330 107.2154787
  98.7106320  62.1770280 107.1219263 100.1279420  61.9116474 107.5831035
 102.7657203  71.7429182 110.2905340 102.6142709  71.5139734 109.3735424
 102.7561882  72.6999784 110.3036685  99.5342539  69.3161095 105.2751606
 100.4634599  69.4672255 105.1020574  99.1133569  69.4045116 104.4200253
  98.3330871  73.3411759 103.0450144  98.1941957  72.9730544 103.9176082
  97.5445467  73.8559399 102.8734102  98.9279023  78.4420856  94.3875680
  99.1030779  77.9708899  95.2021303  98.2411811  79.0686622  94.6156941
  99.8836086  72.7193362 100.4338982  99.5485919  72.6794132 101.3296632
  99.3840032  72.0538078  99.9609392  93.8580330  68.1260992 105.9591563
  93.7200128  67.3941231 106.5603102  94.7685254  68.0369892 105.6775751
 102.8195278  70.0649396  90.7076041 102.2024449  69.3396225  90.6109094
 102.3511766  70.8258757  90.3643116  96.4862631  67.8380951 105.4475243
  97.1962249  67.1974144 105.4061861  96.4431939  68.0893846 106.3701423
 104.4749410  74.7748305 108.3681822 104.4161956  74.0907525 107.7012405
 104.8768928  75.5167295 107.9162448  95.1991565  64.8246169 107.2670882
  94.6628922  64.3736908 107.9192478  94.6108273  64.9592078 106.5241346
  93.4940108  81.5910219 101.1615541  93.7336707  82.2228743 101.8394559
  92.6509305  81.2398259 101.4480900  94.6093824  64.2834821  89.8297346
  93.7323290  64.1623622  89.4659592  95.0851577  63.4920899  89.5776234
 104.4766817  72.7387889 106.5995801 103.5893596  72.4013811 106.7222200
 105.0465368  72.0070920 106.8364567  86.1295964  69.0711980  99.9238853
  86.8167004  68.7573711  99.3359868  85.9744093  69.9753345  99.6506104
  90.9330686  63.9602177 104.3523876  90.8488875  63.3527847 103.6174286
  90.1113393  64.4511195 104.3533373  98.0067970  77.3989341 103.5657045
  97.9338142  78.2044313 104.0776349  97.5645363  77.5981307 102.7405066
  97.7957750  76.6361111  97.0759866  97.0125272  77.1782791  97.1698091
  98.4950495  77.1535091  97.4754107 101.1054400  62.4455741  99.7194072
 101.6023100  61.6925703  99.3995142 100.3341381  62.4820057  99.1537281
 108.9584157  68.1496106 101.3612363 108.9474034  69.0320822 100.9906296
 108.0901537  67.7967657 101.1666900 100.4666654  77.2976175 105.7215203
 101.1794626  77.9323640 105.6491105  99.9756682  77.3940041 104.9055205
 102.1884181  71.2027428  97.2932495 101.2540459  71.3228890  97.1237199
 102.3660849  70.2999895  97.0292505  97.6889369  64.5873124  99.4465756
  97.3187156  64.0344164 100.1346662  98.1848461  63.9831257  98.8940756
 105.5756732  67.0444747  97.8282529 106.0417184  67.8772739  97.7542832
 106.0264233  66.5789729  98.5327788  95.5178567  75.0470619 106.5420774
  96.2188027  75.6807102 106.6950168  95.0473682  75.3885350 105.7816413
 103.6432963  73.3888568  94.8268681 103.9192807  73.2745163  95.7362555
 102.7737462  72.9906053  94.7880854 103.5473395  59.4125334 101.8673430
 102.6336475  59.6429561 102.0355637 103.9766496  59.4963778 102.7187463
 103.3179853  67.6015226 104.3673324 102.6651304  67.8491133 103.7125777
 103.6960233  66.7879364 104.0335802 100.2787027  77.6374919  98.4701495
 100.4609422  76.8196575  98.9329247 101.1020013  77.8542611  98.0326385
 100.6129193  76.5643104  95.7316543 101.1416959  76.0535559  95.1186705
 100.8757412  76.2485635  96.5962076  99.3667426  68.3435037 110.8539362
  98.6908063  68.2429166 111.5241737 100.1895060  68.1874251 111.3175359
  91.1146285  74.5806974 103.4751877  91.6999722  73.8350662 103.6079781
  90.9171124  74.8910930 104.3588541  93.9684941  77.6158221  98.4914319
  93.2995316  78.1004349  98.0078359  93.8297810  77.8627441  99.4057698
  85.7063940  67.1512574 102.1956320  85.7448040  66.6176165 102.9893438
  85.2004233  66.6247779 101.5767297  98.1090209  79.6501965 105.0896978
  98.6608517  79.8133586 105.8546063  98.4496403  80.2406402 104.4177002
  93.0854702  61.9977114 105.6918862  93.1496029  62.8591945 105.2796260
  93.0221823  61.3851116 104.9591221  92.5606975  64.0700247 109.3391896
  93.1879014  63.6877324 109.9529421  91.7034894  63.8514449 109.7047589
  89.3372518  65.8776676  95.2710251  89.6325959  64.9687354  95.2177305
  88.4360553  65.8564415  94.9491254 101.2458596  77.5983940 102.0760660
 101.1209736  76.7973680 101.5671605 101.9037688  78.0930133 101.5874630
  92.8666765  63.9532673 101.2537800  92.1453350  64.5668640 101.1145273
  93.6560020  64.4890437 101.1754446 103.3093505  75.3992960 103.7040210
 102.3623840  75.2798311 103.6318536 103.6576278  74.5115458 103.7866471
  95.6693078  61.2887099 107.5278452  96.1927480  61.5349396 108.2904761
  95.4505411  62.1207134 107.1081589  91.0660359  63.5590774  95.3949576
  90.7373065  62.6788153  95.2124682  91.4199730  63.5038442  96.2825966
 100.3139938  75.1945676  99.9044562 100.1664901  74.2662384 100.0852132
 101.1393432  75.2165767  99.4201637  94.1802182  63.8463743  95.7625054
  94.5198255  64.3749665  95.0403663  94.6274303  64.1844150  96.5383621
 103.9174060  76.0174235 100.9909435 104.8420607  75.8117096 100.8533886
 103.7489363  75.7690636 101.8998776  96.8745623  62.2300794 105.2128122
  96.5342444  61.4308607 105.6148802  96.1684630  62.5302505 104.6404955
  97.5262095  59.3150107 103.6655445  98.3488164  58.8410585 103.5434336
  97.7700159  60.0940590 104.1654132  96.1670330  62.3438365  93.9618347
  96.8878692  62.7219618  93.4582064  95.5435634  63.0627242  94.0653325
 100.3101452  63.0483514  94.8976679 100.5265067  63.9308152  94.5965507
  99.8295520  62.6569727  94.1682321  95.0500674  66.0069227 101.4747424
  94.9045255  66.3209530 102.3671705  94.5725877  66.6254128 100.9218322
  96.9097057  62.9971775 101.5228313  96.8958625  62.1012869 101.1860611
  97.6269485  63.0042439 102.1566599  98.7623187  63.4309115 103.5681441
  98.5040965  64.3526186 103.5665771  98.2308228  63.0339550 104.2581905
 103.7069376  76.5359903  96.3471526 103.8806254  75.9706325  95.5945379
 104.1998267  77.3360797  96.1651016  89.5246336  68.5474572 104.4135085
  88.9799804  69.3234380 104.5455359  90.4025686  68.8945376 104.2554206
  96.3133953  61.8786156  96.7915884  96.4349864  60.9502802  96.9906771
  96.0235995  61.8924841  95.8794199  99.1825143  59.5641066  99.9282603
  99.2046840  59.6280399  98.9734583  99.5993202  58.7245575 100.1223110
 109.5608767  69.2996325  97.9661826 110.0039913  68.5503651  97.5680949
 108.6835278  69.2906462  97.5835558 104.6944549  75.8526667  93.4468424
 105.3895453  76.4733360  93.6655739 105.0367699  75.0022018  93.7220802
  90.3112358  67.6744468 107.3065242  89.5694094  67.8227103 107.8929872
  89.9905102  67.9352734 106.4431991 106.5935972  73.3026372  94.9755755
 107.1187296  73.6413645  94.2505075 106.5058324  72.3673388  94.7918890
  98.2556020  77.2160446 107.1045632  98.5643147  76.9709593 107.9768331
  99.0531503  77.4207085 106.6164502  98.2776633  79.3698356  99.3351008
  97.8381623  78.8774734 100.0283865  99.0284749  78.8271323  99.0943084
  90.7568972  75.5609897  99.3375637  91.5826991  75.2613668  98.9574280
  90.4063024  74.7917519  99.7865425  95.7250505  74.9136365 101.4073310
  95.1030514  74.2507070 101.1075538  96.3955372  74.9397497 100.7246958
  88.9577577  73.4796223 100.2964570  88.1209485  73.0518397 100.1148571
  88.9301222  73.6728666 101.2335361  95.7975032  63.3918153 111.0005816
  95.8463188  64.2680276 110.6183586  96.3397546  62.8495546 110.4277459
 106.4027753  70.7851742 107.5939682 106.4525758  70.6201750 108.5355205
 106.2941676  69.9179002 107.2037563  95.2864012  73.4640288  94.8831771
  95.4352132  74.1475753  94.2298443  96.0930455  73.4445378  95.3981226
 103.6931515  66.7682671 108.9098988 104.5941378  66.6289135 108.6182986
 103.7679490  66.9337125 109.8497166  98.0274321  64.1449525 107.7552175
  97.1577630  64.4383091 107.4834763  98.2633801  64.7289970 108.4759438
 107.9045950  73.2048684 107.8381703 107.6130758  73.5678665 108.6745164
 107.2918081  72.4915692 107.6595035 109.1041632  70.7701564 100.3584274
 109.9388523  71.2091368 100.5221834 109.2400761  70.2940217  99.5392519
 106.1533138  68.3281299 106.3061761 106.6287260  68.5208945 105.4980613
 105.2298703  68.3840484 106.0605145  93.0416645  69.4905466  95.8892840
  92.7962687  68.5867796  96.0873050  93.2112559  69.4922616  94.9472318
 100.7313354  60.3629142 105.2717595 101.2495298  61.0990169 104.9464084
 100.3768487  60.6693135 106.1064354  92.3112292  65.2233823  93.3879001
  91.6181537  65.2978178  92.7319037  92.0664044  64.4594167  93.9100518
 100.9825949  56.7829425 100.7918492 101.2627702  56.1152614 101.4178918
 101.7676556  56.9758520 100.2793156  98.7859417  75.9588419  92.3543518
  98.2133384  76.5778606  91.9013990  99.3592211  76.5087780  92.8883440
 104.8534807  65.2047059 104.5390067 105.8052230  65.3045156 104.5602291
 104.6838257  64.4125327 105.0488151 102.8749186  62.2902642 104.7249468
 102.2799119  62.5707655 104.0295956 102.5898883  62.7796543 105.4966209
 102.0056677  76.2425569  93.4852100 102.9387350  76.1771130  93.6884976
 101.9179890  77.0781836  93.0266633 104.6344694  75.5591439  90.4456048
 104.5558325  75.2251303  91.3391806 105.4554360  76.0513207  90.4447520
 107.3322885  68.4253178 103.6532367 107.2999205  67.4869179 103.8392050
 107.9423508  68.5037215 102.9198191  99.1706216  67.2949231  89.6959571
 100.1165320  67.1655439  89.7647989  98.7920461  66.5563893  90.1728999
 107.4817373  65.2164222 103.6990650 106.9656422  64.4322678 103.5120579
 108.3657322  64.8882938 103.8637169 105.1428100  58.9605237  99.6586462
 104.9452921  58.6520326 100.5429794 105.7527806  59.6866876  99.7884392
 113.1499435  69.4869185 102.7938403 113.8802823  69.2254473 103.3546107
 112.5406380  68.7497907 102.8340471 111.2314732  67.6277048 103.3912855
 110.5047895  67.4933013 102.7829346 110.8162019  67.9353876 104.1969573
  99.0544908  71.3466978 111.1560228  99.9747918  71.5245577 111.3500274
  99.0194491  70.4023023 111.0039927  97.3549133  65.2199208  89.6314456
  96.4480588  64.9232320  89.7077169  97.6325114  64.9229026  88.7648742
  88.2727073  66.5405571 100.0813502  87.9529858  65.6870879  99.7887876
  87.7260501  66.7554149 100.8371470  92.0506981  69.2568012 103.7983009
  92.2692990  70.1885120 103.8171043  92.4632755  68.8975987 104.5837813
  98.9711199  59.7636097  95.7858697  98.1611927  59.4183182  96.1613943
  99.6595615  59.4543641  96.3746309 100.9001747  58.8414144  97.4082994
 101.4532785  59.2609598  98.0673017 101.1371833  57.9149892  97.4505950
  96.9234846  64.8301218 113.1885758  96.8231573  65.7795575 113.1197849
  96.7056388  64.5019457 112.3161828  96.1247917  62.0786143  89.7726435
  96.9867081  62.4041041  90.0322252  96.3098262  61.2917639  89.2599501
  88.1415333  70.1608483 102.0506624  87.4478805  69.7462435 101.5376578
  88.8888324  70.2029019 101.4540043 104.2780554  60.9514669  96.9161658
 103.6979223  61.6099473  96.5339710 104.0116487  60.1292014  96.5049075
 102.7284120  60.3519727  99.1182978 103.2283899  60.4636262  98.3097297
 103.3719728  60.0480780  99.7583787  96.7866116  68.2598357 112.0050819
  96.3033198  69.0598717 112.2114708  96.8727055  68.2706302 111.0518263
  90.0552076  70.0926736  99.9272639  90.0322764  70.1914424  98.9754522
  90.3652712  70.9391887 100.2489805  92.7139454  72.1502891 104.0419253
  93.6682707  72.1186834 103.9749185  92.5151977  71.6893515 104.8569479
  93.3038836  70.7204008 106.6090051  94.1231725  71.2148086 106.6324888
  93.5775643  69.8035976 106.5807618 103.0605432  63.1114760  95.9718006
 102.1731287  63.3964410  95.7538201 103.4759421  62.9508523  95.1245283
 106.4119968  63.1361281  99.6872345 107.1880358  63.6257733  99.9596962
 105.6868102  63.5619335 100.1444215 108.8492527  63.8488900 100.7446286
 109.4437017  63.6084636 100.0339594 108.9219110  63.1296031 101.3719822
  91.0689682  77.6922511 101.0589451  90.9344150  76.9322912 100.4927449
  90.6521745  78.4163411 100.5918240 102.2048645  72.8759435  90.0666026
 102.9084495  73.0809437  90.6823682 101.4811294  73.4436196  90.3315110
 103.0346456  68.6269296  96.1868296 102.9781657  69.0837847  95.3475929
 103.5874798  67.8659980  96.0091139 106.8451262  64.4159028  97.0118416
 106.5888196  64.0155663  97.8426624 106.2204130  65.1302822  96.8868555
 111.1563599  67.1555101  99.5189707 110.5963157  67.2248290 100.2921269
 110.5507103  66.9796086  98.7989204  94.2258808  78.5891828 101.2707894
  94.1091192  79.5337260 101.1686584  93.4051254  78.2865390 101.6593693
 104.1135343  73.3141964  92.1164486 104.9480947  72.8823162  91.9341961
 103.9519686  73.1423977  93.0441381 103.7681235  69.8174077  93.4820826
 103.7130039  69.6518348  92.5409270 103.1427290  70.5250110  93.6383015
  88.5573750  65.0542141 107.3082248  89.2032614  64.5441095 107.7969473
  88.3490901  65.7910823 107.8825673  97.0777360  59.3182186  93.0606144
  97.0656030  60.2624026  93.2174415  97.9700782  59.1352331  92.7665605
  95.2513322  79.2420090 104.4863822  96.1540569  79.2743700 104.8030317
  95.0250692  78.3120541 104.5010158  97.0066924  77.9951076 101.1473901
  96.0562555  77.9952938 101.0338273  97.3099411  77.2483811 100.6309935
 100.8929480  55.9124963  97.3152081 100.1261876  55.3583449  97.4608763
 101.3040185  55.9846831  98.1766232  92.8971241  62.2009758 111.4057262
  93.7602702  61.8446563 111.6160587  92.3236652  61.8623653 112.0932666
 105.4096140  85.6374519  98.1378079 104.8461005  85.5464456  97.3694366
 105.2948535  84.8174424  98.6180571 102.9560572  87.1325711 100.9762299
 103.7481864  86.7916536 100.5608598 103.1957222  87.2420686 101.8964452
 110.9895699  89.3045487  93.4492544 110.3383678  89.8899567  93.0626557
 111.7840061  89.8351682  93.5087581 104.9151326  86.3934624  93.8479678
 105.6882202  85.8463611  93.7092554 105.2676725  87.2578874  94.0594139
 107.2517604  82.5527290  91.4798128 107.5043124  82.0308812  90.7181591
 106.3142163  82.3893436  91.5824811 112.2960886  81.5563069  99.2872871
 113.0823976  81.1382492  98.9363288 112.5599591  82.4609161  99.4554519
 112.4670964  86.9935919  93.9861528 111.8316797  87.0670545  94.6982433
 112.1368370  87.5829518  93.3080607 106.9713892  84.4555396  93.6822503
 106.8550150  83.7800300  94.3503587 107.0816152  83.9687770  92.8654656
 109.3145433  83.9165543  97.3869192 108.9503640  83.3896164  98.0982114
 110.1712549  83.5264012  97.2135677 108.9550920  78.9455443  92.3830541
 109.1225323  79.8135679  92.7501012 108.7648089  79.1082725  91.4591830
 105.1638735  83.8586219 100.0833075 104.2389231  83.7262433 100.2910767
 105.4123148  84.6380438 100.5803018 108.9340141  81.4013101  93.3677207
 108.8139766  81.8470151  94.2062688 108.2392729  81.7498418  92.8090746
 102.5247546  83.5019492 100.9176864 102.6539927  83.7553971 101.8316276
 101.8444997  84.0947200 100.5981519 114.6325207  81.8734574  94.1957541
 115.5443063  82.1061960  94.0205239 114.1234854  82.4571618  93.6332620
 111.9761182  78.0492610 102.4447402 111.1145661  78.3473863 102.7364140
 112.0023617  78.2663009 101.5128435 108.7922751  86.5934800  98.8521208
 109.2561097  86.8722503  98.0625830 108.5279550  85.6918245  98.6694299
 107.7291637  82.7157953  95.6610773 108.4315681  83.1678996  96.1284699
 107.3972266  82.0741772  96.2890666 101.4716971  80.9741505 100.9627907
 100.6816025  81.2299034 100.4868017 101.9628219  81.7889843 101.0679947
 103.4231717  81.3386085  97.9211383 102.6262880  81.4504779  98.4394879
 103.1957309  81.6772737  97.0552274  99.7554674  81.2271996 103.3942897
 100.0062713  82.1119006 103.6600473 100.2914223  81.0476597 102.6217989
 108.9685402  89.5298895  95.7372878 108.8331077  90.3750431  96.1657726
 109.5095215  89.7318173  94.9738812 102.4214799  87.0474333  96.3100803
 102.9339320  87.8417584  96.4606368 103.0737512  86.3500624  96.2434405
 104.2309684  90.1640090  98.3923557 104.4076313  91.0858054  98.2044541
 105.0266518  89.8498509  98.8217936 112.3177866  73.0529457 104.2671772
 111.9742135  73.9431099 104.1910882 112.6856828  72.8631115 103.4041357
 100.3863716  85.3762988  97.0860374 101.2238938  85.7859996  96.8694082
 100.5641984  84.4362430  97.0560568 112.2828148  83.0438068  92.7744207
 111.7674772  83.8142673  93.0132594 112.0105457  82.3703204  93.3977268
 109.8675259  77.8887769  97.8329445 109.0116856  77.4994619  97.6535084
 110.2802211  77.9679730  96.9729231 111.3974406  75.4234112 102.2321005
 110.8939202  75.3864247 101.4188810 111.6905013  76.3326855 102.2917662
 107.6417292  75.5072842 101.2387187 108.5070289  75.3115651 100.8793076
 107.7094801  75.2783194 102.1656544 117.2562422  85.7970423  94.7097380
 116.4791865  85.4581582  94.2652542 117.9353903  85.8023046  94.0352345
 112.0714452  80.9165160  94.6003988 111.7664587  81.2311310  95.4514131
 113.0244894  80.9946580  94.6431321 110.5160883  87.0755384  96.2496942
 109.9882245  86.3408143  95.9370180 110.0148386  87.8530060  96.0036910
 105.2479611  77.7375050  98.6103554 105.8223363  77.5150231  97.8776747
 105.8350593  77.8063744  99.3632155 105.5749198  79.7679511  92.6299439
 104.7386510  80.1054198  92.9508714 105.4353968  79.6328491  91.6926576
 107.5502279  74.6116299  97.3378623 106.8966691  74.2965316  96.7135238
 107.5082753  73.9892039  98.0638446 108.6613484  84.8935594  89.2531915
 107.7540545  84.6624847  89.4523064 109.1584516  84.0973213  89.4405897
 111.5681562  93.6033101  92.1728601 110.8943261  93.9064798  92.7813559
 111.9547384  94.4062181  91.8234058 110.7840019  81.0998232 101.6626271
 109.8662580  81.3213179 101.5047959 111.2000163  81.1744543 100.8037978
 111.5675067  82.4989648  96.7928951 112.3146886  83.0111045  96.4836073
 111.8366656  82.1773701  97.6533344 109.8401717  84.9948189  93.7755905
 108.9312936  84.7107222  93.8728375 109.8696801  85.4147267  92.9159212
 114.0153904  79.5346764  98.7747740 113.2776661  79.0224151  99.1057983
 114.2680678  79.0947146  97.9631017 114.1165531  72.3123016  99.3689509
 114.4224408  71.4520380  99.0815425 114.8418136  72.9040637  99.1688503
 100.4089887  82.7153703  97.7571107 100.2114287  82.1223064  97.0322174
  99.8536551  82.4105913  98.4747046 108.3886611  82.6076809  99.8765701
 108.4435221  81.6550646  99.8008177 107.5777813  82.7636249 100.3606999
 109.5377805  86.5356932  91.1143984 109.0997235  85.8192791  90.6549621
 110.2788246  86.7633047  90.5529075 106.3278971  81.2253869  97.6356079
 105.5146836  81.5248040  98.0421272 106.8237965  80.8309558  98.3530562
 117.6550920  84.8114130  97.1720302 117.5168818  85.0015725  96.2441492
 117.2987138  85.5733512  97.6288353 105.8193046  78.7972225 103.2517314
 106.4592425  78.6560984 102.5540278 104.9870576  78.5106738 102.8755916
 106.5953350  88.0974655  99.3652307 107.3893948  87.6024975  99.1634882
 105.8845042  87.5692518  99.0020012 102.9036113  82.2417737  95.4412060
 101.9733701  82.1802192  95.6582022 102.9993585  81.7193690  94.6448701
 102.8221662  78.7672550  98.0290301 103.0828479  79.6817883  97.9199462
 103.6438834  78.2996992  98.1786914 104.2946587  80.1810307 105.1989126
 104.9669641  79.9727669 104.5501775 103.4676374  79.9832393 104.7594358
 109.7672778  93.7712774  94.3875680 109.9424533  93.3000817  95.2021303
 109.0805566  94.3978540  94.6156941 113.6589032  85.3941314  90.7076041
 113.0418203  84.6688142  90.6109094 113.1905521  86.1550674  90.3643116
 105.4487578  79.6126738  89.8297346 104.5717045  79.4915539  89.4659592
 105.9245331  78.8212817  89.5776234  96.9689718  84.4003898  99.9238853
  97.6560758  84.0865628  99.3359868  96.8137847  85.3045263  99.6506104
 101.7724441  79.2894095 104.3523876 101.6882629  78.6819764 103.6174286
 100.9507147  79.7803113 104.3533373 111.9448154  77.7747658  99.7194072
 112.4416854  77.0217621  99.3995142 111.1735136  77.8111975  99.1537281
 113.0277935  86.5319345  97.2932495 112.0934214  86.6520808  97.1237199
 113.2054604  85.6291812  97.0292505 108.5283123  79.9165041  99.4465756
 108.1580911  79.3636082 100.1346662 109.0242216  79.3123175  98.8940756
 116.4150487  82.3736665  97.8282529 116.8810939  83.2064656  97.7542832
 116.8657987  81.9081646  98.5327788 114.4826718  88.7180486  94.8268681
 114.7586562  88.6037081  95.7362555 113.6131216  88.3197971  94.7880854
 114.3867149  74.7417252 101.8673430 113.4730229  74.9721479 102.0355637
 114.8160251  74.8255696 102.7187463 111.4522947  91.8935022  95.7316543
 111.9810714  91.3827477  95.1186705 111.7151167  91.5777552  96.5962076
  96.5457695  82.4804492 102.1956320  96.5841794  81.9468082 102.9893438
  96.0397987  81.9539697 101.5767297 103.9248457  77.3269032 105.6918862
 103.9889783  78.1883863 105.2796260 103.8615577  76.7143034 104.9591221
 100.1766272  81.2068594  95.2710251 100.4719713  80.2979272  95.2177305
  99.2754308  81.1856333  94.9491254 103.7060519  79.2824590 101.2537800
 102.9847105  79.8960558 101.1145273 104.4953775  79.8182355 101.1754446
 101.9054114  78.8882691  95.3949576 101.5766820  78.0080070  95.2124682
 102.2593484  78.8330360  96.2825966 105.0195937  79.1755661  95.7625054
 105.3592009  79.7041582  95.0403663 105.4668057  79.5136067  96.5383621
 107.7139378  77.5592712 105.2128122 107.3736198  76.7600525 105.6148802
 107.0078384  77.8594423 104.6404955 108.3655850  74.6442024 103.6655445
 109.1881919  74.1702502 103.5434336 108.6093913  75.4232508 104.1654132
 107.0064084  77.6730283  93.9618347 107.7272447  78.0511536  93.4582064
 106.3829388  78.3919160  94.0653325 111.1495207  78.3775432  94.8976679
 111.3658821  79.2600070  94.5965507 110.6689274  77.9861645  94.1682321
 105.8894428  81.3361145 101.4747424 105.7439009  81.6501448 102.3671705
 105.4119632  81.9546045 100.9218322 107.7490811  78.3263693 101.5228313
 107.7352380  77.4304786 101.1860611 108.4663239  78.3334357 102.1566599
 109.6016942  78.7601033 103.5681441 109.3434720  79.6818104 103.5665771
 109.0701982  78.3631468 104.2581905 100.3640090  83.8766489 104.4135085
  99.8193559  84.6526297 104.5455359 101.2419440  84.2237294 104.2554206
 107.1527707  77.2078073  96.7915884 107.2743618  76.2794719  96.9906771
 106.8629750  77.2216759  95.8794199 110.0218898  74.8932984  99.9282603
 110.0440594  74.9572317  98.9734583 110.4386957  74.0537492 100.1223110
 115.5338303  91.1818585  93.4468424 116.2289208  91.8025277  93.6655739
 115.8761453  90.3313936  93.7220802 117.4329726  88.6318290  94.9755755
 117.9581050  88.9705563  94.2505075 117.3452079  87.6965305  94.7918890
 101.5962726  90.8901814  99.3375637 102.4220746  90.5905586  98.9574280
 101.2456778  90.1209437  99.7865425  99.7971331  88.8088141 100.2964570
  98.9603239  88.3810315 100.1148571  99.7694976  89.0020584 101.2335361
 106.1257766  88.7932206  94.8831771 106.2745886  89.4767670  94.2298443
 106.9324210  88.7737296  95.3981226 103.8810399  84.8197383  95.8892840
 103.6356441  83.9159713  96.0873050 104.0506314  84.8214534  94.9472318
 103.1506047  80.5525741  93.3879001 102.4575292  80.6270096  92.7319037
 102.9057799  79.7886085  93.9100518 111.8219703  72.1121342 100.7918492
 112.1021457  71.4444531 101.4178918 112.6070310  72.3050438 100.2793156
 109.6253172  91.2880336  92.3543518 109.0527139  91.9070523  91.9013990
 110.1985965  91.8379698  92.8883440 112.8450431  91.5717486  93.4852100
 113.7781105  91.5063048  93.6884976 112.7573644  92.4073753  93.0266633
 115.4738448  90.8883357  90.4456048 115.3952080  90.5543220  91.3391806
 116.2948115  91.3805125  90.4447520 110.0099970  82.6241149  89.6959571
 110.9559075  82.4947357  89.7647989 109.6314215  81.8855811  90.1728999
 115.9821855  74.2897155  99.6586462 115.7846676  73.9812243 100.5429794
 116.5921560  75.0158794  99.7884392 108.1942887  80.5491125  89.6314456
 107.2874343  80.2524238  89.7077169 108.4718868  80.2520944  88.7648742
  99.1120828  81.8697489 100.0813502  98.7923612  81.0162797  99.7887876
  98.5654256  82.0846067 100.8371470 109.8104953  75.0928015  95.7858697
 109.0005681  74.7475100  96.1613943 110.4989370  74.7835559  96.3746309
 111.7395501  74.1706062  97.4082994 112.2926540  74.5901515  98.0673017
 111.9765588  73.2441810  97.4505950 106.9641672  77.4078061  89.7726435
 107.8260836  77.7332959  90.0322252 107.1492016  76.6209557  89.2599501
  98.9809088  85.4900400 102.0506624  98.2872559  85.0754353 101.5376578
  99.7282079  85.5320937 101.4540043 115.1174308  76.2806587  96.9161658
 114.5372977  76.9391391  96.5339710 114.8510241  75.4583932  96.5049075
 113.5677875  75.6811645  99.1182978 114.0677653  75.7928179  98.3097297
 114.2113483  75.3772698  99.7583787 100.8945830  85.4218654  99.9272639
 100.8716518  85.5206341  98.9754522 101.2046467  86.2683805 100.2489805
 113.8999186  78.4406678  95.9718006 113.0125041  78.7256328  95.7538201
 114.3153175  78.2800441  95.1245283 117.2513723  78.4653198  99.6872345
 118.0274113  78.9549651  99.9596962 116.5261857  78.8911253 100.1444215
 113.0442400  88.2051352  90.0666026 113.7478250  88.4101355  90.6823682
 112.3205049  88.7728114  90.3315110 113.8740210  83.9561213  96.1868296
 113.8175412  84.4129765  95.3475929 114.4268553  83.1951898  96.0091139
 117.6845016  79.7450945  97.0118416 117.4281950  79.3447581  97.8426624
 117.0597884  80.4594739  96.8868555 114.9529097  88.6433881  92.1164486
 115.7874701  88.2115080  91.9341961 114.7913440  88.4715895  93.0441381
 114.6074989  85.1465995  93.4820826 114.5523793  84.9810266  92.5409270
 113.9821045  85.8542028  93.6383015  99.3967504  80.3834059 107.3082248
 100.0426368  79.8733013 107.7969473  99.1884656  81.1202741 107.8825673
 107.9171115  74.6474104  93.0606144 107.9049785  75.5915944  93.2174415
 108.8094537  74.4644249  92.7665605 111.7323234  71.2416880  97.3152081
 110.9655630  70.6875367  97.4608763 112.1433939  71.3138749  98.1766232
 116.4142953  95.0971429  92.6299439 115.5780265  95.4346115  92.9508714
 116.2747722  94.9620408  91.6926576 116.2881333  94.9418656  89.8297346
 115.4110799  94.8207457  89.4659592 116.7639086  94.1504734  89.5776234
 113.9899801  95.8817659  93.3879001 113.2969046  95.9562014  92.7319037
 113.7451553  95.1178002  93.9100518 119.0336642  95.8783043  89.6314456
 118.1268097  95.5816156  89.7077169 119.3112623  95.5812861  88.7648742
 117.8035426  92.7369978  89.7726435 118.6654590  93.0624877  90.0322252
 117.9885771  91.9501474  89.2599501 118.7564869  89.9766021  93.0606144
 118.7443539  90.9207861  93.2174415 119.6488291  89.7936167  92.7665605
  52.4978262  -5.4680723  83.7412645  52.4202292  -4.5172898  83.8201126
  51.8939906  -5.8134851  84.3987572  50.1365092  -2.7195329  87.8860847
  50.3761690  -2.0876805  88.5639866  49.2934288  -3.0707289  88.1726207
  50.6109924  -6.6947327  85.2159626  49.9420299  -6.2101199  84.7323666
  50.4722794  -6.4478107  86.1303004  54.7515192  -4.6603584  91.8142284
  55.3033501  -4.4971962  92.5791369  55.0921386  -4.0699146  91.1422309
  47.7114666  -6.6183037  87.7834758  47.5769134  -7.3782636  87.2172756
  47.2946728  -5.8942137  87.3163546  50.8683792  -5.7213720  87.9953200
  50.7516176  -4.7768288  87.8931890  50.0476238  -6.0240159  88.3838999
  51.8938306  -5.0685458  91.2109129  52.7965552  -5.0361848  91.5275624
  51.6675676  -5.9985007  91.2255464  66.1934307  -0.5266505  88.8726494
  65.8552819  -0.6425440  87.9847029  67.0624076  -0.9275340  88.8527500
  62.0521123   1.3268971  84.8623385  61.4885988   1.2358908  84.0939673
  61.9373518   0.5068876  85.3425878  66.6754090   0.6268347  94.8312700
  66.6642731   0.2321145  93.9593204  66.8374730  -0.1065581  95.4246471
  59.5985555   2.8220163  87.7007606  60.3906847   2.4810987  87.2853905
  59.8382205   2.9315138  88.6209759  67.6320682   4.9939939  80.1737850
  66.9808662   5.5794019  79.7871864  68.4265045   5.5246134  80.2332888
  61.5576309   2.0829076  80.5724985  62.3307185   1.5358063  80.4337860
  61.9101708   2.9473325  80.7839446  63.3961352   3.4105458  93.7791884
  63.1051218   4.3151089  93.6638550  64.0318336   3.4521986  94.4935953
  64.3217558   0.7882307  90.3693244  64.9181131   0.5638329  89.6550206
  64.3792530   0.0467052  90.9718691  69.1095947   2.6830371  80.7106835
  68.4741780   2.7564997  81.4227739  68.7793353   3.2723970  80.0325914
  63.6138876   0.1449848  80.4067809  63.4975134  -0.5305248  81.0748894
  63.7241135  -0.3417778  79.5899962  65.9570416  -0.3940005  84.1114499
  65.5928624  -0.9209384  84.8227420  66.8137532  -0.7841536  83.9380984
  68.3551237   3.0966874  90.7741678  68.0551960   3.9991913  90.6657485
  68.0102296   2.8299057  91.6262830  61.8063718  -0.4519329  86.8078382
  60.8814215  -0.5843115  87.0156074  62.0548131   0.3274890  87.3048324
  59.1672529  -0.8086056  87.6422171  59.2964910  -0.5551577  88.5561583
  58.4869980  -0.2158348  87.3226826  63.3372016   9.8611194  83.7412645
  63.2596046  10.8119019  83.8201126  62.7333660   9.5157067  84.3987572
  64.0835619  -0.1575487  95.9591979  64.8250303   0.3809557  95.6826803
  63.3772604   0.4690802  96.1163531  69.5590958   1.9853653  94.5564141
  69.9674314   1.5436064  93.8118773  68.8368220   1.4106281  94.8098334
  69.8819773   2.5454844  88.3116430  69.2528635   2.7100558  87.6092497
  69.4945435   2.9596454  89.0827394  73.7609005   3.4809282  85.6660793
  73.0760043   3.8608183  85.1157827  73.8452854   4.0904609  86.3992741
  71.0159936   1.1269241  92.2656137  71.2276832   1.7701001  91.5890518
  70.9689685   0.2931558  91.7978067  65.4347735   2.2829252  85.5766515
  65.8986080   2.5616955  84.7871137  65.1704533   1.3812697  85.3939605
  62.3271816   1.8300734  88.5146278  62.8973173   2.2588002  87.8763762
  62.9179928   1.5483318  89.2130464  58.1141955  -3.3364043  87.6873213
  57.3241009  -3.0806514  87.2113324  58.6053202  -2.5215705  87.7925254
  72.1305764   4.0041196  90.4378494  72.9523208   3.6021384  90.1561176
  72.1268167   3.9009431  91.3894610  60.0656700  -2.9719464  84.6456690
  59.2687863  -2.8600769  85.1640186  59.8382292  -2.6332811  83.7797581
  65.8962368   3.5525240  92.5939205  65.9606800   4.0145647  93.4297376
  65.1873292   2.9222605  92.7221515  56.3979658  -3.0833552  90.1188204
  56.6487696  -2.1986542  90.3845780  56.9339206  -3.2628951  89.3463296
  65.6110385   5.2193347  82.4618185  65.4756060   6.0644883  82.8903033
  66.1520198   5.4212625  81.6984119  59.0639783   2.7368785  83.0346110
  59.5764303   3.5312035  83.1851675  59.7162496   2.0395076  82.9679712
  60.8734667   5.8534541  85.1168863  61.0501296   6.7752506  84.9289847
  61.6691501   5.5392961  85.5463243  60.1587024  -2.1000827  94.9931026
  60.0440539  -3.0015569  95.2938125  59.3031542  -1.8537130  94.6415843
  67.2378862   5.8416914  96.5918527  66.7942716   5.0553292  96.2739432
  67.8996075   6.0296064  95.9262418  61.9965983   7.3712715  91.1179206
  62.5473408   7.2429779  90.3456200  61.1577459   7.6707604  90.7674098
  69.3360100   6.1219714  94.6199928  69.3178575   6.9428595  94.1280198
  70.2580020   5.9973789  94.8450069  65.7933154   3.6363843  95.4623437
  66.3261491   2.8752131  95.2322745  65.2647235   3.3437495  96.2047591
  57.0288700   1.0657440  83.8105681  57.8663922   1.4754448  83.5939388
  57.2066967   0.1256882  83.7805874  67.1585867   2.7649836  82.9742249
  66.6307228   2.0302595  82.6615486  66.6573369   3.5424512  82.7282217
  72.1378713   0.9598856  88.0909295  71.4802387   1.6498117  88.1789424
  72.9419112   1.3495288  88.4343281  65.3038467   0.5830046  75.9777222
  64.3965529   0.3519299  76.1768371  65.8009499  -0.2132335  76.1651203
  68.2106546   9.2927553  78.8973908  67.5368245   9.5959250  79.5058866
  68.5972368  10.0956633  78.5479365  66.4826700   0.6842641  80.5001212
  65.5737920   0.4001674  80.5973682  66.5121784   1.1041719  79.6404519
  71.7145968   4.2949230  84.2692379  71.2608295   3.4540140  84.3257570
  71.0839934   4.9310629  84.6067160  70.1578907   6.1325727  85.2042198
  70.4501881   6.6930784  84.4854563  70.6677528   6.4254288  85.9595357
  57.0514871  -1.5951845  84.4816414  56.8539270  -2.1882484  83.7567481
  56.4961535  -1.8999635  85.1992353  66.1802788   2.2251384  77.8389290
  65.7422218   1.5087243  77.3794928  66.9213229   2.4527499  77.2774382
  65.1212532   6.9106078  86.2935651  65.0788711   7.1366924  85.3644183
  66.0375231   6.6769453  86.4421452  74.3245282   2.5685108  88.9076880
  74.7581789   2.4760398  89.7559935  75.0376863   2.5442609  88.2696896
  63.2378333   3.7869107  86.0897613  64.0318931   3.2919427  85.8880188
  62.5270025   3.2586970  85.7265319  68.0573177   6.1687203  90.4409981
  68.1110200   6.7378139  91.2087697  67.1887959   6.3389088  90.0764018
  59.5461096  -2.0687811  82.1657366  58.6158684  -2.1303356  82.3827328
  59.6418568  -2.5911859  81.3694007  75.1860832   2.6108809  91.4409766
  75.3796722   3.5154620  91.6869041  75.0861450   2.1516228  92.2748351
  70.2475941   2.7615552  97.0150646  70.0961447   2.5326104  96.0980730
  70.2380620   3.7186153  97.0281992  67.0161277   0.3347465  91.9996913
  67.9453337   0.4858624  91.8265880  66.5952307   0.4231485  91.1445559
  65.8149609   4.3598129  89.7695451  65.6760695   3.9916913  90.6421389
  65.0264205   4.8745768  89.5979408  66.4097761   9.4607225  81.1120987
  66.5849517   8.9895269  81.9266610  65.7230549  10.0872992  81.3402248
  67.3654824   3.7379732  87.1584288  67.0304657   3.6980502  88.0541938
  66.8658770   3.0724448  86.6854699  61.3399068  -0.8552638  92.6836870
  61.2018866  -1.5872399  93.2848409  62.2503991  -0.9443738  92.4021057
  70.3014016   1.0835766  77.4321348  69.6843186   0.3582594  77.3354401
  69.8330504   1.8445126  77.0888422  63.9681369  -1.1432679  92.1720549
  64.6780987  -1.7839487  92.1307168  63.9250677  -0.8919784  93.0946730
  71.9568147   5.7934674  95.0927128  71.8980694   5.1093894  94.4257711
  72.3587666   6.5353664  94.6407754  60.9758846  12.6096588  87.8860847
  61.2155444  13.2415112  88.5639866  60.1328043  12.2584628  88.1726207
  71.9585555   3.7574258  93.3241108  71.0712333   3.4200180  93.4467507
  72.5284106   3.0257290  93.5609873  53.6114702   0.0898350  86.6484159
  54.2985742  -0.2239920  86.0605175  53.4562830   0.9939715  86.3751411
  65.4886708   8.4175711  90.2902351  65.4156880   9.2230682  90.8021656
  65.0464101   8.6167676  89.4650373  65.2776488   7.6547481  83.8005173
  64.4944010   8.1969161  83.8943397  65.9769233   8.1721460  84.1999414
  67.9485392   8.3162545  92.4460510  68.6613364   8.9510010  92.3736411
  67.4575420   8.4126411  91.6300512  69.6702918   2.2213797  84.0177802
  68.7359197   2.3415260  83.8482506  69.8479587   1.3186264  83.7537811
  62.9997305   6.0656988  93.2666081  63.7006765   6.6993471  93.4195475
  62.5292420   6.4071720  92.5061720  71.1251701   4.4074938  81.5513988
  71.4011545   4.2931533  82.4607862  70.2556200   4.0092423  81.5126161
  67.7605765   8.6561289  85.1946801  67.9428159   7.8382945  85.6574554
  68.5838751   8.8728981  84.7571691  68.0947930   7.5829474  82.4561850
  68.6235697   7.0721928  81.8432012  68.3576150   7.2672004  83.3207383
  66.8486164  -0.6378593  97.5784668  66.1726801  -0.7384464  98.2487043
  67.6713798  -0.7939380  98.0420665  58.5965023   5.5993343  90.1997183
  59.1818460   4.8537031  90.3325088  58.3989862   5.9097300  91.0833847
  61.4503678   8.6344591  85.2159626  60.7814054   9.1190718  84.7323666
  61.3116548   8.8813811  86.1303004  53.1882678  -1.8301057  88.9201627
  53.2266777  -2.3637466  89.7138745  52.6822971  -2.3565851  88.3012604
  65.5908947  10.6688334  91.8142284  66.1427255  10.8319956  92.5791369
  65.9315140  11.2592772  91.1422309  70.4419821   5.4949592  97.6690939
  70.9859725   6.1079550  97.1745893  69.8606666   6.0529170  98.1857952
  56.8191255  -3.1036954  81.9955558  57.1144697  -4.0126276  81.9422612
  55.9179291  -3.1249215  81.6736560  68.7277334   8.6170310  88.8005966
  68.6028474   7.8160049  88.2916912  69.3856425   9.1116503  88.3119936
  70.7912243   6.4179330  90.4285516  69.8442578   6.2984681  90.3563843
  71.1395016   5.5301828  90.5111778  67.7958676   6.2132046  86.6289869
  67.6483638   5.2848753  86.8097439  68.6212169   6.2352137  86.1446944
  71.3992798   7.0360605  87.7154741  72.3239345   6.8303466  87.5779193
  71.2308101   6.7877006  88.6244083  71.1888114   7.5546272  83.0716833
  71.3624992   6.9892695  82.3190685  71.6817005   8.3547167  82.8896323
  57.0065074  -0.4339059  91.1380392  56.4618542   0.3420749  91.2700666
  57.8844424  -0.0868254  90.9799513  72.1763286   6.8713037  80.1713731
  72.8714191   7.4919729  80.3901046  72.5186437   6.0208388  80.4466109
  57.7931096  -1.3069163  94.0310549  57.0512832  -1.1586527  94.6175179
  57.4723840  -1.0460897  93.1677298  74.0754710   4.3212742  81.7001062
  74.6006034   4.6600015  80.9750382  73.9877062   3.3859757  81.5164197
  65.7374758   8.2346816  93.8290939  66.0461885   7.9895962  94.7013638
  66.5350240   8.4393454  93.3409809  65.7595370  10.3884725  86.0596315
  65.3200361   9.8961104  86.7529172  66.5103487   9.8457693  85.8188390
  58.2387709   6.5796266  86.0620943  59.0645729   6.2800038  85.6819587
  57.8881761   5.8103889  86.5110732  63.2069242   5.9322734  88.1318617
  62.5849252   5.2693439  87.8320845  63.8774109   5.9583866  87.4492265
  56.4396314   4.4982593  87.0209877  55.6028223   4.0704767  86.8393878
  56.4119960   4.6915036  87.9580668  73.7648616   4.9545646  97.0052260
  72.9744159   4.9369785  96.4656759  73.5281970   5.4933939  97.7601296
  62.7682749   4.4826658  81.6077077  62.9170870   5.1662122  80.9543750
  63.5749193   4.4631748  82.1226533  75.3864688   4.2235054  94.5627010
  75.0949496   4.5865034  95.3990471  74.7736819   3.5102062  94.3840342
  60.5235382   0.5091835  82.6138146  60.2781424  -0.3945835  82.8118356
  60.6931297   0.5108986  81.6717624  66.2678155   6.9774788  79.0788825
  65.6952122   7.5964975  78.6259297  66.8410949   7.5274150  79.6128747
  69.4875415   7.2611938  80.2097407  70.4206088   7.1957500  80.4130283
  69.3998628   8.0968205  79.7511940  72.1163431   6.5777809  77.1701355
  72.0377063   6.2437672  78.0637112  72.9373098   7.0699577  77.1692827
  66.5363646   2.3653347  97.8805534  67.4566655   2.5431946  98.0745581
  66.5013229   1.4209392  97.7285233  55.7545811  -2.4408059  86.8058809
  55.4348595  -3.2942751  86.5133183  55.2079239  -2.2259481  87.5616776
  59.5325718   0.2754382  90.5228315  59.7511728   1.2071490  90.5416349
  59.9451492  -0.0837644  91.3083119  55.6234071   1.1794852  88.7751930
  54.9297542   0.7648805  88.2621885  56.3707062   1.2215389  88.1785349
  64.2684854  -0.7215274  98.7296126  63.7851936   0.0785086  98.9360015
  64.3545793  -0.7107329  97.7763570  57.5370813   1.1113106  86.6517945
  57.5141502   1.2100793  85.6999828  57.8471450   1.9578257  86.9735111
  60.1958191   3.1689261  90.7664560  61.1501445   3.1373203  90.6994491
  59.9970715   2.7079885  91.5814786  60.7857573   1.7390377  93.3335357
  61.6050462   2.2334456  93.3570195  61.0594381   0.8222345  93.3052925
  58.5508420   8.7108881  87.7834758  58.4162888   7.9509281  87.2172756
  58.1340482   9.4349780  87.3163546  69.6867383   3.8945804  76.7911333
  70.3903233   4.0995807  77.4068988  68.9630032   4.4622566  77.0560416
  61.7077546   9.6078198  87.9953200  61.5909930  10.5523630  87.8931890
  60.8869992   9.3051759  88.3838999  71.5954081   4.3328333  78.8409793
  72.4299684   3.9009532  78.6587268  71.4338423   4.1610347  79.7686687
  71.2499973   0.8360447  80.2066132  71.1948777   0.6704718  79.2654576
  70.6246028   1.5436479  80.3628322  56.0392488  -3.9271489  94.0327554
  56.6851351  -4.4372535  94.5214780  55.8309639  -3.1902807  94.6070980
  68.5645880   3.1409358  99.5319695  69.4337040   3.3150011  99.1706330
  68.0852631   3.9603775  99.4095424  62.7332060  10.2606459  91.2109129
  63.6359307  10.2930070  91.5275624  62.5069430   9.3306910  91.2255464
  64.4885662   9.0137446  87.8719207  63.5381293   9.0139308  87.7583580
  64.7918148   8.2670181  87.3555242  80.2238356  14.8497984  88.9364970
  80.8616766  14.7304732  88.2328310  80.1059199  15.7978828  88.9952922
  77.0328062  14.8025412  88.8726494  76.6946573  14.6866477  87.9847029
  77.9017830  14.4016578  88.8527500  72.8914878  16.6560889  84.8623385
  72.3279743  16.5650826  84.0939673  72.7767273  15.8360793  85.3425878
  77.5147845  15.9560264  94.8312700  77.5036486  15.5613062  93.9593204
  77.6768484  15.2226337  95.4246471  70.4379310  18.1512081  87.7007606
  71.2300601  17.8102905  87.2853905  70.6775960  18.2607056  88.6209759
  78.4714436  20.3231857  80.1737850  77.8202416  20.9085937  79.7871864
  79.2658799  20.8538052  80.2332888  72.3970063  17.4120994  80.5724985
  73.1700939  16.8649981  80.4337860  72.7495462  18.2765243  80.7839446
  74.2355106  18.7397376  93.7791884  73.9444972  19.6443007  93.6638550
  74.8712090  18.7813904  94.4935953  75.1611313  16.1174225  90.3693244
  75.7574885  15.8930247  89.6550206  75.2186284  15.3758970  90.9718691
  74.7336341  13.5713660  78.2043434  74.9861862  13.0495181  77.4426897
  73.7960900  13.4079805  78.3070118  79.7779624  12.5749438  86.0118178
  80.5642713  12.1568861  85.6608595  80.0418328  13.4795530  86.1799826
  79.9489701  18.0122289  80.7106835  79.3135534  18.0856915  81.4227739
  79.6187108  18.6015887  80.0325914  85.1788051  12.5124671  86.9151156
  85.9113223  11.9423888  87.1488986  84.4227407  12.1246272  87.3557662
  74.4532630  15.4741766  80.4067809  74.3368888  14.7986669  81.0748894
  74.5634890  14.9874140  79.5899962  76.7964171  14.9351913  84.1114499
  76.4322378  14.4082534  84.8227420  77.6531287  14.5450382  83.9380984
  82.7013472   6.2246246  91.3745765  82.3696796   7.0941657  91.1506980
  82.1059085   5.9082530  92.0539795  76.4369658   9.9641813  79.1075847
  76.6044060  10.8322049  79.4746318  76.2466827  10.1269094  78.1837136
  79.1944991  18.4258792  90.7741678  78.8945714  19.3283830  90.6657485
  78.8496051  18.1590975  91.6262830  72.6457473  14.8772588  86.8078382
  71.7207969  14.7448802  87.0156074  72.8941886  15.6566808  87.3048324
  82.5942135  10.9441332  88.4539115  81.6859012  10.8756740  88.1597876
  82.5429731  11.4213277  89.2820940  76.4158879  12.4199470  80.0922514
  76.2958504  12.8656521  80.9307994  75.7211467  12.7684788  79.5336052
  70.0066284  14.5205862  87.6422171  70.1358665  14.7740341  88.5561583
  69.3263735  15.1133570  87.3226826  74.1765771  25.1903112  83.7412645
  74.0989801  26.1410937  83.8201126  73.5727415  24.8448984  84.3987572
  76.6683001  12.3630977  96.3974012  75.8916335  12.9224897  96.3876877
  77.3073564  12.8487760  96.9188882  84.4603781   9.1457770  90.2316989
  83.8178162   9.4390303  89.5856783  83.9558710   9.0310690  91.0370185
  82.1143945  12.8920943  80.9202848  83.0261801  13.1248330  80.7450546
  81.6053592  13.4757988  80.3577927  74.9229373  15.1716431  95.9591979
  75.6644057  15.7101475  95.6826803  74.2166358  15.7982719  96.1163531
  80.3984713  17.3145571  94.5564141  80.8068069  16.8727982  93.8118773
  79.6761974  16.7398199  94.8098334  76.7515783  12.2518178  91.9297698
  77.5976978  12.6757591  92.0732347  76.6914420  11.5951802  92.6236261
  80.7213527  17.8746762  88.3116430  80.0922390  18.0392476  87.6092497
  80.3339189  18.2888371  89.0827394  84.6002759  18.8101200  85.6660793
  83.9153797  19.1900101  85.1157827  84.6846609  19.4196526  86.3992741
  79.9015228   9.9122546  93.5878871  79.6576160  10.6664607  93.0513147
  80.1775159  10.2907894  94.4226118  81.8553691  16.4561159  92.2656137
  82.0670586  17.0992919  91.5890518  81.8083439  15.6223475  91.7978067
  79.4579920   9.0678979  89.1692709  78.5964399   9.3660233  89.4609447
  79.4842354   9.2849378  88.2373742  76.2741489  17.6121170  85.5766515
  76.7379835  17.8908873  84.7871137  76.0098287  16.7104614  85.3939605
  73.1665570  17.1592651  88.5146278  73.7366927  17.5879920  87.8763762
  73.7573682  16.8775236  89.2130464  75.2110375  13.7344322  82.3856080
  75.9134419  14.1865366  82.8530006  74.8791004  13.0928141  83.0135973
  73.6590737  12.3256079  96.7607289  73.0289397  13.0072360  96.9942686
  73.5526825  12.2139160  95.8160427  68.9535709  11.9927875  87.6873213
  68.1634763  12.2485403  87.2113324  69.4446957  12.8076213  87.7925254
  82.9699519  19.3333114  90.4378494  83.7916962  18.9313301  90.1561176
  82.9661922  19.2301348  91.3894610  70.9050455  12.3572454  84.6456690
  70.1081618  12.4691148  85.1640186  70.6776047  12.6959106  83.7797581
  76.7356122  18.8817157  92.5939205  76.8000555  19.3437565  93.4297376
  76.0267046  18.2514522  92.7221515  67.2373412  12.2458365  90.1188204
  67.4881451  13.1305375  90.3845780  67.7732961  12.0662967  89.3463296
  91.0605512  15.6771863  86.7863466  90.3069220  15.1079261  86.6307470
  91.1953053  15.6434527  87.7334100  76.4504140  20.5485265  82.4618185
  76.3149815  21.3936801  82.8903033  76.9913952  20.7504542  81.6984119
  72.9371479   6.6276845  99.1232540  72.5438425   6.0743043  99.7980184
  73.7537620   6.9387423  99.5139058  69.9033537  18.0660703  83.0346110
  70.4158058  18.8603953  83.1851675  70.5556250  17.3686993  82.9679712
  71.7128422  21.1826459  85.1168863  71.8895050  22.1044424  84.9289847
  72.5085255  20.8684878  85.5463243  75.8539440   8.0434724  96.7152797
  76.5949154   8.6441877  96.6357259  76.0857363   7.3012362  96.1570839
  70.9980779  13.2291091  94.9931026  70.8834294  12.3276348  95.2938125
  70.1425296  13.4754788  94.6415843  78.0772616  21.1708831  96.5918527
  77.6336470  20.3845210  96.2739432  78.7389830  21.3587982  95.9262418
  72.8359737  22.7004633  91.1179206  73.3867163  22.5721696  90.3456200
  71.9971213  22.9999522  90.7674098  80.1753854  21.4511631  94.6199928
  80.1572330  22.2720512  94.1280198  81.0973774  21.3265707  94.8450069
  76.6326908  18.9655761  95.4623437  77.1655245  18.2044049  95.2322745
  76.1040990  18.6729413  96.2047591  79.7996603   4.0715827  90.9917078
  79.4560873   4.9617468  90.9156189  80.1675566   3.8817484  90.1286663
  67.8682454  16.3949357  83.8105681  68.7057676  16.8046366  83.5939388
  68.0460722  15.4548799  83.7805874  79.7646886  14.0624438  79.4989514
  79.2493510  14.8329042  79.7377901  79.4924195  13.3889574  80.1222575
  77.3493997   8.9074139  84.5574752  76.4935594   8.5180989  84.3780391
  77.7620949   8.9866099  83.6974537  78.8793144   6.4420482  88.9566312
  78.3757939   6.4050617  88.1434117  79.1723751   7.3513225  89.0162968
  75.1236030   6.5259212  87.9632493  75.9889026   6.3302020  87.6038383
  75.1913539   6.2969563  88.8901850  84.7381160  16.8156792  81.4342687
  83.9610603  16.4767952  80.9897849  85.4172641  16.8209416  80.7597652
  79.5533189  11.9351530  81.3249295  79.2483325  12.2497679  82.1759438
  80.5063631  12.0132950  81.3676628  77.9979621  18.0941753  82.9742249
  77.4700983  17.3594513  82.6615486  77.4967124  18.8716430  82.7282217
  82.9772467  16.2890774  88.0909295  82.3196142  16.9790035  88.1789424
  83.7812866  16.6787206  88.4343281  72.7298349   8.7561420  85.3348860
  73.3042101   8.5336601  84.6022053  73.3169331   8.8250114  86.0877462
  81.7877926  14.6435146  86.1413237  82.3009808  15.2765138  86.6434946
  82.4379150  14.0436342  85.7756597  73.0567936  10.7865881  79.3544746
  72.2205248  11.1240567  79.6754020  72.9172706  10.6514860  78.4171882
  75.0321016   5.6302668  84.0623930  74.3785429   5.3151686  83.4380544
  74.9901491   5.0078409  84.7883753  76.1432221  15.9121964  75.9777222
  75.2359283  15.6811217  76.1768371  76.6403253  15.1159583  76.1651203
  79.0500300  24.6219471  78.8973908  78.3761999  24.9251167  79.5058866
  79.4366122  25.4248551  78.5479365  78.2658757  12.1184602  88.3871577
  77.3481318  12.3399549  88.2293265  78.6818900  12.1930912  87.5283285
  79.0493805  13.5176018  83.5174258  79.7965624  14.0297415  83.2081380
  79.3185394  13.1960070  84.3778651  77.3220455  16.0134558  80.5001212
  76.4131674  15.7293591  80.5973682  77.3515539  16.4333637  79.6404519
  82.5539722  19.6241148  84.2692379  82.1002049  18.7832058  84.3257570
  81.9233689  20.2602546  84.6067160  81.4972642  10.5533134  85.4993047
  80.7595399  10.0410520  85.8303289  81.7499415  10.1133516  84.6876324
  80.9972661  21.4617645  85.2042198  81.2895636  22.0222702  84.4854563
  81.5071282  21.7546206  85.9595357  67.8908625  13.7340072  84.4816414
  67.6933025  13.1409433  83.7567481  67.3355289  13.4292283  85.1992353
  75.8705349  13.6263179  86.6011007  75.9253959  12.6737015  86.5253484
  75.0596551  13.7822618  87.0852306  77.0196543  17.5543302  77.8389290
  76.5815973  16.8379161  77.3794928  77.7606983  17.7819417  77.2774382
  73.8097709  12.2440239  84.3601386  72.9965574  12.5434409  84.7666578
  74.3056703  11.8495927  85.0775868  75.9606287  22.2397996  86.2935651
  75.9182465  22.4658842  85.3644183  76.8768985  22.0061370  86.4421452
  79.4071920  12.7082063  93.1916280  79.7621308  12.9353536  94.0510746
  80.0544052  13.0400440  92.5693535  85.1369657  15.8300499  83.8965609
  84.9987556  16.0202095  82.9686798  84.7805876  16.5919882  84.3533660
  73.3011784   9.8158594  89.9762621  73.9411163   9.6747353  89.2785584
  72.4689314   9.5293108  89.6001223  85.1639037  17.8977026  88.9076880
  85.5975544  17.8052315  89.7559935  85.8770618  17.8734527  88.2696896
  74.0772087  19.1161025  86.0897613  74.8712686  18.6211345  85.8880188
  73.3663780  18.5878888  85.7265319  78.8966932  21.4979120  90.4409981
  78.9503954  22.0670057  91.2087697  78.0281713  21.6681005  90.0764018
  70.3854851  13.2604106  82.1657366  69.4552439  13.1988562  82.3827328
  70.4812323  12.7380059  81.3694007  70.3040400   9.7858919  84.7535608
  70.5647217  10.7004252  84.6444768  71.1257572   9.3183362  84.9032221
  71.7765325  11.1996676  91.9234432  72.4488379  10.9914039  91.2747081
  70.9495112  11.0018762  91.4839665  86.0254587  17.9400727  91.4409766
  86.2190477  18.8446537  91.6869041  85.9255205  17.4808146  92.2748351
  77.6790897   7.8258617  93.9400093  77.0318812   8.5248567  93.8464570
  78.4491913   8.2594761  94.3076341  81.0869695  18.0907469  97.0150646
  80.9355202  17.8618021  96.0980730  81.0774375  19.0478071  97.0281992
  77.8555032  15.6639382  91.9996913  78.7847092  15.8150542  91.8265880
  77.4346062  15.7523403  91.1445559  76.6543363  19.6890047  89.7695451
  76.5154449  19.3208831  90.6421389  75.8657960  20.2037686  89.5979408
  77.2491515  24.7899143  81.1120987  77.4243271  24.3187186  81.9266610
  76.5624303  25.4164909  81.3402248  78.2048579  19.0671649  87.1584288
  77.8698411  19.0272419  88.0541938  77.7052524  18.4016365  86.6854699
  72.1792823  14.4739279  92.6836870  72.0412620  13.7419518  93.2848409
  73.0897746  14.3848179  92.4021057  81.1407770  16.4127684  77.4321348
  80.5236941  15.6874512  77.3354401  80.6724259  17.1737044  77.0888422
  74.8075123  14.1859239  92.1720549  75.5174742  13.5452431  92.1307168
  74.7644431  14.4372134  93.0946730  82.7961902  21.1226592  95.0927128
  82.7374448  20.4385812  94.4257711  83.1981420  21.8645582  94.6407754
  73.5204057  11.1724457  93.9916189  72.9841414  10.7215195  94.6437785
  72.9320766  11.3070365  93.2486653  71.8152601  27.9388506  87.8860847
  72.0549199  28.5707030  88.5639866  70.9721797  27.5876546  88.1726207
  72.9306316  10.6313108  76.5542652  72.0535782  10.5101909  76.1904899
  73.4064069   9.8399186  76.3021541  82.7979309  19.0866176  93.3241108
  81.9106088  18.7492098  93.4467507  83.3677860  18.3549207  93.5609873
  64.4508456  15.4190268  86.6484159  65.1379496  15.1051998  86.0605175
  64.2956585  16.3231632  86.3751411  69.2543178  10.3080464  91.0769183
  69.1701367   9.7006134  90.3419593  68.4325885  10.7989483  91.0778679
  76.3280463  23.7467628  90.2902351  76.2550634  24.5522600  90.8021656
  75.8857856  23.9459594  89.4650373  76.1170242  22.9839398  83.8005173
  75.3337764  23.5261079  83.8943397  76.8162987  23.5013378  84.1999414
  79.4266892   8.7934028  86.4439378  79.9235592   8.0403990  86.1240448
  78.6553874   8.8298344  85.8782588  87.2796650  14.4974393  88.0857670
  87.2686526  15.3799109  87.7151603  86.4114029  14.1445944  87.8912207
  78.7879146  23.6454462  92.4460510  79.5007118  24.2801927  92.3736411
  78.2969175  23.7418328  91.6300512  80.5096673  17.5505715  84.0177802
  79.5752952  17.6707177  83.8482506  80.6873341  16.6478182  83.7537811
  76.0101861  10.9351411  86.1711063  75.6399649  10.3822451  86.8591968
  76.5060953  10.3309544  85.6186063  83.8969224  13.3923034  84.5527836
  84.3629677  14.2251026  84.4788138  84.3476725  12.9268016  85.2573094
  73.8391060  21.3948906  93.2666081  74.5400519  22.0285389  93.4195475
  73.3686175  21.7363637  92.5061720  81.9645455  19.7366856  81.5513988
  82.2405299  19.6223450  82.4607862  81.0949954  19.3384340  81.5126161
  81.8685887   5.7603621  88.5918737  80.9548967   5.9907848  88.7600944
  82.2978989   5.8442065  89.4432769  81.6392346  13.9493513  91.0918631
  80.9863796  14.1969421  90.4371084  82.0172725  13.1357651  90.7581108
  78.5999519  23.9853206  85.1946801  78.7821914  23.1674862  85.6574554
  79.4232505  24.2020899  84.7571691  78.9341685  22.9121392  82.4561850
  79.4629451  22.4013846  81.8432012  79.1969905  22.5963922  83.3207383
  77.6879919  14.6913324  97.5784668  77.0120556  14.5907454  98.2487043
  78.5107552  14.5352538  98.0420665  69.4358778  20.9285261  90.1997183
  70.0212214  20.1828949  90.3325088  69.2383616  21.2389218  91.0833847
  72.2897433  23.9636508  85.2159626  71.6207808  24.4482636  84.7323666
  72.1510303  24.2105729  86.1303004  64.0276432  13.4990861  88.9201627
  64.0660532  12.9654452  89.7138745  63.5216725  12.9726067  88.3012604
  76.4302701  25.9980252  91.8142284  76.9821009  26.1611873  92.5791369
  76.7708895  26.5884690  91.1422309  71.4067195   8.3455402  92.4164169
  71.4708521   9.2070232  92.0041567  71.3434315   7.7329403  91.6836527
  70.8819467  10.4178534  96.0637203  71.5091506  10.0355611  96.6774727
  70.0247386  10.1992736  96.4292896  81.2813576  20.8241509  97.6690939
  81.8253480  21.4371468  97.1745893  80.7000421  21.3821088  98.1857952
  67.6585010  12.2254963  81.9955558  67.9538451  11.3165642  81.9422612
  66.7573046  12.2042703  81.6736560  79.5671089  23.9462227  88.8005966
  79.4422228  23.1451967  88.2916912  80.2250180  24.4408421  88.3119936
  71.1879257  10.3010960  87.9783107  70.4665843  10.9146928  87.8390580
  71.9772513  10.8368725  87.8999752  81.6305997  21.7471247  90.4285516
  80.6836333  21.6276599  90.3563843  81.9788770  20.8593745  90.5111778
  73.9905570   7.6365386  94.2523758  74.5139972   7.8827683  95.0150068
  73.7717904   8.4685421  93.8326896  69.3872852   9.9069061  82.1194883
  69.0585558   9.0266440  81.9369989  69.7412222   9.8516730  83.0071272
  78.6352430  21.5423964  86.6289869  78.4877393  20.6140671  86.8097439
  79.4605924  21.5644054  86.1446944  72.5014675  10.1942031  82.4870361
  72.8410747  10.7227952  81.7648969  72.9486795  10.5322437  83.2628927
  82.2386552  22.3652522  87.7154741  83.1633100  22.1595384  87.5779193
  82.0701856  22.1168924  88.6244083  75.1958116   8.5779081  91.9373429
  74.8554936   7.7786894  92.3394109  74.4897122   8.8780792  91.3650262
  75.8474587   5.6628394  90.3900752  76.6700657   5.1888872  90.2679642
  76.0912651   6.4418878  90.8899438  74.4882822   8.6916652  80.6863654
  75.2091184   9.0697905  80.1827370  73.8648126   9.4105529  80.7898631
  78.6313945   9.3961801  81.6221986  78.8477559  10.2786439  81.3210814
  78.1508012   9.0048015  80.8927628  73.3713166  12.3547514  88.1992730
  73.2257747  12.6687818  89.0917012  72.8938370  12.9732415  87.6463629
  75.2309549   9.3450062  88.2473620  75.2171118   8.4491156  87.9105918
  75.9481977   9.3520726  88.8811906  77.0835680   9.7787403  90.2926747
  76.8253458  10.7004473  90.2911078  76.5520720   9.3817837  90.9827212
  82.0281868  22.8838190  83.0716833  82.2018746  22.3184612  82.3190685
  82.5210760  23.6839085  82.8896323  67.8458828  14.8952859  91.1380392
  67.3012296  15.6712667  91.2700666  68.7238178  15.2423663  90.9799513
  74.6346445   8.2264443  83.5161190  74.7562356   7.2981089  83.7152078
  74.3448487   8.2403129  82.6039506  77.5037635   5.9119353  86.6527910
  77.5259332   5.9758686  85.6979890  77.9205694   5.0723862  86.8468416
  87.8821260  15.6474613  84.6907133  88.3252406  14.8981938  84.2926256
  87.0047770  15.6384749  84.3080865  83.0157041  22.2004954  80.1713731
  83.7107946  22.8211647  80.3901046  83.3580191  21.3500305  80.4466109
  68.6324850  14.0222755  94.0310549  67.8906586  14.1705390  94.6175179
  68.3117594  14.2831021  93.1677298  84.9148464  19.6504660  81.7001062
  85.4399788  19.9891932  80.9750382  84.8270817  18.7151675  81.5164197
  76.5768513  23.5638733  93.8290939  76.8855639  23.3187880  94.7013638
  77.3743995  23.7685372  93.3409809  76.5989125  25.7176643  86.0596315
  76.1594115  25.2253022  86.7529172  77.3497242  25.1749611  85.8188390
  69.0781464  21.9088184  86.0620943  69.9039484  21.6091956  85.6819587
  68.7275516  21.1395806  86.5110732  74.0462997  21.2614652  88.1318617
  73.4243006  20.5985357  87.8320845  74.7167864  21.2875784  87.4492265
  67.2790069  19.8274510  87.0209877  66.4421977  19.3996685  86.8393878
  67.2513714  20.0206954  87.9580668  74.1187524   9.7396440  97.7251123
  74.1675680  10.6158563  97.3428892  74.6610039   9.1973833  97.1522766
  84.6042370  20.2837563  97.0052260  83.8137914  20.2661702  96.4656759
  84.3675725  20.8225857  97.7601296  84.7240245  17.1330030  94.3184988
  84.7738250  16.9680037  95.2600511  84.6154169  16.2657289  93.9282869
  73.6076504  19.8118575  81.6077077  73.7564624  20.4954040  80.9543750
  74.4142947  19.7923665  82.1226533  82.0144008  13.1160958  95.6344295
  82.9153870  12.9767423  95.3428293  82.0891982  13.2815413  96.5742473
  76.3486813  10.4927813  94.4797481  75.4790122  10.7861379  94.2080070
  76.5846293  11.0768258  95.2004745  86.2258442  19.5526971  94.5627010
  85.9343250  19.9156952  95.3990471  85.6130573  18.8393980  94.3840342
  87.4254124  17.1179851  87.0829580  88.2601016  17.5569655  87.2467141
  87.5613253  16.6418504  86.2637826  84.4745630  14.6759586  93.0307068
  84.9499752  14.8687232  92.2225919  83.5511196  14.7318772  92.7850452
  71.3629137  15.8383753  82.6138146  71.1175179  14.9346083  82.8118356
  71.5325051  15.8400904  81.6717624  79.0525847   6.7107429  91.9962902
  79.5707791   7.4468456  91.6709390  78.6980980   7.0171423  92.8309661
  70.6324784  11.5712111  80.1124308  69.9394029  11.6456466  79.4564344
  70.3876536  10.8072454  80.6345825  77.1071909  22.3066706  79.0788825
  76.5345876  22.9256893  78.6259297  77.6804703  22.8566068  79.6128747
  83.1747299  11.5525346  91.2635374  84.1264722  11.6523444  91.2847598
  83.0050750  10.7603615  91.7733458  81.1961679   8.6380929  91.4494774
  80.6011611   8.9185942  90.7541263  80.9111375   9.1274830  92.2211516
  80.3269169  22.5903856  80.2097407  81.2599842  22.5249418  80.4130283
  80.2392382  23.4260123  79.7511940  82.9557186  21.9069726  77.1701355
  82.8770817  21.5729590  78.0637112  83.7766853  22.3991494  77.1692827
  85.6535377  14.7731466  90.3777673  85.6211697  13.8347466  90.5637357
  86.2636001  14.8515502  89.6443498  77.4918708  13.6427519  76.4204877
  78.4377813  13.5133727  76.4893295  77.1132953  12.9042181  76.8974305
  85.8029866  11.5642509  90.4235956  85.2868914  10.7800966  90.2365885
  86.6869814  11.2361226  90.5882476  83.4640592   5.3083525  86.3831769
  83.2665414   4.9998613  87.2675101  84.0740298   6.0345164  86.5129699
  91.4711927  15.8347473  89.5183710  92.2015315  15.5732761  90.0791413
  90.8618872  15.0976194  89.5585778  89.5527224  13.9755335  90.1158161
  88.8260388  13.8411300  89.5074653  89.1374511  14.2832164  90.9214879
  77.3757400  17.6945265  97.8805534  78.2960410  17.8723864  98.0745581
  77.3406983  16.7501310  97.7285233  75.6761625  11.5677495  76.3559762
  74.7693080  11.2710608  76.4322476  75.9537606  11.2707313  75.4894049
  66.5939565  12.8883858  86.8058809  66.2742350  12.0349167  86.5133183
  66.0472994  13.1032437  87.5616776  70.3719473  15.6046299  90.5228315
  70.5905483  16.5363407  90.5416349  70.7845247  15.2454274  91.3083119
  77.2923691   6.1114385  82.5104004  76.4824419   5.7661470  82.8859250
  77.9808108   5.8021928  83.0991615  79.2214239   5.1892432  84.1328300
  79.7745278   5.6087885  84.7918323  79.4584325   4.2628180  84.1751256
  75.2447338  11.1779505  99.9131064  75.1444065  12.1273862  99.8443155
  75.0268880  10.8497744  99.0407134  74.4460410   8.4264430  76.4971742
  75.3079574   8.7519329  76.7567559  74.6310754   7.6395926  75.9844807
  66.4627825  16.5086770  88.7751930  65.7691297  16.0940723  88.2621885
  67.2100816  16.5507306  88.1785349  82.5993046   7.2992957  83.6406965
  82.0191715   7.9577761  83.2585017  82.3328979   6.4770301  83.2294382
  81.0496613   6.6998014  85.8428285  81.5496391   6.8114549  85.0342604
  81.6932220   6.3959067  86.4829093  75.1078608  14.6076644  98.7296126
  74.6245690  15.4077004  98.9360015  75.1939547  14.6184589  97.7763570
  68.3764568  16.4405024  86.6517945  68.3535256  16.5392711  85.6999828
  68.6865204  17.2870174  86.9735111  71.0351946  18.4981179  90.7664560
  71.9895199  18.4665121  90.6994491  70.8364469  18.0371802  91.5814786
  71.6251328  17.0682295  93.3335357  72.4444217  17.5626373  93.3570195
  71.8988136  16.1514263  93.3052925  81.3817924   9.4593047  82.6963313
  80.4943779   9.7442698  82.4783508  81.7971913   9.2986810  81.8490590
  84.7332460   9.4839568  86.4117652  85.5092850   9.9736021  86.6842269
  84.0080594   9.9097622  86.8689522  87.1705019  10.1967187  87.4691593
  87.7649510   9.9562923  86.7584901  87.2431603   9.4774318  88.0965129
  69.3902175  24.0400798  87.7834758  69.2556643  23.2801199  87.2172756
  68.9734237  24.7641698  87.3163546  80.5261138  19.2237722  76.7911333
  81.2296988  19.4287724  77.4068988  79.8023786  19.7914484  77.0560416
  81.3558948  14.9747583  82.9113603  81.2994149  15.4316134  82.0721235
  81.9087290  14.2138268  82.7336446  85.1663754  10.7637315  83.7363723
  84.9100688  10.3633951  84.5671930  84.5416622  11.4781109  83.6113862
  89.4776092  13.5033388  86.2435014  88.9175650  13.5726577  87.0166576
  88.8719595  13.3274373  85.5234510  72.5471301  24.9370115  87.9953200
  72.4303685  25.8815548  87.8931890  71.7263747  24.6343677  88.3838999
  82.4347835  19.6620251  78.8409793  83.2693439  19.2301449  78.6587268
  82.2732178  19.4902265  79.7686687  82.0893727  16.1652364  80.2066132
  82.0342531  15.9996636  79.2654576  81.4639783  16.8728397  80.3628322
  66.8786242  11.4020429  94.0327554  67.5245106  10.8919383  94.5214780
  66.6703393  12.1389110  94.6070980  79.4039634  18.4701276  99.5319695
  80.2730794  18.6441928  99.1706330  78.9246386  19.2895693  99.4095424
  75.3989853   5.6660473  79.7851451  75.3868523   6.6102313  79.9419721
  76.2913275   5.4830619  79.4910912  73.5725815  25.5898377  91.2109129
  74.4753061  25.6221987  91.5275624  73.3463185  24.6598828  91.2255464
  75.3279417  24.3429364  87.8719207  74.3775048  24.3431225  87.7583580
  75.6311903  23.5962098  87.3555242  71.2183733   8.5488046  98.1302569
  72.0815195   8.1924851  98.3405893  70.6449144   8.2101941  98.8177973
  91.0632110  30.1789902  88.9364970  91.7010520  30.0596649  88.2328310
  90.9452953  31.1270746  88.9952922  87.8721816  30.1317330  88.8726494
  87.5340328  30.0158395  87.9847029  88.7411585  29.7308495  88.8527500
  83.7308632  31.9852807  84.8623385  83.1673497  31.8942744  84.0939673
  83.6161027  31.1652711  85.3425878  88.3541599  31.2852182  94.8312700
  88.3430240  30.8904980  93.9593204  88.5162239  30.5518255  95.4246471
  81.2773064  33.4803998  87.7007606  82.0694356  33.1394823  87.2853905
  81.5169714  33.5898973  88.6209759  89.3108191  35.6523774  80.1737850
  88.6596171  36.2377855  79.7871864  90.1052554  36.1829969  80.2332888
  83.2363818  32.7412911  80.5724985  84.0094694  32.1941899  80.4337860
  83.5889217  33.6057161  80.7839446  85.0748861  34.0689294  93.7791884
  84.7838727  34.9734925  93.6638550  85.7105845  34.1105821  94.4935953
  86.0005067  31.4466142  90.3693244  86.5968640  31.2222165  89.6550206
  86.0580039  30.7050888  90.9718691  85.5730096  28.9005578  78.2043434
  85.8255616  28.3787099  77.4426897  84.6354655  28.7371723  78.3070118
  90.6173379  27.9041356  86.0118178  91.4036468  27.4860779  85.6608595
  90.8812083  28.8087448  86.1799826  90.7883456  33.3414206  80.7106835
  90.1529289  33.4148833  81.4227739  90.4580862  33.9307805  80.0325914
  96.0181806  27.8416589  86.9151156  96.7506978  27.2715806  87.1488986
  95.2621161  27.4538190  87.3557662  85.2926385  30.8033684  80.4067809
  85.1762643  30.1278587  81.0748894  85.4028644  30.3166057  79.5899962
  87.6357925  30.2643831  84.1114499  87.2716133  29.7374452  84.8227420
  88.4925041  29.8742300  83.9380984  93.5407226  21.5538163  91.3745765
  93.2090551  22.4233574  91.1506980  92.9452839  21.2374447  92.0539795
  87.2763412  25.2933730  79.1075847  87.4437815  26.1613967  79.4746318
  87.0860582  25.4561012  78.1837136  90.0338746  33.7550709  90.7741678
  89.7339469  34.6575748  90.6657485  89.6889805  33.4882892  91.6262830
  83.4851227  30.2064506  86.8078382  82.5601724  30.0740720  87.0156074
  83.7335640  30.9858725  87.3048324  93.4335889  26.2733249  88.4539115
  92.5252767  26.2048658  88.1597876  93.3823485  26.7505194  89.2820940
  87.2552633  27.7491388  80.0922514  87.1352259  28.1948439  80.9307994
  86.5605222  28.0976705  79.5336052  80.8460038  29.8497780  87.6422171
  80.9752419  30.1032259  88.5561583  80.1657489  30.4425488  87.3226826
  85.0159525  40.5195030  83.7412645  84.9383555  41.4702855  83.8201126
  84.4121169  40.1740902  84.3987572  87.5076755  27.6922895  96.3974012
  86.7310089  28.2516815  96.3876877  88.1467318  28.1779678  96.9188882
  95.2997536  24.4749688  90.2316989  94.6571916  24.7682221  89.5856783
  94.7952464  24.3602608  91.0370185  92.9537699  28.2212861  80.9202848
  93.8655556  28.4540248  80.7450546  92.4447347  28.8049905  80.3577927
  85.7623128  30.5008348  95.9591979  86.5037812  31.0393392  95.6826803
  85.0560113  31.1274637  96.1163531  91.2378467  32.6437489  94.5564141
  91.6461823  32.2019899  93.8118773  90.5155729  32.0690116  94.8098334
  87.5909537  27.5810096  91.9297698  88.4370732  28.0049509  92.0732347
  87.5308175  26.9243720  92.6236261  91.5607282  33.2038679  88.3116430
  90.9316144  33.3684394  87.6092497  91.1732944  33.6180289  89.0827394
  95.4396514  34.1393117  85.6660793  94.7547552  34.5192019  85.1157827
  95.5240363  34.7488444  86.3992741  90.7408983  25.2414464  93.5878871
  90.4969914  25.9956524  93.0513147  91.0168913  25.6199812  94.4226118
  92.6947445  31.7853076  92.2656137  92.9064341  32.4284836  91.5890518
  92.6477194  30.9515393  91.7978067  90.2973674  24.3970897  89.1692709
  89.4358153  24.6952151  89.4609447  90.3236109  24.6141296  88.2373742
  87.1135244  32.9413088  85.5766515  87.5773589  33.2200791  84.7871137
  86.8492042  32.0396532  85.3939605  84.0059325  32.4884569  88.5146278
  84.5760682  32.9171837  87.8763762  84.5967437  32.2067154  89.2130464
  86.0504130  29.0636240  82.3856080  86.7528173  29.5157284  82.8530006
  85.7184758  28.4220059  83.0135973  84.4984491  27.6547997  96.7607289
  83.8683152  28.3364277  96.9942686  84.3920579  27.5431078  95.8160427
  79.7929464  27.3219793  87.6873213  79.0028518  27.5777321  87.2113324
  80.2840711  28.1368130  87.7925254  93.8093273  34.6625032  90.4378494
  94.6310717  34.2605219  90.1561176  93.8055676  34.5593266  91.3894610
  81.7444209  27.6864372  84.6456690  80.9475372  27.7983066  85.1640186
  81.5169801  28.0251024  83.7797581  87.5749877  34.2109075  92.5939205
  87.6394309  34.6729482  93.4297376  86.8660801  33.5806440  92.7221515
  78.0767167  27.5750283  90.1188204  78.3275205  28.4597293  90.3845780
  78.6126715  27.3954885  89.3463296 101.8999266  31.0063780  86.7863466
 101.1462975  30.4371178  86.6307470 102.0346808  30.9726445  87.7334100
  87.2897894  35.8777183  82.4618185  87.1543569  36.7228718  82.8903033
  87.8307707  36.0796460  81.6984119  83.7765234  21.9568762  99.1232540
  83.3832180  21.4034961  99.7980184  84.5931374  22.2679341  99.5139058
  80.7427292  33.3952621  83.0346110  81.2551812  34.1895871  83.1851675
  81.3950005  32.6978911  82.9679712  82.5522176  36.5118377  85.1168863
  82.7288805  37.4336342  84.9289847  83.3479010  36.1976796  85.5463243
  86.6933195  23.3726641  96.7152797  87.4342908  23.9733795  96.6357259
  86.9251118  22.6304279  96.1570839  81.8374533  28.5583009  94.9931026
  81.7228048  27.6568266  95.2938125  80.9819051  28.8046705  94.6415843
  88.9166371  36.5000749  96.5918527  88.4730225  35.7137128  96.2739432
  89.5783584  36.6879900  95.9262418  83.6753492  38.0296551  91.1179206
  84.2260917  37.9013614  90.3456200  82.8364968  38.3291440  90.7674098
  91.0147609  36.7803549  94.6199928  90.9966084  37.6012430  94.1280198
  91.9367529  36.6557624  94.8450069  87.4720663  34.2947678  95.4623437
  88.0049000  33.5335967  95.2322745  86.9434744  34.0021330  96.2047591
  90.6390358  19.4007744  90.9917078  90.2954627  20.2909386  90.9156189
  91.0069321  19.2109402  90.1286663  78.7076209  31.7241275  83.8105681
  79.5451431  32.1338283  83.5939388  78.8854476  30.7840717  83.7805874
  90.6040641  29.3916356  79.4989514  90.0887264  30.1620960  79.7377901
  90.3317949  28.7181492  80.1222575  88.1887752  24.2366056  84.5574752
  87.3329348  23.8472907  84.3780391  88.6014703  24.3158017  83.6974537
  89.7186898  21.7712400  88.9566312  89.2151694  21.7342535  88.1434117
  90.0117505  22.6805142  89.0162968  85.9629784  21.8551129  87.9632493
  86.8282781  21.6593938  87.6038383  86.0307293  21.6261481  88.8901850
  95.5774915  32.1448710  81.4342687  94.8004358  31.8059870  80.9897849
  96.2566396  32.1501333  80.7597652  90.3926944  27.2643448  81.3249295
  90.0877079  27.5789597  82.1759438  91.3457386  27.3424867  81.3676628
  88.8373376  33.4233671  82.9742249  88.3094737  32.6886430  82.6615486
  88.3360878  34.2008347  82.7282217  93.8166222  31.6182691  88.0909295
  93.1589896  32.3081953  88.1789424  94.6206621  32.0079123  88.4343281
  83.5692103  24.0853337  85.3348860  84.1435855  23.8628519  84.6022053
  84.1563086  24.1542032  86.0877462  92.6271680  29.9727064  86.1413237
  93.1403562  30.6057056  86.6434946  93.2772904  29.3728260  85.7756597
  83.8961690  26.1157798  79.3544746  83.0599003  26.4532485  79.6754020
  83.7566460  25.9806778  78.4171882  85.8714771  20.9594586  84.0623930
  85.2179183  20.6443603  83.4380544  85.8295245  20.3370327  84.7883753
  86.9825976  31.2413881  75.9777222  86.0753038  31.0103135  76.1768371
  87.4797008  30.4451500  76.1651203  89.8894055  39.9511388  78.8973908
  89.2155753  40.2543085  79.5058866  90.2759877  40.7540469  78.5479365
  89.1052511  27.4476520  88.3871577  88.1875073  27.6691467  88.2293265
  89.5212655  27.5222830  87.5283285  89.8887559  28.8467935  83.5174258
  90.6359378  29.3589333  83.2081380  90.1579149  28.5251988  84.3778651
  88.1614209  31.3426476  80.5001212  87.2525429  31.0585509  80.5973682
  88.1909293  31.7625555  79.6404519  93.3933477  34.9533066  84.2692379
  92.9395804  34.1123975  84.3257570  92.7627443  35.5894464  84.6067160
  92.3366396  25.8825052  85.4993047  91.5989153  25.3702438  85.8303289
  92.5893170  25.4425433  84.6876324  91.8366416  36.7909562  85.2042198
  92.1289390  37.3514619  84.4854563  92.3465037  37.0838123  85.9595357
  92.4378024  18.6601304  86.0934816  92.7436900  17.7998667  85.8060731
  93.1630628  19.2518924  85.8933810  78.7302380  29.0631990  84.4816414
  78.5326779  28.4701351  83.7567481  78.1749044  28.7584200  85.1992353
  86.7099103  28.9555097  86.6011007  86.7647713  28.0028933  86.5253484
  85.8990305  29.1114536  87.0852306  87.8590297  32.8835220  77.8389290
  87.4209727  32.1671079  77.3794928  88.6000738  33.1111335  77.2774382
  84.6491463  27.5732156  84.3601386  83.8359329  27.8726327  84.7666578
  85.1450457  27.1787845  85.0775868  86.8000041  37.5689913  86.2935651
  86.7576220  37.7950760  85.3644183  87.7162740  37.3353288  86.4421452
  90.2465675  28.0373981  93.1916280  90.6015063  28.2645454  94.0510746
  90.8937806  28.3692358  92.5693535  95.9763412  31.1592417  83.8965609
  95.8381310  31.3494013  82.9686798  95.6199631  31.9211800  84.3533660
  84.1405538  25.1450512  89.9762621  84.7804917  25.0039271  89.2785584
  83.3083069  24.8585025  89.6001223  96.0032791  33.2268944  88.9076880
  96.4369298  33.1344233  89.7559935  96.7164372  33.2026444  88.2696896
  84.9165842  34.4452942  86.0897613  85.7106440  33.9503262  85.8880188
  84.2057534  33.9170805  85.7265319  89.7360686  36.8271038  90.4409981
  89.7897709  37.3961974  91.2087697  88.8675468  36.9972923  90.0764018
  81.2248605  28.5896024  82.1657366  80.2946193  28.5280480  82.3827328
  81.3206077  28.0671977  81.3694007  81.1434154  25.1150837  84.7535608
  81.4040972  26.0296170  84.6444768  81.9651327  24.6475279  84.9032221
  82.6159080  26.5288594  91.9234432  83.2882133  26.3205956  91.2747081
  81.7888866  26.3310680  91.4839665  96.8648341  33.2692644  91.4409766
  97.0584231  34.1738455  91.6869041  96.7648959  32.8100063  92.2748351
  88.5184652  23.1550535  93.9400093  87.8712567  23.8540485  93.8464570
  89.2885667  23.5886679  94.3076341  91.9263450  33.4199387  97.0150646
  91.7748956  33.1909939  96.0980730  91.9168129  34.3769989  97.0281992
  88.6948786  30.9931300  91.9996913  89.6240846  31.1442460  91.8265880
  88.2739816  31.0815321  91.1445559  87.4937118  35.0181964  89.7695451
  87.3548204  34.6500749  90.6421389  86.7051714  35.5329604  89.5979408
  88.0885270  40.1191061  81.1120987  88.2637026  39.6479104  81.9266610
  87.4018058  40.7456827  81.3402248  89.0442333  34.3963567  87.1584288
  88.7092166  34.3564337  88.0541938  88.5446279  33.7308283  86.6854699
  83.0186577  29.8031197  92.6836870  82.8806375  29.0711436  93.2848409
  83.9291500  29.7140097  92.4021057  91.9801525  31.7419601  77.4321348
  91.3630695  31.0166430  77.3354401  91.5118013  32.5028962  77.0888422
  85.6468878  29.5151156  92.1720549  86.3568496  28.8744349  92.1307168
  85.6038186  29.7664051  93.0946730  93.6355656  36.4518510  95.0927128
  93.5768203  35.7677730  94.4257711  94.0375175  37.1937500  94.6407754
  84.3597812  26.5016374  93.9916189  83.8235169  26.0507113  94.6437785
  83.7714520  26.6362283  93.2486653  82.6546355  43.2680424  87.8860847
  82.8942953  43.8998948  88.5639866  81.8115552  42.9168464  88.1726207
  83.7700071  25.9605026  76.5542652  82.8929537  25.8393826  76.1904899
  84.2457824  25.1691104  76.3021541  93.6373064  34.4158094  93.3241108
  92.7499842  34.0784015  93.4467507  94.2071615  33.6841125  93.5609873
  75.2902211  30.7482185  86.6484159  75.9773251  30.4343915  86.0605175
  75.1350339  31.6523550  86.3751411  80.0936933  25.6372382  91.0769183
  80.0095122  25.0298052  90.3419593  79.2719639  26.1281400  91.0778679
  87.1674217  39.0759546  90.2902351  87.0944388  39.8814518  90.8021656
  86.7251610  39.2751512  89.4650373  86.9563997  38.3131316  83.8005173
  86.1731519  38.8552996  83.8943397  87.6556742  38.8305296  84.1999414
  90.2660647  24.1225945  86.4439378  90.7629346  23.3695908  86.1240448
  89.4947628  24.1590262  85.8782588  98.1190404  29.8266311  88.0857670
  98.1080280  30.7091026  87.7151603  97.2507784  29.4737862  87.8912207
  89.6272901  38.9746380  92.4460510  90.3400873  39.6093845  92.3736411
  89.1362929  39.0710246  91.6300512  91.3490427  32.8797633  84.0177802
  90.4146706  32.9999095  83.8482506  91.5267096  31.9770099  83.7537811
  86.8495616  26.2643328  86.1711063  86.4793403  25.7114369  86.8591968
  87.3454708  25.6601462  85.6186063  94.7362979  28.7214952  84.5527836
  95.2023431  29.5542944  84.4788138  95.1870479  28.2559934  85.2573094
  84.6784814  36.7240824  93.2666081  85.3794274  37.3577306  93.4195475
  84.2079929  37.0655555  92.5061720  92.8039210  35.0658773  81.5513988
  93.0799054  34.9515368  82.4607862  91.9343709  34.6676258  81.5126161
  92.7079642  21.0895539  88.5918737  91.7942721  21.3199766  88.7600944
  93.1372743  21.1733983  89.4432769  92.4786100  29.2785431  91.0918631
  91.8257550  29.5261338  90.4371084  92.8566480  28.4649569  90.7581108
  89.4393274  39.3145124  85.1946801  89.6215668  38.4966780  85.6574554
  90.2626260  39.5312816  84.7571691  89.7735439  38.2413309  82.4561850
  90.3023206  37.7305764  81.8432012  90.0363659  37.9255839  83.3207383
  88.5273673  30.0205242  97.5784668  87.8514310  29.9199371  98.2487043
  89.3501307  29.8644456  98.0420665  80.2752532  36.2577179  90.1997183
  80.8605969  35.5120866  90.3325088  80.0777371  36.5681135  91.0833847
  83.1291187  39.2928426  85.2159626  82.4601563  39.7774554  84.7323666
  82.9904057  39.5397646  86.1303004  74.8670187  28.8282779  88.9201627
  74.9054286  28.2946369  89.7138745  74.3610480  28.3017984  88.3012604
  87.2696456  41.3272169  91.8142284  87.8214764  41.4903791  92.5791369
  87.6102649  41.9176607  91.1422309  82.2460949  23.6747319  92.4164169
  82.3102276  24.5362150  92.0041567  82.1828069  23.0621321  91.6836527
  81.7213222  25.7470452  96.0637203  82.3485261  25.3647529  96.6774727
  80.8641141  25.5284654  96.4292896  92.1207330  36.1533427  97.6690939
  92.6647234  36.7663385  97.1745893  91.5394175  36.7113005  98.1857952
  78.4978764  27.5546881  81.9955558  78.7932206  26.6457559  81.9422612
  77.5966800  27.5334620  81.6736560  90.4064843  39.2754145  88.8005966
  90.2815983  38.4743885  88.2916912  91.0643934  39.7700338  88.3119936
  82.0273011  25.6302877  87.9783107  81.3059597  26.2438845  87.8390580
  82.8166267  26.1660642  87.8999752  92.4699752  37.0763165  90.4285516
  91.5230087  36.9568516  90.3563843  92.8182525  36.1885663  90.5111778
  84.8299325  22.9657304  94.2523758  85.3533727  23.2119601  95.0150068
  84.6111658  23.7977339  93.8326896  80.2266606  25.2360979  82.1194883
  79.8979312  24.3558357  81.9369989  80.5805977  25.1808647  83.0071272
  89.4746185  36.8715881  86.6289869  89.3271147  35.9432589  86.8097439
  90.2999678  36.8935972  86.1446944  83.3408429  25.5233948  82.4870361
  83.6804502  26.0519870  81.7648969  83.7880550  25.8614354  83.2628927
  93.0780307  37.6944440  87.7154741  94.0026854  37.4887301  87.5779193
  92.9095610  37.4460841  88.6244083  86.0351870  23.9070999  91.9373429
  85.6948690  23.1078812  92.3394109  85.3290876  24.2072710  91.3650262
  86.6868342  20.9920312  90.3900752  87.5094411  20.5180790  90.2679642
  86.9306405  21.7710795  90.8899438  85.3276576  24.0208570  80.6863654
  86.0484939  24.3989823  80.1827370  84.7041880  24.7397447  80.7898631
  89.4707699  24.7253719  81.6221986  89.6871314  25.6078357  81.3210814
  88.9901766  24.3339932  80.8927628  84.2106921  27.6839432  88.1992730
  84.0651501  27.9979735  89.0917012  83.7332124  28.3024332  87.6463629
  86.0703303  24.6741980  88.2473620  86.0564872  23.7783073  87.9105918
  86.7875732  24.6812644  88.8811906  87.9229434  25.1079320  90.2926747
  87.6647212  26.0296391  90.2911078  87.3914475  24.7109755  90.9827212
  92.8675623  38.2130107  83.0716833  93.0412500  37.6476530  82.3190685
  93.3604514  39.0131002  82.8896323  78.6852583  30.2244777  91.1380392
  78.1406051  31.0004585  91.2700666  79.5631933  30.5715581  90.9799513
  85.4740199  23.5556360  83.5161190  85.5956111  22.6273007  83.7152078
  85.1842242  23.5695046  82.6039506  88.3431390  21.2411271  86.6527910
  88.3653087  21.3050604  85.6979890  88.7599449  20.4015779  86.8468416
  98.7215014  30.9766530  84.6907133  99.1646160  30.2273856  84.2926256
  97.8441524  30.9676667  84.3080865  93.8550795  37.5296872  80.1713731
  94.5501700  38.1503565  80.3901046  94.1973946  36.6792223  80.4466109
  79.4718605  29.3514673  94.0310549  78.7300341  29.4997308  94.6175179
  79.1511349  29.6122938  93.1677298  95.7542219  34.9796577  81.7001062
  96.2793543  35.3183850  80.9750382  95.6664571  34.0443593  81.5164197
  87.4162267  38.8930651  93.8290939  87.7249394  38.6479798  94.7013638
  88.2137749  39.0977290  93.3409809  87.4382879  41.0468561  86.0596315
  86.9987870  40.5544939  86.7529172  88.1890996  40.5041528  85.8188390
  79.9175218  37.2380102  86.0620943  80.7433238  36.9383873  85.6819587
  79.5669270  36.4687724  86.5110732  84.8856751  36.5906570  88.1318617
  84.2636761  35.9277275  87.8320845  85.5561618  36.6167702  87.4492265
  78.1183823  35.1566428  87.0209877  77.2815732  34.7288602  86.8393878
  78.0907469  35.3498871  87.9580668  84.9581279  25.0688358  97.7251123
  85.0069434  25.9450481  97.3428892  85.5003793  24.5265751  97.1522766
  95.4436125  35.6129481  97.0052260  94.6531668  35.5953620  96.4656759
  95.2069479  36.1517775  97.7601296  95.5634000  32.4621947  94.3184988
  95.6132005  32.2971955  95.2600511  95.4547923  31.5949206  93.9282869
  84.4470258  35.1410493  81.6077077  84.5958379  35.8245957  80.9543750
  85.2536702  35.1215583  82.1226533  92.8537762  28.4452875  95.6344295
  93.7547625  28.3059340  95.3428293  92.9285737  28.6107330  96.5742473
  87.1880567  25.8219730  94.4797481  86.3183877  26.1153296  94.2080070
  87.4240048  26.4060175  95.2004745  97.0652197  34.8818889  94.5627010
  96.7737005  35.2448869  95.3990471  96.4524328  34.1685897  94.3840342
  98.2647879  32.4471769  87.0829580  99.0994770  32.8861573  87.2467141
  98.4007008  31.9710422  86.2637826  95.3139385  30.0051504  93.0307068
  95.7893506  30.1979150  92.2225919  94.3904950  30.0610689  92.7850452
  82.2022891  31.1675671  82.6138146  81.9568933  30.2638001  82.8118356
  82.3718806  31.1692821  81.6717624  89.8919601  22.0399347  91.9962902
  90.4101545  22.7760374  91.6709390  89.5374734  22.3463340  92.8309661
  81.4718539  26.9004028  80.1124308  80.7787784  26.9748383  79.4564344
  81.2270291  26.1364372  80.6345825  90.1432195  18.4599630  87.5163798
  90.4233949  17.7922819  88.1424225  90.9282802  18.6528725  87.0038462
  87.9465664  37.6358624  79.0788825  87.3739631  38.2548811  78.6259297
  88.5198458  38.1857985  79.6128747  94.0141054  26.8817264  91.2635374
  94.9658477  26.9815361  91.2847598  93.8444504  26.0895532  91.7733458
  92.0355433  23.9672847  91.4494774  91.4405365  24.2477860  90.7541263
  91.7505130  24.4566748  92.2211516  91.1662924  37.9195774  80.2097407
  92.0993597  37.8541335  80.4130283  91.0786137  38.7552041  79.7511940
  93.7950940  37.2361644  77.1701355  93.7164572  36.9021508  78.0637112
  94.6160607  37.7283412  77.1692827  96.4929132  30.1023383  90.3777673
  96.4605452  29.1639384  90.5637357  97.1029755  30.1807420  89.6443498
  88.3312462  28.9719436  76.4204877  89.2771567  28.8425644  76.4893295
  87.9526707  28.2334098  76.8974305  96.6423620  26.8934427  90.4235956
  96.1262669  26.1092883  90.2365885  97.5263569  26.5653143  90.5882476
  94.3034347  20.6375442  86.3831769  94.1059168  20.3290531  87.2675101
  94.9134053  21.3637081  86.5129699 102.3105681  31.1639390  89.5183710
 103.0409070  30.9024678  90.0791413 101.7012627  30.4268112  89.5585778
 100.3920979  29.3047253  90.1158161  99.6654142  29.1703218  89.5074653
  99.9768265  29.6124081  90.9214879  88.2151155  33.0237182  97.8805534
  89.1354164  33.2015781  98.0745581  88.1800738  32.0793228  97.7285233
  86.5155380  26.8969413  76.3559762  85.6086835  26.6002525  76.4322476
  86.7931361  26.5999231  75.4894049  77.4333320  28.2175776  86.8058809
  77.1136104  27.3641084  86.5133183  76.8866748  28.4324354  87.5616776
  81.2113227  30.9338217  90.5228315  81.4299237  31.8655325  90.5416349
  81.6239001  30.5746192  91.3083119  88.1317445  21.4406302  82.5104004
  87.3218174  21.0953387  82.8859250  88.8201862  21.1313846  83.0991615
  90.0607994  20.5184349  84.1328300  90.6139032  20.9379803  84.7918323
  90.2978080  19.5920097  84.1751256  86.0841093  26.5071423  99.9131064
  85.9837820  27.4565780  99.8443155  85.8662635  26.1789662  99.0407134
  85.2854164  23.7556348  76.4971742  86.1473328  24.0811246  76.7567559
  85.4704508  22.9687844  75.9844807  77.3021580  31.8378688  88.7751930
  76.6085051  31.4232640  88.2621885  78.0494571  31.8799224  88.1785349
  93.4386801  22.6284874  83.6406965  92.8585470  23.2869678  83.2585017
  93.1722733  21.8062219  83.2294382  91.8890367  22.0289932  85.8428285
  92.3890145  22.1406467  85.0342604  92.5325975  21.7250985  86.4829093
  85.9472363  29.9368562  98.7296126  85.4639445  30.7368922  98.9360015
  86.0333302  29.9476507  97.7763570  79.2158322  31.7696941  86.6517945
  79.1929011  31.8684629  85.6999828  79.5258959  32.6162092  86.9735111
  81.8745700  33.8273096  90.7664560  82.8288954  33.7957039  90.6994491
  81.6758224  33.3663720  91.5814786  82.4645082  32.3974212  93.3335357
  83.2837971  32.8918291  93.3570195  82.7381890  31.4806181  93.3052925
  92.2211679  24.7884965  82.6963313  91.3337534  25.0734615  82.4783508
  92.6365668  24.6278728  81.8490590  95.5726215  24.8131486  86.4117652
  96.3486605  25.3027938  86.6842269  94.8474349  25.2389540  86.8689522
  98.0098773  25.5259105  87.4691593  98.6043264  25.2854841  86.7584901
  98.0825357  24.8066236  88.0965129  80.2295929  39.3692716  87.7834758
  80.0950397  38.6093117  87.2172756  79.8127991  40.0933616  87.3163546
  91.3654892  34.5529639  76.7911333  92.0690742  34.7579642  77.4068988
  90.6417541  35.1206401  77.0560416  92.1952702  30.3039501  82.9113603
  92.1387904  30.7608052  82.0721235  92.7481045  29.5430185  82.7336446
  96.0057508  26.0929233  83.7363723  95.7494443  25.6925868  84.5671930
  95.3810376  26.8073026  83.6113862 100.3169846  28.8325306  86.2435014
  99.7569404  28.9018495  87.0166576  99.7113350  28.6566290  85.5234510
  83.3865055  40.2662033  87.9953200  83.2697439  41.2107465  87.8931890
  82.5657501  39.9635594  88.3838999  93.2741590  34.9912169  78.8409793
  94.1087193  34.5593367  78.6587268  93.1125932  34.8194182  79.7686687
  92.9287482  31.4944282  80.2066132  92.8736286  31.3288553  79.2654576
  92.3033537  32.2020315  80.3628322  77.7179997  26.7312346  94.0327554
  78.3638860  26.2211300  94.5214780  77.5097148  27.4681028  94.6070980
  90.2433389  33.7993194  99.5319695  91.1124549  33.9733846  99.1706330
  89.7640140  34.6187611  99.4095424  86.2383607  20.9952391  79.7851451
  86.2262277  21.9394231  79.9419721  87.1307029  20.8122536  79.4910912
  84.4119569  40.9190295  91.2109129  85.3146816  40.9513905  91.5275624
  84.1856939  39.9890746  91.2255464  86.1673171  39.6721281  87.8719207
  85.2168802  39.6723143  87.7583580  86.4705657  38.9254016  87.3555242
  90.0535727  17.5895168  84.0397387  89.2868122  17.0353654  84.1854070
  90.4646432  17.6617036  84.9011539  82.0577488  23.8779963  98.1302569
  82.9208949  23.5216768  98.3405893  81.4842898  23.5393858  98.8177973
 101.9025865  45.5081820  88.9364970 102.5404275  45.3888567  88.2328310
 101.7846708  46.4562664  88.9952922  98.7115571  45.4609248  88.8726494
  98.3734082  45.3450313  87.9847029  99.5805339  45.0600413  88.8527500
  94.5702387  47.3144724  84.8623385  94.0067252  47.2234661  84.0939673
  94.4554782  46.4944629  85.3425878  99.1935354  46.6144100  94.8312700
  99.1823995  46.2196898  93.9593204  99.3555993  45.8810172  95.4246471
  92.1166819  48.8095916  87.7007606  92.9088110  48.4686741  87.2853905
  92.3563469  48.9190891  88.6209759 100.1501945  50.9815692  80.1737850
  99.4989925  51.5669772  79.7871864 100.9446308  51.5121887  80.2332888
  94.0757572  48.0704829  80.5724985  94.8488448  47.5233816  80.4337860
  94.4282971  48.9349078  80.7839446  95.9142615  49.3981211  93.7791884
  95.6232481  50.3026842  93.6638550  96.5499599  49.4397739  94.4935953
  96.8398822  46.7758060  90.3693244  97.4362394  46.5514082  89.6550206
  96.8973793  46.0342805  90.9718691  96.4123850  44.2297495  78.2043434
  96.6649371  43.7079017  77.4426897  95.4748409  44.0663641  78.3070118
 101.4567133  43.2333274  86.0118178 102.2430222  42.8152697  85.6608595
 101.7205837  44.1379366  86.1799826 101.6277210  48.6706124  80.7106835
 100.9923043  48.7440750  81.4227739 101.2974617  49.2599723  80.0325914
 106.8575560  43.1708507  86.9151156 107.5900732  42.6007724  87.1488986
 106.1014916  42.7830107  87.3557662  96.1320139  46.1325601  80.4067809
  96.0156397  45.4570505  81.0748894  96.2422399  45.6457975  79.5899962
  98.4751680  45.5935748  84.1114499  98.1109887  45.0666369  84.8227420
  99.3318796  45.2034217  83.9380984 104.3800981  36.8830081  91.3745765
 104.0484305  37.7525492  91.1506980 103.7846594  36.5666365  92.0539795
  98.1157167  40.6225648  79.1075847  98.2831569  41.4905884  79.4746318
  97.9254336  40.7852930  78.1837136 100.8732500  49.0842627  90.7741678
 100.5733223  49.9867666  90.6657485 100.5283560  48.8174810  91.6262830
  94.3244982  45.5356424  86.8078382  93.3995478  45.4032638  87.0156074
  94.5729395  46.3150643  87.3048324 104.2729644  41.6025167  88.4539115
 103.3646521  41.5340576  88.1597876 104.2217240  42.0797112  89.2820940
  98.0946388  43.0783305  80.0922514  97.9746013  43.5240356  80.9307994
  97.3998976  43.4268623  79.5336052  91.6853793  45.1789697  87.6422171
  91.8146174  45.4324176  88.5561583  91.0051244  45.7717405  87.3226826
  95.8553280  55.8486947  83.7412645  95.7777310  56.7994772  83.8201126
  95.2514924  55.5032820  84.3987572  98.3470510  43.0214813  96.3974012
  97.5703844  43.5808733  96.3876877  98.9861073  43.5071596  96.9188882
 106.1391290  39.8041605  90.2316989 105.4965671  40.0974139  89.5856783
 105.6346219  39.6894526  91.0370185 103.7931454  43.5504779  80.9202848
 104.7049310  43.7832165  80.7450546 103.2841101  44.1341823  80.3577927
  96.6016882  45.8300266  95.9591979  97.3431566  46.3685310  95.6826803
  95.8953867  46.4566555  96.1163531 102.0772222  47.9729406  94.5564141
 102.4855578  47.5311817  93.8118773 101.3549483  47.3982034  94.8098334
  98.4303292  42.9102013  91.9297698  99.2764487  43.3341427  92.0732347
  98.3701929  42.2535638  92.6236261 102.4001036  48.5330597  88.3116430
 101.7709899  48.6976311  87.6092497 102.0126698  48.9472207  89.0827394
 106.2790268  49.4685035  85.6660793 105.5941306  49.8483936  85.1157827
 106.3634117  50.0780362  86.3992741 101.5802737  40.5706382  93.5878871
 101.3363669  41.3248442  93.0513147 101.8562668  40.9491729  94.4226118
 103.5341200  47.1144994  92.2656137 103.7458095  47.7576754  91.5890518
 103.4870948  46.2807311  91.7978067 101.1367429  39.7262815  89.1692709
 100.2751908  40.0244068  89.4609447 101.1629863  39.9433214  88.2373742
  97.9528998  48.2705005  85.5766515  98.4167344  48.5492708  84.7871137
  97.6885796  47.3688450  85.3939605  94.8453079  47.8176487  88.5146278
  95.4154436  48.2463755  87.8763762  95.4361191  47.5359071  89.2130464
  96.8897884  44.3928158  82.3856080  97.5921928  44.8449201  82.8530006
  96.5578513  43.7511976  83.0135973  95.3378246  42.9839914  96.7607289
  94.7076906  43.6656195  96.9942686  95.2314334  42.8722996  95.8160427
  90.6323218  42.6511710  87.6873213  89.8422272  42.9069239  87.2113324
  91.1234466  43.4660048  87.7925254 104.6487028  49.9916949  90.4378494
 105.4704471  49.5897137  90.1561176 104.6449431  49.8885184  91.3894610
  92.5837964  43.0156289  84.6456690  91.7869127  43.1274984  85.1640186
  92.3563556  43.3542942  83.7797581  98.4143631  49.5400993  92.5939205
  98.4788064  50.0021400  93.4297376  97.7054555  48.9098358  92.7221515
  88.9160921  42.9042201  90.1188204  89.1668960  43.7889211  90.3845780
  89.4520470  42.7246802  89.3463296 112.7393021  46.3355698  86.7863466
 111.9856729  45.7663096  86.6307470 112.8740562  46.3018362  87.7334100
  98.1291649  51.2069100  82.4618185  97.9937324  52.0520636  82.8903033
  98.6701461  51.4088378  81.6984119  94.6158988  37.2860680  99.1232540
  94.2225934  36.7326879  99.7980184  95.4325129  37.5971259  99.5139058
  91.5821046  48.7244538  83.0346110  92.0945567  49.5187788  83.1851675
  92.2343759  48.0270829  82.9679712  93.3915931  51.8410295  85.1168863
  93.5682559  52.7628259  84.9289847  94.1872764  51.5268714  85.5463243
  97.5326949  38.7018559  96.7152797  98.2736663  39.3025712  96.6357259
  97.7644872  37.9596197  96.1570839  92.6768287  43.8874926  94.9931026
  92.5621803  42.9860184  95.2938125  91.8212805  44.1338623  94.6415843
  99.7560125  51.8292667  96.5918527  99.3123979  51.0429045  96.2739432
 100.4177339  52.0171817  95.9262418  94.5147246  53.3588468  91.1179206
  95.0654672  53.2305532  90.3456200  93.6758722  53.6583357  90.7674098
 101.8541363  52.1095467  94.6199928 101.8359839  52.9304348  94.1280198
 102.7761283  51.9849542  94.8450069  98.3114417  49.6239596  95.4623437
  98.8442754  48.8627884  95.2322745  97.7828499  49.3313248  96.2047591
 101.4784112  34.7299662  90.9917078 101.1348382  35.6201304  90.9156189
 101.8463075  34.5401320  90.1286663  89.5469963  47.0533193  83.8105681
  90.3845185  47.4630201  83.5939388  89.7248231  46.1132635  83.7805874
 101.4434395  44.7208273  79.4989514 100.9281019  45.4912878  79.7377901
 101.1711704  44.0473409  80.1222575  99.0281506  39.5657974  84.5574752
  98.1723103  39.1764824  84.3780391  99.4408458  39.6449935  83.6974537
 100.5580653  37.1004317  88.9566312 100.0545448  37.0634452  88.1434117
 100.8511260  38.0097060  89.0162968  96.8023539  37.1843047  87.9632493
  97.6676535  36.9885856  87.6038383  96.8701048  36.9553399  88.8901850
 106.4168669  47.4740628  81.4342687 105.6398112  47.1351787  80.9897849
 107.0960150  47.4793251  80.7597652 101.2320698  42.5935365  81.3249295
 100.9270834  42.9081514  82.1759438 102.1851140  42.6716785  81.3676628
  99.6767130  48.7525589  82.9742249  99.1488492  48.0178348  82.6615486
  99.1754633  49.5300265  82.7282217 104.6559976  46.9474609  88.0909295
 103.9983651  47.6373870  88.1789424 105.4600375  47.3371041  88.4343281
  94.4085858  39.4145255  85.3348860  94.9829610  39.1920436  84.6022053
  94.9956840  39.4833949  86.0877462 103.4665435  45.3018982  86.1413237
 103.9797317  45.9348974  86.6434946 104.1166659  44.7020177  85.7756597
  94.7355445  41.4449716  79.3544746  93.8992757  41.7824402  79.6754020
  94.5960215  41.3098696  78.4171882  96.7108525  36.2886504  84.0623930
  96.0572938  35.9735521  83.4380544  96.6689000  35.6662244  84.7883753
  97.8219730  46.5705799  75.9777222  96.9146792  46.3395052  76.1768371
  98.3190762  45.7743418  76.1651203 100.7287809  55.2803306  78.8973908
 100.0549508  55.5835003  79.5058866 101.1153631  56.0832386  78.5479365
  99.9446266  42.7768437  88.3871577  99.0268827  42.9983384  88.2293265
 100.3606409  42.8514748  87.5283285 100.7281314  44.1759853  83.5174258
 101.4753133  44.6881250  83.2081380 100.9972903  43.8543906  84.3778651
  99.0007964  46.6718394  80.5001212  98.0919183  46.3877427  80.5973682
  99.0303048  47.0917472  79.6404519 104.2327231  50.2824983  84.2692379
 103.7789558  49.4415893  84.3257570 103.6021198  50.9186382  84.6067160
 103.1760151  41.2116969  85.4993047 102.4382908  40.6994355  85.8303289
 103.4286924  40.7717351  84.6876324 102.6760170  52.1201480  85.2042198
 102.9683145  52.6806537  84.4854563 103.1858791  52.4130041  85.9595357
 103.2771778  33.9893221  86.0934816 103.5830655  33.1290585  85.8060731
 104.0024383  34.5810841  85.8933810  89.5696134  44.3923908  84.4816414
  89.3720534  43.7993269  83.7567481  89.0142798  44.0876118  85.1992353
  97.5492858  44.2847014  86.6011007  97.6041468  43.3320851  86.5253484
  96.7384060  44.4406453  87.0852306  98.6984052  48.2127137  77.8389290
  98.2603481  47.4962996  77.3794928  99.4394492  48.4403252  77.2774382
  95.4885218  42.9024074  84.3601386  94.6753083  43.2018245  84.7666578
  95.9844212  42.5079763  85.0775868  97.6393796  52.8981831  86.2935651
  97.5969974  53.1242677  85.3644183  98.5556494  52.6645206  86.4421452
 101.0859429  43.3665899  93.1916280 101.4408817  43.5937372  94.0510746
 101.7331561  43.6984275  92.5693535 106.8157166  46.4884334  83.8965609
 106.6775065  46.6785930  82.9686798 106.4593385  47.2503717  84.3533660
  94.9799292  40.4742430  89.9762621  95.6198672  40.3331189  89.2785584
  94.1476823  40.1876943  89.6001223 106.8426546  48.5560861  88.9076880
 107.2763053  48.4636151  89.7559935 107.5558127  48.5318362  88.2696896
  95.7559596  49.7744860  86.0897613  96.5500195  49.2795180  85.8880188
  95.0451289  49.2462723  85.7265319 100.5754441  52.1562956  90.4409981
 100.6291463  52.7253892  91.2087697  99.7069222  52.3264841  90.0764018
  92.0642360  43.9187942  82.1657366  91.1339948  43.8572397  82.3827328
  92.1599832  43.3963895  81.3694007  91.9827909  40.4442755  84.7535608
  92.2434726  41.3588088  84.6444768  92.8045081  39.9767197  84.9032221
  93.4552834  41.8580512  91.9234432  94.1275888  41.6497874  91.2747081
  92.6282621  41.6602598  91.4839665 107.7042096  48.5984562  91.4409766
 107.8977986  49.5030373  91.6869041 107.6042714  48.1391981  92.2748351
  99.3578406  38.4842453  93.9400093  98.7106321  39.1832402  93.8464570
 100.1279422  38.9178597  94.3076341 102.7657204  48.7491305  97.0150646
 102.6142711  48.5201857  96.0980730 102.7561884  49.7061906  97.0281992
  99.5342541  46.3223218  91.9996913 100.4634601  46.4734377  91.8265880
  99.1133571  46.4107238  91.1445559  98.3330872  50.3473882  89.7695451
  98.1941958  49.9792666  90.6421389  97.5445469  50.8621521  89.5979408
  98.9279024  55.4482978  81.1120987  99.1030780  54.9771022  81.9266610
  98.2411812  56.0748745  81.3402248  99.8836088  49.7255485  87.1584288
  99.5485920  49.6856255  88.0541938  99.3840033  49.0600201  86.6854699
  93.8580331  45.1323115  92.6836870  93.7200129  44.4003354  93.2848409
  94.7685255  45.0432015  92.4021057 102.8195279  47.0711519  77.4321348
 102.2024450  46.3458347  77.3354401 102.3511768  47.8320879  77.0888422
  96.4862632  44.8443074  92.1720549  97.1962251  44.2036266  92.1307168
  96.4431940  45.0955969  93.0946730 104.4749411  51.7810427  95.0927128
 104.4161957  51.0969648  94.4257711 104.8768929  52.5229417  94.6407754
  95.1991566  41.8308292  93.9916189  94.6628923  41.3799030  94.6437785
  94.6108275  41.9654201  93.2486653  93.4940110  58.5972341  87.8860847
  93.7336708  59.2290865  88.5639866  92.6509306  58.2460381  88.1726207
  94.6093825  41.2896943  76.5542652  93.7323291  41.1685744  76.1904899
  95.0851578  40.4983022  76.3021541 104.4766818  49.7450011  93.3241108
 103.5893597  49.4075933  93.4467507 105.0465369  49.0133043  93.5609873
  86.1295965  46.0774103  86.6484159  86.8167005  45.7635833  86.0605175
  85.9744094  46.9815468  86.3751411  90.9330687  40.9664300  91.0769183
  90.8488876  40.3589969  90.3419593  90.1113394  41.4573318  91.0778679
  98.0067972  54.4051464  90.2902351  97.9338143  55.2106435  90.8021656
  97.5645365  54.6043430  89.4650373  97.7957751  53.6423234  83.8005173
  97.0125273  54.1844914  83.8943397  98.4950496  54.1597213  84.1999414
 101.1054401  39.4517863  86.4439378 101.6023101  38.6987825  86.1240448
 100.3341383  39.4882180  85.8782588 108.9584159  45.1558229  88.0857670
 108.9474035  46.0382944  87.7151603 108.0901538  44.8029780  87.8912207
 100.4666655  54.3038298  92.4460510 101.1794627  54.9385763  92.3736411
  99.9756684  54.4002164  91.6300512 102.1884182  48.2089550  84.0177802
 101.2540461  48.3291013  83.8482506 102.3660850  47.3062017  83.7537811
  97.6889370  41.5935246  86.1711063  97.3187158  41.0406287  86.8591968
  98.1848462  40.9893380  85.6186063 105.5756733  44.0506870  84.5527836
 106.0417185  44.8834861  84.4788138 106.0264234  43.5851851  85.2573094
  95.5178569  52.0532741  93.2666081  96.2188028  52.6869224  93.4195475
  95.0473684  52.3947473  92.5061720 103.6432964  50.3950691  81.5513988
 103.9192808  50.2807286  82.4607862 102.7737463  49.9968176  81.5126161
 103.5473396  36.4187457  88.5918737 102.6336476  36.6491684  88.7600944
 103.9766497  36.5025901  89.4432769 103.3179855  44.6077349  91.0918631
 102.6651305  44.8553256  90.4371084 103.6960234  43.7941487  90.7581108
 100.2787028  54.6437042  85.1946801 100.4609423  53.8258698  85.6574554
 101.1020014  54.8604734  84.7571691 100.6129194  53.5705227  82.4561850
 101.1416960  53.0597682  81.8432012 100.8757413  53.2547757  83.3207383
  99.3667428  45.3497160  97.5784668  98.6908065  45.2491289  98.2487043
 100.1895061  45.1936373  98.0420665  91.1146287  51.5869096  90.1997183
  91.6999723  50.8412784  90.3325088  90.9171125  51.8973053  91.0833847
  93.9684942  54.6220344  85.2159626  93.2995317  55.1066471  84.7323666
  93.8297812  54.8689564  86.1303004  85.7063941  44.1574696  88.9201627
  85.7448041  43.6238287  89.7138745  85.2004234  43.6309902  88.3012604
  98.1090210  56.6564087  91.8142284  98.6608518  56.8195709  92.5791369
  98.4496404  57.2468525  91.1422309  93.0854704  39.0039237  92.4164169
  93.1496030  39.8654068  92.0041567  93.0221824  38.3913239  91.6836527
  92.5606976  41.0762369  96.0637203  93.1879015  40.6939447  96.6774727
  91.7034895  40.8576571  96.4292896 102.9601085  51.4825345  97.6690939
 103.5040989  52.0955303  97.1745893 102.3787930  52.0404923  98.1857952
  89.3372519  42.8838799  81.9955558  89.6325960  41.9749477  81.9422612
  88.4360555  42.8626538  81.6736560 101.2458598  54.6046063  88.8005966
 101.1209737  53.8035803  88.2916912 101.9037689  55.0992256  88.3119936
  92.8666766  40.9594795  87.9783107  92.1453352  41.5730763  87.8390580
  93.6560022  41.4952560  87.8999752 103.3093506  52.4055083  90.4285516
 102.3623842  52.2860434  90.3563843 103.6576279  51.5177581  90.5111778
  95.6693079  38.2949222  94.2523758  96.1927481  38.5411518  95.0150068
  95.4505413  39.1269256  93.8326896  91.0660361  40.5652896  82.1194883
  90.7373067  39.6850275  81.9369989  91.4199731  40.5100565  83.0071272
 100.3139939  52.2007799  86.6289869 100.1664902  51.2724506  86.8097439
 101.1393433  52.2227890  86.1446944  94.1802184  40.8525866  82.4870361
  94.5198256  41.3811787  81.7648969  94.6274304  41.1906272  83.2628927
 103.9174061  53.0236358  87.7154741 104.8420609  52.8179219  87.5779193
 103.7489365  52.7752759  88.6244083  96.8745625  39.2362917  91.9373429
  96.5342445  38.4370730  92.3394109  96.1684631  39.5364628  91.3650262
  97.5262096  36.3212229  90.3900752  98.3488166  35.8472707  90.2679642
  97.7700160  37.1002713  90.8899438  96.1670331  39.3500488  80.6863654
  96.8878693  39.7281740  80.1827370  95.5435635  40.0689364  80.7898631
 100.3101454  40.0545637  81.6221986 100.5265068  40.9370274  81.3210814
  99.8295521  39.6631850  80.8927628  95.0500675  43.0131350  88.1992730
  94.9045256  43.3271653  89.0917012  94.5725879  43.6316250  87.6463629
  96.9097058  40.0033898  88.2473620  96.8958627  39.1074991  87.9105918
  97.6269486  40.0104562  88.8811906  98.7623189  40.4371238  90.2926747
  98.5040967  41.3588309  90.2911078  98.2308229  40.0401673  90.9827212
 103.7069377  53.5422025  83.0716833 103.8806255  52.9768448  82.3190685
 104.1998269  54.3422920  82.8896323  89.5246337  45.5536694  91.1380392
  88.9799805  46.3296502  91.2700666  90.4025687  45.9007499  90.9799513
  96.3133954  38.8848278  83.5161190  96.4349865  37.9564924  83.7152078
  96.0235996  38.8986964  82.6039506  99.1825144  36.5703189  86.6527910
  99.2046841  36.6342522  85.6979890  99.5993203  35.7307697  86.8468416
 109.5608769  46.3058448  84.6907133 110.0039915  45.5565773  84.2926256
 108.6835279  46.2968584  84.3080865 104.6944550  52.8588790  80.1713731
 105.3895455  53.4795482  80.3901046 105.0367700  52.0084141  80.4466109
  90.3112359  44.6806590  94.0310549  89.5694095  44.8289226  94.6175179
  89.9905103  44.9414856  93.1677298 106.5935973  50.3088495  81.7001062
 107.1187297  50.6475768  80.9750382 106.5058326  49.3735510  81.5164197
  98.2556022  54.2222569  93.8290939  98.5643148  53.9771715  94.7013638
  99.0531504  54.4269207  93.3409809  98.2776634  56.3760478  86.0596315
  97.8381624  55.8836857  86.7529172  99.0284751  55.8333446  85.8188390
  90.7568973  52.5672019  86.0620943  91.5826993  52.2675791  85.6819587
  90.4063025  51.7979642  86.5110732  95.7250506  51.9198487  88.1318617
  95.1030515  51.2569192  87.8320845  96.3955373  51.9459619  87.4492265
  88.9577578  50.4858346  87.0209877  88.1209486  50.0580520  86.8393878
  88.9301223  50.6790789  87.9580668  95.7975033  40.3980275  97.7251123
  95.8463189  41.2742398  97.3428892  96.3397548  39.8557669  97.1522766
 106.2829879  50.9421399  97.0052260 105.4925423  50.9245538  96.4656759
 106.0463234  51.4809692  97.7601296 106.4027754  47.7913865  94.3184988
 106.4525759  47.6263873  95.2600511 106.2941678  46.9241124  93.9282869
  95.2864013  50.4702411  81.6077077  95.4352133  51.1537875  80.9543750
  96.0930456  50.4507501  82.1226533 103.6931517  43.7744793  95.6344295
 104.5941379  43.6351258  95.3428293 103.7679491  43.9399248  96.5742473
  98.0274322  41.1511648  94.4797481  97.1577631  41.4445214  94.2080070
  98.2633802  41.7352093  95.2004745 107.9045951  50.2110807  94.5627010
 107.6130759  50.5740787  95.3990471 107.2918082  49.4977815  94.3840342
 109.1041633  47.7763686  87.0829580 109.9388525  48.2153490  87.2467141
 109.2400762  47.3002340  86.2637826 106.1533139  45.3343421  93.0307068
 106.6287261  45.5271068  92.2225919 105.2298705  45.3902607  92.7850452
  93.0416646  46.4967588  82.6138146  92.7962688  45.5929918  82.8118356
  93.2112560  46.4984739  81.6717624 100.7313356  37.3691265  91.9962902
 101.2495300  38.1052292  91.6709390 100.3768488  37.6755258  92.8309661
  92.3112293  42.2295946  80.1124308  91.6181538  42.3040301  79.4564344
  92.0664045  41.4656290  80.6345825 100.9825950  33.7891547  87.5163798
 101.2627704  33.1214736  88.1424225 101.7676557  33.9820643  87.0038462
  98.7859418  52.9650541  79.0788825  98.2133385  53.5840728  78.6259297
  99.3592212  53.5149903  79.6128747 104.8534808  42.2109181  91.2635374
 105.8052231  42.3107279  91.2847598 104.6838259  41.4187450  91.7733458
 102.8749188  39.2964765  91.4494774 102.2799120  39.5769777  90.7541263
 102.5898884  39.7858665  92.2211516 102.0056678  53.2487691  80.2097407
 102.9387351  53.1833253  80.4130283 101.9179891  54.0843958  79.7511940
 104.6344695  52.5653562  77.1701355 104.5558326  52.2313425  78.0637112
 105.4554362  53.0575330  77.1692827 107.3322886  45.4315301  90.3777673
 107.2999206  44.4931302  90.5637357 107.9423510  45.5099338  89.6443498
  99.1706217  44.3011354  76.4204877 100.1165322  44.1717562  76.4893295
  98.7920462  43.5626016  76.8974305 107.4817375  42.2226344  90.4235956
 106.9656423  41.4384801  90.2365885 108.3657323  41.8945061  90.5882476
 105.1428101  35.9667360  86.3831769 104.9452923  35.6582448  87.2675101
 105.7527807  36.6928999  86.5129699 113.1499436  46.4931308  89.5183710
 113.8802824  46.2316596  90.0791413 112.5406381  45.7560030  89.5585778
 111.2314733  44.6339170  90.1158161 110.5047897  44.4995135  89.5074653
 110.8162020  44.9415999  90.9214879  99.0544909  48.3529100  97.8805534
  99.9747919  48.5307699  98.0745581  99.0194492  47.4085145  97.7285233
  97.3549134  42.2261330  76.3559762  96.4480589  41.9294443  76.4322476
  97.6325115  41.9291148  75.4894049  88.2727074  43.5467694  86.8058809
  87.9529859  42.6933002  86.5133183  87.7260503  43.7616272  87.5616776
  92.0506982  46.2630135  90.5228315  92.2692992  47.1947243  90.5416349
  92.4632756  45.9038109  91.3083119  98.9711200  36.7698220  82.5104004
  98.1611928  36.4245305  82.8859250  99.6595617  36.4605764  83.0991615
 100.9001748  35.8476267  84.1328300 101.4532787  36.2671720  84.7918323
 101.1371834  34.9212015  84.1751256  96.9234847  41.8363341  99.9131064
  96.8231574  42.7857697  99.8443155  96.7056389  41.5081579  99.0407134
  96.1247919  39.0848266  76.4971742  96.9867083  39.4103164  76.7567559
  96.3098263  38.2979761  75.9844807  88.1415334  47.1670605  88.7751930
  87.4478806  46.7524558  88.2621885  88.8888325  47.2091142  88.1785349
 104.2780555  37.9576792  83.6406965 103.6979224  38.6161596  83.2585017
 104.0116488  37.1354137  83.2294382 102.7284122  37.3581850  85.8428285
 103.2283900  37.4698384  85.0342604 103.3719729  37.0542903  86.4829093
  96.7866117  45.2660479  98.7296126  96.3033199  46.0660839  98.9360015
  96.8727056  45.2768424  97.7763570  90.0552077  47.0988859  86.6517945
  90.0322765  47.1976546  85.6999828  90.3652713  47.9454010  86.9735111
  92.7139455  49.1565014  90.7664560  93.6682708  49.1248956  90.6994491
  92.5151978  48.6955638  91.5814786  93.3038837  47.7266130  93.3335357
  94.1231726  48.2210209  93.3570195  93.5775645  46.8098098  93.3052925
 103.0605433  40.1176882  82.6963313 102.1731288  40.4026533  82.4783508
 103.4759422  39.9570646  81.8490590 106.4119969  40.1423403  86.4117652
 107.1880359  40.6319856  86.6842269 105.6868103  40.5681458  86.8689522
 108.8492528  40.8551023  87.4691593 109.4437019  40.6146759  86.7584901
 108.9219112  40.1358153  88.0965129  91.0689684  54.6984634  87.7834758
  90.9344152  53.9385034  87.2172756  90.6521746  55.4225533  87.3163546
 102.2048647  49.8821557  76.7911333 102.9084497  50.0871560  77.4068988
 101.4811295  50.4498319  77.0560416 103.0346457  45.6331418  82.9113603
 102.9781658  46.0899970  82.0721235 103.5874799  44.8722103  82.7336446
 106.8451263  41.4221150  83.7363723 106.5888197  41.0217786  84.5671930
 106.2204131  42.1364944  83.6113862 111.1563601  44.1617223  86.2435014
 110.5963159  44.2310413  87.0166576 110.5507104  43.9858208  85.5234510
  94.2258809  55.5953951  87.9953200  94.1091194  56.5399383  87.8931890
  93.4051256  55.2927512  88.3838999 104.1135344  50.3204086  78.8409793
 104.9480948  49.8885285  78.6587268 103.9519687  50.1486100  79.7686687
 103.7681236  46.8236200  80.2066132 103.7130040  46.6580471  79.2654576
 103.1427291  47.5312233  80.3628322  88.5573751  42.0604264  94.0327554
  89.2032615  41.5503218  94.5214780  88.3490902  42.7972946  94.6070980
 101.0827143  49.1285111  99.5319695 101.9518303  49.3025764  99.1706330
 100.6033895  49.9479528  99.4095424  97.0777362  36.3244309  79.7851451
  97.0656031  37.2686149  79.9419721  97.9700784  36.1414454  79.4910912
  95.2513324  56.2482212  91.2109129  96.1540570  56.2805823  91.5275624
  95.0250694  55.3182663  91.2255464  97.0066926  55.0013199  87.8719207
  96.0562557  55.0015061  87.7583580  97.3099412  54.2545934  87.3555242
 100.8929481  32.9187085  84.0397387 100.1261877  32.3645572  84.1854070
 101.3040186  32.9908954  84.9011539  92.8971242  39.2071881  98.1302569
  93.7602704  38.8508686  98.3405893  92.3236653  38.8685776  98.8177973
 112.7419619  60.8373737  88.9364970 113.3798029  60.7180485  88.2328310
 112.6240462  61.7854581  88.9952922 109.5509325  60.7901166  88.8726494
 109.2127837  60.6742230  87.9847029 110.4199094  60.3892331  88.8527500
 105.4096141  62.6436642  84.8623385 104.8461006  62.5526579  84.0939673
 105.2948536  61.8236546  85.3425878 110.0329108  61.9436017  94.8312700
 110.0217749  61.5488816  93.9593204 110.1949748  61.2102090  95.4246471
 102.9560573  64.1387834  87.7007606 103.7481865  63.7978658  87.2853905
 103.1957223  64.2482809  88.6209759 110.9895700  66.3107610  80.1737850
 110.3383680  66.8961690  79.7871864 111.7840063  66.8413805  80.2332888
 104.9151327  63.3996747  80.5724985 105.6882203  62.8525734  80.4337860
 105.2676726  64.2640996  80.7839446 106.7536370  64.7273129  93.7791884
 106.4626236  65.6318760  93.6638550 107.3893354  64.7689657  94.4935953
 107.6792576  62.1049978  90.3693244 108.2756149  61.8806000  89.6550206
 107.7367548  61.3634723  90.9718691 107.2517605  59.5589413  78.2043434
 107.5043125  59.0370934  77.4426897 106.3142164  59.3955558  78.3070118
 112.2960888  58.5625191  86.0118178 113.0823977  58.1444614  85.6608595
 112.5599592  59.4671283  86.1799826 112.4670965  63.9998042  80.7106835
 111.8316798  64.0732668  81.4227739 112.1368371  64.5891640  80.0325914
 117.6969315  58.5000424  86.9151156 118.4294487  57.9299641  87.1488986
 116.9408670  58.1122025  87.3557662 106.9713894  61.4617519  80.4067809
 106.8550152  60.7862422  81.0748894 107.0816153  60.9749893  79.5899962
 109.3145434  60.9227666  84.1114499 108.9503642  60.3958287  84.8227420
 110.1712550  60.5326135  83.9380984 115.2194735  52.2121999  91.3745765
 114.8878060  53.0817410  91.1506980 114.6240348  51.8958283  92.0539795
 108.9550921  55.9517566  79.1075847 109.1225324  56.8197802  79.4746318
 108.7648091  56.1144847  78.1837136 111.7126255  64.4134545  90.7741678
 111.4126978  65.3159583  90.6657485 111.3677314  64.1466728  91.6262830
 105.1638736  60.8648341  86.8078382 104.2389233  60.7324556  87.0156074
 105.4123149  61.6442561  87.3048324 115.1123398  56.9317085  88.4539115
 114.2040276  56.8632493  88.1597876 115.0610994  57.4089030  89.2820940
 108.9340142  58.4075223  80.0922514 108.8139768  58.8532274  80.9307994
 108.2392731  58.7560541  79.5336052 102.5247547  60.5081615  87.6422171
 102.6539928  60.7616094  88.5561583 101.8444998  61.1009323  87.3226826
 106.6947034  71.1778865  83.7412645 106.6171064  72.1286690  83.8201126
 106.0908678  70.8324737  84.3987572 109.1864264  58.3506730  96.3974012
 108.4097598  58.9100650  96.3876877 109.8254827  58.8363513  96.9188882
 116.9785045  55.1333523  90.2316989 116.3359425  55.4266056  89.5856783
 116.4739973  55.0186443  91.0370185 114.6325208  58.8796696  80.9202848
 115.5443065  59.1124083  80.7450546 114.1234856  59.4633741  80.3577927
 107.4410636  61.1592184  95.9591979 108.1825321  61.6977228  95.6826803
 106.7347622  61.7858472  96.1163531 112.9165976  63.3021324  94.5564141
 113.3249332  62.8603735  93.8118773 112.1943238  62.7273952  94.8098334
 109.2697046  58.2393931  91.9297698 110.1158241  58.6633344  92.0732347
 109.2095684  57.5827555  92.6236261 113.2394791  63.8622515  88.3116430
 112.6103653  64.0268229  87.6092497 112.8520453  64.2764124  89.0827394
 117.1184023  64.7976953  85.6660793 116.4335061  65.1775854  85.1157827
 117.2027872  65.4072279  86.3992741 112.4196492  55.8998299  93.5878871
 112.1757423  56.6540360  93.0513147 112.6956422  56.2783647  94.4226118
 114.3734954  62.4436912  92.2656137 114.5851850  63.0868672  91.5890518
 114.3264703  61.6099228  91.7978067 111.9761183  55.0554732  89.1692709
 111.1145662  55.3535986  89.4609447 112.0023618  55.2725131  88.2373742
 108.7922753  63.5996923  85.5766515 109.2561098  63.8784626  84.7871137
 108.5279551  62.6980367  85.3939605 105.6846834  63.1468404  88.5146278
 106.2548191  63.5755673  87.8763762 106.2754946  62.8650989  89.2130464
 107.7291639  59.7220075  82.3856080 108.4315682  60.1741119  82.8530006
 107.3972267  59.0803894  83.0135973 106.1772000  58.3131832  96.7607289
 105.5470661  58.9948113  96.9942686 106.0708088  58.2014913  95.8160427
 101.4716973  57.9803628  87.6873213 100.6816027  58.2361156  87.2113324
 101.9628220  58.7951966  87.7925254 115.4880782  65.3208867  90.4378494
 116.3098226  64.9189054  90.1561176 115.4843185  65.2177101  91.3894610
 103.4231718  58.3448207  84.6456690 102.6262881  58.4566901  85.1640186
 103.1957310  58.6834859  83.7797581 109.2537386  64.8692910  92.5939205
 109.3181818  65.3313318  93.4297376 108.5448310  64.2390275  92.7221515
  99.7554676  58.2334118  90.1188204 100.0062714  59.1181128  90.3845780
 100.2914224  58.0538720  89.3463296 108.9685403  66.5361018  82.4618185
 108.8331078  67.3812554  82.8903033 109.5095216  66.7380296  81.6984119
 105.4552743  52.6152598  99.1232540 105.0619689  52.0618796  99.7980184
 106.2718883  52.9263176  99.5139058 102.4214801  64.0536456  83.0346110
 102.9339321  64.8479706  83.1851675 103.0737514  63.3562746  82.9679712
 104.2309685  67.1702212  85.1168863 104.4076314  68.0920177  84.9289847
 105.0266519  66.8560631  85.5463243 108.3720704  54.0310477  96.7152797
 109.1130417  54.6317630  96.6357259 108.6038627  53.2888115  96.1570839
 103.5162042  59.2166844  94.9931026 103.4015557  58.3152101  95.2938125
 102.6606560  59.4630541  94.6415843 110.5953880  67.1584584  96.5918527
 110.1517734  66.3720963  96.2739432 111.2571093  67.3463735  95.9262418
 105.3541001  68.6880386  91.1179206 105.9048426  68.5597449  90.3456200
 104.5152477  68.9875275  90.7674098 112.6935118  67.4387384  94.6199928
 112.6753593  68.2596265  94.1280198 113.6155038  67.3141460  94.8450069
 109.1508172  64.9531514  95.4623437 109.6836509  64.1919802  95.2322745
 108.6222253  64.6605166  96.2047591 112.3177867  50.0591580  90.9917078
 111.9742136  50.9493221  90.9156189 112.6856830  49.8693237  90.1286663
 100.3863718  62.3825110  83.8105681 101.2238940  62.7922119  83.5939388
 100.5641985  61.4424552  83.7805874 112.2828150  60.0500191  79.4989514
 111.7674773  60.8204795  79.7377901 112.0105458  59.3765327  80.1222575
 109.8675261  54.8949892  84.5574752 109.0116857  54.5056742  84.3780391
 110.2802212  54.9741852  83.6974537 111.3974407  52.4296235  88.9566312
 110.8939203  52.3926370  88.1434117 111.6905014  53.3388978  89.0162968
 107.6417293  52.5134965  87.9632493 108.5070290  52.3177773  87.6038383
 107.7094802  52.2845316  88.8901850 117.2562424  62.8032546  81.4342687
 116.4791867  62.4643705  80.9897849 117.9353905  62.8085169  80.7597652
 112.0714453  57.9227283  81.3249295 111.7664588  58.2373432  82.1759438
 113.0244895  58.0008703  81.3676628 110.5160885  64.0817506  82.9742249
 109.9882246  63.3470266  82.6615486 110.0148387  64.8592183  82.7282217
 115.4953731  62.2766527  88.0909295 114.8377405  62.9665788  88.1789424
 116.2994130  62.6662959  88.4343281 105.2479612  54.7437173  85.3348860
 105.8223364  54.5212354  84.6022053 105.8350595  54.8125867  86.0877462
 114.3059189  60.6310899  86.1413237 114.8191071  61.2640891  86.6434946
 114.9560413  60.0312095  85.7756597 105.5749199  56.7741634  79.3544746
 104.7386512  57.1116320  79.6754020 105.4353969  56.6390613  78.4171882
 107.5502280  51.6178421  84.0623930 106.8966692  51.3027439  83.4380544
 107.5082754  50.9954162  84.7883753 108.6613485  61.8997717  75.9777222
 107.7540547  61.6686970  76.1768371 109.1584517  61.1035336  76.1651203
 111.5681564  70.6095224  78.8973908 110.8943262  70.9126920  79.5058866
 111.9547386  71.4124304  78.5479365 110.7840020  58.1060355  88.3871577
 109.8662582  58.3275302  88.2293265 111.2000164  58.1806665  87.5283285
 111.5675068  59.5051771  83.5174258 112.3146887  60.0173168  83.2081380
 111.8366658  59.1835823  84.3778651 109.8401718  62.0010311  80.5001212
 108.9312938  61.7169344  80.5973682 109.8696802  62.4209390  79.6404519
 115.0720986  65.6116901  84.2692379 114.6183313  64.7707811  84.3257570
 114.4414952  66.2478299  84.6067160 114.0153905  56.5408887  85.4993047
 113.2776662  56.0286273  85.8303289 114.2680679  56.1009269  84.6876324
 113.5153925  67.4493398  85.2042198 113.8076899  68.0098455  84.4854563
 114.0252545  67.7421959  85.9595357 114.1165533  49.3185139  86.0934816
 114.4224409  48.4582502  85.8060731 114.8418137  49.9102759  85.8933810
 100.4089889  59.7215826  84.4816414 100.2114288  59.1285186  83.7567481
  99.8536553  59.4168036  85.1992353 108.3886612  59.6138932  86.6011007
 108.4435222  58.6612768  86.5253484 107.5777814  59.7698371  87.0852306
 109.5377806  63.5419055  77.8389290 109.0997236  62.8254914  77.3794928
 110.2788247  63.7695170  77.2774382 106.3278972  58.2315992  84.3601386
 105.5146838  58.5310162  84.7666578 106.8237966  57.8371681  85.0775868
 108.4787550  68.2273749  86.2935651 108.4363729  68.4534595  85.3644183
 109.3950249  67.9937123  86.4421452 111.9253184  58.6957816  93.1916280
 112.2802572  58.9229289  94.0510746 112.5725315  59.0276193  92.5693535
 117.6550921  61.8176252  83.8965609 117.5168819  62.0077848  82.9686798
 117.2987140  62.5795635  84.3533660 105.8193047  55.8034347  89.9762621
 106.4592426  55.6623106  89.2785584 104.9870578  55.5168861  89.6001223
 117.6820300  63.8852779  88.9076880 118.1156807  63.7928068  89.7559935
 118.3951881  63.8610280  88.2696896 106.5953351  65.1036778  86.0897613
 107.3893949  64.6087098  85.8880188 105.8845043  64.5754641  85.7265319
 111.4148195  67.4854873  90.4409981 111.4685218  68.0545810  91.2087697
 110.5462977  67.6556758  90.0764018 102.9036114  59.2479859  82.1657366
 101.9733702  59.1864315  82.3827328 102.9993586  58.7255812  81.3694007
 102.8221663  55.7734672  84.7535608 103.0828481  56.6880006  84.6444768
 103.6438836  55.3059115  84.9032221 104.2946589  57.1872429  91.9234432
 104.9669642  56.9789792  91.2747081 103.4676375  56.9894515  91.4839665
 118.5435850  63.9276480  91.4409766 118.7371740  64.8322290  91.6869041
 118.4436468  63.4683899  92.2748351 110.1972161  53.8134370  93.9400093
 109.5500076  54.5124320  93.8464570 110.9673176  54.2470514  94.3076341
 113.6050959  64.0783223  97.0150646 113.4536465  63.8493774  96.0980730
 113.5955638  65.0353824  97.0281992 110.3736295  61.6515135  91.9996913
 111.3028355  61.8026295  91.8265880 109.9527325  61.7399156  91.1445559
 109.1724627  65.6765800  89.7695451 109.0335713  65.3084584  90.6421389
 108.3839223  66.1913439  89.5979408 109.7672779  70.7774896  81.1120987
 109.9424535  70.3062939  81.9266610 109.0805567  71.4040662  81.3402248
 110.7229842  65.0547402  87.1584288 110.3879675  65.0148172  88.0541938
 110.2233788  64.3892118  86.6854699 104.6974086  60.4615032  92.6836870
 104.5593884  59.7295271  93.2848409 105.6079009  60.3723933  92.4021057
 113.6589034  62.4003437  77.4321348 113.0418204  61.6750265  77.3354401
 113.1905522  63.1612797  77.0888422 107.3256387  60.1734992  92.1720549
 108.0356005  59.5328184  92.1307168 107.2825695  60.4247887  93.0946730
 115.3143165  67.1102345  95.0927128 115.2555711  66.4261565  94.4257711
 115.7162684  67.8521335  94.6407754 106.0385321  57.1600210  93.9916189
 105.5022678  56.7090948  94.6437785 105.4502029  57.2946118  93.2486653
 104.3333864  73.9264259  87.8860847 104.5730462  74.5582783  88.5639866
 103.4903061  73.5752299  88.1726207 105.4487580  56.6188861  76.5542652
 104.5717046  56.4977662  76.1904899 105.9245333  55.8274939  76.3021541
 115.3160573  65.0741929  93.3241108 114.4287351  64.7367851  93.4467507
 115.8859124  64.3424960  93.5609873  96.9689720  61.4066021  86.6484159
  97.6560760  61.0927751  86.0605175  96.8137848  62.3107385  86.3751411
 101.7724442  56.2956217  91.0769183 101.6882631  55.6881887  90.3419593
 100.9507148  56.7865236  91.0778679 108.8461726  69.7343381  90.2902351
 108.7731897  70.5398353  90.8021656 108.4039119  69.9335347  89.4650373
 108.6351506  68.9715151  83.8005173 107.8519028  69.5136832  83.8943397
 109.3344251  69.4889131  84.1999414 111.9448156  54.7809781  86.4439378
 112.4416855  54.0279743  86.1240448 111.1735137  54.8174098  85.8782588
 119.7977913  60.4850146  88.0857670 119.7867789  61.3674862  87.7151603
 118.9295293  60.1321697  87.8912207 111.3060410  69.6330215  92.4460510
 112.0188382  70.2677680  92.3736411 110.8150438  69.7294081  91.6300512
 113.0277936  63.5381468  84.0177802 112.0934215  63.6582931  83.8482506
 113.2054605  62.6353935  83.7537811 108.5283124  56.9227164  86.1711063
 108.1580912  56.3698204  86.8591968 109.0242217  56.3185297  85.6186063
 116.4150488  59.3798787  84.5527836 116.8810940  60.2126779  84.4788138
 116.8657988  58.9143769  85.2573094 106.3572323  67.3824659  93.2666081
 107.0581783  68.0161142  93.4195475 105.8867438  67.7239390  92.5061720
 114.4826719  65.7242609  81.5513988 114.7586563  65.6099203  82.4607862
 113.6131218  65.3260093  81.5126161 114.3867151  51.7479374  88.5918737
 113.4730230  51.9783601  88.7600944 114.8160252  51.8317818  89.4432769
 114.1573609  59.9369266  91.0918631 113.5045059  60.1845174  90.4371084
 114.5353989  59.1233404  90.7581108 111.1180783  69.9728959  85.1946801
 111.3003177  69.1550615  85.6574554 111.9413769  70.1896652  84.7571691
 111.4522948  68.8997145  82.4561850 111.9810715  68.3889599  81.8432012
 111.7151168  68.5839675  83.3207383 110.2061182  60.6789077  97.5784668
 109.5301819  60.5783207  98.2487043 111.0288816  60.5228291  98.0420665
 101.9540041  66.9161014  90.1997183 102.5393478  66.1704702  90.3325088
 101.7564880  67.2264971  91.0833847 104.8078696  69.9512261  85.2159626
 104.1389072  70.4358389  84.7323666 104.6691566  70.1981482  86.1303004
  96.5457696  59.4866614  88.9201627  96.5841795  58.9530205  89.7138745
  96.0397989  58.9601820  88.3012604 108.9483965  71.9856005  91.8142284
 109.5002273  72.1487626  92.5791369 109.2890158  72.5760443  91.1422309
 103.9248458  54.3331155  92.4164169 103.9889785  55.1945986  92.0041567
 103.8615578  53.7205156  91.6836527 103.4000731  56.4054287  96.0637203
 104.0272769  56.0231364  96.6774727 102.5428650  56.1868489  96.4292896
 113.7994839  66.8117262  97.6690939 114.3434743  67.4247221  97.1745893
 113.2181684  67.3696841  98.1857952 100.1766273  58.2130716  81.9955558
 100.4719715  57.3041395  81.9422612  99.2754309  58.1918456  81.6736560
 112.0852352  69.9337980  88.8005966 111.9603492  69.1327720  88.2916912
 112.7431443  70.4284174  88.3119936 103.7060520  56.2886713  87.9783107
 102.9847106  56.9022681  87.8390580 104.4953776  56.8244478  87.8999752
 114.1487261  67.7347000  90.4285516 113.2017596  67.6152352  90.3563843
 114.4970034  66.8469498  90.5111778 106.5086834  53.6241139  94.2523758
 107.0321236  53.8703436  95.0150068 106.2899167  54.4561174  93.8326896
 101.9054115  55.8944814  82.1194883 101.5766821  55.0142193  81.9369989
 102.2593486  55.8392483  83.0071272 111.1533694  67.5299717  86.6289869
 111.0058656  66.6016424  86.8097439 111.9787187  67.5519807  86.1446944
 105.0195938  56.1817784  82.4870361 105.3592011  56.7103705  81.7648969
 105.4668059  56.5198190  83.2628927 114.7567816  68.3528275  87.7154741
 115.6814363  68.1471137  87.5779193 114.5883119  68.1044677  88.6244083
 107.7139379  54.5654834  91.9373429 107.3736199  53.7662648  92.3394109
 107.0078385  54.8656545  91.3650262 108.3655851  51.6504147  90.3900752
 109.1881920  51.1764625  90.2679642 108.6093914  52.4294631  90.8899438
 107.0064085  54.6792405  80.6863654 107.7272448  55.0573658  80.1827370
 106.3829389  55.3981282  80.7898631 111.1495208  55.3837554  81.6221986
 111.3658823  56.2662192  81.3210814 110.6689275  54.9923768  80.8927628
 105.8894430  58.3423268  88.1992730 105.7439010  58.6563571  89.0917012
 105.4119633  58.9608168  87.6463629 107.7490812  55.3325815  88.2473620
 107.7352381  54.4366909  87.9105918 108.4663241  55.3396479  88.8811906
 109.6016943  55.7663156  90.2926747 109.3434721  56.6880226  90.2911078
 109.0701984  55.3693590  90.9827212 114.5463132  68.8713943  83.0716833
 114.7200009  68.3060365  82.3190685 115.0392023  69.6714838  82.8896323
 100.3640092  60.8828612  91.1380392  99.8193560  61.6588420  91.2700666
 101.2419442  61.2299416  90.9799513 107.1527708  54.2140196  83.5161190
 107.2743620  53.2856842  83.7152078 106.8629751  54.2278882  82.6039506
 110.0218899  51.8995106  86.6527910 110.0440596  51.9634439  85.6979890
 110.4386958  51.0599615  86.8468416 120.4002523  61.6350366  84.6907133
 120.8433669  60.8857691  84.2926256 119.5229033  61.6260502  84.3080865
 115.5338304  68.1880707  80.1713731 116.2289209  68.8087400  80.3901046
 115.8761455  67.3376058  80.4466109 101.1506114  60.0098508  94.0310549
 100.4087850  60.1581144  94.6175179 100.8298858  60.2706774  93.1677298
 117.4329728  65.6380413  81.7001062 117.9581052  65.9767686  80.9750382
 117.3452080  64.7027428  81.5164197 109.0949776  69.5514486  93.8290939
 109.4036903  69.3063633  94.7013638 109.8925258  69.7561125  93.3409809
 109.1170388  71.7052396  86.0596315 108.6775379  71.2128775  86.7529172
 109.8678505  71.1625364  85.8188390 101.5962727  67.8963937  86.0620943
 102.4220747  67.5967709  85.6819587 101.2456779  67.1271559  86.5110732
 106.5644260  67.2490405  88.1318617 105.9424270  66.5861110  87.8320845
 107.2349127  67.2751537  87.4492265  99.7971332  65.8150263  87.0209877
  98.9603241  65.3872438  86.8393878  99.7694978  66.0082707  87.9580668
 106.6368788  55.7272193  97.7251123 106.6856943  56.6034316  97.3428892
 107.1791302  55.1849586  97.1522766 117.1223634  66.2713316  97.0052260
 116.3319177  66.2537455  96.4656759 116.8856988  66.8101610  97.7601296
 117.2421509  63.1205783  94.3184988 117.2919514  62.9555790  95.2600511
 117.1335432  62.2533042  93.9282869 106.1257767  65.7994328  81.6077077
 106.2745888  66.4829793  80.9543750 106.9324211  65.7799419  82.1226533
 114.5325271  59.1036711  95.6344295 115.4335134  58.9643176  95.3428293
 114.6073246  59.2691166  96.5742473 108.8668076  56.4803566  94.4797481
 107.9971386  56.7737132  94.2080070 109.1027557  57.0644011  95.2004745
 118.7439705  65.5402724  94.5627010 118.4524514  65.9032705  95.3990471
 118.1311837  64.8269733  94.3840342 119.9435388  63.1055604  87.0829580
 120.7782279  63.5445408  87.2467141 120.0794517  62.6294257  86.2637826
 116.9926894  60.6635339  93.0307068 117.4681015  60.8562985  92.2225919
 116.0692459  60.7194525  92.7850452 103.8810400  61.8259506  82.6138146
 103.6356442  60.9221836  82.8118356 104.0506315  61.8276657  81.6717624
 111.5707110  52.6983182  91.9962902 112.0889054  53.4344209  91.6709390
 111.2162243  53.0047176  92.8309661 103.1506048  57.5587864  80.1124308
 102.4575293  57.6332219  79.4564344 102.9057800  56.7948207  80.6345825
 111.8219704  49.1183465  87.5163798 112.1021458  48.4506654  88.1424225
 112.6070311  49.3112561  87.0038462 109.6253173  68.2942459  79.0788825
 109.0527140  68.9132646  78.6259297 110.1985967  68.8441821  79.6128747
 115.6928563  57.5401099  91.2635374 116.6445986  57.6399197  91.2847598
 115.5232013  56.7479368  91.7733458 113.7142942  54.6256682  91.4494774
 113.1192874  54.9061695  90.7541263 113.4292639  55.1150583  92.2211516
 112.8450433  68.5779609  80.2097407 113.7781106  68.5125171  80.4130283
 112.7573645  69.4135876  79.7511940 115.4738449  67.8945479  77.1701355
 115.3952081  67.5605343  78.0637112 116.2948116  68.3867247  77.1692827
 118.1716641  60.7607219  90.3777673 118.1392961  59.8223219  90.5637357
 118.7817264  60.8391255  89.6443498 110.0099971  59.6303272  76.4204877
 110.9559076  59.5009480  76.4893295 109.6314216  58.8917934  76.8974305
 118.3211129  57.5518262  90.4235956 117.8050178  56.7676719  90.2365885
 119.2051078  57.2236979  90.5882476 115.9821856  51.2959278  86.3831769
 115.7846677  50.9874366  87.2675101 116.5921561  52.0220917  86.5129699
 109.8938664  63.6821018  97.8805534 110.8141673  63.8599617  98.0745581
 109.8588247  62.7377063  97.7285233 108.1942889  57.5553248  76.3559762
 107.2874344  57.2586361  76.4322476 108.4718870  57.2583066  75.4894049
  99.1120829  58.8759611  86.8058809  98.7923613  58.0224920  86.5133183
  98.5654257  59.0908190  87.5616776 102.8900736  61.5922052  90.5228315
 103.1086746  62.5239160  90.5416349 103.3026510  61.2330027  91.3083119
 109.8104954  52.0990138  82.5104004 109.0005683  51.7537223  82.8859250
 110.4989371  51.7897681  83.0991615 111.7395503  51.1768185  84.1328300
 112.2926541  51.5963638  84.7918323 111.9765589  50.2503933  84.1751256
 107.7628602  57.1655258  99.9131064 107.6625329  58.1149615  99.8443155
 107.5450144  56.8373497  99.0407134 106.9641673  54.4140183  76.4971742
 107.8260837  54.7395082  76.7567559 107.1492017  53.6271679  75.9844807
  98.9809089  62.4962523  88.7751930  98.2872560  62.0816476  88.2621885
  99.7282080  62.5383059  88.1785349 115.1174310  53.2868710  83.6406965
 114.5372979  53.9453514  83.2585017 114.8510242  52.4646054  83.2294382
 113.5677876  52.6873767  85.8428285 114.0677654  52.7990302  85.0342604
 114.2113484  52.3834820  86.4829093 107.6259872  60.5952397  98.7296126
 107.1426954  61.3952757  98.9360015 107.7120811  60.6060342  97.7763570
 100.8945831  62.4280777  86.6517945 100.8716520  62.5268464  85.6999828
 101.2046468  63.2745928  86.9735111 103.5533209  64.4856932  90.7664560
 104.5076463  64.4540874  90.6994491 103.3545733  64.0247555  91.5814786
 104.1432591  63.0558048  93.3335357 104.9625480  63.5502126  93.3570195
 104.4169399  62.1390016  93.3052925 113.8999188  55.4468800  82.6963313
 113.0125043  55.7318451  82.4783508 114.3153177  55.2862563  81.8490590
 117.2513724  55.4715321  86.4117652 118.0274114  55.9611774  86.6842269
 116.5261858  55.8973375  86.8689522 119.6886282  56.1842940  87.4691593
 120.2830773  55.9438676  86.7584901 119.7612866  55.4650071  88.0965129
 101.9083438  70.0276551  87.7834758 101.7737906  69.2676952  87.2172756
 101.4915500  70.7517451  87.3163546 113.0442401  65.2113475  76.7911333
 113.7478251  65.4163477  77.4068988 112.3205050  65.7790237  77.0560416
 113.8740211  60.9623336  82.9113603 113.8175413  61.4191887  82.0721235
 114.4268554  60.2014021  82.7336446 117.6845017  56.7513068  83.7363723
 117.4281952  56.3509704  84.5671930 117.0597885  57.4656862  83.6113862
 105.0652564  70.9245868  87.9953200 104.9484948  71.8691301  87.8931890
 104.2445010  70.6219430  88.3838999 114.9529099  65.6496004  78.8409793
 115.7874702  65.2177202  78.6587268 114.7913441  65.4778018  79.7686687
 114.6074991  62.1528117  80.2066132 114.5523794  61.9872389  79.2654576
 113.9821046  62.8604150  80.3628322  99.3967506  57.3896182  94.0327554
 100.0426369  56.8795136  94.5214780  99.1884657  58.1264863  94.6070980
 111.9220898  64.4577029  99.5319695 112.7912058  64.6317681  99.1706330
 111.4427649  65.2771446  99.4095424 107.9171116  51.6536226  79.7851451
 107.9049786  52.5978066  79.9419721 108.8094538  51.4706372  79.4910912
 106.0907078  71.5774130  91.2109129 106.9934325  71.6097740  91.5275624
 105.8644448  70.6474581  91.2255464 107.8460680  70.3305117  87.8719207
 106.8956311  70.3306978  87.7583580 108.1493166  69.5837851  87.3555242
 111.7323236  48.2479003  84.0397387 110.9655631  47.6937490  84.1854070
 112.1433941  48.3200872  84.9011539 103.7364997  54.5363799  98.1302569
 104.5996458  54.1800604  98.3405893 103.1630407  54.1977694  98.8177973
 120.3903080  76.1193083  88.8726494 120.0521591  76.0034148  87.9847029
 121.2592848  75.7184248  88.8527500 116.2489896  77.9728560  84.8623385
 115.6854761  77.8818497  84.0939673 116.1342291  77.1528464  85.3425878
 120.8722863  77.2727935  94.8312700 120.8611504  76.8780733  93.9593204
 121.0343502  76.5394008  95.4246471 113.7954328  79.4679751  87.7007606
 114.5875619  79.1270576  87.2853905 114.0350978  79.5774726  88.6209759
 115.7545081  78.7288664  80.5724985 116.5275957  78.1817652  80.4337860
 116.1070480  79.5932914  80.7839446 117.5930124  80.0565047  93.7791884
 117.3019990  80.9610678  93.6638550 118.2287108  80.0981574  94.4935953
 118.5186331  77.4341895  90.3693244 119.1149903  77.2097918  89.6550206
 118.5761302  76.6926641  90.9718691 118.0911359  74.8881331  78.2043434
 118.3436880  74.3662852  77.4426897 117.1535918  74.7247476  78.3070118
 117.8107648  76.7909437  80.4067809 117.6943906  76.1154340  81.0748894
 117.9209908  76.3041810  79.5899962 120.1539189  76.2519584  84.1114499
 119.7897396  75.7250205  84.8227420 121.0106305  75.8618053  83.9380984
 119.7944676  71.2809483  79.1075847 119.9619078  72.1489720  79.4746318
 119.6041845  71.4436765  78.1837136 116.0032491  76.1940259  86.8078382
 115.0782987  76.0616473  87.0156074 116.2516904  76.9734478  87.3048324
 119.7733897  73.7367141  80.0922514 119.6533522  74.1824192  80.9307994
 119.0786485  74.0852459  79.5336052 113.3641302  75.8373533  87.6422171
 113.4933683  76.0908012  88.5561583 112.6838753  76.4301241  87.3226826
 117.5340789  86.5070783  83.7412645 117.4564819  87.4578608  83.8201126
 116.9302432  86.1616655  84.3987572 120.0258019  73.6798648  96.3974012
 119.2491353  74.2392568  96.3876877 120.6648582  74.1655431  96.9188882
 118.2804391  76.4884101  95.9591979 119.0219075  77.0269145  95.6826803
 117.5741376  77.1150390  96.1163531 120.1090801  73.5685849  91.9297698
 120.9551996  73.9925262  92.0732347 120.0489438  72.9119473  92.6236261
 119.6316507  78.9288841  85.5766515 120.0954853  79.2076544  84.7871137
 119.3673305  78.0272285  85.3939605 116.5240588  78.4760322  88.5146278
 117.0941945  78.9047590  87.8763762 117.1148700  78.1942907  89.2130464
 118.5685393  75.0511993  82.3856080 119.2709437  75.5033037  82.8530006
 118.2366022  74.4095812  83.0135973 117.0165755  73.6423750  96.7607289
 116.3864415  74.3240030  96.9942686 116.9101843  73.5306831  95.8160427
 112.3110727  73.3095546  87.6873213 111.5209781  73.5653074  87.2113324
 112.8021975  74.1243883  87.7925254 114.2625473  73.6740125  84.6456690
 113.4656636  73.7858819  85.1640186 114.0351065  74.0126777  83.7797581
 120.0931140  80.1984828  92.5939205 120.1575573  80.6605235  93.4297376
 119.3842064  79.5682193  92.7221515 110.5948430  73.5626036  90.1188204
 110.8456469  74.4473046  90.3845780 111.1307979  73.3830638  89.3463296
 119.8079158  81.8652936  82.4618185 119.6724833  82.7104471  82.8903033
 120.3488970  82.0672213  81.6984119 116.2946497  67.9444515  99.1232540
 115.9013443  67.3910714  99.7980184 117.1112638  68.2555094  99.5139058
 113.2608555  79.3828374  83.0346110 113.7733076  80.1771624  83.1851675
 113.9131268  78.6854664  82.9679712 115.0703440  82.4994130  85.1168863
 115.2470068  83.4212095  84.9289847 115.8660273  82.1852549  85.5463243
 119.2114458  69.3602394  96.7152797 119.9524172  69.9609548  96.6357259
 119.4432381  68.6180032  96.1570839 114.3555796  74.5458762  94.9931026
 114.2409312  73.6444019  95.2938125 113.5000314  74.7922459  94.6415843
 116.1934755  84.0172304  91.1179206 116.7442180  83.8889367  90.3456200
 115.3546231  84.3167193  90.7674098 119.9901926  80.2823431  95.4623437
 120.5230263  79.5211720  95.2322745 119.4616008  79.9897083  96.2047591
 111.2257472  77.7117028  83.8105681 112.0632694  78.1214036  83.5939388
 111.4035740  76.7716470  83.7805874 120.7069015  70.2241809  84.5574752
 119.8510611  69.8348660  84.3780391 121.1195967  70.3033770  83.6974537
 118.4811048  67.8426882  87.9632493 119.3464044  67.6469691  87.6038383
 118.5488557  67.6137234  88.8901850 121.3554639  79.4109424  82.9742249
 120.8276001  78.6762184  82.6615486 120.8542142  80.1884100  82.7282217
 116.0873367  70.0729090  85.3348860 116.6617119  69.8504272  84.6022053
 116.6744349  70.1417785  86.0877462 116.4142954  72.1033551  79.3544746
 115.5780266  72.4408238  79.6754020 116.2747723  71.9682531  78.4171882
 118.3896034  66.9470339  84.0623930 117.7360447  66.6319356  83.4380544
 118.3476509  66.3246080  84.7883753 119.5007239  77.2289634  75.9777222
 118.5934301  76.9978888  76.1768371 119.9978271  76.4327253  76.1651203
 120.6795473  77.3302229  80.5001212 119.7706692  77.0461262  80.5973682
 120.7090557  77.7501308  79.6404519 111.2483643  75.0507743  84.4816414
 111.0508043  74.4577104  83.7567481 110.6930307  74.7459953  85.1992353
 119.2280367  74.9430850  86.6011007 119.2828977  73.9904686  86.5253484
 118.4171569  75.0990289  87.0852306 120.3771561  78.8710973  77.8389290
 119.9390990  78.1546832  77.3794928 121.1182001  79.0987088  77.2774382
 117.1672727  73.5607909  84.3601386 116.3540592  73.8602080  84.7666578
 117.6631721  73.1663598  85.0775868 119.3181305  83.5565666  86.2935651
 119.2757483  83.7826513  85.3644183 120.2344003  83.3229041  86.4421452
 116.6586801  71.1326265  89.9762621 117.2986181  70.9915024  89.2785584
 115.8264332  70.8460778  89.6001223 117.4347105  80.4328695  86.0897613
 118.2287704  79.9379016  85.8880188 116.7238798  79.9046559  85.7265319
 113.7429869  74.5771777  82.1657366 112.8127457  74.5156233  82.3827328
 113.8387341  74.0547730  81.3694007 113.6615418  71.1026590  84.7535608
 113.9222235  72.0171923  84.6444768 114.4832590  70.6351033  84.9032221
 115.1340343  72.5164347  91.9234432 115.8063397  72.3081709  91.2747081
 114.3070130  72.3186433  91.4839665 120.0118381  81.0057717  89.7695451
 119.8729467  80.6376502  90.6421389 119.2232978  81.5205357  89.5979408
 120.6066533  86.1066814  81.1120987 120.7818289  85.6354857  81.9266610
 119.9199321  86.7332580  81.3402248 121.5623597  80.3839320  87.1584288
 121.2273429  80.3440090  88.0541938 121.0627542  79.7184036  86.6854699
 115.5367840  75.7906950  92.6836870 115.3987638  75.0587189  93.2848409
 116.4472764  75.7015850  92.4021057 118.1650141  75.5026909  92.1720549
 118.8749760  74.8620102  92.1307168 118.1219449  75.7539804  93.0946730
 116.8779075  72.4892127  93.9916189 116.3416432  72.0382866  94.6437785
 116.2895784  72.6238036  93.2486653 115.1727619  89.2556177  87.8860847
 115.4124217  89.8874701  88.5639866 114.3296815  88.9044217  88.1726207
 116.2881334  71.9480779  76.5542652 115.4110800  71.8269579  76.1904899
 116.7639087  71.1566857  76.3021541 107.8083474  76.7357938  86.6484159
 108.4954514  76.4219668  86.0605175 107.6531603  77.6399303  86.3751411
 112.6118196  71.6248135  91.0769183 112.5276385  71.0173805  90.3419593
 111.7900903  72.1157153  91.0778679 119.6855480  85.0635299  90.2902351
 119.6125652  85.8690271  90.8021656 119.2432874  85.2627265  89.4650373
 119.4745260  84.3007069  83.8005173 118.6912782  84.8428749  83.8943397
 120.1738005  84.8181049  84.1999414 119.3676879  72.2519082  86.1711063
 118.9974666  71.6990122  86.8591968 119.8635971  71.6477215  85.6186063
 117.1966078  82.7116577  93.2666081 117.8975537  83.3453059  93.4195475
 116.7261193  83.0531308  92.5061720 112.7933796  82.2452932  90.1997183
 113.3787232  81.4996619  90.3325088 112.5958634  82.5556888  91.0833847
 115.6472451  85.2804179  85.2159626 114.9782826  85.7650307  84.7323666
 115.5085321  85.5273399  86.1303004 107.3851450  74.8158532  88.9201627
 107.4235550  74.2822122  89.7138745 106.8791743  74.2893737  88.3012604
 119.7877719  87.3147922  91.8142284 120.3396027  87.4779544  92.5791369
 120.1283913  87.9052360  91.1422309 114.7642213  69.6623072  92.4164169
 114.8283539  70.5237903  92.0041567 114.7009333  69.0497074  91.6836527
 114.2394485  71.7346205  96.0637203 114.8666524  71.3523282  96.6774727
 113.3822404  71.5160407  96.4292896 111.0160028  73.5422634  81.9955558
 111.3113469  72.6333312  81.9422612 110.1148064  73.5210373  81.6736560
 114.5454275  71.6178631  87.9783107 113.8240861  72.2314598  87.8390580
 115.3347531  72.1536395  87.8999752 117.3480588  68.9533057  94.2523758
 117.8714990  69.1995354  95.0150068 117.1292922  69.7853092  93.8326896
 112.7447870  71.2236732  82.1194883 112.4160576  70.3434111  81.9369989
 113.0987240  71.1684400  83.0071272 115.8589693  71.5109701  82.4870361
 116.1985765  72.0395623  81.7648969 116.3061813  71.8490108  83.2628927
 118.5533133  69.8946752  91.9373429 118.2129954  69.0954565  92.3394109
 117.8472140  70.1948463  91.3650262 119.2049605  66.9796065  90.3900752
 120.0275675  66.5056543  90.2679642 119.4487669  67.7586548  90.8899438
 117.8457840  70.0084323  80.6863654 118.5666202  70.3865576  80.1827370
 117.2223144  70.7273200  80.7898631 116.7288184  73.6715185  88.1992730
 116.5832765  73.9855488  89.0917012 116.2513388  74.2900086  87.6463629
 118.5884567  70.6617733  88.2473620 118.5746136  69.7658826  87.9105918
 119.3056995  70.6688397  88.8811906 120.4410698  71.0955073  90.2926747
 120.1828475  72.0172144  90.2911078 119.9095738  70.6985508  90.9827212
 111.2033846  76.2120530  91.1380392 110.6587314  76.9880338  91.2700666
 112.0813196  76.5591334  90.9799513 117.9921463  69.5432113  83.5161190
 118.1137374  68.6148760  83.7152078 117.7023505  69.5570799  82.6039506
 120.8612653  67.2287024  86.6527910 120.8834350  67.2926357  85.6979890
 121.2780712  66.3891533  86.8468416 111.9899868  75.3390426  94.0310549
 111.2481604  75.4873061  94.6175179 111.6692612  75.5998691  93.1677298
 119.9343531  84.8806404  93.8290939 120.2430657  84.6355551  94.7013638
 120.7319013  85.0853043  93.3409809 119.9564143  87.0344314  86.0596315
 119.5169133  86.5420692  86.7529172 120.7072260  86.4917281  85.8188390
 112.4356482  83.2255855  86.0620943 113.2614502  82.9259626  85.6819587
 112.0850534  82.4563477  86.5110732 117.4038015  82.5782323  88.1318617
 116.7818024  81.9153028  87.8320845 118.0742882  82.6043455  87.4492265
 110.6365087  81.1442181  87.0209877 109.7996995  80.7164355  86.8393878
 110.6088732  81.3374624  87.9580668 117.4762542  71.0564111  97.7251123
 117.5250698  71.9326234  97.3428892 118.0185057  70.5141504  97.1522766
 116.9651522  81.1286246  81.6077077 117.1139642  81.8121711  80.9543750
 117.7717965  81.1091336  82.1226533 119.7061831  71.8095483  94.4797481
 118.8365140  72.1029049  94.2080070 119.9421311  72.3935928  95.2004745
 114.7204155  77.1551424  82.6138146 114.4750197  76.2513754  82.8118356
 114.8900069  77.1568574  81.6717624 113.9899802  72.8879781  80.1124308
 113.2969047  72.9624136  79.4564344 113.7451554  72.1240125  80.6345825
 120.4646927  83.6234377  79.0788825 119.8920894  84.2424564  78.6259297
 121.0379721  84.1733738  79.6128747 119.0336643  72.8845166  76.3559762
 118.1268098  72.5878278  76.4322476 119.3112624  72.5874984  75.4894049
 109.9514583  74.2051529  86.8058809 109.6317368  73.3516837  86.5133183
 109.4048012  74.4200107  87.5616776 113.7294491  76.9213970  90.5228315
 113.9480501  77.8531078  90.5416349 114.1420265  76.5621945  91.3083119
 120.6498709  67.4282055  82.5104004 119.8399437  67.0829140  82.8859250
 121.3383126  67.1189599  83.0991615 118.6022356  72.4947176  99.9131064
 118.5019083  73.4441533  99.8443155 118.3843898  72.1665415  99.0407134
 117.8035428  69.7432101  76.4971742 118.6654592  70.0686999  76.7567559
 117.9885772  68.9563597  75.9844807 109.8202843  77.8254441  88.7751930
 109.1266315  77.4108393  88.2621885 110.5675834  77.8674977  88.1785349
 118.4653626  75.9244315  98.7296126 117.9820708  76.7244675  98.9360015
 118.5514565  75.9352260  97.7763570 111.7339586  77.7572694  86.6517945
 111.7110274  77.8560382  85.6999828 112.0440222  78.6037845  86.9735111
 114.3926964  79.8148849  90.7664560 115.3470217  79.7832792  90.6994491
 114.1939487  79.3539473  91.5814786 114.9826346  78.3849965  93.3335357
 115.8019235  78.8794044  93.3570195 115.2563154  77.4681934  93.3052925
 112.7477193  85.3568469  87.7834758 112.6131661  84.5968870  87.2172756
 112.3309255  86.0809369  87.3163546 115.9046318  86.2537786  87.9953200
 115.7878703  87.1983218  87.8931890 115.0838765  85.9511347  88.3838999
 110.2361260  72.7188099  94.0327554 110.8820124  72.2087053  94.5214780
 110.0278411  73.4556781  94.6070980 118.7564871  66.9828144  79.7851451
 118.7443540  67.9269984  79.9419721 119.6488293  66.7998289  79.4910912
 116.9300833  86.9066048  91.2109129 117.8328079  86.9389658  91.5275624
 116.7038203  85.9766499  91.2255464 118.6854435  85.6597034  87.8719207
 117.7350066  85.6598896  87.7583580 118.9886921  84.9129769  87.3555242
 114.5758751  69.8655716  98.1302569 115.4390213  69.5092521  98.3405893
 114.0024162  69.5269611  98.8177973 118.6477229  92.0649856  86.6484159
 119.3348269  91.7511586  86.0605175 118.4925357  92.9691221  86.3751411
 118.2245205  90.1450449  88.9201627 118.2629304  89.6114040  89.7138745
 117.7185498  89.6185655  88.3012604 121.4758841  96.4734099  87.0209877
 120.6390750  96.0456273  86.8393878 121.4482487  96.6666542  87.9580668
 120.7908338  89.5343447  86.8058809 120.4711122  88.6808755  86.5133183
 120.2441766  89.7492025  87.5616776 120.6596598  93.1546358  88.7751930
 119.9660069  92.7400311  88.2621885 121.4069589  93.1966895  88.1785349
  74.1765772   2.1965234  70.4657952  74.0989802   3.1473060  70.5446432
  73.5727416   1.8511107  71.1232878  71.8152602   4.9450628  74.6106154
  72.0549200   5.5769153  75.2885172  70.9721798   4.5938668  74.8971513
  72.2897434   0.9698631  71.9404932  71.6207809   1.4544758  71.4568972
  72.1510304   1.2167851  72.8548311  76.4302703   3.0042374  78.5387591
  76.9821011   3.1673996  79.3036676  76.7708896   3.5946812  77.8667616
  69.3902176   1.0462921  74.5080064  69.2556644   0.2863322  73.9418062
  68.9734238   1.7703821  74.0408853  72.5471302   1.9432238  74.7198507
  72.4303686   2.8877670  74.6177197  71.7263748   1.6405799  75.1084306
  73.5725816   2.5960500  77.9354435  74.4753063   2.6284110  78.2520930
  73.3463186   1.6660951  77.9500771  87.8721818   7.1379453  75.5971801
  87.5340329   7.0220517  74.7092336  88.7411586   6.7370618  75.5772807
  83.7308633   8.9914929  71.5868692  83.1673499   8.9004866  70.8184980
  83.6161028   8.1714834  72.0671184  88.3541601   8.2914304  81.5558007
  88.3430241   7.8967103  80.6838510  88.5162240   7.5580377  82.1491778
  81.2773065  10.4866121  74.4252912  82.0694357  10.1456945  74.0099212
  81.5169715  10.5961096  75.3455066  89.3108192  12.6585897  66.8983157
  88.6596172  13.2439977  66.5117171  90.1052555  13.1892092  66.9578194
  83.2363819   9.7475034  67.2970291  84.0094695   9.2004021  67.1583167
  83.5889218  10.6119283  67.5084753  85.0748862  11.0751416  80.5037191
  84.7838728  11.9797047  80.3883857  85.7105846  11.1167944  81.2181260
  86.0005069   8.4528265  77.0938550  86.5968641   8.2284287  76.3795513
  86.0580040   7.7113010  77.6963998  90.7883457  10.3476329  67.4352141
  90.1529290  10.4210955  68.1473046  90.4580864  10.9369928  66.7571220
  85.2926386   7.8095806  67.1313116  85.1762644   7.1340709  67.7994200
  85.4028646   7.3228180  66.3145269  87.6357927   7.2705953  70.8359805
  87.2716134   6.7436574  71.5472727  88.4925043   6.8804422  70.6626291
  90.0338747  10.7612832  77.4986984  89.7339470  11.6637871  77.3902791
  89.6889806  10.4945015  78.3508137  83.4851228   7.2126629  73.5323689
  82.5601725   7.0802843  73.7401380  83.7335642   7.9920848  74.0293631
  80.8460039   6.8559902  74.3667478  80.9752421   7.1094381  75.2806889
  80.1657491   7.4487610  74.0472133  85.0159527  17.5257152  70.4657952
  84.9383556  18.4764977  70.5446432  84.4121170  17.1803025  71.1232878
  85.7623129   7.5070471  82.6837286  86.5037813   8.0455515  82.4072109
  85.0560114   8.1336760  82.8408838  91.2378468   9.6499611  81.2809447
  91.6461824   9.2082022  80.5364080  90.5155730   9.0752239  81.5343640
  91.5607283  10.2100802  75.0361736  90.9316146  10.3746516  74.3337804
  91.1732945  10.6242412  75.8072700  95.4396515  11.1455240  72.3906100
  94.7547553  11.5254141  71.8403133  95.5240364  11.7550567  73.1238048
  92.6947447   8.7915199  78.9901443  92.9064342   9.4346959  78.3135825
  92.6477195   7.9577515  78.5223374  87.1135245   9.9475210  72.3011821
  87.5773590  10.2262913  71.5116444  86.8492043   9.0458655  72.1184912
  84.0059326   9.4946692  75.2391585  84.5760683   9.9233960  74.6009069
  84.5967438   9.2129276  75.9375770  79.7929465   4.3281915  74.4118520
  79.0028519   4.5839444  73.9358631  80.2840712   5.1430253  74.5170561
  93.8093275  11.6687154  77.1623801  94.6310718  11.2667342  76.8806482
  93.8055677  11.5655388  78.1139917  81.7444210   4.6926494  71.3701997
  80.9475374   4.8045189  71.8885492  81.5169803   5.0313147  70.5042887
  87.5749878  11.2171198  79.3184511  87.6394310  11.6791605  80.1542683
  86.8660802  10.5868563  79.4466821  78.0767168   4.5812406  76.8433511
  78.3275206   5.4659416  77.1091087  78.6126716   4.4017007  76.0708603
  87.2897896  12.8839305  69.1863492  87.1543570  13.7290841  69.6148339
  87.8307708  13.0858583  68.4229425  80.7427293  10.4014743  69.7591417
  81.2551814  11.1957993  69.9096981  81.3950006   9.7041034  69.6925018
  82.5522178  13.5180499  71.8414170  82.7288806  14.4398464  71.6535154
  83.3479011  13.2038919  72.2708550  81.8374534   5.5645131  81.7176333
  81.7228049   4.6630389  82.0183432  80.9819052   5.8108828  81.3661150
  88.9166372  13.5062872  83.3163834  88.4730226  12.7199250  82.9984738
  89.5783586  13.6942022  82.6507724  83.6753493  15.0358673  77.8424512
  84.2260918  14.9075737  77.0701506  82.8364969  15.3353562  77.4919405
  91.0147610  13.7865672  81.3445235  90.9966085  14.6074553  80.8525504
  91.9367530  13.6619747  81.5695376  87.4720664  11.3009801  82.1868743
  88.0049001  10.5398089  81.9568051  86.9434745  11.0083453  82.9292898
  78.7076210   8.7303397  70.5350987  79.5451432   9.1400406  70.3184695
  78.8854477   7.7902840  70.5051181  88.8373377  10.4295794  69.6987555
  88.3094738   9.6948553  69.3860793  88.3360880  11.2070470  69.4527524
  93.8166223   8.6244814  74.8154602  93.1589897   9.3144075  74.9034730
  94.6206622   9.0141246  75.1588588  86.9825977   8.2476004  62.7022528
  86.0753039   8.0165257  62.9013677  87.4797009   7.4513623  62.8896510
  89.8894056  16.9573511  65.6219215  89.2155755  17.2605208  66.2304172
  90.2759878  17.7602591  65.2724672  88.1614211   8.3488599  67.2246518
  87.2525430   8.0647631  67.3218988  88.1909294   8.7687677  66.3649825
  93.3933478  11.9595188  70.9937686  92.9395805  11.1186098  71.0502877
  92.7627445  12.5956587  71.3312466  91.8366417  13.7971685  71.9287504
  92.1289392  14.3576742  71.2099870  92.3465038  14.0900246  72.6840663
  78.7302381   6.0694113  71.2061721  78.5326781   5.4763473  70.4812787
  78.1749045   5.7646323  71.9237659  87.8590298   9.8897342  64.5634597
  87.4209728   9.1733201  64.1040234  88.6000739  10.1173457  64.0019688
  86.8000042  14.5752036  73.0180957  86.7576221  14.8012882  72.0889489
  87.7162741  14.3415411  73.1666759  96.0032793  10.2331066  75.6322187
  96.4369299  10.1406355  76.4805241  96.7164373  10.2088567  74.9942203
  84.9165843  11.4515065  72.8142920  85.7106442  10.9565385  72.6125495
  84.2057536  10.9232928  72.4510626  89.7360688  13.8333160  77.1655288
  89.7897710  14.4024097  77.9333004  88.8675469  14.0035046  76.8009325
  81.2248607   5.5958147  68.8902673  80.2946195   5.5342602  69.1072635
  81.3206079   5.0734099  68.0939314  96.8648342  10.2754767  78.1655073
  97.0584232  11.1800578  78.4114347  96.7648960   9.8162186  78.9993658
  91.9263451  10.4261510  83.7395953  91.7748957  10.1972061  82.8226037
  91.9168130  11.3832111  83.7527298  88.6948787   7.9993423  78.7242220
  89.6240847   8.1504582  78.5511187  88.2739817   8.0877443  77.8690866
  87.4937119  12.0244087  76.4940757  87.3548205  11.6562871  77.3666695
  86.7051715  12.5391726  76.3224715  88.0885271  17.1253183  67.8366294
  88.2637027  16.6541227  68.6511916  87.4018059  17.7518950  68.0647554
  89.0442334  11.4025690  73.8829595  88.7092167  11.3626460  74.7787245
  88.5446280  10.7370406  73.4100005  83.0186578   6.8093320  79.4082176
  82.8806376   6.0773558  80.0093715  83.9291502   6.7202220  79.1266364
  91.9801526   8.7481724  64.1566655  91.3630697   8.0228552  64.0599707
  91.5118014   9.5091084  63.8133729  85.6468879   6.5213279  78.8965856
  86.3568497   5.8806471  78.8552474  85.6038187   6.7726174  79.8192037
  93.6355658  13.4580632  81.8172435  93.5768204  12.7739852  81.1503018
  94.0375176  14.1999622  81.3653061  82.6546356  20.2742546  74.6106154
  82.8942955  20.9061070  75.2885172  81.8115553  19.9230586  74.8971513
  93.6373065  11.4220216  80.0486415  92.7499844  11.0846138  80.1712814
  94.2071616  10.6903247  80.2855180  75.2902212   7.7544308  73.3729466
  75.9773252   7.4406038  72.7850481  75.1350341   8.6585673  73.0996717
  87.1674218  16.0821669  77.0147658  87.0944390  16.8876640  77.5266962
  86.7251611  16.2813634  76.1895679  86.9563998  15.3193439  70.5250479
  86.1731520  15.8615119  70.6188704  87.6556743  15.8367418  70.9244721
  89.6272902  15.9808503  79.1705817  90.3400874  16.6155967  79.0981718
  89.1362930  16.0772369  78.3545818  91.3490429   9.8859755  70.7423108
  90.4146707  10.0061218  70.5727813  91.5267097   8.9832222  70.4783118
  84.6784815  13.7302946  79.9911387  85.3794275  14.3639429  80.1440782
  84.2079930  14.0717678  79.2307027  92.8039211  12.0720896  68.2759294
  93.0799055  11.9577490  69.1853168  91.9343710  11.6738381  68.2371467
  89.4393275  16.3207247  71.9192108  89.6215670  15.5028903  72.3819860
  90.2626261  16.5374939  71.4816998  89.7735441  15.2475432  69.1807156
  90.3023207  14.7367886  68.5677319  90.0363660  14.9317962  70.0452690
  88.5273674   7.0267365  84.3029975  87.8514311   6.9261494  84.9732350
  89.3501308   6.8706578  84.7665972  80.2752533  13.2639301  76.9242490
  80.8605970  12.5182989  77.0570394  80.0777372  13.5743258  77.8079154
  83.1291189  16.2990549  71.9404932  82.4601564  16.7836676  71.4568972
  82.9904058  16.5459769  72.8548311  74.8670188   5.8344901  75.6446933
  74.9054288   5.3008492  76.4384051  74.3610481   5.3080107  75.0257910
  87.2696457  18.3334292  78.5387591  87.8214765  18.4965914  79.3036676
  87.6102651  18.9238730  77.8667616  92.1207332  13.1595550  84.3936245
  92.6647236  13.7725508  83.8991200  91.5394176  13.7175128  84.9103258
  78.4978766   4.5609004  68.7200865  78.7932207   3.6519682  68.6667918
  77.5966801   4.5396743  68.3981867  90.4064844  16.2816268  75.5251273
  90.2815984  15.4806007  75.0162218  91.0643936  16.7762461  75.0365243
  92.4699753  14.0825288  77.1530823  91.5230088  13.9630639  77.0809150
  92.8182526  13.1947786  77.2357084  89.4746186  13.8778004  73.3535175
  89.3271149  12.9494711  73.5342745  90.2999680  13.8998095  72.8692251
  93.0780308  14.7006563  74.4400048  94.0026855  14.4949424  74.3024499
  92.9095611  14.4522964  75.3489390  92.8675624  15.2192230  69.7962139
  93.0412502  14.6538653  69.0435992  93.3604515  16.0193125  69.6141629
  78.6852584   7.2306899  77.8625698  78.1406052   8.0066707  77.9945973
  79.5631934   7.5777704  77.7044820  93.8550797  14.5358994  66.8959038
  94.5501701  15.1565687  67.1146352  94.1973947  13.6854346  67.1711416
  79.4718606   6.3576795  80.7555855  78.7300342   6.5059431  81.3420486
  79.1511350   6.6185061  79.8922605  95.7542220  11.9858700  68.4246369
  96.2793544  12.3245973  67.6995689  95.6664572  11.0505715  68.2409503
  87.4162269  15.8992774  80.5536245  87.7249395  15.6541920  81.4258945
  88.2137751  16.1039412  80.0655115  87.4382881  18.0530683  72.7841622
  86.9987871  17.5607062  73.4774478  88.1890998  17.5103651  72.5433697
  79.9175220  14.2442224  72.7866250  80.7433239  13.9445996  72.4064893
  79.5669272  13.4749847  73.2356038  84.8856753  13.5968692  74.8563923
  84.2636762  12.9339397  74.5566151  85.5561620  13.6229824  74.1737571
  78.1183825  12.1628551  73.7455183  77.2815733  11.7350725  73.5639185
  78.0907470  12.3560994  74.6825975  95.4436126  12.6191604  83.7297566
  94.6531670  12.6015742  83.1902066  95.2069480  13.1579897  84.4846603
  84.4470260  12.1472616  68.3322384  84.5958380  12.8308080  67.6789057
  85.2536703  12.1277706  68.8471840  97.0652198  11.8881012  81.2872317
  96.7737006  12.2510992  82.1235778  96.4524329  11.1748020  81.1085649
  82.2022893   8.1737793  69.3383453  81.9568935   7.2700123  69.5363663
  82.3718807   8.1754944  68.3962931  87.9465665  14.6420746  65.8034131
  87.3739632  15.2610933  65.3504603  88.5198459  15.1920108  66.3374053
  91.1662925  14.9257896  66.9342714  92.0993598  14.8603458  67.1375589
  91.0786138  15.7614163  66.4757246  93.7950942  14.2423767  63.8946661
  93.7164573  13.9083630  64.7882419  94.6160608  14.7345535  63.8938134
  88.2151156  10.0299305  84.6050841  89.1354166  10.2077904  84.7990887
  88.1800739   9.0855350  84.4530540  77.4333321   5.2237899  73.5304115
  77.1136106   4.3703207  73.2378489  76.8866749   5.4386477  74.2862083
  81.2113229   7.9400340  77.2473622  81.4299239   8.8717448  77.2661656
  81.6239003   7.5808314  78.0328426  77.3021581   8.8440810  75.4997237
  76.6085053   8.4294763  74.9867191  78.0494572   8.8861347  74.9030656
  85.9472364   6.9430684  85.4541433  85.4639446   7.7431044  85.6605322
  86.0333303   6.9538629  84.5008877  79.2158324   8.7759064  73.3763252
  79.1929012   8.8746751  72.4245135  79.5258960   9.6224215  73.6980418
  81.8745702  10.8335219  77.4909866  82.8288955  10.8019161  77.4239798
  81.6758225  10.3725843  78.3060092  82.4645084   9.4036335  80.0580664
  83.2837973   9.8980414  80.0815501  82.7381891   8.4868303  80.0298232
  80.2295930  16.3754838  74.5080064  80.0950398  15.6155239  73.9418062
  79.8127993  17.0995738  74.0408853  91.3654893  11.5591762  63.5156640
  92.0690744  11.7641765  64.1314295  90.6417542  12.1268524  63.7805723
  83.3865056  17.2724156  74.7198507  83.2697440  18.2169588  74.6177197
  82.5657503  16.9697717  75.1084306  93.2741591  11.9974291  65.5655100
  94.1087195  11.5655490  65.3832574  93.1125934  11.8256305  66.4931994
  92.9287483   8.5006405  66.9311439  92.8736287   8.3350676  65.9899883
  92.3033538   9.2082437  67.0873629  77.7179998   3.7374469  80.7572861
  78.3638862   3.2273423  81.2460086  77.5097149   4.4743151  81.3316286
  90.2433390  10.8055316  86.2565002  91.1124550  10.9795969  85.8951637
  89.7640142  11.6249733  86.1340731  84.4119570  17.9252417  77.9354435
  85.3146817  17.9576028  78.2520930  84.1856940  16.9952868  77.9500771
  86.1673172  16.6783404  74.5964514  85.2168803  16.6785266  74.4828886
  86.4705659  15.9316139  74.0800549 101.9025866  22.5143942  75.6610276
 102.5404276  22.3950690  74.9573616 101.7846709  23.4624786  75.7198228
  98.7115572  22.4671370  75.5971801  98.3734084  22.3512435  74.7092336
  99.5805340  22.0662536  75.5772807  94.5702388  24.3206847  71.5868692
  94.0067253  24.2296784  70.8184980  94.4554783  23.5006751  72.0671184
  99.1935355  23.6206222  81.5558007  99.1823996  23.2259020  80.6838510
  99.3555995  22.8872295  82.1491778  92.1166820  25.8158038  74.4252912
  92.9088112  25.4748863  74.0099212  92.3563470  25.9253014  75.3455066
 100.1501947  27.9877815  66.8983157  99.4989926  28.5731895  66.5117171
 100.9446309  28.5184009  66.9578194  94.0757574  25.0766952  67.2970291
  94.8488450  24.5295939  67.1583167  94.4282973  25.9411201  67.5084753
  95.9142616  26.4043334  80.5037191  95.6232482  27.3088965  80.3883857
  96.5499601  26.4459862  81.2181260  96.8398823  23.7820182  77.0938550
  97.4362395  23.5576205  76.3795513  96.8973795  23.0404928  77.6963998
  96.4123852  21.2359618  64.9288741  96.6649372  20.7141139  64.1672204
  95.4748411  21.0725763  65.0315425 101.4567134  20.2395396  72.7363484
 102.2430224  19.8214819  72.3853901 101.7205839  21.1441488  72.9045133
 101.6277212  25.6768246  67.4352141 100.9923045  25.7502873  68.1473046
 101.2974618  26.2661845  66.7571220 106.8575562  20.1770629  73.6396463
 107.5900733  19.6069846  73.8734292 106.1014917  19.7892230  74.0802968
  96.1320140  23.1387724  67.1313116  96.0156398  22.4632627  67.7994200
  96.2422400  22.6520098  66.3145269  98.4751681  22.5997871  70.8359805
  98.1109888  22.0728492  71.5472727  99.3318797  22.2096340  70.6626291
 104.3800982  13.8892203  78.0991071 104.0484307  14.7587614  77.8752286
 103.7846595  13.5728487  78.7785102  98.1157168  17.6287771  65.8321154
  98.2831571  18.4968007  66.1991625  97.9254337  17.7915052  64.9082443
 100.8732501  26.0904749  77.4986984 100.5733224  26.9929788  77.3902791
 100.5283561  25.8236933  78.3508137  94.3244983  22.5418546  73.5323689
  93.3995479  22.4094760  73.7401380  94.5729396  23.3212766  74.0293631
 104.2729645  18.6087290  75.1784422 103.3646523  18.5402698  74.8843182
 104.2217241  19.0859235  76.0066247  98.0946389  20.0845428  66.8167821
  97.9746014  20.5302479  67.6553301  97.3998977  20.4330746  66.2581359
  91.6853794  22.1851820  74.3667478  91.8146175  22.4386299  75.2806889
  91.0051245  22.7779528  74.0472133  95.8553281  32.8549070  70.4657952
  95.7777311  33.8056895  70.5446432  95.2514925  32.5094942  71.1232878
  98.3470511  20.0276935  83.1219319  97.5703845  20.5870855  83.1122183
  98.9861074  20.5133718  83.6434189 106.1391292  16.8103728  76.9562295
 105.4965672  17.1036261  76.3102090 105.6346220  16.6956648  77.7615492
 103.7931455  20.5566901  67.6448155 104.7049311  20.7894288  67.4695852
 103.2841102  21.1403945  67.0823233  96.6016883  22.8362389  82.6837286
  97.3431568  23.3747433  82.4072109  95.8953869  23.4628677  82.8408838
 102.0772223  24.9791529  81.2809447 102.4855579  24.5373940  80.5364080
 101.3549484  24.4044157  81.5343640  98.4303293  19.9164136  78.6543004
  99.2764488  20.3403549  78.7977653  98.3701931  19.2597760  79.3481567
 102.4001038  25.5392720  75.0361736 101.7709900  25.7038434  74.3337804
 102.0126700  25.9534329  75.8072700 106.2790269  26.4747158  72.3906100
 105.5941308  26.8546059  71.8403133 106.3634119  27.0842484  73.1238048
 101.5802738  17.5768504  80.3124178 101.3363670  18.3310565  79.7758454
 101.8562669  17.9553852  81.1471425 103.5341201  24.1207117  78.9901443
 103.7458096  24.7638876  78.3135825 103.4870949  23.2869433  78.5223374
 101.1367430  16.7324937  75.8938016 100.2751909  17.0306191  76.1854753
 101.1629865  16.9495336  74.9619048  97.9528999  25.2767128  72.3011821
  98.4167345  25.5554831  71.5116444  97.6885798  24.3750572  72.1184912
  94.8453080  24.8238609  75.2391585  95.4154438  25.2525878  74.6009069
  95.4361192  24.5421194  75.9375770  96.8897885  21.3990280  69.1101386
  97.5921929  21.8511324  69.5775313  96.5578514  20.7574099  69.7381280
  95.3378247  19.9902037  83.4852596  94.7076908  20.6718318  83.7187993
  95.2314335  19.8785118  82.5405734  90.6323219  19.6573833  74.4118520
  89.8422273  19.9131361  73.9358631  91.1234467  20.4722171  74.5170561
 104.6487029  26.9979072  77.1623801 105.4704473  26.5959259  76.8806482
 104.6449432  26.8947306  78.1139917  92.5837965  20.0218412  71.3701997
  91.7869128  20.1337106  71.8885492  92.3563557  20.3605064  70.5042887
  98.4143632  26.5463115  79.3184511  98.4788065  27.0083523  80.1542683
  97.7054556  25.9160480  79.4466821  88.9160922  19.9104323  76.8433511
  89.1668961  20.7951333  77.1091087  89.4520471  19.7308925  76.0708603
 112.7393022  23.3417820  73.5108772 111.9856730  22.7725219  73.3552777
 112.8740563  23.3080485  74.4579407  98.1291650  28.2131223  69.1863492
  97.9937325  29.0582759  69.6148339  98.6701463  28.4150500  68.4229425
  94.6158990  14.2922803  85.8477847  94.2225935  13.7389001  86.5225491
  95.4325130  14.6033381  86.2384364  91.5821047  25.7306661  69.7591417
  92.0945568  26.5249911  69.9096981  92.2343760  25.0332951  69.6925018
  93.3915932  28.8472417  71.8414170  93.5682561  29.7690382  71.6535154
  94.1872766  28.5330836  72.2708550  97.5326951  15.7080682  83.4398103
  98.2736664  16.3087835  83.3602566  97.7644874  14.9658320  82.8816146
  92.6768289  20.8937049  81.7176333  92.5621804  19.9922306  82.0183432
  91.8212806  21.1400746  81.3661150  99.7560126  28.8354789  83.3163834
  99.3123981  28.0491168  82.9984738 100.4177340  29.0233940  82.6507724
  94.5147248  30.3650591  77.8424512  95.0654673  30.2367654  77.0701506
  93.6758724  30.6645480  77.4919405 101.8541365  29.1157589  81.3445235
 101.8359840  29.9366470  80.8525504 102.7761285  28.9911664  81.5695376
  98.3114419  26.6301719  82.1868743  98.8442755  25.8690007  81.9568051
  97.7828500  26.3375371  82.9292898 101.4784114  11.7361785  77.7162385
 101.1348383  12.6263426  77.6401496 101.8463076  11.5463442  76.8531970
  89.5469964  24.0595315  70.5350987  90.3845186  24.4692323  70.3184695
  89.7248232  23.1194757  70.5051181 101.4434396  21.7270396  66.2234820
 100.9281020  22.4975000  66.4623208 101.1711705  21.0535532  66.8467882
  99.0281507  16.5720097  71.2820059  98.1723104  16.1826947  71.1025697
  99.4408459  16.6512057  70.4219844 100.5580654  14.1066440  75.6811618
 100.0545450  14.0696575  74.8679424 100.8511261  15.0159183  75.7408275
  96.8023540  14.1905170  74.6877800  97.6676537  13.9947978  74.3283690
  96.8701049  13.9615521  75.6147157 106.4168671  24.4802750  68.1587994
 105.6398113  24.1413910  67.7143156 107.0960151  24.4855374  67.4842959
 101.2320700  19.5997488  68.0494601 100.9270835  19.9143637  68.9004745
 102.1851142  19.6778908  68.0921934  99.6767131  25.7587711  69.6987555
  99.1488493  25.0240471  69.3860793  99.1754634  26.5362388  69.4527524
 104.6559977  23.9536732  74.8154602 103.9983652  24.6435993  74.9034730
 105.4600377  24.3433164  75.1588588  94.4085859  16.4207377  72.0594167
  94.9829611  16.1982559  71.3267360  94.9956841  16.4896072  72.8122768
 103.4665436  22.3081104  72.8658543 103.9797318  22.9411096  73.3680253
 104.1166660  21.7082300  72.5001903  94.7355446  18.4511839  66.0790052
  93.8992758  18.7886525  66.3999327  94.5960216  18.3160818  65.1417189
  96.7108527  13.2948626  70.7869236  96.0572939  12.9797644  70.1625851
  96.6689001  12.6724367  71.5129059  97.8219732  23.5767921  62.7022528
  96.9146793  23.3457175  62.9013677  98.3190764  22.7805541  62.8896510
 100.7287810  32.2865429  65.6219215 100.0549509  32.5897125  66.2304172
 101.1153632  33.0894509  65.2724672  99.9446267  19.7830560  75.1116884
  99.0268828  20.0045507  74.9538572 100.3606411  19.8576870  74.2528591
 100.7281315  21.1821976  70.2419564 101.4753134  21.6943373  69.9326686
 100.9972904  20.8606028  71.1023958  99.0007965  23.6780516  67.2246518
  98.0919184  23.3939549  67.3218988  99.0303049  24.0979595  66.3649825
 104.2327232  27.2887106  70.9937686 103.7789560  26.4478016  71.0502877
 103.6021199  27.9248504  71.3312466 103.1760152  18.2179092  72.2238353
 102.4382909  17.7056478  72.5548596 103.4286926  17.7779473  71.4121630
 102.6760172  29.1263603  71.9287504 102.9683146  29.6868660  71.2099870
 103.1858792  29.4192164  72.6840663  89.5696135  21.3986030  71.2061721
  89.3720535  20.8055391  70.4812787  89.0142799  21.0938241  71.9237659
  97.5492859  21.2909137  73.3256314  97.6041469  20.3382973  73.2498790
  96.7384061  21.4468576  73.8097612  98.6984053  25.2189260  64.5634597
  98.2603483  24.5025119  64.1040234  99.4394494  25.4465375  64.0019688
  95.4885219  19.9086197  71.0846693  94.6753085  20.2080367  71.4911885
  95.9844213  19.5141885  71.8021175 101.0859431  20.3728021  79.9161587
 101.4408818  20.5999494  80.7756052 101.7331562  20.7046398  79.2938842
 106.8157168  23.4946457  70.6210916 106.6775066  23.6848053  69.6932105
 106.4593386  24.2565840  71.0778967  94.9799294  17.4804552  76.7007928
  95.6198673  17.3393311  76.0030891  94.1476824  17.1939066  76.3246530
 106.8426547  25.5622984  75.6322187 107.2763054  25.4698273  76.4805241
 107.5558128  25.5380485  74.9942203  95.7559598  26.7806983  72.8142920
  96.5500196  26.2857303  72.6125495  95.0451290  26.2524846  72.4510626
 100.5754442  29.1625078  77.1655288 100.6291464  29.7316014  77.9333004
  99.7069223  29.3326963  76.8009325  92.0642361  20.9250064  68.8902673
  91.1339949  20.8634520  69.1072635  92.1599833  20.4026017  68.0939314
  91.9827910  17.4504877  71.4780914  92.2434727  18.3650210  71.3690075
  92.8045082  16.9829320  71.6277527  93.4552835  18.8642634  78.6479739
  94.1275889  18.6559996  77.9992388  92.6282622  18.6664720  78.2084971
 107.7042097  25.6046685  78.1655073 107.8977987  26.5092495  78.4114347
 107.6042715  25.1454104  78.9993658  99.3578408  15.4904575  80.6645400
  98.7106323  16.1894525  80.5709876 100.1279423  15.9240719  81.0321648
 102.7657205  25.7553427  83.7395953 102.6142712  25.5263979  82.8226037
 102.7561885  26.7124029  83.7527298  99.5342542  23.3285340  78.7242220
 100.4634602  23.4796500  78.5511187  99.1133572  23.4169361  77.8690866
  98.3330874  27.3536005  76.4940757  98.1941959  26.9854789  77.3666695
  97.5445470  27.8683644  76.3224715  98.9279026  32.4545101  67.8366294
  99.1030781  31.9833144  68.6511916  98.2411814  33.0810867  68.0647554
  99.8836089  26.7317607  73.8829595  99.5485921  26.6918377  74.7787245
  99.3840034  26.0662323  73.4100005  93.8580333  22.1385237  79.4082176
  93.7200131  21.4065476  80.0093715  94.7685256  22.0494137  79.1266364
 102.8195280  24.0773642  64.1566655 102.2024451  23.3520470  64.0599707
 102.3511769  24.8383002  63.8133729  96.4862633  21.8505197  78.8965856
  97.1962252  21.2098389  78.8552474  96.4431942  22.1018091  79.8192037
 104.4749412  28.7872550  81.8172435 104.4161958  28.1031770  81.1503018
 104.8768930  29.5291540  81.3653061  95.1991567  18.8370415  80.7161495
  94.6628924  18.3861153  81.3683092  94.6108276  18.9716323  79.9731960
  94.6093826  18.2959066  63.2787959  93.7323293  18.1747867  62.9150206
  95.0851579  17.5045144  63.0266848 104.4766819  26.7512134  80.0486415
 103.5893598  26.4138056  80.1712814 105.0465370  26.0195165  80.2855180
  86.1295966  23.0836226  73.3729466  86.8167006  22.7697956  72.7850481
  85.9744095  23.9877590  73.0996717  90.9330689  17.9726422  77.8014490
  90.8488877  17.3652092  77.0664900  90.1113395  18.4635441  77.8023986
  98.0067973  31.4113586  77.0147658  97.9338144  32.2168558  77.5266962
  97.5645366  31.6105552  76.1895679  97.7957752  30.6485356  70.5250479
  97.0125274  31.1907036  70.6188704  98.4950498  31.1659336  70.9244721
 101.1054402  16.4579986  73.1684685 101.6023102  15.7049948  72.8485755
 100.3341384  16.4944302  72.6027894 108.9584160  22.1620351  74.8102976
 108.9474036  23.0445067  74.4396909 108.0901539  21.8091902  74.6157513
 100.4666656  31.3100420  79.1705817 101.1794628  31.9447885  79.0981718
  99.9756685  31.4064286  78.3545818 102.1884183  25.2151673  70.7423108
 101.2540462  25.3353135  70.5727813 102.3660852  24.3124140  70.4783118
  97.6889371  18.5997369  72.8956369  97.3187159  18.0468409  73.5837275
  98.1848464  17.9955502  72.3431369 105.5756735  21.0568992  71.2773142
 106.0417187  21.8896984  71.2033445 106.0264235  20.5913974  71.9818401
  95.5178570  29.0594864  79.9911387  96.2188029  29.6931347  80.1440782
  95.0473685  29.4009595  79.2307027 103.6432966  27.4012814  68.2759294
 103.9192810  27.2869408  69.1853168 102.7737464  27.0030298  68.2371467
 103.5473397  13.4249579  75.3164044 102.6336477  13.6553806  75.4846251
 103.9766499  13.5088023  76.1678076 103.3179856  21.6139471  77.8163938
 102.6651306  21.8615379  77.1616390 103.6960236  20.8003609  77.4826415
 100.2787030  31.6499164  71.9192108 100.4609424  30.8320820  72.3819860
 101.1020016  31.8666857  71.4816998 100.6129195  30.5767350  69.1807156
 101.1416962  30.0659804  68.5677319 100.8757415  30.2609880  70.0452690
  99.3667429  22.3559282  84.3029975  98.6908066  22.2553412  84.9732350
 100.1895063  22.1998496  84.7665972  91.1146288  28.5931219  76.9242490
  91.6999725  27.8474907  77.0570394  90.9171126  28.9035176  77.8079154
  93.9684943  31.6282466  71.9404932  93.2995318  32.1128594  71.4568972
  93.8297813  31.8751687  72.8548311  85.7063943  21.1636819  75.6446933
  85.7448042  20.6300410  76.4384051  85.2004235  20.6372025  75.0257910
  98.1090212  33.6626210  78.5387591  98.6608520  33.8257831  79.3036676
  98.4496405  34.2530648  77.8667616  93.0854705  16.0101360  79.1409475
  93.1496031  16.8716190  78.7286873  93.0221825  15.3975361  78.4081834
  92.5606977  18.0824492  82.7882510  93.1879016  17.7001569  83.4020034
  91.7034896  17.8638694  83.1538202 102.9601086  28.4887467  84.3936245
 103.5040990  29.1017426  83.8991200 102.3787931  29.0467046  84.9103258
  89.3372520  19.8900921  68.7200865  89.6325961  18.9811600  68.6667918
  88.4360556  19.8688661  68.3981867 101.2458599  31.6108185  75.5251273
 101.1209738  30.8097925  75.0162218 101.9037690  32.1054379  75.0365243
  92.8666767  17.9656918  74.7028413  92.1453353  18.5792885  74.5635886
  93.6560023  18.5014683  74.6245059 103.3093507  29.4117205  77.1530823
 102.3623843  29.2922557  77.0809150 103.6576280  28.5239703  77.2357084
  95.6693081  15.3011344  80.9769065  96.1927483  15.5473641  81.7395374
  95.4505414  16.1331379  80.5572202  91.0660362  17.5715019  68.8440190
  90.7373068  16.6912398  68.6615296  91.4199732  17.5162688  69.7316579
 100.3139941  29.2069922  73.3535175 100.1664903  28.2786629  73.5342745
 101.1393434  29.2290012  72.8692251  94.1802185  17.8587989  69.2115667
  94.5198257  18.3873910  68.4894276  94.6274305  18.1968395  69.9874234
 103.9174062  30.0298480  74.4400048 104.8420610  29.8241342  74.3024499
 103.7489366  29.7814881  75.3489390  96.8745626  16.2425039  78.6618735
  96.5342446  15.4432852  79.0639415  96.1684632  16.5426750  78.0895569
  97.5262098  13.3274352  77.1146058  98.3488167  12.8534830  76.9924949
  97.7700161  14.1064836  77.6144745  96.1670332  16.3562610  67.4108960
  96.8878695  16.7343863  66.9072677  95.5435636  17.0751487  67.5143938
 100.3101455  17.0607759  68.3467293 100.5265069  17.9432397  68.0456121
  99.8295522  16.6693973  67.6172934  95.0500676  20.0193472  74.9238037
  94.9045257  20.3333775  75.8162319  94.5725880  20.6378373  74.3708936
  96.9097059  17.0096020  74.9718927  96.8958628  16.1137114  74.6351225
  97.6269487  17.0166684  75.6057213  98.7623190  17.4433361  77.0172054
  98.5040968  18.3650431  77.0156385  98.2308230  17.0463795  77.7072518
 103.7069379  30.5484148  69.7962139 103.8806256  29.9830570  69.0435992
 104.1998270  31.3485043  69.6141629  89.5246338  22.5598817  77.8625698
  88.9799807  23.3358625  77.9945973  90.4025688  22.9069621  77.7044820
  96.3133955  15.8910401  70.2406497  96.4349866  14.9627047  70.4397384
  96.0235998  15.9049087  69.3284812  99.1825146  13.5765311  73.3773217
  99.2046842  13.6404644  72.4225196  99.5993205  12.7369820  73.5713723
 109.5608770  23.3120571  71.4152439 110.0039916  22.5627896  71.0171562
 108.6835280  23.3030707  71.0326171 104.6944551  29.8650912  66.8959038
 105.3895456  30.4857605  67.1146352 105.0367701  29.0146263  67.1711416
  90.3112360  21.6868713  80.7555855  89.5694096  21.8351348  81.3420486
  89.9905105  21.9476979  79.8922605 106.5935974  27.3150618  68.4246369
 107.1187298  27.6537890  67.6995689 106.5058327  26.3797633  68.2409503
  98.2556023  31.2284691  80.5536245  98.5643149  30.9833838  81.4258945
  99.0531505  31.4331330  80.0655115  90.7568974  29.5734142  72.7866250
  91.5826994  29.2737914  72.4064893  90.4063026  28.8041764  73.2356038
  95.7250507  28.9260610  74.8563923  95.1030516  28.2631315  74.5566151
  96.3955374  28.9521742  74.1737571  88.9577579  27.4920468  73.7455183
  88.1209487  27.0642643  73.5639185  88.9301225  27.6852912  74.6825975
  95.7975035  17.4042398  84.4496429  95.8463190  18.2804521  84.0674199
  96.3397549  16.8619791  83.8768073 106.2829880  27.9483521  83.7297566
 105.4925424  27.9307660  83.1902066 106.0463235  28.4871815  84.4846603
 106.4027755  24.7975988  81.0430295 106.4525760  24.6325995  81.9845818
 106.2941679  23.9303247  80.6528176  95.2864014  27.4764533  68.3322384
  95.4352134  28.1599998  67.6789057  96.0930458  27.4569623  68.8471840
 103.6931518  20.7806916  82.3589602 104.5941381  20.6413381  82.0673600
 103.7679492  20.9461371  83.2987779  98.0274323  18.1573770  81.2042788
  97.1577633  18.4507337  80.9325377  98.2633804  18.7414215  81.9250052
 107.9045952  27.2172929  81.2872317 107.6130761  27.5802910  82.1235778
 107.2918084  26.5039937  81.1085649 109.1041635  24.7825809  73.8074887
 109.9388526  25.2215613  73.9712447 109.2400763  24.3064462  72.9883133
 106.1533140  22.3405544  79.7552375 106.6287262  22.5333190  78.9471226
 105.2298706  22.3964730  79.5095758  93.0416647  23.5029711  69.3383453
  92.7962689  22.5992041  69.5363663  93.2112562  23.5046861  68.3962931
 100.7313357  14.3753387  78.7208208 101.2495301  15.1114414  78.3954697
 100.3768490  14.6817381  79.5554968  92.3112295  19.2358069  66.8369614
  91.6181540  19.3102424  66.1809650  92.0664047  18.4718412  67.3591131
  98.7859420  29.9712664  65.8034131  98.2133387  30.5902851  65.3504603
  99.3592213  30.5212026  66.3374053 104.8534809  19.2171304  77.9880680
 105.8052232  19.3169402  78.0092904 104.6838260  18.4249572  78.4978765
 102.8749189  16.3026887  78.1740081 102.2799121  16.5831900  77.4786570
 102.5898886  16.7920788  78.9456822 102.0056679  30.2549814  66.9342714
 102.9387353  30.1895376  67.1375589 101.9179892  31.0906081  66.4757246
 104.6344696  29.5715684  63.8946661 104.5558328  29.2375548  64.7882419
 105.4554363  30.0637452  63.8938134 107.3322887  22.4377424  77.1022980
 107.2999207  21.4993424  77.2882664 107.9423511  22.5161460  76.3688805
  99.1706218  21.3073477  63.1450184 100.1165323  21.1779685  63.2138602
  98.7920463  20.5688138  63.6219612 107.4817376  19.2288467  77.1481263
 106.9656424  18.4446924  76.9611192 108.3657324  18.9007184  77.3127782
 105.1428103  12.9729483  73.1077076 104.9452924  12.6644571  73.9920408
 105.7527808  13.6991122  73.2375006 113.1499437  23.4993430  76.2429017
 113.8802826  23.2378719  76.8036720 112.5406383  22.7622152  76.2831085
 111.2314734  21.6401293  76.8403468 110.5047898  21.5057258  76.2319959
 110.8162021  21.9478122  77.6460186  99.0544911  25.3591223  84.6050841
  99.9747920  25.5369822  84.7990887  99.0194494  24.4147268  84.4530540
  97.3549135  19.2323453  63.0805069  96.4480591  18.9356566  63.1567783
  97.6325116  18.9353271  62.2139355  88.2727076  20.5529816  73.5304115
  87.9529860  19.6995125  73.2378489  87.7260504  20.7678395  74.2862083
  92.0506983  23.2692257  77.2473622  92.2692993  24.2009365  77.2661656
  92.4632757  22.9100232  78.0328426  98.9711201  13.7760343  69.2349310
  98.1611929  13.4307428  69.6104556  99.6595618  13.4667886  69.8236922
 100.9001749  12.8538389  70.8573607 101.4532788  13.2733843  71.5163630
 101.1371836  11.9274138  70.8996563  96.9234849  18.8425463  86.6376371
  96.8231575  19.7919820  86.5688462  96.7056391  18.5143702  85.7652441
  96.1247920  16.0910388  63.2217048  96.9867084  16.4165287  63.4812866
  96.3098264  15.3041884  62.7090114  88.1415336  24.1732728  75.4997237
  87.4478807  23.7586681  74.9867191  88.8888327  24.2153264  74.9030656
 104.2780556  14.9638915  70.3652271 103.6979225  15.6223719  69.9830324
 104.0116489  14.1416259  69.9539689 102.7284123  14.3643972  72.5673592
 103.2283901  14.4760507  71.7587910 103.3719731  14.0605025  73.2074400
  96.7866119  22.2722602  85.4541433  96.3033200  23.0722962  85.6605322
  96.8727058  22.2830547  84.5008877  90.0552078  24.1050982  73.3763252
  90.0322766  24.2038669  72.4245135  90.3652715  24.9516132  73.6980418
  92.7139456  26.1627137  77.4909866  93.6682710  26.1311079  77.4239798
  92.5151980  25.7017760  78.3060092  93.3038838  24.7328253  80.0580664
  94.1231727  25.2272331  80.0815501  93.5775646  23.8160221  80.0298232
 103.0605434  17.1239005  69.4208620 102.1731289  17.4088656  69.2028814
 103.4759423  16.9632768  68.5735896 106.4119971  17.1485526  73.1362959
 107.1880361  17.6381978  73.4087576 105.6868105  17.5743580  73.5934828
 108.8492529  17.8613145  74.1936899 109.4437020  17.6208881  73.4830208
 108.9219113  17.1420276  74.8210436 102.2048648  26.8883680  63.5156640
 102.9084498  27.0933682  64.1314295 101.4811297  27.4560442  63.7805723
 103.0346458  22.6393541  69.6358910 102.9781660  23.0962092  68.7966542
 103.5874801  21.8784226  69.4581752 106.8451264  18.4283273  70.4609029
 106.5888198  18.0279908  71.2917237 106.2204132  19.1427067  70.3359168
 111.1563602  21.1679346  72.9680321 110.5963160  21.2372535  73.7411883
 110.5507105  20.9920331  72.2479817 104.1135345  27.3266209  65.5655100
 104.9480949  26.8947407  65.3832574 103.9519688  27.1548223  66.4931994
 103.7681237  23.8298322  66.9311439 103.7130041  23.6642594  65.9899883
 103.1427293  24.5374355  67.0873629  88.5573752  19.0666387  80.7572861
  89.2032616  18.5565341  81.2460086  88.3490904  19.8035068  81.3316286
 101.0827145  26.1347234  86.2565002 101.9518304  26.3087886  85.8951637
 100.6033896  26.9541651  86.1340731  97.0777363  13.3306431  66.5096757
  97.0656033  14.2748271  66.6665028  97.9700785  13.1476577  66.2156218
  95.2513325  33.2544335  77.9354435  96.1540572  33.2867945  78.2520930
  95.0250695  32.3244786  77.9500771  97.0066927  32.0075322  74.5964514
  96.0562558  32.0077183  74.4828886  97.3099413  31.2608056  74.0800549
  92.8971243  16.2134004  84.8547875  93.7602705  15.8570809  85.0651200
  92.3236654  15.8747898  85.5423280 112.7419620  37.8435860  75.6610276
 113.3798030  37.7242607  74.9573616 112.6240463  38.7916704  75.7198228
 109.5509327  37.7963288  75.5971801 109.2127838  37.6804353  74.7092336
 110.4199095  37.3954453  75.5772807 105.4096142  39.6498765  71.5868692
 104.8461007  39.5588701  70.8184980 105.2948537  38.8298669  72.0671184
 110.0329110  38.9498140  81.5558007 110.0217750  38.5550938  80.6838510
 110.1949749  38.2164212  82.1491778 102.9560574  41.1449956  74.4252912
 103.7481866  40.8040781  74.0099212 103.1957224  41.2544931  75.3455066
 110.9895701  43.3169732  66.8983157 110.3383681  43.9023813  66.5117171
 111.7840064  43.8475927  66.9578194 104.9151328  40.4058869  67.2970291
 105.6882204  39.8587856  67.1583167 105.2676727  41.2703119  67.5084753
 106.7536371  41.7335252  80.5037191 106.4626237  42.6380882  80.3883857
 107.3893355  41.7751779  81.2181260 107.6792578  39.1112100  77.0938550
 108.2756150  38.8868123  76.3795513 107.7367549  38.3696846  77.6963998
 107.2517606  36.5651536  64.9288741 107.5043127  36.0433057  64.1672204
 106.3142165  36.4017681  65.0315425 112.2960889  35.5687314  72.7363484
 113.0823978  35.1506737  72.3853901 112.5599593  36.4733406  72.9045133
 112.4670966  41.0060164  67.4352141 111.8316799  41.0794791  68.1473046
 112.1368373  41.5953763  66.7571220 117.6969316  35.5062547  73.6396463
 118.4294488  34.9361764  73.8734292 116.9408672  35.1184148  74.0802968
 106.9713895  38.4679641  67.1313116 106.8550153  37.7924545  67.7994200
 107.0816155  37.9812015  66.3145269 109.3145436  37.9289789  70.8359805
 108.9503643  37.4020410  71.5472727 110.1712552  37.5388258  70.6626291
 115.2194736  29.2184121  78.0991071 114.8878061  30.0879532  77.8752286
 114.6240350  28.9020405  78.7785102 108.9550923  32.9579688  65.8321154
 109.1225325  33.8259925  66.1991625 108.7648092  33.1206970  64.9082443
 111.7126256  41.4196667  77.4986984 111.4126979  42.3221706  77.3902791
 111.3677315  41.1528850  78.3508137 105.1638737  37.8710464  73.5323689
 104.2389234  37.7386678  73.7401380 105.4123151  38.6504683  74.0293631
 115.1123400  33.9379207  75.1784422 114.2040277  33.8694616  74.8843182
 115.0610995  34.4151152  76.0066247 108.9340144  35.4137346  66.8167821
 108.8139769  35.8594397  67.6553301 108.2392732  35.7622663  66.2581359
 102.5247548  37.5143738  74.3667478 102.6539930  37.7678216  75.2806889
 101.8445000  38.1071446  74.0472133 106.6947036  48.1840988  70.4657952
 106.6171065  49.1348813  70.5446432 106.0908679  47.8386860  71.1232878
 109.1864265  35.3568853  83.1219319 108.4097600  35.9162773  83.1122183
 109.8254829  35.8425636  83.6434189 116.9785046  32.1395646  76.9562295
 116.3359426  32.4328179  76.3102090 116.4739975  32.0248566  77.7615492
 114.6325210  35.8858819  67.6448155 115.5443066  36.1186206  67.4695852
 114.1234857  36.4695863  67.0823233 107.4410638  38.1654306  82.6837286
 108.1825322  38.7039350  82.4072109 106.7347623  38.7920595  82.8408838
 112.9165977  40.3083447  81.2809447 113.3249333  39.8665857  80.5364080
 112.1943239  39.7336074  81.5343640 109.2697047  35.2456054  78.6543004
 110.1158243  35.6695467  78.7977653 109.2095685  34.5889678  79.3481567
 113.2394792  40.8684637  75.0361736 112.6103654  41.0330352  74.3337804
 112.8520454  41.2826247  75.8072700 117.1184024  41.8039075  72.3906100
 116.4335062  42.1837977  71.8403133 117.2027873  42.4134402  73.1238048
 112.4196493  32.9060422  80.3124178 112.1757425  33.6602482  79.7758454
 112.6956423  33.2845769  81.1471425 114.3734956  39.4499034  78.9901443
 114.5851851  40.0930794  78.3135825 114.3264704  38.6161351  78.5223374
 111.9761184  32.0616855  75.8938016 111.1145664  32.3598108  76.1854753
 112.0023619  32.2787254  74.9619048 108.7922754  40.6059045  72.3011821
 109.2561099  40.8846748  71.5116444 108.5279552  39.7042490  72.1184912
 105.6846835  40.1530527  75.2391585 106.2548192  40.5817795  74.6009069
 106.2754947  39.8713112  75.9375770 107.7291640  36.7282198  69.1101386
 108.4315683  37.1803242  69.5775313 107.3972268  36.0866017  69.7381280
 106.1772001  35.3193954  83.4852596 105.5470662  36.0010235  83.7187993
 106.0708089  35.2077036  82.5405734 101.4716974  34.9865751  74.4118520
 100.6816028  35.2423279  73.9358631 101.9628221  35.8014088  74.5170561
 115.4880783  42.3270990  77.1623801 116.3098227  41.9251177  76.8806482
 115.4843186  42.2239224  78.1139917 103.4231719  35.3510330  71.3701997
 102.6262883  35.4629024  71.8885492 103.1957312  35.6896982  70.5042887
 109.2537387  41.8755033  79.3184511 109.3181819  42.3375440  80.1542683
 108.5448311  41.2452398  79.4466821  99.7554677  35.2396241  76.8433511
 100.0062715  36.1243251  77.1091087 100.2914225  35.0600842  76.0708603
 108.9685405  43.5423140  69.1863492 108.8331079  44.3874676  69.6148339
 109.5095217  43.7442418  68.4229425 105.4552744  29.6214720  85.8477847
 105.0619690  29.0680919  86.5225491 106.2718885  29.9325299  86.2384364
 102.4214802  41.0598579  69.7591417 102.9339323  41.8541829  69.9096981
 103.0737515  40.3624869  69.6925018 104.2309687  44.1764335  71.8414170
 104.4076315  45.0982299  71.6535154 105.0266520  43.8622754  72.2708550
 108.3720705  31.0372599  83.4398103 109.1130419  31.6379753  83.3602566
 108.6038628  30.2950237  82.8816146 103.5162043  36.2228967  81.7176333
 103.4015558  35.3214224  82.0183432 102.6606561  36.4692663  81.3661150
 110.5953881  44.1646707  83.3163834 110.1517735  43.3783086  82.9984738
 111.2571095  44.3525857  82.6507724 105.3541002  45.6942509  77.8424512
 105.9048427  45.5659572  77.0701506 104.5152478  45.9937398  77.4919405
 112.6935119  44.4449507  81.3445235 112.6753594  45.2658388  80.8525504
 113.6155039  44.3203582  81.5695376 109.1508173  41.9593636  82.1868743
 109.6836510  41.1981925  81.9568051 108.6222254  41.6667288  82.9292898
 112.3177868  27.0653702  77.7162385 111.9742138  27.9555344  77.6401496
 112.6856831  26.8755360  76.8531970 100.3863719  39.3887233  70.5350987
 101.2238941  39.7984241  70.3184695 100.5641986  38.4486675  70.5051181
 112.2828151  37.0562313  66.2234820 111.7674774  37.8266918  66.4623208
 112.0105459  36.3827450  66.8467882 109.8675262  31.9012014  71.2820059
 109.0116858  31.5118865  71.1025697 110.2802214  31.9803975  70.4219844
 111.3974409  29.4358358  75.6811618 110.8939204  29.3988493  74.8679424
 111.6905015  30.3451100  75.7408275 107.6417294  29.5197087  74.6877800
 108.5070291  29.3239896  74.3283690 107.7094803  29.2907439  75.6147157
 117.2562425  39.8094668  68.1587994 116.4791868  39.4705828  67.7143156
 117.9353906  39.8147291  67.4842959 112.0714454  34.9289406  68.0494601
 111.7664590  35.2435555  68.9004745 113.0244896  35.0070825  68.0921934
 110.5160886  41.0879629  69.6987555 109.9882247  40.3532388  69.3860793
 110.0148389  41.8654305  69.4527524 115.4953732  39.2828649  74.8154602
 114.8377406  39.9727911  74.9034730 116.2994131  39.6725081  75.1588588
 105.2479614  31.7499295  72.0594167 105.8223365  31.5274477  71.3267360
 105.8350596  31.8187990  72.8122768 114.3059191  37.6373022  72.8658543
 114.8191072  38.2703014  73.3680253 114.9560415  37.0374218  72.5001903
 105.5749201  33.7803756  66.0790052 104.7386513  34.1178443  66.3999327
 105.4353970  33.6452736  65.1417189 107.5502281  28.6240544  70.7869236
 106.8966694  28.3089561  70.1625851 107.5082755  28.0016285  71.5129059
 108.6613486  38.9059839  62.7022528 107.7540548  38.6749093  62.9013677
 109.1584518  38.1097458  62.8896510 111.5681565  47.6157346  65.6219215
 110.8943264  47.9189043  66.2304172 111.9547387  48.4186427  65.2724672
 110.7840022  35.1122478  75.1116884 109.8662583  35.3337425  74.9538572
 111.2000165  35.1868788  74.2528591 111.5675069  36.5113893  70.2419564
 112.3146888  37.0235290  69.9326686 111.8366659  36.1897946  71.1023958
 109.8401720  39.0072434  67.2246518 108.9312939  38.7231467  67.3218988
 109.8696803  39.4271513  66.3649825 115.0720987  42.6179023  70.9937686
 114.6183314  41.7769933  71.0502877 114.4414954  43.2540422  71.3312466
 114.0153906  33.5471010  72.2238353 113.2776663  33.0348396  72.5548596
 114.2680680  33.1071391  71.4121630 113.5153926  44.4555520  71.9287504
 113.8076901  45.0160577  71.2099870 114.0252547  44.7484081  72.6840663
 114.1165534  26.3247262  72.8180123 114.4224411  25.4644625  72.5306038
 114.8418139  26.9164882  72.6179117 100.4089890  36.7277948  71.2061721
 100.2114290  36.1347309  70.4812787  99.8536554  36.4230158  71.9237659
 108.3886614  36.6201055  73.3256314 108.4435223  35.6674891  73.2498790
 107.5777816  36.7760494  73.8097612 109.5377807  40.5481178  64.5634597
 109.0997237  39.8317037  64.1040234 110.2788248  40.7757292  64.0019688
 106.3278973  35.2378114  71.0846693 105.5146839  35.5372285  71.4911885
 106.8237968  34.8433803  71.8021175 108.4787551  45.2335871  73.0180957
 108.4363730  45.4596718  72.0889489 109.3950250  44.9999246  73.1666759
 111.9253185  35.7019939  79.9161587 112.2802573  35.9291412  80.7756052
 112.5725316  36.0338316  79.2938842 117.6550922  38.8238375  70.6210916
 117.5168821  39.0139971  69.6932105 117.2987141  39.5857758  71.0778967
 105.8193048  32.8096470  76.7007928 106.4592428  32.6685229  76.0030891
 104.9870579  32.5230983  76.3246530 117.6820302  40.8914902  75.6322187
 118.1156808  40.7990191  76.4805241 118.3951882  40.8672402  74.9942203
 106.5953352  42.1098900  72.8142920 107.3893951  41.6149220  72.6125495
 105.8845045  41.5816763  72.4510626 111.4148197  44.4916996  77.1655288
 111.4685219  45.0607932  77.9333004 110.5462978  44.6618881  76.8009325
 102.9036116  36.2541982  68.8902673 101.9733704  36.1926438  69.1072635
 102.9993588  35.7317935  68.0939314 102.8221665  32.7796795  71.4780914
 103.0828482  33.6942128  71.3690075 103.6438837  32.3121237  71.6277527
 104.2946590  34.1934552  78.6479739 104.9669643  33.9851914  77.9992388
 103.4676377  33.9956638  78.2084971 118.5435851  40.9338602  78.1655073
 118.7371741  41.8384413  78.4114347 118.4436469  40.4746021  78.9993658
 110.1972162  30.8196493  80.6645400 109.5500077  31.5186443  80.5709876
 110.9673177  31.2532637  81.0321648 113.6050960  41.0845345  83.7395953
 113.4536466  40.8555897  82.8226037 113.5955639  42.0415947  83.7527298
 110.3736296  38.6577258  78.7242220 111.3028356  38.8088417  78.5511187
 109.9527326  38.7461279  77.8690866 109.1724628  42.6827922  76.4940757
 109.0335714  42.3146707  77.3666695 108.3839224  43.1975562  76.3224715
 109.7672780  47.7837019  67.8366294 109.9424536  47.3125062  68.6511916
 109.0805568  48.4102785  68.0647554 110.7229843  42.0609525  73.8829595
 110.3879676  42.0210295  74.7787245 110.2233789  41.3954241  73.4100005
 104.6974087  37.4677155  79.4082176 104.5593885  36.7357394  80.0093715
 105.6079011  37.3786055  79.1266364 113.6589035  39.4065559  64.1566655
 113.0418206  38.6812387  64.0599707 113.1905523  40.1674920  63.8133729
 107.3256388  37.1797114  78.8965856 108.0356006  36.5390307  78.8552474
 107.2825696  37.4310009  79.8192037 115.3143167  44.1164468  81.8172435
 115.2555713  43.4323688  81.1503018 115.7162685  44.8583458  81.3653061
 106.0385322  34.1662332  80.7161495 105.5022679  33.7153071  81.3683092
 105.4502030  34.3008241  79.9731960 104.3333865  50.9326382  74.6106154
 104.5730464  51.5644906  75.2885172 103.4903062  50.5814422  74.8971513
 105.4487581  33.6250984  63.2787959 104.5717047  33.5039784  62.9150206
 105.9245334  32.8337062  63.0266848 115.3160574  42.0804052  80.0486415
 114.4287353  41.7429973  80.1712814 115.8859125  41.3487083  80.2855180
  96.9689721  38.4128143  73.3729466  97.6560761  38.0989873  72.7850481
  96.8137850  39.3169508  73.0996717 101.7724443  33.3018340  77.8014490
 101.6882632  32.6944009  77.0664900 100.9507150  33.7927358  77.8023986
 108.8461727  46.7405504  77.0147658 108.7731899  47.5460475  77.5266962
 108.4039120  46.9397470  76.1895679 108.6351507  45.9777274  70.5250479
 107.8519029  46.5198954  70.6188704 109.3344252  46.4951254  70.9244721
 111.9448157  31.7871903  73.1684685 112.4416857  31.0341866  72.8485755
 111.1735138  31.8236220  72.6027894 119.7977914  37.4912269  74.8102976
 119.7867791  38.3736984  74.4396909 118.9295294  37.1383820  74.6157513
 111.3060411  46.6392338  79.1705817 112.0188383  47.2739803  79.0981718
 110.8150439  46.7356204  78.3545818 113.0277938  40.5443591  70.7423108
 112.0934216  40.6645053  70.5727813 113.2054606  39.6416057  70.4783118
 108.5283126  33.9289286  72.8956369 108.1580913  33.3760327  73.5837275
 109.0242218  33.3247420  72.3431369 116.4150489  36.3860910  71.2773142
 116.8810941  37.2188902  71.2033445 116.8657990  35.9205892  71.9818401
 106.3572324  44.3886781  79.9911387 107.0581784  45.0223264  80.1440782
 105.8867439  44.7301513  79.2307027 114.4826720  42.7304731  68.2759294
 114.7586564  42.6161326  69.1853168 113.6131219  42.3322216  68.2371467
 114.3867152  28.7541497  75.3164044 113.4730232  28.9845724  75.4846251
 114.8160253  28.8379941  76.1678076 114.1573610  36.9431389  77.8163938
 113.5045061  37.1907296  77.1616390 114.5353990  36.1295527  77.4826415
 111.1180784  46.9791082  71.9192108 111.3003179  46.1612738  72.3819860
 111.9413770  47.1958774  71.4816998 111.4522950  45.9059267  69.1807156
 111.9810716  45.3951722  68.5677319 111.7151169  45.5901797  70.0452690
 110.2061183  37.6851200  84.3029975 109.5301820  37.5845329  84.9732350
 111.0288817  37.5290414  84.7665972 101.9540042  43.9223136  76.9242490
 102.5393479  43.1766824  77.0570394 101.7564881  44.2327093  77.8079154
 104.8078698  46.9574384  71.9404932 104.1389073  47.4420512  71.4568972
 104.6691567  47.2043604  72.8548311  96.5457697  36.4928737  75.6446933
  96.5841797  35.9592327  76.4384051  96.0397990  35.9663942  75.0257910
 108.9483966  48.9918127  78.5387591 109.5002274  49.1549749  79.3036676
 109.2890160  49.5822565  77.8667616 103.9248459  31.3393277  79.1409475
 103.9889786  32.2008108  78.7286873 103.8615580  30.7267279  78.4081834
 103.4000732  33.4116410  82.7882510 104.0272771  33.0293487  83.4020034
 102.5428651  33.1930612  83.1538202 113.7994841  43.8179385  84.3936245
 114.3434744  44.4309343  83.8991200 113.2181685  44.3758963  84.9103258
 100.1766275  35.2192839  68.7200865 100.4719716  34.3103517  68.6667918
  99.2754310  35.1980578  68.3981867 112.0852353  46.9400103  75.5251273
 111.9603493  46.1389843  75.0162218 112.7431445  47.4346296  75.0365243
 103.7060522  33.2948835  74.7028413 102.9847107  33.9084803  74.5635886
 104.4953777  33.8306600  74.6245059 114.1487262  44.7409123  77.1530823
 113.2017597  44.6214474  77.0809150 114.4970035  43.8531621  77.2357084
 106.5086835  30.6303262  80.9769065 107.0321237  30.8765558  81.7395374
 106.2899168  31.4623297  80.5572202 101.9054116  32.9006937  68.8440190
 101.5766822  32.0204315  68.6615296 102.2593487  32.8454605  69.7316579
 111.1533695  44.5361839  73.3535175 111.0058658  43.6078547  73.5342745
 111.9787189  44.5581930  72.8692251 105.0195939  33.1879906  69.2115667
 105.3592012  33.7165828  68.4894276 105.4668060  33.5260312  69.9874234
 114.7567817  45.3590398  74.4400048 115.6814364  45.1533259  74.3024499
 114.5883120  45.1106799  75.3489390 107.7139380  31.5716957  78.6618735
 107.3736201  30.7724770  79.0639415 107.0078387  31.8718668  78.0895569
 108.3655852  28.6566269  77.1146058 109.1881921  28.1826748  76.9924949
 108.6093916  29.4356753  77.6144745 107.0064087  31.6854528  67.4108960
 107.7272449  32.0635781  66.9072677 106.3829391  32.4043405  67.5143938
 111.1495209  32.3899677  68.3467293 111.3658824  33.2724315  68.0456121
 110.6689277  31.9985890  67.6172934 105.8894431  35.3485390  74.9238037
 105.7439012  35.6625693  75.8162319 105.4119634  35.9670290  74.3708936
 107.7490814  32.3387938  74.9718927 107.7352382  31.4429031  74.6351225
 108.4663242  32.3458602  75.6057213 109.6016944  32.7725278  77.0172054
 109.3434722  33.6942349  77.0156385 109.0701985  32.3755713  77.7072518
 114.5463133  45.8776065  69.7962139 114.7200011  45.3122488  69.0435992
 115.0392024  46.6776960  69.6141629 100.3640093  37.8890734  77.8625698
  99.8193561  38.6650542  77.9945973 101.2419443  38.2361539  77.7044820
 107.1527710  31.2202318  70.2406497 107.2743621  30.2918965  70.4397384
 106.8629752  31.2341004  69.3284812 110.0218900  28.9057229  73.3773217
 110.0440597  28.9696562  72.4225196 110.4386959  28.0661737  73.5713723
 120.4002524  38.6412488  71.4152439 120.8433670  37.8919814  71.0171562
 119.5229035  38.6322625  71.0326171 115.5338306  45.1942830  66.8959038
 116.2289210  45.8149522  67.1146352 115.8761456  44.3438181  67.1711416
 101.1506115  37.0160631  80.7555855 100.4087851  37.1643266  81.3420486
 100.8298859  37.2768896  79.8922605 117.4329729  42.6442535  68.4246369
 117.9581053  42.9829808  67.6995689 117.3452081  41.7089551  68.2409503
 109.0949777  46.5576609  80.5536245 109.4036904  46.3125756  81.4258945
 109.8925260  46.7623247  80.0655115 109.1170390  48.7114519  72.7841622
 108.6775380  48.2190897  73.4774478 109.8678507  48.1687486  72.5433697
 101.5962729  44.9026059  72.7866250 102.4220748  44.6029831  72.4064893
 101.2456781  44.1333682  73.2356038 106.5644262  44.2552528  74.8563923
 105.9424271  43.5923233  74.5566151 107.2349129  44.2813660  74.1737571
  99.7971334  42.8212386  73.7455183  98.9603242  42.3934560  73.5639185
  99.7694979  43.0144829  74.6825975 106.6368789  32.7334316  84.4496429
 106.6856945  33.6096439  84.0674199 107.1791303  32.1911709  83.8768073
 117.1223635  43.2775439  83.7297566 116.3319179  43.2599578  83.1902066
 116.8856989  43.8163733  84.4846603 117.2421510  40.1267905  81.0430295
 117.2919515  39.9617913  81.9845818 117.1335433  39.2595164  80.6528176
 106.1257769  42.8056451  68.3322384 106.2745889  43.4891915  67.6789057
 106.9324212  42.7861541  68.8471840 114.5325272  36.1098833  82.3589602
 115.4335135  35.9705298  82.0673600 114.6073247  36.2753288  83.2987779
 108.8668078  33.4865688  81.2042788 107.9971387  33.7799254  80.9325377
 109.1027558  34.0706133  81.9250052 118.7439707  42.5464847  81.2872317
 118.4524515  42.9094827  82.1235778 118.1311838  41.8331855  81.1085649
 119.9435389  40.1117727  73.8074887 120.7782280  40.5507531  73.9712447
 120.0794518  39.6356380  72.9883133 116.9926895  37.6697462  79.7552375
 117.4681017  37.8625108  78.9471226 116.0692460  37.7256647  79.5095758
 103.8810402  38.8321629  69.3383453 103.6356444  37.9283959  69.5363663
 104.0506316  38.8338779  68.3962931 111.5707111  29.7045305  78.7208208
 112.0889055  30.4406332  78.3954697 111.2162244  30.0109298  79.5554968
 103.1506049  34.5649986  66.8369614 102.4575294  34.6394341  66.1809650
 102.9057801  33.8010330  67.3591131 111.8219706  26.1245588  74.2409105
 112.1021459  25.4568777  74.8669532 112.6070313  26.3174683  73.7283769
 109.6253174  45.3004581  65.8034131 109.0527141  45.9194769  65.3504603
 110.1985968  45.8503943  66.3374053 115.6928564  34.5463222  77.9880680
 116.6445987  34.6461319  78.0092904 115.5232014  33.7541490  78.4978765
 113.7142943  31.6318805  78.1740081 113.1192876  31.9123818  77.4786570
 113.4292640  32.1212706  78.9456822 112.8450434  45.5841732  66.9342714
 113.7781107  45.5187293  67.1375589 112.7573647  46.4197998  66.4757246
 115.4738451  44.9007602  63.8946661 115.3952082  44.5667466  64.7882419
 116.2948117  45.3929370  63.8938134 118.1716642  37.7669341  77.1022980
 118.1392962  36.8285342  77.2882664 118.7817265  37.8453378  76.3688805
 110.0099973  36.6365394  63.1450184 110.9559077  36.5071602  63.2138602
 109.6314218  35.8980056  63.6219612 118.3211130  34.5580385  77.1481263
 117.8050179  33.7738841  76.9611192 119.2051079  34.2299101  77.3127782
 115.9821857  28.3021400  73.1077076 115.7846678  27.9936488  73.9920408
 116.5921563  29.0283039  73.2375006 109.8938665  40.6883140  84.6050841
 110.8141675  40.8661739  84.7990887 109.8588248  39.7439186  84.4530540
 108.1942890  34.5615371  63.0805069 107.2874345  34.2648483  63.1567783
 108.4718871  34.2645189  62.2139355  99.1120830  35.8821734  73.5304115
  98.7923615  35.0287042  73.2378489  98.5654258  36.0970312  74.2862083
 102.8900738  38.5984175  77.2473622 103.1086747  39.5301283  77.2661656
 103.3026512  38.2392149  78.0328426 109.8104956  29.1052260  69.2349310
 109.0005684  28.7599345  69.6104556 110.4989372  28.7959804  69.8236922
 111.7395504  28.1830307  70.8573607 112.2926542  28.6025761  71.5163630
 111.9765590  27.2566055  70.8996563 107.7628603  34.1717381  86.6376371
 107.6625330  35.1211738  86.5688462 107.5450145  33.8435620  85.7652441
 106.9641674  31.4202306  63.2217048 107.8260838  31.7457204  63.4812866
 107.1492019  30.6333802  62.7090114  98.9809090  39.5024646  75.4997237
  98.2872562  39.0878598  74.9867191  99.7282081  39.5445182  74.9030656
 115.1174311  30.2930832  70.3652271 114.5372980  30.9515636  69.9830324
 114.8510244  29.4708177  69.9539689 113.5677877  29.6935890  72.5673592
 114.0677656  29.8052425  71.7587910 114.2113485  29.3896943  73.2074400
 107.6259873  37.6014520  85.4541433 107.1426955  38.4014880  85.6605322
 107.7120812  37.6122465  84.5008877 100.8945833  39.4342899  73.3763252
 100.8716521  39.5330587  72.4245135 101.2046469  40.2808050  73.6980418
 103.5533211  41.4919054  77.4909866 104.5076464  41.4602997  77.4239798
 103.3545734  41.0309678  78.3060092 104.1432593  40.0620170  80.0580664
 104.9625482  40.5564249  80.0815501 104.4169400  39.1452139  80.0298232
 113.8999189  32.4530923  69.4208620 113.0125044  32.7380573  69.2028814
 114.3153178  32.2924686  68.5735896 117.2513725  32.4777444  73.1362959
 118.0274115  32.9673896  73.4087576 116.5261859  32.9035498  73.5934828
 119.6886284  33.1905063  74.1936899 120.2830774  32.9500799  73.4830208
 119.7612867  32.4712193  74.8210436 101.9083439  47.0338674  74.5080064
 101.7737907  46.2739075  73.9418062 101.4915502  47.7579574  74.0408853
 113.0442402  42.2175597  63.5156640 113.7478252  42.4225600  64.1314295
 112.3205051  42.7852359  63.7805723 113.8740213  37.9685459  69.6358910
 113.8175414  38.4254010  68.7966542 114.4268555  37.2076143  69.4581752
 117.6845019  33.7575191  70.4609029 117.4281953  33.3571826  71.2917237
 117.0597887  34.4718984  70.3359168 105.0652565  47.9307991  74.7198507
 104.9484949  48.8753423  74.6177197 104.2445012  47.6281552  75.1084306
 114.9529100  42.6558127  65.5655100 115.7874704  42.2239325  65.3832574
 114.7913443  42.4840140  66.4931994 114.6074992  39.1590240  66.9311439
 114.5523796  38.9934511  65.9899883 113.9821047  39.8666273  67.0873629
  99.3967507  34.3958304  80.7572861 100.0426371  33.8857258  81.2460086
  99.1884658  35.1326986  81.3316286 111.9220899  41.4639152  86.2565002
 112.7912059  41.6379804  85.8951637 111.4427651  42.2833569  86.1340731
 107.9171117  28.6598349  66.5096757 107.9049787  29.6040189  66.6665028
 108.8094539  28.4768494  66.2156218 106.0907079  48.5836253  77.9354435
 106.9934326  48.6159863  78.2520930 105.8644449  47.6536704  77.9500771
 107.8460681  47.3367239  74.5964514 106.8956312  47.3369101  74.4828886
 108.1493168  46.5899974  74.0800549 111.7323237  25.2541126  70.7642694
 110.9655633  24.6999612  70.9099376 112.1433942  25.3262994  71.6256846
 103.7364998  31.5425921  84.8547875 104.5996459  31.1862726  85.0651200
 103.1630409  31.2039816  85.5423280 120.3903081  53.1255206  75.5971801
 120.0521593  53.0096270  74.7092336 121.2592849  52.7246371  75.5772807
 116.2489897  54.9790682  71.5868692 115.6854762  54.8880619  70.8184980
 116.1342292  54.1590587  72.0671184 120.8722864  54.2790058  81.5558007
 120.8611505  53.8842856  80.6838510 121.0343504  53.5456130  82.1491778
 113.7954329  56.4741874  74.4252912 114.5875621  56.1332698  74.0099212
 114.0350979  56.5836849  75.3455066 115.7545083  55.7350787  67.2970291
 116.5275959  55.1879774  67.1583167 116.1070482  56.5995036  67.5084753
 117.5930125  57.0627169  80.5037191 117.3019991  57.9672800  80.3883857
 118.2287110  57.1043697  81.2181260 118.5186332  54.4404018  77.0938550
 119.1149904  54.2160040  76.3795513 118.5761304  53.6988763  77.6963998
 118.0911361  51.8943453  64.9288741 118.3436881  51.3724974  64.1672204
 117.1535920  51.7309599  65.0315425 117.8107649  53.7971559  67.1313116
 117.6943907  53.1216463  67.7994200 117.9209909  53.3103933  66.3145269
 120.1539190  53.2581706  70.8359805 119.7897397  52.7312327  71.5472727
 121.0106306  52.8680175  70.6626291 119.7944677  48.2871606  65.8321154
 119.9619080  49.1551842  66.1991625 119.6041846  48.4498888  64.9082443
 116.0032492  53.2002382  73.5323689 115.0782988  53.0678596  73.7401380
 116.2516905  53.9796601  74.0293631 119.7733898  50.7429263  66.8167821
 119.6533523  51.1886314  67.6553301 119.0786486  51.0914581  66.2581359
 113.3641303  52.8435655  74.3667478 113.4933684  53.0970134  75.2806889
 112.6838754  53.4363363  74.0472133 117.5340790  63.5132905  70.4657952
 117.4564820  64.4640730  70.5446432 116.9302434  63.1678778  71.1232878
 120.0258020  50.6860771  83.1219319 119.2491354  51.2454691  83.1122183
 120.6648583  51.1717554  83.6434189 118.2804392  53.4946224  82.6837286
 119.0219077  54.0331268  82.4072109 117.5741378  54.1212513  82.8408838
 120.1090802  50.5747971  78.6543004 120.9551997  50.9987385  78.7977653
 120.0489440  49.9181596  79.3481567 119.6316508  55.9350963  72.3011821
 120.0954854  56.2138666  71.5116444 119.3673307  55.0334408  72.1184912
 116.5240589  55.4822445  75.2391585 117.0941947  55.9109713  74.6009069
 117.1148701  55.2005029  75.9375770 118.5685394  52.0574116  69.1101386
 119.2709438  52.5095159  69.5775313 118.2366023  51.4157934  69.7381280
 117.0165756  50.6485872  83.4852596 116.3864417  51.3302153  83.7187993
 116.9101844  50.5368954  82.5405734 112.3110728  50.3157668  74.4118520
 111.5209782  50.5715197  73.9358631 112.8021976  51.1306006  74.5170561
 114.2625474  50.6802247  71.3701997 113.4656637  50.7920942  71.8885492
 114.0351066  51.0188900  70.5042887 120.0931141  57.2046951  79.3184511
 120.1575574  57.6667358  80.1542683 119.3842065  56.5744316  79.4466821
 110.5948431  50.5688159  76.8433511 110.8456470  51.4535169  77.1091087
 111.1307980  50.3892760  76.0708603 119.8079159  58.8715058  69.1863492
 119.6724834  59.7166594  69.6148339 120.3488972  59.0734336  68.4229425
 116.2946499  44.9506638  85.8477847 115.9013444  44.3972837  86.5225491
 117.1112639  45.2617216  86.2384364 113.2608556  56.3890496  69.7591417
 113.7733077  57.1833746  69.9096981 113.9131269  55.6916787  69.6925018
 115.0703441  59.5056252  71.8414170 115.2470070  60.4274217  71.6535154
 115.8660275  59.1914672  72.2708550 119.2114460  46.3664517  83.4398103
 119.9524173  46.9671670  83.3602566 119.4432383  45.6242155  82.8816146
 114.3555798  51.5520884  81.7176333 114.2409313  50.6506142  82.0183432
 113.5000315  51.7984581  81.3661150 116.1934757  61.0234426  77.8424512
 116.7442182  60.8951490  77.0701506 115.3546233  61.3229315  77.4919405
 119.9901928  57.2885554  82.1868743 120.5230264  56.5273842  81.9568051
 119.4616009  56.9959206  82.9292898 111.2257473  54.7179150  70.5350987
 112.0632695  55.1276159  70.3184695 111.4035741  53.7778593  70.5051181
 120.7069016  47.2303932  71.2820059 119.8510613  46.8410782  71.1025697
 121.1195968  47.3095893  70.4219844 118.4811049  44.8489005  74.6877800
 119.3464046  44.6531814  74.3283690 118.5488558  44.6199357  75.6147157
 121.3554640  56.4171547  69.6987555 120.8276002  55.6824306  69.3860793
 120.8542143  57.1946223  69.4527524 116.0873368  47.0791213  72.0594167
 116.6617120  46.8566394  71.3267360 116.6744350  47.1479907  72.8122768
 116.4142955  49.1095674  66.0790052 115.5780267  49.4470360  66.3999327
 116.2747725  48.9744654  65.1417189 118.3896036  43.9532462  70.7869236
 117.7360448  43.6381479  70.1625851 118.3476510  43.3308202  71.5129059
 119.5007241  54.2351757  62.7022528 118.5934302  54.0041010  62.9013677
 119.9978273  53.4389376  62.8896510 120.6795474  54.3364352  67.2246518
 119.7706693  54.0523384  67.3218988 120.7090558  54.7563430  66.3649825
 111.2483644  52.0569866  71.2061721 111.0508044  51.4639227  70.4812787
 110.6930308  51.7522076  71.9237659 119.2280368  51.9492972  73.3256314
 119.2828978  50.9966809  73.2498790 118.4171570  52.1052411  73.8097612
 120.3771562  55.8773095  64.5634597 119.9390992  55.1608954  64.1040234
 121.1182003  56.1049210  64.0019688 117.1672728  50.5670032  71.0846693
 116.3540594  50.8664203  71.4911885 117.6631722  50.1725721  71.8021175
 119.3181306  60.5627789  73.0180957 119.2757485  60.7888635  72.0889489
 120.2344005  60.3291164  73.1666759 116.6586803  48.1388388  76.7007928
 117.2986182  47.9977147  76.0030891 115.8264333  47.8522901  76.3246530
 117.4347107  57.4390818  72.8142920 118.2287705  56.9441138  72.6125495
 116.7238799  56.9108681  72.4510626 113.7429870  51.5833900  68.8902673
 112.8127458  51.5218355  69.1072635 113.8387342  51.0609852  68.0939314
 113.6615419  48.1088713  71.4780914 113.9222236  49.0234046  71.3690075
 114.4832591  47.6413155  71.6277527 115.1340344  49.5226470  78.6479739
 115.8063398  49.3143832  77.9992388 114.3070131  49.3248556  78.2084971
 120.0118383  58.0119840  76.4940757 119.8729468  57.6438624  77.3666695
 119.2232979  58.5267479  76.3224715 120.6066535  63.1128936  67.8366294
 120.7818290  62.6416980  68.6511916 119.9199323  63.7394703  68.0647554
 121.5623598  57.3901443  73.8829595 121.2273430  57.3502213  74.7787245
 121.0627543  56.7246159  73.4100005 115.5367842  52.7969073  79.4082176
 115.3987640  52.0649312  80.0093715 116.4472765  52.7077973  79.1266364
 118.1650142  52.5089032  78.8965856 118.8749761  51.8682224  78.8552474
 118.1219451  52.7601927  79.8192037 116.8779076  49.4954250  80.7161495
 116.3416433  49.0444988  81.3683092 116.2895785  49.6300159  79.9731960
 115.1727620  66.2618299  74.6106154 115.4124218  66.8936823  75.2885172
 114.3296816  65.9106339  74.8971513 116.2881335  48.9542901  63.2787959
 115.4110802  48.8331702  62.9150206 116.7639088  48.1628980  63.0266848
 107.8083475  53.7420061  73.3729466 108.4954515  53.4281791  72.7850481
 107.6531604  54.6461426  73.0996717 112.6118198  48.6310258  77.8014490
 112.5276386  48.0235927  77.0664900 111.7900904  49.1219276  77.8023986
 119.6855482  62.0697422  77.0147658 119.6125653  62.8752393  77.5266962
 119.2432875  62.2689387  76.1895679 119.4745261  61.3069192  70.5250479
 118.6912783  61.8490872  70.6188704 120.1738007  61.8243171  70.9244721
 119.3676880  49.2581204  72.8956369 118.9974668  48.7052244  73.5837275
 119.8635973  48.6539338  72.3431369 117.1966079  59.7178699  79.9911387
 117.8975538  60.3515182  80.1440782 116.7261194  60.0593431  79.2307027
 112.7933797  59.2515054  76.9242490 113.3787234  58.5058742  77.0570394
 112.5958635  59.5619011  77.8079154 115.6472452  62.2866302  71.9404932
 114.9782827  62.7712429  71.4568972 115.5085322  62.5335522  72.8548311
 107.3851452  51.8220654  75.6446933 107.4235551  51.2884245  76.4384051
 106.8791744  51.2955860  75.0257910 119.7877721  64.3210045  78.5387591
 120.3396029  64.4841667  79.3036676 120.1283914  64.9114483  77.8667616
 114.7642214  46.6685195  79.1409475 114.8283540  47.5300026  78.7286873
 114.7009334  46.0559197  78.4081834 114.2394486  48.7408327  82.7882510
 114.8666525  48.3585405  83.4020034 113.3822405  48.5222529  83.1538202
 111.0160029  50.5484757  68.7200865 111.3113470  49.6395435  68.6667918
 110.1148065  50.5272496  68.3981867 114.5454276  48.6240753  74.7028413
 113.8240862  49.2376721  74.5635886 115.3347532  49.1598518  74.6245059
 117.3480590  45.9595180  80.9769065 117.8714992  46.2057476  81.7395374
 117.1292923  46.7915214  80.5572202 112.7447871  48.2298854  68.8440190
 112.4160577  47.3496233  68.6615296 113.0987241  48.1746523  69.7316579
 115.8589694  48.5171824  69.2115667 116.1985766  49.0457745  68.4894276
 116.3061814  48.8552230  69.9874234 118.5533135  46.9008875  78.6618735
 118.2129955  46.1016688  79.0639415 117.8472141  47.2010586  78.0895569
 119.2049607  43.9858187  77.1146058 120.0275676  43.5118665  76.9924949
 119.4487670  44.7648671  77.6144745 117.8457841  47.0146446  67.4108960
 118.5666204  47.3927698  66.9072677 117.2223145  47.7335322  67.5143938
 116.7288185  50.6777308  74.9238037 116.5832766  50.9917611  75.8162319
 116.2513389  51.2962208  74.3708936 118.5884568  47.6679856  74.9718927
 118.5746137  46.7720949  74.6351225 119.3056996  47.6750520  75.6057213
 120.4410699  48.1017196  77.0172054 120.1828477  49.0234267  77.0156385
 119.9095739  47.7047631  77.7072518 111.2033847  53.2182652  77.8625698
 110.6587316  53.9942460  77.9945973 112.0813197  53.5653457  77.7044820
 117.9921464  46.5494236  70.2406497 118.1137375  45.6210882  70.4397384
 117.7023507  46.5632922  69.3284812 120.8612655  44.2349146  73.3773217
 120.8834351  44.2988480  72.4225196 121.2780714  43.3953655  73.5713723
 111.9899869  52.3452548  80.7555855 111.2481605  52.4935184  81.3420486
 111.6692614  52.6060814  79.8922605 119.9343532  61.8868527  80.5536245
 120.2430658  61.6417673  81.4258945 120.7319014  62.0915165  80.0655115
 119.9564144  64.0406436  72.7841622 119.5169134  63.5482815  73.4774478
 120.7072261  63.4979404  72.5433697 112.4356483  60.2317977  72.7866250
 113.2614503  59.9321749  72.4064893 112.0850535  59.4625600  73.2356038
 117.4038016  59.5844445  74.8563923 116.7818025  58.9215150  74.5566151
 118.0742883  59.6105577  74.1737571 110.6365088  58.1504304  73.7455183
 109.7996996  57.7226478  73.5639185 110.6088733  58.3436747  74.6825975
 117.4762544  48.0626233  84.4496429 117.5250699  48.9388356  84.0674199
 118.0185058  47.5203626  83.8768073 116.9651523  58.1348369  68.3322384
 117.1139643  58.8183833  67.6789057 117.7717967  58.1153459  68.8471840
 119.7061832  48.8157606  81.2042788 118.8365142  49.1091172  80.9325377
 119.9421312  49.3998051  81.9250052 114.7204156  54.1613546  69.3383453
 114.4750198  53.2575876  69.5363663 114.8900071  54.1630697  68.3962931
 113.9899804  49.8941904  66.8369614 113.2969049  49.9686259  66.1809650
 113.7451556  49.1302248  67.3591131 120.4646929  60.6296499  65.8034131
 119.8920896  61.2486686  65.3504603 121.0379722  61.1795861  66.3374053
 119.0336644  49.8907288  63.0805069 118.1268100  49.5940401  63.1567783
 119.3112625  49.5937106  62.2139355 109.9514585  51.2113652  73.5304115
 109.6317369  50.3578960  73.2378489 109.4048013  51.4262230  74.2862083
 113.7294492  53.9276093  77.2473622 113.9480502  54.8593201  77.2661656
 114.1420266  53.5684067  78.0328426 120.6498710  44.4344178  69.2349310
 119.8399438  44.0891263  69.6104556 121.3383127  44.1251722  69.8236922
 118.6022358  49.5009298  86.6376371 118.5019084  50.4503655  86.5688462
 118.3843900  49.1727537  85.7652441 117.8035429  46.7494224  63.2217048
 118.6654593  47.0749122  63.4812866 117.9885773  45.9625719  62.7090114
 109.8202845  54.8316563  75.4997237 109.1266316  54.4170516  74.9867191
 110.5675836  54.8737100  74.9030656 118.4653628  52.9306437  85.4541433
 117.9820709  53.7306797  85.6605322 118.5514567  52.9414382  84.5008877
 111.7339587  54.7634817  73.3763252 111.7110275  54.8622504  72.4245135
 112.0440224  55.6099968  73.6980418 114.3926965  56.8210972  77.4909866
 115.3470219  56.7894914  77.4239798 114.1939489  56.3601596  78.3060092
 114.9826347  55.3912088  80.0580664 115.8019236  55.8856167  80.0815501
 115.2563155  54.4744056  80.0298232 112.7477194  62.3630592  74.5080064
 112.6131662  61.6030992  73.9418062 112.3309256  63.0871491  74.0408853
 115.9046320  63.2599909  74.7198507 115.7878704  64.2045341  74.6177197
 115.0838766  62.9573470  75.1084306 110.2361261  49.7250222  80.7572861
 110.8820125  49.2149176  81.2460086 110.0278413  50.4618904  81.3316286
 118.7564872  43.9890267  66.5096757 118.7443542  44.9332106  66.6665028
 119.6488294  43.8060412  66.2156218 116.9300834  63.9128170  77.9354435
 117.8328081  63.9451781  78.2520930 116.7038204  62.9828621  77.9500771
 118.6854436  62.6659157  74.5964514 117.7350067  62.6661019  74.4828886
 118.9886922  61.9191892  74.0800549 114.5758752  46.8717839  84.8547875
 115.4390214  46.5154644  85.0651200 114.0024163  46.5331734  85.5423280
 118.6477230  69.0711979  73.3729466 119.3348270  68.7573709  72.7850481
 118.4925359  69.9753343  73.0996717 118.2245206  67.1512572  75.6446933
 118.2629306  66.6176163  76.4384051 117.7185499  66.6247778  75.0257910
 121.4758843  73.4796221  73.7455183 120.6390751  73.0518396  73.5639185
 121.4482488  73.6728665  74.6825975 120.7908339  66.5405569  73.5304115
 120.4711123  65.6870878  73.2378489 120.2441767  66.7554148  74.2862083
 120.6596599  70.1608481  75.4997237 119.9660071  69.7462434  74.9867191
 121.4069590  70.2029017  74.9030656  95.8553282   9.8611192  57.1903259
  95.7777312  10.8119018  57.2691739  95.2514926   9.5157065  57.8478185
  93.4940112  12.6096586  61.3351461  93.7336710  13.2415111  62.0130479
  92.6509309  12.2584626  61.6216820  93.9684944   8.6344589  58.6650239
  93.2995320   9.1190716  58.1814279  93.8297814   8.8813809  59.5793618
  98.1090213  10.6688332  65.2632897  98.6608521  10.8319954  66.0281983
  98.4496406  11.2592770  64.5912922  91.0689686   8.7108879  61.2325371
  90.9344154   7.9509280  60.6663369  90.6521748   9.4349779  60.7654160
  94.2258812   9.6078196  61.4443814  94.1091196  10.5523628  61.3422504
  93.4051258   9.3051757  61.8329613  95.2513326  10.2606458  64.6599742
  96.1540573  10.2930068  64.9766237  95.0250696   9.3306909  64.6746078
 109.5509328  14.8025411  62.3217108 109.2127839  14.6866475  61.4337643
 110.4199096  14.4016576  62.3018114 105.4096144  16.6560887  58.3113999
 104.8461009  16.5650824  57.5430286 105.2948539  15.8360792  58.7916491
 110.0329111  15.9560262  68.2803313 110.0217752  15.5613061  67.4083817
 110.1949750  15.2226335  68.8737085 102.9560576  18.1512079  61.1498219
 103.7481867  17.8102903  60.7344518 103.1957226  18.2607054  62.0700372
 110.9895702  20.3231855  53.6228464 110.3383682  20.9085935  53.2362477
 111.7840065  20.8538050  53.6823501 104.9151329  17.4120992  54.0215598
 105.6882205  16.8649979  53.8828474 105.2676728  18.2765241  54.2330059
 106.7536372  18.7397374  67.2282497 106.4626238  19.6443005  67.1129163
 107.3893356  18.7813902  67.9426567 107.6792579  16.1174223  63.8183857
 108.2756151  15.8930245  63.1040820 107.7367550  15.3758968  64.4209305
 112.4670967  18.0122287  54.1597448 111.8316800  18.0856913  54.8718352
 112.1368374  18.6015886  53.4816527 106.9713896  15.4741764  53.8558423
 106.8550154  14.7986667  54.5239507 107.0816156  14.9874138  53.0390576
 109.3145437  14.9351911  57.5605112 108.9503644  14.4082532  58.2718033
 110.1712553  14.5450380  57.3871597 111.7126257  18.4258790  64.2232291
 111.4126980  19.3283829  64.1148098 111.3677317  18.1590973  65.0753444
 105.1638739  14.8772587  60.2568995 104.2389235  14.7448801  60.4646687
 105.4123152  15.6566806  60.7538938 102.5247550  14.5205860  61.0912784
 102.6539931  14.7740339  62.0052196 101.8445001  15.1133568  60.7717439
 106.6947037  25.1903110  57.1903259 106.6171067  26.1410935  57.2691739
 106.0908681  24.8448983  57.8478185 107.4410639  15.1716429  69.4082592
 108.1825323  15.7101473  69.1317416 106.7347624  15.7982718  69.5654144
 112.9165979  17.3145569  68.0054754 113.3249335  16.8727980  67.2609386
 112.1943240  16.7398197  68.2588947 113.2394793  17.8746760  61.7607043
 112.6103656  18.0392474  61.0583111 112.8520455  18.2888370  62.5318007
 117.1184025  18.8101198  59.1151407 116.4335063  19.1900099  58.5648440
 117.2027875  19.4196524  59.8483354 114.3734957  16.4561157  65.7146750
 114.5851852  17.0992917  65.0381131 114.3264705  15.6223473  65.2468680
 108.7922755  17.6121168  59.0257128 109.2561101  17.8908871  58.2361750
 108.5279553  16.7104613  58.8430219 105.6846836  17.1592650  61.9636891
 106.2548193  17.5879918  61.3254376 106.2754948  16.8775234  62.6621077
 101.4716975  11.9927873  61.1363827 100.6816029  12.2485402  60.6603937
 101.9628223  12.8076211  61.2415867 115.4880785  19.3333112  63.8869107
 116.3098228  18.9313300  63.6051789 115.4843188  19.2301346  64.8385223
 103.4231721  12.3572452  58.0947303 102.6262884  12.4691147  58.6130799
 103.1957313  12.6959105  57.2288194 109.2537388  18.8817156  66.0429818
 109.3181821  19.3437563  66.8787990 108.5448312  18.2514520  66.1712128
  99.7554678  12.2458364  63.5678817 100.0062717  13.1305373  63.8336393
 100.2914227  12.0662965  62.7953909 108.9685406  20.5485263  55.9108798
 108.8331081  21.3936799  56.3393646 109.5095218  20.7504541  55.1474732
 102.4214803  18.0660701  56.4836723 102.9339324  18.8603951  56.6342288
 103.0737516  17.3686992  56.4170325 104.2309688  21.1826457  58.5659477
 104.4076316  22.1044422  58.3780460 105.0266521  20.8684877  58.9953856
 103.5162044  13.2291089  68.4421640 103.4015560  12.3276346  68.7428739
 102.6606562  13.4754786  68.0906456 110.5953882  21.1708830  70.0409140
 110.1517736  20.3845208  69.7230045 111.2571096  21.3587980  69.3753031
 105.3541003  22.7004631  64.5669819 105.9048429  22.5721695  63.7946813
 104.5152479  22.9999520  64.2164712 112.6935120  21.4511629  68.0690542
 112.6753596  22.2720511  67.5770811 113.6155040  21.3265705  68.2940683
 109.1508174  18.9655759  68.9114050 109.6836511  18.2044047  68.6813358
 108.6222256  18.6729411  69.6538204 100.3863720  16.3949355  57.2596294
 101.2238942  16.8046364  57.0430002 100.5641988  15.4548798  57.2296488
 110.5160887  18.0941751  56.4232862 109.9882249  17.3594511  56.1106099
 110.0148390  18.8716428  56.1772830 115.4953733  16.2890772  61.5399908
 114.8377408  16.9790033  61.6280037 116.2994132  16.6787204  61.8833895
 108.6613487  15.9121962  49.4267835 107.7540549  15.6811215  49.6258984
 109.1584519  15.1159581  49.6141817 111.5681566  24.6219469  52.3464521
 110.8943265  24.9251166  52.9549479 111.9547388  25.4248549  51.9969978
 109.8401721  16.0134557  53.9491825 108.9312940  15.7293589  54.0464295
 109.8696805  16.4333635  53.0895132 115.0720988  19.6241146  57.7182993
 114.6183315  18.7832056  57.7748183 114.4414955  20.2602544  58.0557773
 113.5153927  21.4617643  58.6532811 113.8076902  22.0222700  57.9345176
 114.0252548  21.7546204  59.4085970 100.4089891  13.7340071  57.9307027
 100.2114291  13.1409431  57.2058094  99.8536555  13.4292281  58.6482966
 109.5377809  17.5543300  51.2879904 109.0997239  16.8379159  50.8285541
 110.2788249  17.7819415  50.7264995 108.4787553  22.2397994  59.7426264
 108.4363731  22.4658840  58.8134796 109.3950251  22.0061368  59.8912065
 117.6820303  17.8977024  62.3567494 118.1156810  17.8052313  63.2050548
 118.3951884  17.8734525  61.7187510 106.5953353  19.1161023  59.5388227
 107.3893952  18.6211343  59.3370802 105.8845046  18.5878886  59.1755932
 111.4148198  21.4979118  63.8900594 111.4685220  22.0670055  64.6578310
 110.5462979  21.6681003  63.5254632 102.9036117  13.2604105  55.6147979
 101.9733705  13.1988560  55.8317942 102.9993589  12.7380057  54.8184621
 118.5435853  17.9400725  64.8900379 118.7371743  18.8446535  65.1359654
 118.4436471  17.4808144  65.7238964 113.6050961  18.0907468  70.4641260
 113.4536468  17.8618019  69.5471343 113.5955641  19.0478069  70.4772605
 110.3736298  15.6639380  65.4487526 111.3028358  15.8150540  65.2756494
 109.9527328  15.7523401  64.5936173 109.1724629  19.6890045  63.2186064
 109.0335715  19.3208829  64.0912002 108.3839226  20.2037684  63.0470022
 109.7672781  24.7899141  54.5611600 109.9424537  24.3187185  55.3757223
 109.0805569  25.4164908  54.7892861 110.7229845  19.0671648  60.6074902
 110.3879677  19.0272418  61.5032552 110.2233790  18.4016363  60.1345312
 104.6974089  14.4739278  66.1327483 104.5593886  13.7419516  66.7339022
 105.6079012  14.3848178  65.8511671 113.6589036  16.4127682  50.8811961
 113.0418207  15.6874510  50.7845014 113.1905525  17.1737042  50.5379036
 107.3256389  14.1859237  65.6211162 108.0356008  13.5452429  65.5797781
 107.2825697  14.4372132  66.5437343 115.3143168  21.1226590  68.5417742
 115.2555714  20.4385810  67.8748325 115.7162686  21.8645580  68.0898368
 104.3333867  27.9388504  61.3351461 104.5730465  28.5707028  62.0130479
 103.4903063  27.5876544  61.6216820 115.3160575  19.0866174  66.7731721
 114.4287354  18.7492096  66.8958120 115.8859126  18.3549205  67.0100487
  96.9689722  15.4190266  60.0974773  97.6560762  15.1051996  59.5095788
  96.8137851  16.3231631  59.8242024 108.8461729  23.7467627  63.7392965
 108.7731900  24.5522598  64.2512269 108.4039122  23.9459592  62.9140986
 108.6351508  22.9839397  57.2495786 107.8519030  23.5261077  57.3434011
 109.3344253  23.5013376  57.6490027 111.3060412  23.6454461  65.8951123
 112.0188384  24.2801925  65.8227025 110.8150441  23.7418327  65.0791125
 113.0277939  17.5505713  57.4668415 112.0934218  17.6707176  57.2973119
 113.2054607  16.6478180  57.2028425 106.3572326  21.3948904  66.7156694
 107.0581785  22.0285387  66.8686088 105.8867441  21.7363636  65.9552333
 114.4826721  19.7366854  55.0004601 114.7586565  19.6223448  55.9098475
 113.6131220  19.3384339  54.9616774 111.1180785  23.9853205  58.6437415
 111.3003180  23.1674861  59.1065167 111.9413771  24.2020897  58.2062305
 111.4522951  22.9121390  55.9052463 111.9810717  22.4013844  55.2922625
 111.7151170  22.5963920  56.7697996 110.2061185  14.6913323  71.0275281
 109.5301822  14.5907452  71.6977657 111.0288818  14.5352536  71.4911279
 101.9540044  20.9285259  63.6487797 102.5393480  20.1828947  63.7815701
 101.7564882  21.2389216  64.5324461 104.8078699  23.9636506  58.6650239
 104.1389074  24.4482634  58.1814279 104.6691569  24.2105727  59.5793618
  96.5457698  13.4990859  62.3692240  96.5841798  12.9654450  63.1629358
  96.0397991  12.9726065  61.7503217 108.9483967  25.9980250  65.2632897
 109.5002275  26.1611872  66.0281983 109.2890161  26.5884688  64.5912922
 113.7994842  20.8241508  71.1181552 114.3434746  21.4371466  70.6236507
 113.2181687  21.3821086  71.6348565 100.1766276  12.2254961  55.4446171
 100.4719717  11.3165640  55.3913225  99.2754312  12.2042701  55.1227174
 112.0852355  23.9462226  62.2496580 111.9603494  23.1451965  61.7407525
 112.7431446  24.4408419  61.7610550 114.1487263  21.7471246  63.8776130
 113.2017599  21.6276597  63.8054456 114.4970036  20.8593744  63.9602391
 111.1533696  21.5423962  60.0780482 111.0058659  20.6140669  60.2588052
 111.9787190  21.5644053  59.5937557 114.7567818  22.3652521  61.1645355
 115.6814366  22.1595382  61.0269806 114.5883122  22.1168922  62.0734696
 114.5463134  22.8838188  56.5207446 114.7200012  22.3184610  55.7681299
 115.0392026  23.6839083  56.3386936 100.3640094  14.8952857  64.5871005
  99.8193562  15.6712665  64.7191279 101.2419444  15.2423662  64.4290126
 115.5338307  22.2004952  53.6204344 116.2289212  22.8211645  53.8391659
 115.8761457  21.3500304  53.8956722 101.1506116  14.0222753  67.4801162
 100.4087852  14.1705389  68.0665792 100.8298860  14.2831019  66.6167911
 117.4329730  19.6504658  55.1491675 117.9581054  19.9891931  54.4240995
 117.3452083  18.7151673  54.9654810 109.0949779  23.5638732  67.2781552
 109.4036905  23.3187878  68.1504251 109.8925261  23.7685370  66.7900422
 109.1170391  25.7176641  59.5086928 108.6775381  25.2253020  60.2019785
 109.8678508  25.1749609  59.2679004 101.5962730  21.9088182  59.5111556
 102.4220750  21.6091954  59.1310200 101.2456782  21.1395805  59.9601345
 106.5644263  21.2614650  61.5809230 105.9424272  20.5985355  61.2811458
 107.2349130  21.2875782  60.8982878  99.7971335  19.8274509  60.4700490
  98.9603243  19.3996683  60.2884491  99.7694980  20.0206952  61.4071281
 117.1223636  20.2837562  70.4542873 116.3319180  20.2661700  69.9147373
 116.8856991  20.8225855  71.2091910 106.1257770  19.8118574  55.0567691
 106.2745890  20.4954038  54.4034363 106.9324213  19.7923664  55.5717146
 118.7439708  19.5526969  68.0117623 118.4524516  19.9156950  68.8481084
 118.1311839  18.8393978  67.8330955 103.8810403  15.8383751  56.0628759
 103.6356445  14.9346081  56.2608970 104.0506317  15.8400902  55.1208237
 109.6253175  22.3066704  52.5279438 109.0527142  22.9256891  52.0749910
 110.1985969  22.8566066  53.0619360 112.8450435  22.5903854  53.6588020
 113.7781108  22.5249416  53.8620896 112.7573648  23.4260121  53.2002553
 115.4738452  21.9069725  50.6191968 115.3952083  21.5729588  51.5127726
 116.2948119  22.3991492  50.6183440 109.8938666  17.6945263  71.3296147
 110.8141676  17.8723862  71.5236194 109.8588249  16.7501308  71.1775847
  99.1120831  12.8883857  60.2549422  98.7923616  12.0349165  59.9623796
  98.5654260  13.1032435  61.0107389 102.8900739  15.6046298  63.9718929
 103.1086749  16.5363405  63.9906962 103.3026513  15.2454272  64.7573732
  98.9809091  16.5086768  62.2242544  98.2872563  16.0940721  61.7112498
  99.7282082  16.5507305  61.6275963 107.6259874  14.6076642  72.1786739
 107.1426956  15.4077002  72.3850628 107.7120813  14.6184587  71.2254183
 100.8945834  16.4405022  60.1008559 100.8716522  16.5392709  59.1490442
 101.2046470  17.2870173  60.4225725 103.5533212  18.4981177  64.2155173
 104.5076465  18.4665119  64.1485105 103.3545735  18.0371801  65.0305399
 104.1432594  17.0682293  66.7825971 104.9625483  17.5626372  66.8060808
 104.4169402  16.1514261  66.7543538 101.9083441  24.0400796  61.2325371
 101.7737909  23.2801197  60.6663369 101.4915503  24.7641696  60.7654160
 113.0442404  19.2237720  50.2401946 113.7478254  19.4287722  50.8559602
 112.3205052  19.7914482  50.5051030 105.0652566  24.9370113  61.4443814
 104.9484951  25.8815546  61.3422504 104.2445013  24.6343675  61.8329613
 114.9529101  19.6620249  52.2900406 115.7874705  19.2301448  52.1077881
 114.7913444  19.4902263  53.2177301 114.6074993  16.1652362  53.6556746
 114.5523797  15.9996634  52.7145190 113.9821048  16.8728395  53.8118935
  99.3967508  11.4020427  67.4818168 100.0426372  10.8919381  67.9705393
  99.1884659  12.1389109  68.0561593 111.9220900  18.4701274  72.9810308
 112.7912060  18.6441927  72.6196943 111.4427652  19.2895691  72.8586038
 106.0907081  25.5898375  64.6599742 106.9934327  25.6221986  64.9766237
 105.8644451  24.6598826  64.6746078 107.8460683  24.3429362  61.3209821
 106.8956314  24.3431224  61.2074193 108.1493169  23.5962096  60.8045855
 120.3903082  30.1317328  62.3217108 120.0521594  30.0158393  61.4337643
 121.2592851  29.7308493  62.3018114 116.2489898  31.9852805  58.3113999
 115.6854763  31.8942742  57.5430286 116.1342293  31.1652709  58.7916491
 120.8722865  31.2852180  68.2803313 120.8611506  30.8904978  67.4083817
 121.0343505  30.5518253  68.8737085 113.7954330  33.4803996  61.1498219
 114.5875622  33.1394821  60.7344518 114.0350980  33.5898971  62.0700372
 115.7545084  32.7412910  54.0215598 116.5275960  32.1941897  53.8828474
 116.1070483  33.6057159  54.2330059 117.5930127  34.0689292  67.2282497
 117.3019993  34.9734923  67.1129163 118.2287111  34.1105820  67.9426567
 118.5186333  31.4466140  63.8183857 119.1149906  31.2222163  63.1040820
 118.5761305  30.7050886  64.4209305 118.0911362  28.9005576  51.6534048
 118.3436882  28.3787097  50.8917511 117.1535921  28.7371721  51.7560731
 117.8107651  30.8033682  53.8558423 117.6943909  30.1278585  54.5239507
 117.9209910  30.3166056  53.0390576 120.1539191  30.2643829  57.5605112
 119.7897399  29.7374450  58.2718033 121.0106307  29.8742298  57.3871597
 119.7944678  25.2933729  52.5566460 119.9619081  26.1613965  52.9236932
 119.6041848  25.4561010  51.6327750 116.0032493  30.2064504  60.2568995
 115.0782990  30.0740718  60.4646687 116.2516906  30.9858724  60.7538938
 119.7733899  27.7491386  53.5413127 119.6533525  28.1948437  54.3798608
 119.0786488  28.0976704  52.9826665 113.3641304  29.8497778  61.0912784
 113.4933685  30.1032257  62.0052196 112.6838755  30.4425486  60.7717439
 117.5340791  40.5195028  57.1903259 117.4564821  41.4702853  57.2691739
 116.9302435  40.1740900  57.8478185 120.0258021  27.6922893  69.8464625
 119.2491355  28.2516813  69.8367490 120.6648584  28.1779676  70.3679496
 118.2804394  30.5008347  69.4082592 119.0219078  31.0393391  69.1317416
 117.5741379  31.1274635  69.5654144 120.1090803  27.5810094  65.3788311
 120.9551998  28.0049507  65.5222960 120.0489441  26.9243718  66.0726874
 119.6316510  32.9413086  59.0257128 120.0954855  33.2200789  58.2361750
 119.3673308  32.0396530  58.8430219 116.5240591  32.4884567  61.9636891
 117.0941948  32.9171836  61.3254376 117.1148703  32.2067152  62.6621077
 118.5685396  29.0636238  55.8346693 119.2709439  29.5157282  56.3020619
 118.2366024  28.4220057  56.4626586 117.0165757  27.6547995  70.2097902
 116.3864418  28.3364276  70.4433299 116.9101845  27.5431076  69.2651041
 112.3110730  27.3219791  61.1363827 111.5209784  27.5777319  60.6603937
 112.8021977  28.1368129  61.2415867 114.2625475  27.6864370  58.0947303
 113.4656638  27.7983064  58.6130799 114.0351067  28.0251022  57.2288194
 120.0931143  34.2109073  66.0429818 120.1575575  34.6729480  66.8787990
 119.3842067  33.5806438  66.1712128 110.5948433  27.5750281  63.5678817
 110.8456471  28.4597291  63.8336393 111.1307981  27.3954883  62.7953909
 119.8079160  35.8777181  55.9108798 119.6724835  36.7228716  56.3393646
 120.3488973  36.0796458  55.1474732 116.2946500  21.9568761  72.5723153
 115.9013446  21.4034959  73.2470798 117.1112640  22.2679339  72.9629671
 113.2608558  33.3952619  56.4836723 113.7733078  34.1895869  56.6342288
 113.9131271  32.6978909  56.4170325 115.0703442  36.5118375  58.5659477
 115.2470071  37.4336340  58.3780460 115.8660276  36.1976794  58.9953856
 119.2114461  23.3726640  70.1643410 119.9524174  23.9733793  70.0847873
 119.4432384  22.6304277  69.6061453 114.3555799  28.5583007  68.4421640
 114.2409314  27.6568264  68.7428739 113.5000317  28.8046704  68.0906456
 116.1934758  38.0296549  64.5669819 116.7442183  37.9013612  63.7946813
 115.3546234  38.3291438  64.2164712 119.9901929  34.2947677  68.9114050
 120.5230266  33.5335965  68.6813358 119.4616010  34.0021328  69.6538204
 111.2257475  31.7241273  57.2596294 112.0632697  32.1338281  57.0430002
 111.4035742  30.7840715  57.2296488 120.7069018  24.2366055  58.0065365
 119.8510614  23.8472905  57.8271004 121.1195969  24.3158015  57.1465151
 118.4811050  21.8551127  61.4123107 119.3464047  21.6593936  61.0528996
 118.5488559  21.6261479  62.3392463 121.3554642  33.4233669  56.4232862
 120.8276003  32.6886429  56.1106099 120.8542144  34.2008345  56.1772830
 116.0873369  24.0853335  58.7839474 116.6617121  23.8628517  58.0512666
 116.6744352  24.1542030  59.5368075 116.4142956  26.1157796  52.8035359
 115.5780269  26.4532483  53.1244634 116.2747726  25.9806776  51.8662496
 118.3896037  20.9594584  57.5114543 117.7360449  20.6443601  56.8871158
 118.3476511  20.3370325  58.2374366 119.5007242  31.2413879  49.4267835
 118.5934304  31.0103133  49.6258984 119.9978274  30.4451499  49.6141817
 120.6795475  31.3426474  53.9491825 119.7706695  31.0585507  54.0464295
 120.7090559  31.7625553  53.0895132 111.2483646  29.0631988  57.9307027
 111.0508045  28.4701349  57.2058094 110.6930310  28.7584199  58.6482966
 119.2280369  28.9555095  60.0501620 119.2828979  28.0028931  59.9744097
 118.4171571  29.1114534  60.5342919 120.3771563  32.8835218  51.2879904
 119.9390993  32.1671077  50.8285541 121.1182004  33.1111333  50.7264995
 117.1672729  27.5732155  57.8091999 116.3540595  27.8726325  58.2157191
 117.6631723  27.1787843  58.5266482 119.3181307  37.5689912  59.7426264
 119.2757486  37.7950758  58.8134796 120.2344006  37.3353286  59.8912065
 116.6586804  25.1450510  63.4253234 117.2986183  25.0039269  62.7276198
 115.8264335  24.8585024  63.0491836 117.4347108  34.4452941  59.5388227
 118.2287706  33.9503261  59.3370802 116.7238800  33.9170804  59.1755932
 113.7429871  28.5896022  55.6147979 112.8127459  28.5280478  55.8317942
 113.8387343  28.0671975  54.8184621 113.6615420  25.1150835  58.2026221
 113.9222238  26.0296168  58.0935382 114.4832593  24.6475278  58.3522834
 115.1340346  26.5288592  65.3725046 115.8063399  26.3205954  64.7237695
 114.3070132  26.3310678  64.9330278 120.0118384  35.0181963  63.2186064
 119.8729470  34.6500747  64.0912002 119.2232980  35.5329602  63.0470022
 120.6066536  40.1191059  54.5611600 120.7818292  39.6479102  55.3757223
 119.9199324  40.7456825  54.7892861 121.5623599  34.3963565  60.6074902
 121.2273432  34.3564335  61.5032552 121.0627545  33.7308281  60.1345312
 115.5367843  29.8031195  66.1327483 115.3987641  29.0711434  66.7339022
 116.4472766  29.7140095  65.8511671 118.1650144  29.5151155  65.6211162
 118.8749762  28.8744347  65.5797781 118.1219452  29.7664049  66.5437343
 116.8779078  26.5016372  67.4406802 116.3416435  26.0507111  68.0928398
 116.2895786  26.6362281  66.6977266 115.1727621  43.2680422  61.3351461
 115.4124219  43.8998946  62.0130479 114.3296818  42.9168462  61.6216820
 116.2881337  25.9605024  50.0033266 115.4110803  25.8393825  49.6395512
 116.7639090  25.1691102  49.7512154 107.8083477  30.7482184  60.0974773
 108.4954517  30.4343914  59.5095788 107.6531605  31.6523548  59.8242024
 112.6118199  25.6372380  64.5259796 112.5276388  25.0298050  63.7910206
 111.7900905  26.1281398  64.5269293 119.6855483  39.0759544  63.7392965
 119.6125654  39.8814516  64.2512269 119.2432876  39.2751510  62.9140986
 119.4745263  38.3131314  57.2495786 118.6912785  38.8552994  57.3434011
 120.1738008  38.8305294  57.6490027 119.3676881  26.2643327  59.6201676
 118.9974669  25.7114367  60.3082582 119.8635974  25.6601460  59.0676676
 117.1966080  36.7240822  66.7156694 117.8975540  37.3577305  66.8686088
 116.7261195  37.0655553  65.9552333 112.7933798  36.2577177  63.6487797
 113.3787235  35.5120865  63.7815701 112.5958637  36.5681133  64.5324461
 115.6472453  39.2928424  58.6650239 114.9782829  39.7774552  58.1814279
 115.5085323  39.5397645  59.5793618 107.3851453  28.8282777  62.3692240
 107.4235552  28.2946368  63.1629358 106.8791746  28.3017982  61.7503217
 119.7877722  41.3272168  65.2632897 120.3396030  41.4903789  66.0281983
 120.1283915  41.9176606  64.5912922 114.7642215  23.6747317  65.8654782
 114.8283542  24.5362148  65.4532180 114.7009335  23.0621319  65.1327141
 114.2394488  25.7470450  69.5127816 114.8666526  25.3647527  70.1265341
 113.3822407  25.5284652  69.8783509 111.0160030  27.5546879  55.4446171
 111.3113472  26.6457558  55.3913225 110.1148066  27.5334619  55.1227174
 114.5454277  25.6302876  61.4273720 113.8240863  26.2438843  61.2881193
 115.3347533  26.1660641  61.3490366 117.3480591  22.9657302  67.7014372
 117.8714993  23.2119599  68.4640681 117.1292924  23.7977337  67.2817509
 112.7447872  25.2360977  55.5685496 112.4160578  24.3558356  55.3860602
 113.0987243  25.1808645  56.4561886 115.8589695  25.5233947  55.9360974
 116.1985768  26.0519868  55.2139582 116.3061816  25.8614353  56.7119541
 118.5533136  23.9070997  65.3864042 118.2129956  23.1078810  65.7884722
 117.8472142  24.2072708  64.8140875 119.2049608  20.9920310  63.8391365
 120.0275677  20.5180788  63.7170255 119.4487671  21.7710793  64.3390051
 117.8457842  24.0208568  54.1354267 118.5666205  24.3989821  53.6317984
 117.2223146  24.7397445  54.2389245 116.7288187  27.6839430  61.6483344
 116.5832767  27.9979733  62.5407625 116.2513390  28.3024331  61.0954242
 118.5884569  24.6741978  61.6964233 118.5746138  23.7783072  61.3596531
 119.3056998  24.6812642  62.3302519 120.4410700  25.1079319  63.7417361
 120.1828478  26.0296389  63.7401691 119.9095741  24.7109753  64.4317825
 111.2033849  30.2244775  64.5871005 110.6587317  31.0004583  64.7191279
 112.0813199  30.5715579  64.4290126 117.9921465  23.5556359  56.9651803
 118.1137377  22.6273005  57.1642691 117.7023508  23.5695045  56.0530119
 120.8612656  21.2411269  60.1018523 120.8834353  21.3050602  59.1470503
 121.2780715  20.4015778  60.2959029 111.9899871  29.3514671  67.4801162
 111.2481607  29.4997306  68.0665792 111.6692615  29.6122937  66.6167911
 119.9343533  38.8930649  67.2781552 120.2430660  38.6479796  68.1504251
 120.7319015  39.0977288  66.7900422 119.9564145  41.0468559  59.5086928
 119.5169136  40.5544938  60.2019785 120.7072262  40.5041527  59.2679004
 112.4356484  37.2380100  59.5111556 113.2614504  36.9383872  59.1310200
 112.0850536  36.4687722  59.9601345 117.4038017  36.5906568  61.5809230
 116.7818027  35.9277273  61.2811458 118.0742884  36.6167700  60.8982878
 110.6365089  35.1566426  60.4700490 109.7996998  34.7288601  60.2884491
 110.6088735  35.3498870  61.4071281 117.4762545  25.0688356  71.1741736
 117.5250700  25.9450479  70.7919506 118.0185059  24.5265749  70.6013379
 116.9651524  35.1410491  55.0567691 117.1139645  35.8245956  54.4034363
 117.7717968  35.1215581  55.5717146 119.7061833  25.8219728  67.9288095
 118.8365143  26.1153294  67.6570683 119.9421314  26.4060173  68.6495358
 114.7204157  31.1675669  56.0628759 114.4750199  30.2637999  56.2608970
 114.8900072  31.1692819  55.1208237 113.9899805  26.9004027  53.5614921
 113.2969050  26.9748382  52.9054957 113.7451557  26.1364370  54.0836438
 120.4646930  37.6358622  52.5279438 119.8920897  38.2548809  52.0749910
 121.0379724  38.1857983  53.0619360 119.0336646  26.8969411  49.8050376
 118.1268101  26.6002524  49.8813089 119.3112627  26.5999229  48.9384662
 109.9514586  28.2175774  60.2549422 109.6317370  27.3641083  59.9623796
 109.4048014  28.4324352  61.0107389 113.7294493  30.9338215  63.9718929
 113.9480503  31.8655323  63.9906962 114.1420267  30.5746190  64.7573732
 120.6498711  21.4406301  55.9594617 119.8399440  21.0953386  56.3349863
 121.3383128  21.1313844  56.5482229 118.6022359  26.5071421  73.3621678
 118.5019086  27.4565778  73.2933769 118.3843901  26.1789660  72.4897748
 117.8035430  23.7556346  49.9462355 118.6654594  24.0811244  50.2058172
 117.9885774  22.9687842  49.4335421 109.8202846  31.8378686  62.2242544
 109.1266317  31.4232639  61.7112498 110.5675837  31.8799222  61.6275963
 118.4653629  29.9368560  72.1786739 117.9820711  30.7368920  72.3850628
 118.5514568  29.9476505  71.2254183 111.7339588  31.7696940  60.1008559
 111.7110277  31.8684627  59.1490442 112.0440225  32.6162090  60.4225725
 114.3926966  33.8273095  64.2155173 115.3470220  33.7957037  64.1485105
 114.1939490  33.3663718  65.0305399 114.9826348  32.3974211  66.7825971
 115.8019237  32.8918289  66.8060808 115.2563156  31.4806179  66.7543538
 112.7477195  39.3692714  61.2325371 112.6131663  38.6093115  60.6663369
 112.3309257  40.0933614  60.7654160 115.9046321  40.2662031  61.4443814
 115.7878705  41.2107464  61.3422504 115.0838767  39.9635593  61.8329613
 110.2361263  26.7312345  67.4818168 110.8820126  26.2211299  67.9705393
 110.0278414  27.4681026  68.0561593 118.7564873  20.9952389  53.2342064
 118.7443543  21.9394229  53.3910335 119.6488295  20.8122535  52.9401525
 116.9300835  40.9190293  64.6599742 117.8328082  40.9513903  64.9766237
 116.7038205  39.9890744  64.6746078 118.6854437  39.6721280  61.3209821
 117.7350068  39.6723141  61.2074193 118.9886923  38.9254014  60.8045855
 114.5758754  23.8779962  71.5793182 115.4390215  23.5216766  71.7896507
 114.0024164  23.5393856  72.2668586 118.6477231  46.0774101  60.0974773
 119.3348271  45.7635831  59.5095788 118.4925360  46.9815466  59.8242024
 118.2245207  44.1574695  62.3692240 118.2629307  43.6238285  63.1629358
 117.7185500  43.6309900  61.7503217 121.4758844  50.4858344  60.4700490
 120.6390752  50.0580518  60.2884491 121.4482489  50.6790787  61.4071281
 120.7908340  43.5467692  60.2549422 120.4711125  42.6933000  59.9623796
 120.2441769  43.7616270  61.0107389 120.6596600  47.1670603  62.2242544
 119.9660072  46.7524556  61.7112498 121.4069591  47.2091140  61.6275963
 117.5340793  17.5257150  43.9148565 117.4564822  18.4764975  43.9937046
 116.9302436  17.1803023  44.5723491 115.1727622  20.2742544  48.0596767
 115.4124221  20.9061069  48.7375786 114.3296819  19.9230584  48.3462126
 115.6472455  16.2990547  45.3895546 114.9782830  16.7836674  44.9059586
 115.5085324  16.5459767  46.3038924 119.7877723  18.3334290  51.9878204
 120.3396031  18.4965912  52.7527289 120.1283917  18.9238728  51.3158229
 112.7477196  16.3754837  47.9570677 112.6131664  15.6155238  47.3908676
 112.3309259  17.0995737  47.4899466 115.9046322  17.2724154  48.1689120
 115.7878706  18.2169586  48.0667810 115.0838769  16.9697715  48.5574919
 116.9300836  17.9252416  51.3845049 117.8328083  17.9576026  51.7011544
 116.7038206  16.9952867  51.3991384 118.6477232  23.0836224  46.8220079
 119.3348272  22.7697954  46.2341095 118.4925361  23.9877589  46.5487331
 118.2245209  21.1636817  49.0937546 118.2629308  20.6300408  49.8874665
 117.7185501  20.6372023  48.4748524 121.4758845  27.4920466  47.1945797
 120.6390753  27.0642641  47.0129798 121.4482491  27.6852910  48.1316588
 120.7908342  20.5529815  46.9794729 120.4711126  19.6995123  46.6869103
 120.2441770  20.7678393  47.7352696 120.6596602  24.1732726  48.9487850
 119.9660073  23.7586679  48.4357805 121.4069593  24.2153263  48.3521269
  24.8531524  62.9449268 118.7237985  24.1793223  63.2480964 119.3322943
  25.2397346  63.7478348 118.3743442  28.8188265  60.5234751 119.9977808
  29.5139169  61.1441444 120.2165123  29.1611415  59.6730102 120.2730186
  22.9103133  60.6296503 118.9052902  22.3377100  61.2486690 118.4523374
  23.4835927  61.1795864 119.4392824  26.1300393  60.9133653 120.0361484
  27.0631066  60.8479215 120.2394360  26.0423606  61.7489920 119.5776017
  28.7588410  60.2299523 116.9965432  28.6802041  59.8959387 117.8901189
  29.5798076  60.7221291 116.9956904  26.3292361  57.5467519 116.6175410
  27.0328212  57.7517521 117.2333065  25.6055010  58.1144281 116.8824493
  28.2379059  57.9850048 118.6673870  29.0724663  57.5531246 118.4851345
  28.0763402  57.8132062 119.5950764  36.8663334  68.5019699 128.7629047
  37.5041744  68.3826446 128.0592387  36.7484177  69.4500543 128.8216999
  29.5339856  70.3082603 124.6887462  28.9704721  70.2172540 123.9203750
  29.4192251  69.4882508 125.1689955  35.1139415  73.9753571 120.0001927
  34.4627394  74.5607652 119.6135941  35.9083777  74.5059766 120.0596965
  29.0395042  71.0642708 120.3989062  29.8125918  70.5171695 120.2601937
  29.3920441  71.9286958 120.6103523  31.3761320  67.2235374 118.0307511
  31.6286840  66.7016896 117.2690974  30.4385879  67.0601520 118.1334195
  36.4204602  66.2271153 125.8382255  37.2067692  65.8090576 125.4872672
  36.6843307  67.1317245 126.0063903  36.5914680  71.6644003 120.5370912
  35.9560513  71.7378630 121.2491816  36.2612086  72.2537602 119.8589991
  41.8213030  66.1646386 126.7415233  42.5538201  65.5945603 126.9753063
  41.0652385  65.7767986 127.1821739  31.0957608  69.1263480 120.2331886
  30.9793866  68.4508384 120.9012971  31.2059868  68.6395854 119.4164039
  33.4389149  68.5873627 123.9378576  33.0747356  68.0604248 124.6491497
  34.2956265  68.1972097 123.7645061  33.0794636  63.6163527 118.9339924
  33.2469039  64.4843764 119.3010395  32.8891805  63.7790809 118.0101213
  33.0583857  66.0721185 119.9186591  32.9383482  66.5178235 120.7572071
  32.3636445  66.4206502 119.3600129  30.8190749  78.8424826 123.5676722
  30.7414779  79.7932652 123.6465203  30.2152393  78.4970699 124.2251649
  38.7568923  66.5442658 120.7466925  39.6686779  66.7770045 120.5714623
  38.2478570  67.1279702 120.1842004  37.3638506  71.5268476 128.1380507
  36.7347368  71.6914190 127.4356574  36.9764168  71.9410086 128.9091471
  41.2427737  72.4622914 125.4924870  40.5578776  72.8421816 124.9421904
  41.3271587  73.0718241 126.2256818  32.9166467  71.2642884 125.4030592
  33.3804813  71.5430587 124.6135214  32.6523266  70.3626329 125.2203682
  31.8535354  67.3866037 122.2120157  32.5559397  67.8387080 122.6794083
  31.5215982  66.7449856 122.8400050  39.6124497  72.9854829 130.2642571
  40.4341941  72.5835016 129.9825253  39.6086900  72.8823063 131.2158687
  47.7030490  69.3293577 126.6127543  46.9494198  68.7600975 126.4571547
  47.8378031  69.2956242 127.5598177  33.0929118  74.2006979 122.2882262
  32.9574793  75.0458515 122.7167110  33.6338931  74.4026257 121.5248196
  26.5458516  71.7182417 122.8610187  27.0583036  72.5125668 123.0115752
  27.1981228  71.0208708 122.7943789  28.3553400  74.8348174 124.9432940
  28.5320029  75.7566138 124.7553924  29.1510234  74.5206593 125.3727320
  24.5107432  70.0471072 123.6369758  25.3482654  70.4568080 123.4203465
  24.6885700  69.1070514 123.6069951  36.4071864  67.7146152 119.3253591
  35.8918488  68.4850757 119.5641978  36.1349173  67.0411289 119.9486652
  33.9918975  62.5595853 124.3838829  33.1360572  62.1702704 124.2044468
  34.4045927  62.6387814 123.5238614  41.3806139  70.4678507 121.2606764
  40.6035581  70.1289667 120.8161926  42.0597620  70.4731130 120.5861729
  36.1958168  65.5873244 121.1513372  35.8908303  65.9019394 122.0023515
  37.1488610  65.6654664 121.1940705  34.6404599  71.7463468 122.8006326
  34.1125961  71.0116227 122.4879563  34.1392102  72.5238144 122.5546294
  39.6197445  69.9412488 127.9173372  38.9621120  70.6311750 128.0053501
  40.4237845  70.3308920 128.2607358  38.4302904  68.2956861 125.9677314
  38.9434786  68.9286853 126.4699024  39.0804128  67.6958056 125.6020674
  29.6992914  64.4387595 119.1808823  28.8630226  64.7762282 119.5018097
  29.5597684  64.3036575 118.2435959  32.7857200  69.5643678 115.8041299
  31.8784261  69.3332931 116.0032448  33.2828232  68.7681297 115.9915280
  35.6925278  78.2741185 118.7237985  35.0186977  78.5772882 119.3322943
  36.0791100  79.0770266 118.3743442  35.6918783  67.1697732 123.3438335
  36.4390602  67.6819129 123.0345457  35.9610372  66.8481785 124.2042728
  33.9645433  69.6656273 120.3265289  33.0556652  69.3815306 120.4237759
  33.9940517  70.0855351 119.4668596  39.1964700  73.2762862 124.0956456
  38.7427028  72.4353772 124.1521647  38.5658667  73.9124261 124.4331237
  38.1397620  64.2054848 125.3257124  37.4020377  63.6932235 125.6567366
  38.3924394  63.7655230 124.5140401  37.6397640  75.1139359 125.0306275
  37.9320614  75.6744416 124.3118640  38.1496260  75.4067920 125.7859434
  32.5130327  67.2784894 126.4275084  32.5678937  66.3258730 126.3517561
  31.7021529  67.4344333 126.9116383  33.6621521  71.2065017 117.6653367
  33.2240951  70.4900876 117.2059005  34.4031962  71.4341131 117.1038459
  30.4522687  65.8961953 124.1865463  29.6390553  66.1956124 124.5930655
  30.9481681  65.5017642 124.9039945  32.6031265  75.8919710 126.1199728
  32.5607444  76.1180556 125.1908260  33.5193964  75.6583085 126.2685529
  41.7794636  69.4822214 123.7229686  41.6412534  69.6723810 122.7950875
  41.4230854  70.2441596 124.1797737  41.8064015  71.5498741 128.7340958
  42.2400522  71.4574030 129.5824012  42.5195596  71.5256241 128.0960973
  30.7197066  72.7682739 125.9161690  31.5137664  72.2733059 125.7144265
  30.0088758  72.2400602 125.5529396  27.0279829  66.9125821 121.9921443
  26.0977417  66.8510276 122.2091405  27.1237301  66.3901774 121.1958084
  42.6679565  71.5922441 131.2673843  42.8615455  72.4968252 131.5133118
  42.5680183  71.1329860 132.1012428  33.8916494  78.4420858 120.9385064
  34.0668249  77.9708901 121.7530687  33.2049282  79.0686624 121.1666325
  34.8473557  72.7193364 126.9848365  34.5123389  72.6794134 127.8806015
  34.3477503  72.0538080 126.5118776  37.7832748  70.0649398 117.2585425
  37.1661919  69.3396226 117.1618478  37.3149237  70.8258758 116.9152499
  29.5731294  64.2834823 116.3806729  28.6960761  64.1623623 116.0168976
  30.0489047  63.4920901 116.1285618  32.7595220  76.6361113 123.6269250
  31.9762742  77.1782793 123.7207474  33.4587966  77.1535093 124.0263491
  43.9221628  68.1496108 127.9121747  43.9111504  69.0320823 127.5415680
  43.0539007  67.7967659 127.7176284  37.1521651  71.2027430 123.8441879
  36.2177930  71.3228892 123.6746583  37.3298320  70.2999896 123.5801888
  40.5394203  67.0444749 124.3791913  41.0054655  67.8772740 124.3052215
  40.9901703  66.5789730 125.0837171  38.6070434  73.3888570 121.3778065
  38.8830278  73.2745165 122.2871939  37.7374932  72.9906055 121.3390238
  35.2424498  77.6374921 125.0210878  35.4246892  76.8196577 125.4838631
  36.0657484  77.8542613 124.5835768  35.5766663  76.5643106 122.2825927
  36.1054430  76.0535561 121.6696089  35.8394883  76.2485636 123.1471460
  24.3009988  65.8776678 121.8219635  24.5963429  64.9687356 121.7686689
  23.3998024  65.8564417 121.5000637  36.2096067  77.5983942 128.6270043
  36.0847206  76.7973682 128.1180989  36.8675158  78.0930135 128.1384013
  38.2730975  75.3992962 130.2549593  37.3261311  75.2798313 130.1827920
  38.6213748  74.5115460 130.3375855  35.2777409  75.1945678 126.4553946
  35.1302371  74.2662386 126.6361516  36.1030902  75.2165769 125.9711021
  29.1439653  63.8463745 122.3134438  29.4835725  64.3749666 121.5913046
  29.5911773  64.1844151 123.0893004  38.8811531  76.0174237 127.5418818
  39.8058078  75.8117098 127.4043270  38.7126834  75.7690638 128.4508160
  31.1307800  62.3438367 120.5127731  31.8516163  62.7219620 120.0091447
  30.5073104  63.0627244 120.6162708  35.2738923  63.0483516 121.4486063
  35.4902537  63.9308154 121.1474891  34.7932990  62.6569729 120.7191705
  38.6706847  76.5359904 122.8980910  38.8443724  75.9706327 122.1454762
  39.1635738  77.3360799 122.7160400  44.5246238  69.2996327 124.5171210
  44.9677384  68.5503652 124.1190333  43.6472748  69.2906464 124.1344942
  39.6582019  75.8526669 119.9977808  40.3532924  76.4733361 120.2165123
  40.0005169  75.0022020 120.2730186  41.5573442  73.3026374 121.5265139
  42.0824766  73.6413647 120.8014459  41.4695795  72.3673390 121.3428274
  30.2501482  73.4640290 121.4341154  30.3989603  74.1475754 120.7807827
  31.0567926  73.4445380 121.9490610  44.0679103  70.7701566 126.9093657
  44.9025994  71.2091370 127.0731218  44.2038231  70.2940219 126.0901903
  28.0054115  69.4905468 122.4402223  27.7600157  68.5867798 122.6382433
  28.1750030  69.4922618 121.4981701  27.2749763  65.2233825 119.9388385
  26.5819008  65.2978180 119.2828421  27.0301515  64.4594169 120.4609902
  33.7496888  75.9588420 118.9052902  33.1770855  76.5778608 118.4523374
  34.3229681  76.5087782 119.4392824  36.9694147  76.2425571 120.0361484
  37.9024821  76.1771132 120.2394360  36.8817360  77.0781837 119.5776017
  39.5982164  75.5591441 116.9965432  39.5195796  75.2251304 117.8901189
  40.4191831  76.0513209 116.9956904  42.2960355  68.4253180 130.2041750
  42.2636675  67.4869181 130.3901434  42.9060979  68.5037217 129.4707575
  34.1343686  67.2949233 116.2468954  35.0802791  67.1655441 116.3157372
  33.7557931  66.5563895 116.7238382  48.1136905  69.4869187 129.3447787
  48.8440294  69.2254475 129.9055490  47.5043851  68.7497909 129.3849855
  46.1952202  67.6277050 129.9422238  45.4685366  67.4933015 129.3338730
  45.7799489  67.9353878 130.7478956  32.3186603  65.2199210 116.1823839
  31.4118059  64.9232322 116.2586553  32.5962584  64.9229028 115.3158126
  33.9348669  59.7636099 122.3368081  33.1249397  59.4183184 122.7123327
  34.6233086  59.4543643 122.9255692  31.0885388  62.0786145 116.3235819
  31.9504552  62.4041043 116.5831636  31.2735732  61.2917641 115.8108884
  39.2418024  60.9514671 123.4671042  38.6616693  61.6099475 123.0849094
  38.9753957  60.1292016 123.0558459  38.0242902  63.1114762 122.5227390
  37.1368757  63.3964412 122.3047585  38.4396892  62.9508525 121.6754667
  41.3757439  63.1361283 126.2381729  42.1517829  63.6257735 126.5106346
  40.6505573  63.5619337 126.6953599  43.8129997  63.8488902 127.2955670
  44.4074488  63.6084638 126.5848978  43.8856581  63.1296032 127.9229206
  37.1686116  72.8759436 116.6175410  37.8721966  73.0809439 117.2333065
  36.4448765  73.4436198 116.8824493  37.9983926  68.6269298 122.7377680
  37.9419128  69.0837849 121.8985312  38.5512269  67.8659982 122.5600523
  41.8088732  64.4159029 123.5627800  41.5525666  64.0155665 124.3936007
  41.1841600  65.1302823 123.4377939  46.1201070  67.1555103 126.0699091
  45.5600628  67.2248292 126.8430653  45.5144573  66.9796087 125.3498587
  39.0772813  73.3141965 118.6673870  39.9118417  72.8823164 118.4851345
  38.9157156  73.1423979 119.5950764  38.7318706  69.8174079 120.0330209
  38.6767509  69.6518350 119.0918653  38.1064761  70.5250112 120.1892399
  32.0414831  59.3182188 119.6115528  32.0293501  60.2624028 119.7683798
  32.9338253  59.1352333 119.3174989  40.3733610  85.6374521 124.6887462
  39.8098476  85.5464458 123.9203750  40.2586005  84.8174426 125.1689955
  45.9533169  89.3045489 120.0001927  45.3021149  89.8899569 119.6135941
  46.7477532  89.8351684 120.0596965  39.8788796  86.3934626 120.3989062
  40.6519672  85.8463613 120.2601937  40.2314195  87.2578875 120.6103523
  42.2155074  82.5527292 118.0307511  42.4680595  82.0308813 117.2690974
  41.2779633  82.3893438 118.1334195  47.2598357  81.5563070 125.8382255
  48.0461446  81.1382494 125.4872672  47.5237061  82.4609163 126.0063903
  47.4308434  86.9935921 120.5370912  46.7954267  87.0670547 121.2491816
  47.1005841  87.5829520 119.8589991  41.9351363  84.4555398 120.2331886
  41.8187621  83.7800301 120.9012971  42.0453623  83.9687772 119.4164039
  44.2782904  83.9165545 123.9378576  43.9141111  83.3896166 124.6491497
  45.1350020  83.5264014 123.7645061  43.9188391  78.9455445 118.9339924
  44.0862793  79.8135681 119.3010395  43.7285560  79.1082727 118.0101213
  40.1276205  83.8586221 126.6342459  39.2026702  83.7262435 126.8420151
  40.3760619  84.6380440 127.1312401  43.8977612  81.4013102 119.9186591
  43.7777237  81.8470153 120.7572071  43.2030200  81.7498420 119.3600129
  49.5962678  81.8734576 120.7466925  50.5080534  82.1061962 120.5714623
  49.0872325  82.4571620 120.1842004  46.9398653  78.0492611 128.9956786
  46.0783132  78.3473865 129.2873524  46.9661087  78.2663010 128.0637819
  43.7560222  86.5934802 125.4030592  44.2198567  86.8722505 124.6135214
  43.4917020  85.6918247 125.2203682  42.6929108  82.7157954 122.2120157
  43.3953151  83.1678998 122.6794083  42.3609736  82.0741773 122.8400050
  36.4354442  80.9741507 127.5137290  35.6453496  81.2299036 127.0377401
  36.9265689  81.7889845 127.6189331  38.3869187  81.3386086 124.4720767
  37.5900351  81.4504781 124.9904263  38.1594780  81.6772739 123.6061658
  43.9322873  89.5298897 122.2882262  43.7968547  90.3750433 122.7167110
  44.4732685  89.7318175 121.5248196  37.3852270  87.0474335 122.8610187
  37.8976791  87.8417585 123.0115752  38.0374983  86.3500626 122.7943789
  39.1947155  90.1640091 124.9432940  39.3713783  91.0858056 124.7553924
  39.9903988  89.8498511 125.3727320  47.2815336  73.0529459 130.8181155
  46.9379606  73.9431101 130.7420266  47.6494299  72.8631117 129.9550740
  35.3501187  85.3762989 123.6369758  36.1876409  85.7859998 123.4203465
  35.5279454  84.4362432 123.6069951  47.2465619  83.0438070 119.3253591
  46.7312242  83.8142675 119.5641978  46.9742927  82.3703206 119.9486652
  44.8312730  77.8887771 124.3838829  43.9754326  77.4994621 124.2044468
  45.2439682  77.9679732 123.5238614  46.3611877  75.4234114 128.7830389
  45.8576672  75.3864249 127.9698194  46.6542483  76.3326857 128.8427045
  42.6054762  75.5072844 127.7896570  43.4707759  75.3115652 127.4302460
  42.6732271  75.2783196 128.7165927  52.2199893  85.7970425 121.2606764
  51.4429336  85.4581584 120.8161926  52.8991374  85.8023048 120.5861729
  47.0351922  80.9165162 121.1513372  46.7302058  81.2311311 122.0023515
  47.9882364  80.9946582 121.1940705  45.4798354  87.0755385 122.8006326
  44.9519715  86.3408145 122.4879563  44.9785857  87.8530062 122.5546294
  40.2117082  77.7375052 125.1612937  40.7860833  77.5150233 124.4286130
  40.7988064  77.8063746 125.9141539  40.5386669  79.7679513 119.1808823
  39.7023981  80.1054199 119.5018097  40.3991438  79.6328493 118.2435959
  42.5139749  74.6116301 123.8888007  41.8604162  74.2965318 123.2644621
  42.4720223  73.9892041 124.6147830  43.6250954  84.8935596 115.8041299
  42.7178016  84.6624849 116.0032448  44.1221986  84.0973215 115.9915280
  46.5319033  93.6033103 118.7237985  45.8580732  93.9064800 119.3322943
  46.9184855  94.4062183 118.3743442  45.7477490  81.0998234 128.2135654
  44.8300051  81.3213181 128.0557342  46.1637633  81.1744545 127.3547362
  46.5312537  82.4989650 123.3438335  47.2784356  83.0111047 123.0345457
  46.8004127  82.1773703 124.2042728  44.8039188  84.9948191 120.3265289
  43.8950407  84.7107223 120.4237759  44.8334271  85.4147269 119.4668596
  48.9791375  79.5346766 125.3257124  48.2414131  79.0224152 125.6567366
  49.2318148  79.0947148 124.5140401  49.0803002  72.3123018 125.9198893
  49.3861879  71.4520382 125.6324808  49.8055607  72.9040638 125.7197887
  35.3727358  82.7153705 124.3080491  35.1751758  82.1223065 123.5831558
  34.8174022  82.4105915 125.0256430  43.3524082  82.6076811 126.4275084
  43.4072691  81.6550648 126.3517561  42.5415284  82.7636250 126.9116383
  44.5015275  86.5356934 117.6653367  44.0634705  85.8192793 117.2059005
  45.2425716  86.7633049 117.1038459  41.2916442  81.2253871 124.1865463
  40.4784307  81.5248041 124.5930655  41.7875436  80.8309560 124.9039945
  52.6188390  84.8114131 123.7229686  52.4806289  85.0015727 122.7950875
  52.2624609  85.5733514 124.1797737  40.7830516  78.7972226 129.8026698
  41.4229896  78.6560986 129.1049661  39.9508047  78.5106740 129.4265300
  41.5590820  88.0974657 125.9161690  42.3531419  87.6024977 125.7144265
  40.8482513  87.5692520 125.5529396  37.8673584  82.2417739 121.9921443
  36.9371172  82.1802194 122.2091405  37.9631056  81.7193691 121.1958084
  37.7859133  78.7672551 124.5799685  38.0465950  79.6817885 124.4708845
  38.6076305  78.2996994 124.7296298  44.7310248  93.7712775 120.9385064
  44.9062004  93.3000819 121.7530687  44.0443036  94.3978542 121.1666325
  48.6226503  85.3941316 117.2585425  48.0055674  84.6688144 117.1618478
  48.1542991  86.1550676 116.9152499  40.4125049  79.6126740 116.3806729
  39.5354515  79.4915541 116.0168976  40.8882802  78.8212819 116.1285618
  46.9085625  77.7747660 126.2703455  47.4054325  77.0217622 125.9504525
  46.1372607  77.8111977 125.7046665  47.9915406  86.5319347 123.8441879
  47.0571684  86.6520810 123.6746583  48.1692074  85.6291814 123.5801888
  43.4920594  79.9165043 125.9975140  43.1218381  79.3636083 126.6856045
  43.9879686  79.3123176 125.4450140  51.3787957  82.3736667 124.3791913
  51.8448409  83.2064658 124.3052215  51.8295458  81.9081648 125.0837171
  49.4464188  88.7180488 121.3778065  49.7224032  88.6037082 122.2871939
  48.5768687  88.3197973 121.3390238  49.3504620  74.7417254 128.4182814
  48.4367700  74.9721480 128.5865021  49.7797721  74.8255698 129.2696846
  46.4160418  91.8935024 122.2825927  46.9448184  91.3827478 121.6696089
  46.6788637  91.5777554 123.1471460  38.8885927  77.3269034 132.2428246
  38.9527254  78.1883865 131.8305644  38.8253048  76.7143035 131.5100604
  35.1403743  81.2068595 121.8219635  35.4357184  80.2979274 121.7686689
  34.2391778  81.1856335 121.5000637  38.6697990  79.2824592 127.8047184
  37.9484575  79.8960560 127.6654657  39.4591245  79.8182357 127.7263829
  36.8691584  78.8882693 121.9458960  36.5404290  78.0080072 121.7634066
  37.2230955  78.8330362 122.8335349  39.9833407  79.1755663 122.3134438
  40.3229480  79.7041584 121.5913046  40.4305528  79.5136069 123.0893004
  42.6776848  77.5592714 131.7637506  42.3373669  76.7600527 132.1658186
  41.9715855  77.8594424 131.1914339  43.3293320  74.6442026 130.2164829
  44.1519389  74.1702504 130.0943719  43.5731384  75.4232510 130.7163515
  41.9701555  77.6730284 120.5127731  42.6909917  78.0511537 120.0091447
  41.3466859  78.3919161 120.6162708  46.1132677  78.3775433 121.4486063
  46.3296292  79.2600071 121.1474891  45.6326745  77.9861647 120.7191705
  40.8531899  81.3361147 128.0256807  40.7076480  81.6501450 128.9181089
  40.3757102  81.9546047 127.4727706  42.7128282  78.3263695 128.0737697
  42.6989851  77.4304788 127.7369995  43.4300710  78.3334358 128.7075983
  44.5654412  78.7601035 130.1190824  44.3072190  79.6818106 130.1175155
  44.0339453  78.3631469 130.8091289  42.1165178  77.2078075 123.3425267
  42.2381089  76.2794721 123.5416155  41.8267220  77.2216761 122.4303583
  44.9856368  74.8932985 126.4791987  45.0078065  74.9572318 125.5243967
  45.4024427  74.0537494 126.6732493  50.4975774  91.1818586 119.9977808
  51.1926678  91.8025279 120.2165123  50.8398924  90.3313938 120.2730186
  52.3967197  88.6318292 121.5265139  52.9218521  88.9705565 120.8014459
  52.3089549  87.6965307 121.3428274  41.0895237  88.7932208 121.4341154
  41.2383357  89.4767672 120.7807827  41.8961680  88.7737298 121.9490610
  38.8447870  84.8197385 122.4402223  38.5993912  83.9159715 122.6382433
  39.0143784  84.8214536 121.4981701  38.1143517  80.5525743 119.9388385
  37.4212762  80.6270098 119.2828421  37.8695269  79.7886086 120.4609902
  46.7857174  72.1121344 127.3427875  47.0658927  71.4444533 127.9688302
  47.5707781  72.3050440 126.8302539  44.5890642  91.2880338 118.9052902
  44.0164609  91.9070525 118.4523374  45.1623436  91.8379700 119.4392824
  47.8087902  91.5717488 120.0361484  48.7418575  91.5063050 120.2394360
  47.7211115  92.4073755 119.5776017  50.4375919  90.8883359 116.9965432
  50.3589550  90.5543222 117.8901189  51.2585585  91.3805126 116.9956904
  44.9737441  82.6241151 116.2468954  45.9196545  82.4947359 116.3157372
  44.5951686  81.8855813 116.7238382  50.9459325  74.2897157 126.2095846
  50.7484146  73.9812245 127.0939178  51.5559031  75.0158796 126.3393776
  43.1580358  80.5491127 116.1823839  42.2511813  80.2524240 116.2586553
  43.4356339  80.2520945 115.3158126  44.7742424  75.0928017 122.3368081
  43.9643152  74.7475102 122.7123327  45.4626840  74.7835561 122.9255692
  46.7032972  74.1706064 123.9592377  47.2564010  74.5901517 124.6182400
  46.9403058  73.2441812 124.0015333  41.9279142  77.4078062 116.3235819
  42.7898306  77.7332961 116.5831636  42.1129487  76.6209558 115.8108884
  50.0811779  76.2806589 123.4671042  49.5010448  76.9391393 123.0849094
  49.8147712  75.4583934 123.0558459  48.5315345  75.6811647 125.6692362
  49.0315124  75.7928181 124.8606681  49.1750953  75.3772699 126.3093170
  48.8636657  78.4406679 122.5227390  47.9762512  78.7256330 122.3047585
  49.2790646  78.2800443 121.6754667  52.2151193  78.4653200 126.2381729
  52.9911583  78.9549653 126.5106346  51.4899327  78.8911254 126.6953599
  48.0079870  88.2051354 116.6175410  48.7115721  88.4101356 117.2333065
  47.2842519  88.7728116 116.8824493  48.8377681  83.9561215 122.7377680
  48.7812882  84.4129767 121.8985312  49.3906023  83.1951900 122.5600523
  52.6482487  79.7450947 123.5627800  52.3919421  79.3447583 124.3936007
  52.0235355  80.4594741 123.4377939  49.9166568  88.6433883 118.6673870
  50.7512172  88.2115082 118.4851345  49.7550911  88.4715897 119.5950764
  49.5712460  85.1465996 120.0330209  49.5161264  84.9810268 119.0918653
  48.9458515  85.8542029 120.1892399  42.8808585  74.6474105 119.6115528
  42.8687255  75.5915945 119.7683798  43.7732007  74.4644251 119.3174989
  46.6960705  71.2416882 123.8661464  45.9293101  70.6875369 124.0118147
  47.1071410  71.3138751 124.7275616  51.3780423  95.0971430 119.1808823
  50.5417735  95.4346117 119.5018097  51.2385193  94.9620410 118.2435959
  51.2518803  94.9418658 116.3806729  50.3748270  94.8207459 116.0168976
  51.7276556  94.1504736 116.1285618  48.9537272  95.8817661 119.9388385
  48.2606517  95.9562016 119.2828421  48.7089024  95.1178004 120.4609902
  53.9974112  95.8783045 116.1823839  53.0905568  95.5816158 116.2586553
  54.2750093  95.5812863 115.3158126  52.7672897  92.7369980 116.3235819
  53.6292061  93.0624878 116.5831636  52.9523241  91.9501476 115.8108884
  53.7202340  89.9766023 119.6115528  53.7081010  90.9207863 119.7683798
  54.6125762  89.7936169 119.3174989  24.8531525  39.9511390 105.4483292
  24.1793224  40.2543087 106.0568249  25.2397347  40.7540470 105.0988749
  28.8188266  37.5296874 106.7223115  29.5139171  38.1503566 106.9410429
  29.1611416  36.6792225 106.9975493  22.9103134  37.6358625 105.6298208
  22.3377102  38.2548812 105.1768680  23.4835928  38.1857987 106.1638130
  26.1300394  37.9195775 106.7606791  27.0631067  37.8541337 106.9639666
  26.0423607  38.7552042 106.3021323  28.7588411  37.2361646 103.7210738
  28.6802042  36.9021509 104.6146496  29.5798078  37.7283414 103.7202211
  26.3292363  34.5529641 103.3420717  27.0328213  34.7579644 103.9578372
  25.6055011  35.1206403 103.6069800  28.2379060  34.9912170 105.3919177
  29.0724664  34.5593369 105.2096651  28.0763403  34.8194184 106.3196071
  36.8663335  45.5081822 115.4874353  37.5041745  45.3888569 114.7837693
  36.7484178  46.4562665 115.5462305  29.5339857  47.3144726 111.4132769
  28.9704722  47.2234663 110.6449057  29.4192252  46.4944630 111.8935261
  35.1139416  50.9815694 106.7247234  34.4627396  51.5669774 106.3381248
  35.9083779  51.5121889 106.7842271  29.0395043  48.0704831 107.1234368
  29.8125919  47.5233818 106.9847244  29.3920442  48.9349080 107.3348830
  31.3761321  44.2297497 104.7552818  31.6286842  43.7079018 103.9936281
  30.4385880  44.0663642 104.8579502  36.4204604  43.2333275 112.5627561
  37.2067693  42.8152699 112.2117978  36.6843308  44.1379368 112.7309210
  36.5914681  48.6706126 107.2616218  35.9560514  48.7440752 107.9737123
  36.2612087  49.2599725 106.5835297  41.8213031  43.1708509 113.4660540
  42.5538203  42.6007725 113.6998369  41.0652386  42.7830109 113.9067045
  31.0957610  46.1325603 106.9577193  30.9793868  45.4570506 107.6258277
  31.2059869  45.6457977 106.1409346  33.4389151  45.5935750 110.6623882
  33.0747358  45.0666371 111.3736804  34.2956266  45.2034219 110.4890368
  33.0794637  40.6225650 105.6585231  33.2469040  41.4905886 106.0255702
  32.8891807  40.7852931 104.7346520  33.0583858  43.0783307 106.6431898
  32.9383484  43.5240358 107.4817378  32.3636447  43.4268625 106.0845436
  30.8190750  55.8486949 110.2922029  30.7414780  56.7994774 110.3710509
  30.2152394  55.5032822 110.9496955  38.7568925  43.5504780 107.4712232
  39.6686781  43.7832167 107.2959929  38.2478572  44.1341825 106.9087310
  37.3638507  48.5330599 114.8625813  36.7347369  48.6976313 114.1601881
  36.9764169  48.9472208 115.6336777  41.2427739  49.4685037 112.2170177
  40.5578777  49.8483938 111.6667210  41.3271588  50.0780363 112.9502125
  32.9166469  48.2705007 112.1275898  33.3804814  48.5492710 111.3380521
  32.6523267  47.3688452 111.9448989  31.8535355  44.3928159 108.9365463
  32.5559398  44.8449203 109.4039390  31.5215983  43.7511978 109.5645357
  39.6124498  49.9916951 116.9887878  40.4341942  49.5897138 116.7070559
  39.6086901  49.8885185 117.9403994  47.7030491  46.3355700 113.3372849
  46.9494200  45.7663098 113.1816854  47.8378033  46.3018364 114.2843484
  33.0929119  51.2069102 109.0127569  32.9574794  52.0520638 109.4412416
  33.6338932  51.4088380 108.2493502  26.5458517  48.7244540 109.5855494
  27.0583037  49.5187790 109.7361058  27.1981230  48.0270830 109.5189095
  28.3553401  51.8410296 111.6678247  28.5320030  52.7628261 111.4799231
  29.1510235  51.5268715 112.0972627  29.4784717  53.3588470 117.6688589
  30.0292142  53.2305533 116.8965583  28.6396193  53.6583359 117.3183482
  24.5107434  47.0533194 110.3615064  25.3482656  47.4630203 110.1448772
  24.6885701  46.1132636 110.3315258  36.4071866  44.7208275 106.0498897
  35.8918489  45.4912880 106.2887285  36.1349174  44.0473411 106.6731959
  33.9918977  39.5657976 111.1084136  33.1360573  39.1764826 110.9289774
  34.4045928  39.6449937 110.2483921  41.3806140  47.4740630 107.9852071
  40.6035583  47.1351789 107.5407233  42.0597621  47.4793253 107.3107036
  36.1958169  42.5935367 107.8758678  35.8908304  42.9081516 108.7268822
  37.1488611  42.6716787 107.9186011  34.6404601  48.7525590 109.5251632
  34.1125962  48.0178350 109.2124870  34.1392103  49.5300267 109.2791601
  39.6197447  46.9474611 114.6418679  38.9621121  47.6373872 114.7298807
  40.4237846  47.3371043 114.9852665  38.4302906  45.3018984 112.6922620
  38.9434787  45.9348975 113.1944330  39.0804129  44.7020179 112.3265980
  29.6992915  41.4449718 105.9054129  28.8630228  41.7824404 106.2263404
  29.5597685  41.3098697 104.9681266  32.7857201  46.5705801 102.5286605
  31.8784263  46.3395054 102.7277754  33.2828233  45.7743420 102.7160587
  35.6925280  55.2803308 105.4483292  35.0186979  55.5835005 106.0568249
  36.0791102  56.0832388 105.0988749  35.6918784  44.1759855 110.0683641
  36.4390603  44.6881252 109.7590763  35.9610374  43.8543908 110.9288035
  33.9645434  46.6718396 107.0510595  33.0556654  46.3877428 107.1483065
  33.9940518  47.0917474 106.1913902  39.1964702  50.2824985 110.8201763
  38.7427029  49.4415895 110.8766954  38.5658668  50.9186383 111.1576543
  38.1397621  41.2116971 112.0502430  37.4020378  40.6994357 112.3812673
  38.3924395  40.7717353 111.2385707  37.6397641  52.1201482 111.7551581
  37.9320615  52.6806539 111.0363947  38.1496262  52.4130043 112.5104740
  32.5130328  44.2847016 113.1520391  32.5678938  43.3320853 113.0762867
  31.7021530  44.4406455 113.6361689  33.6621522  48.2127139 104.3898674
  33.2240952  47.4962998 103.9304311  34.4031963  48.4403254 103.8283765
  30.4522688  42.9024076 110.9110770  29.6390554  43.2018246 111.3175962
  30.9481682  42.5079765 111.6285252  32.6031266  52.8981833 112.8445034
  32.5607445  53.1242679 111.9153566  33.5193965  52.6645207 112.9930836
  41.7794637  46.4884336 110.4474993  41.6412535  46.6785932 109.5196182
  41.4230856  47.2503719 110.9043044  41.8064017  48.5560863 115.4586264
  42.2400523  48.4636152 116.3069318  42.5195597  48.5318364 114.8206280
  30.7197067  49.7744862 112.6406997  31.5137665  49.2795182 112.4389572
  30.0088759  49.2462725 112.2774703  35.5391911  52.1562957 116.9919365
  35.5928934  52.7253894 117.7597081  34.6706693  52.3264842 116.6273402
  27.0279830  43.9187944 108.7166750  26.0977419  43.8572399 108.9336712
  27.1237302  43.3963896 107.9203391  42.6679566  48.5984564 117.9919150
  42.8615456  49.5030374 118.2378424  42.5680184  48.1391983 118.8257735
  33.2968343  50.3473884 116.3204834  33.1579429  49.9792668 117.1930772
  32.5082939  50.8621523 116.1488792  33.8916495  55.4482980 107.6630371
  34.0668251  54.9771023 108.4775993  33.2049283  56.0748746 107.8911631
  34.8473558  49.7255486 113.7093672  34.5123391  49.6856256 114.6051322
  34.3477504  49.0600202 113.2364082  37.7832750  47.0711521 103.9830732
  37.1661920  46.3458349 103.8863784  37.3149238  47.8320881 103.6397806
  28.4577580  58.5972343 114.4370231  28.6974178  59.2290867 115.1149249
  27.6146777  58.2460383 114.7235590  29.5731296  41.2896945 103.1052036
  28.6960762  41.1685746 102.7414283  30.0489049  40.4983023 102.8530925
  32.9705442  54.4051465 116.8411735  32.8975614  55.2106437 117.3531039
  32.5282835  54.6043431 116.0159756  32.7595222  53.6423235 110.3514556
  31.9762744  54.1844916 110.4452781  33.4587967  54.1597215 110.7508798
  43.9221629  45.1558230 114.6367053  43.9111505  46.0382946 114.2660986
  43.0539009  44.8029781 114.4421590  35.4304126  54.3038299 118.9969894
  36.1432098  54.9385764 118.9245795  34.9394154  54.4002165 118.1809895
  37.1521652  48.2089552 110.5687185  36.2177931  48.3291015 110.3991890
  37.3298321  47.3062019 110.3047195  40.5394204  44.0506871 111.1037219
  41.0054656  44.8834863 111.0297522  40.9901704  43.5851853 111.8082478
  38.6070435  50.3950693 108.1023371  38.8830279  50.2807287 109.0117245
  37.7374934  49.9968178 108.0635544  35.2424499  54.6437044 111.7456185
  35.4246893  53.8258700 112.2083937  36.0657485  54.8604736 111.3081075
  35.5766664  53.5705229 109.0071233  36.1054431  53.0597683 108.3941396
  35.8394884  53.2547759 109.8716767  28.9322412  54.6220345 111.7669009
  28.2632788  55.1066473 111.2833049  28.7935282  54.8689566 112.6812388
  33.0727681  56.6564089 118.3651668  33.6245989  56.8195710 119.1300753
  33.4133874  57.2468527 117.6931693  24.3009989  42.8838800 108.5464942
  24.5963431  41.9749479 108.4931995  23.3998025  42.8626540 108.2245944
  36.2096068  54.6046064 115.3515350  36.0847208  53.8035804 114.8426295
  36.8675159  55.0992258 114.8629320  38.2730977  52.4055085 116.9794900
  37.3261312  52.2860436 116.9073227  38.6213750  51.5177583 117.0621161
  35.2777410  52.2007801 113.1799252  35.1302372  51.2724508 113.3606822
  36.1030903  52.2227891 112.6956328  29.1439654  40.8525868 109.0379744
  29.4835727  41.3811789 108.3158353  29.5911775  41.1906274 109.8138311
  38.8811532  53.0236359 114.2664125  39.8058079  52.8179221 114.1288576
  38.7126835  52.7752761 115.1753467  31.1307801  39.3500489 107.2373037
  31.8516164  39.7281742 106.7336754  30.5073105  40.0689366 107.3408015
  35.2738924  40.0545638 108.1731370  35.4902539  40.9370276 107.8720198
  34.7932991  39.6631852 107.4437011  38.6706848  53.5422027 109.6226216
  38.8443726  52.9768449 108.8700069  39.1635739  54.3422922 109.4405706
  44.5246239  46.3058450 111.2416516  44.9677385  45.5565775 110.8435639
  43.6472749  46.2968586 110.8590248  39.6582020  52.8588791 106.7223115
  40.3532925  53.4795484 106.9410429  40.0005171  52.0084143 106.9975493
  41.5573444  50.3088497 108.2510446  42.0824768  50.6475770 107.5259766
  41.4695796  49.3735512 108.0673580  33.2414104  56.3760480 112.6105699
  32.8019095  55.8836859 113.3038555  33.9922221  55.8333448 112.3697774
  25.7206443  52.5672021 112.6130327  26.5464463  52.2675793 112.2328970
  25.3700495  51.7979643 113.0620115  30.6887976  51.9198489 114.6828000
  30.0667986  51.2569194 114.3830228  31.3592843  51.9459621 114.0001648
  30.2501483  50.4702413 108.1586461  30.3989604  51.1537877 107.5053134
  31.0567927  50.4507503 108.6735917  44.0679104  47.7763688 113.6338964
  44.9025995  48.2153492 113.7976524  44.2038233  47.3002341 112.8147210
  28.0054116  46.4967590 109.1647530  27.7600158  45.5929920 109.3627740
  28.1750031  46.4984741 108.2227008  27.2749764  42.2295948 106.6633691
  26.5819009  42.3040303 106.0073727  27.0301516  41.4656291 107.1855208
  33.7496889  52.9650543 105.6298208  33.1770856  53.5840730 105.1768680
  34.3229683  53.5149905 106.1638130  36.9694149  53.2487693 106.7606791
  37.9024822  53.1833255 106.9639666  36.8817362  54.0843960 106.3021323
  42.2960357  45.4315303 116.9287057  42.2636677  44.4931304 117.1146741
  42.9060980  45.5099340 116.1952882  34.1343687  44.3011356 102.9714261
  35.0802792  44.1717564 103.0402679  33.7557932  43.5626018 103.4483689
  48.1136906  46.4931310 116.0693094  48.8440295  46.2316598 116.6300797
  47.5043852  45.7560032 116.1095162  46.1952204  44.6339172 116.6667545
  45.4685367  44.4995137 116.0584036  45.7799490  44.9416001 117.4724263
  32.3186605  42.2261332 102.9069146  31.4118060  41.9294445 102.9831860
  32.5962586  41.9291150 102.0403432  33.9348670  36.7698222 109.0613387
  33.1249399  36.4245307 109.4368633  34.6233087  36.4605766 109.6500999
  31.0885389  39.0848267 103.0481125  31.9504553  39.4103166 103.3076943
  31.2735733  38.2979763 102.5354191  39.2418026  37.9576794 110.1916348
  38.6616695  38.6161598 109.8094401  38.9753958  37.1354138 109.7803766
  38.0242904  40.1176884 109.2472697  37.1368759  40.4026535 109.0292891
  38.4396893  39.9570648 108.3999973  41.3757440  40.1423405 112.9627036
  42.1517830  40.6319858 113.2351653  40.6505574  40.5681459 113.4198905
  43.8129998  40.8551024 114.0200976  44.4074489  40.6146760 113.3094285
  43.8856582  40.1358155 114.6474513  26.0327154  54.6984635 114.3344141
  25.8981622  53.9385036 113.7682139  25.6159216  55.4225535 113.8672930
  37.1686117  49.8821559 103.3420717  37.8721967  50.0871561 103.9578372
  36.4448766  50.4498321 103.6069800  37.9983927  45.6331420 109.4622987
  37.9419129  46.0899972 108.6230619  38.5512270  44.8722105 109.2845829
  41.8088733  41.4221152 110.2873106  41.5525668  41.0217788 111.1181314
  41.1841601  42.1364946 110.1623245  46.1201071  44.1617225 112.7944398
  45.5600629  44.2310415 113.5675960  45.5144575  43.9858210 112.0743894
  29.1896280  55.5953952 114.5462584  29.0728664  56.5399385 114.4441274
  28.3688726  55.2927514 114.9348383  39.0772815  50.3204088 105.3919177
  39.9118419  49.8885287 105.2096651  38.9157157  50.1486102 106.3196071
  38.7318707  46.8236201 106.7575516  38.6767511  46.6580473 105.8163960
  38.1064762  47.5312234 106.9137706  32.0414832  36.3244310 106.3360834
  32.0293502  37.2686150 106.4929105  32.9338254  36.1414456 106.0420295
  30.2150794  56.2482214 117.7618512  31.1178041  56.2805825 118.0785007
  29.9888164  55.3182665 117.7764848  31.9704396  55.0013201 114.4228591
  31.0200027  55.0015062 114.3092963  32.2736882  54.2545935 113.9064626
  47.7057090  60.8373739 115.4874353  48.3435500  60.7180487 114.7837693
  47.5877933  61.7854583 115.5462305  44.5146796  60.7901167 115.4235878
  44.1765307  60.6742232 114.5356413  45.3836564  60.3892332 115.4036884
  44.9966579  61.9436019 121.3822084  44.9855220  61.5488817 120.5102587
  45.1587218  61.2102092 121.9755855  37.9198044  64.1387835 114.2516989
  38.7119335  63.7978660 113.8363289  38.1594694  64.2482810 115.1719143
  41.7173840  64.7273131 120.3301268  41.4263706  65.6318762 120.2147934
  42.3530824  64.7689658 121.0445337  42.6430047  62.1049979 116.9202627
  43.2393619  61.8806002 116.2059590  42.7005018  61.3634725 117.5228075
  47.2598358  58.5625193 112.5627561  48.0461447  58.1444616 112.2117978
  47.5237062  59.4671285 112.7309210  52.6606785  58.5000426 113.4660540
  53.3931957  57.9299643 113.6998369  51.9046141  58.1122027 113.9067045
  44.2782905  60.9227668 110.6623882  43.9141112  60.3958289 111.3736804
  45.1350021  60.5326137 110.4890368  50.1832206  52.2122000 117.9255148
  49.8515530  53.0817411 117.7016363  49.5877819  51.8958284 118.6049179
  46.6763725  64.4134546 117.3251061  46.3764448  65.3159585 117.2166868
  46.3314785  64.1466730 118.1772214  40.1276207  60.8648343 113.3587766
  39.2026703  60.7324557 113.5665457  40.3760620  61.6442562 113.8557708
  50.0760869  56.9317087 115.0048499  49.1677746  56.8632495 114.7107259
  50.0248465  57.4089031 115.8330324  37.4885018  60.5081617 114.1931555
  37.6177399  60.7616096 115.1070966  36.8082469  61.1009325 113.8736210
  44.1501735  58.3506732 122.9483396  43.3735069  58.9100652 122.9386260
  44.7892298  58.8363515 123.4698266  51.9422515  55.1333525 116.7826372
  51.2996896  55.4266058 116.1366167  51.4377444  55.0186445 117.5879569
  49.5962679  58.8796698 107.4712232  50.5080535  59.1124085 107.2959929
  49.0872326  59.4633742 106.9087310  42.4048107  61.1592185 122.5101363
  43.1462791  61.6977229 122.2336186  41.6985093  61.7858474 122.6672915
  47.8803447  63.3021326 121.1073524  48.2886803  62.8603736 120.3628157
  47.1580708  62.7273953 121.3607717  44.2334517  58.2393933 118.4807081
  45.0795712  58.6633346 118.6241730  44.1733154  57.5827557 119.1745644
  52.0821493  64.7976954 112.2170177  51.3972531  65.1775856 111.6667210
  52.1665343  65.4072281 112.9502125  47.3833962  55.8998301 120.1388255
  47.1394894  56.6540362 119.6022531  47.6593893  56.2783649 120.9735502
  49.3372425  62.4436913 118.8165520  49.5489320  63.0868673 118.1399902
  49.2902173  61.6099230 118.3487451  46.9398654  55.0554734 115.7202093
  46.0783133  55.3535988 116.0118830  46.9661088  55.2725133 114.7883125
  40.6484304  63.1468406 115.0655662  41.2185661  63.5755675 114.4273146
  41.2392416  62.8650991 115.7639847  42.6929109  59.7220077 108.9365463
  43.3953153  60.1741121 109.4039390  42.3609738  59.0803896 109.5645357
  41.1409471  58.3131834 123.3116673  40.5108131  58.9948115 123.5452070
  41.0345559  58.2014915 122.3669811  36.4354443  57.9803630 114.2382597
  35.6453497  58.2361158 113.7622708  36.9265691  58.7951968 114.3434638
  50.4518253  65.3208869 116.9887878  51.2735697  64.9189056 116.7070559
  50.4480656  65.2177103 117.9403994  38.3869189  58.3448209 111.1966074
  37.5900352  58.4566903 111.7149569  38.1594781  58.6834861 110.3306964
  44.2174856  64.8692912 119.1448588  44.2819289  65.3313319 119.9806760
  43.5085780  64.2390277 119.2730898  34.7192146  58.2334120 116.6697588
  34.9700185  59.1181130 116.9355164  35.2551695  58.0538722 115.8972680
  58.5424246  61.6647617 113.3372849  57.7887954  61.0955015 113.1816854
  58.6771787  61.6310282 114.2843484  37.3852271  64.0536458 109.5855494
  37.8976792  64.8479708 109.7361058  38.0374984  63.3562748 109.5189095
  43.3358175  54.0310479 123.2662180  44.0767888  54.6317632 123.1866643
  43.5676097  53.2888116 122.7080223  38.4799513  59.2166846 121.5440410
  38.3653028  58.3152103 121.8447509  37.6244030  59.4630543 121.1925227
  45.5591350  67.1584586 123.1427911  45.1155204  66.3720965 122.8248815
  46.2208564  67.3463737 122.4771801  40.3178471  68.6880388 117.6688589
  40.8685897  68.5597451 116.8965583  39.4789947  68.9875277 117.3183482
  47.6572588  67.4387386 121.1709312  47.6391064  68.2596267 120.6789581
  48.5792508  67.3141461 121.3959453  44.1145642  64.9531516 122.0132820
  44.6473979  64.1919804 121.7832128  43.5859724  64.6605167 122.7556975
  47.2815337  50.0591582 117.5426462  46.9379607  50.9493223 117.4665573
  47.6494300  49.8693239 116.6796047  35.3501188  62.3825112 110.3615064
  36.1876410  62.7922120 110.1448772  35.5279456  61.4424554 110.3315258
  44.8312731  54.8949893 111.1084136  43.9754328  54.5056744 110.9289774
  45.2439683  54.9741854 110.2483921  46.3611878  52.4296237 115.5075695
  45.8576673  52.3926372 114.6943501  46.6542485  53.3388979 115.5672352
  42.6054764  52.5134966 114.5141877  43.4707760  52.3177775 114.1547767
  42.6732273  52.2845318 115.4411234  52.2199894  62.8032547 107.9852071
  51.4429337  62.4643707 107.5407233  52.8991375  62.8085170 107.3107036
  47.0351923  57.9227285 107.8758678  46.7302059  58.2373434 108.7268822
  47.9882365  58.0008705 107.9186011  50.4591201  62.2766529 114.6418679
  49.8014876  62.9665790 114.7298807  51.2631600  62.6662960 114.9852665
  40.2117083  54.7437174 111.8858244  40.7860835  54.5212356 111.1531437
  40.7988065  54.8125869 112.6386845  49.2696660  60.6310901 112.6922620
  49.7828542  61.2640893 113.1944330  49.9197884  60.0312097 112.3265980
  40.5386670  56.7741635 105.9054129  39.7023982  57.1116322 106.2263404
  40.3991440  56.6390615 104.9681266  42.5139751  51.6178423 110.6133313
  41.8604163  51.3027440 109.9889928  42.4720225  50.9954164 111.3393136
  45.7477491  58.1060357 114.9380961  44.8300052  58.3275304 114.7802649
  46.1637634  58.1806667 114.0792668  46.5312539  59.5051772 110.0683641
  47.2784358  60.0173170 109.7590763  46.8004128  59.1835825 110.9288035
  48.9791376  56.5408889 112.0502430  48.2414133  56.0286275 112.3812673
  49.2318149  56.1009270 111.2385707  49.0803003  49.3185141 112.6444200
  49.3861880  48.4582504 112.3570115  49.8055608  49.9102761 112.4443194
  35.3727359  59.7215827 111.0325798  35.1751759  59.1285188 110.3076864
  34.8174023  59.4168037 111.7501736  43.3524083  59.6138934 113.1520391
  43.4072693  58.6612770 113.0762867  42.5415285  59.7698373 113.6361689
  41.2916443  58.2315994 110.9110770  40.4784308  58.5310164 111.3175962
  41.7875437  57.8371682 111.6285252  46.8890654  58.6957818 119.7425664
  47.2440042  58.9229291 120.6020129  47.5362786  59.0276195 119.1202919
  52.6188391  61.8176254 110.4474993  52.4806290  62.0077850 109.5196182
  52.2624610  62.5795637 110.9043044  40.7830518  55.8034349 116.5272005
  41.4229897  55.6623108 115.8294968  39.9508048  55.5168862 116.1510607
  52.6457771  63.8852781 115.4586264  53.0794278  63.7928070 116.3069318
  53.3589352  63.8610281 114.8206280  46.3785666  67.4854875 116.9919365
  46.4322688  68.0545811 117.7597081  45.5100447  67.6556760 116.6273402
  37.8673585  59.2479861 108.7166750  36.9371173  59.1864317 108.9336712
  37.9631057  58.7255814 107.9203391  37.7859134  55.7734674 111.3044991
  38.0465951  56.6880007 111.1954152  38.6076306  55.3059117 111.4541604
  39.2584059  57.1872431 118.4743816  39.9307113  56.9789793 117.8256465
  38.4313846  56.9894517 118.0349048  53.5073321  63.9276482 117.9919150
  53.7009211  64.8322292 118.2378424  53.4073939  63.4683901 118.8257735
  45.1609631  53.8134372 120.4909477  44.5137546  54.5124322 120.3973953
  45.9310647  54.2470516 120.8585725  48.5688429  64.0783224 123.5660030
  48.4173936  63.8493776 122.6490114  48.5593109  65.0353826 123.5791375
  45.3373766  61.6515137 118.5506297  46.2665826  61.8026297 118.3775264
  44.9164796  61.7399158 117.6954943  39.6611557  60.4615034 119.2346253
  39.5231354  59.7295273 119.8357792  40.5716480  60.3723934 118.9530441
  42.2893857  60.1734994 118.7229933  42.9993476  59.5328186 118.6816551
  42.2463165  60.4247888 119.6456114  50.2780636  67.1102347 121.6436512
  50.2193182  66.4261567 120.9767095  50.6800154  67.8521337 121.1917138
  41.0022791  57.1600211 120.5425572  40.4660148  56.7090950 121.1947169
  40.4139500  57.2946120 119.7996037  39.2971335  73.9264261 114.4370231
  39.5367933  74.5582785 115.1149249  38.4540531  73.5752301 114.7235590
  50.2798043  65.0741931 119.8750492  49.3924822  64.7367853 119.9976891
  50.8496594  64.3424962 120.1119257  31.9327190  61.4066023 113.1993543
  32.6198230  61.0927753 112.6114558  31.7775319  62.3107387 112.9260794
  36.7361912  56.2956219 117.6278567  36.6520101  55.6881889 116.8928977
  35.9144619  56.7865237 117.6288063  43.8099197  69.7343383 116.8411735
  43.7369368  70.5398355 117.3531039  43.3676590  69.9335349 116.0159756
  46.9085626  54.7809783 112.9948762  47.4054326  54.0279745 112.6749832
  46.1372608  54.8174099 112.4291971  54.7615384  60.4850148 114.6367053
  54.7505260  61.3674864 114.2660986  53.8932763  60.1321699 114.4421590
  46.2697880  69.6330217 118.9969894  46.9825852  70.2677682 118.9245795
  45.7787909  69.7294083 118.1809895  43.4920595  56.9227166 112.7220446
  43.1218383  56.3698206 113.4101352  43.9879687  56.3185299 112.1695446
  51.3787958  59.3798789 111.1037219  51.8448411  60.2126781 111.0297522
  51.8295459  58.9143771 111.8082478  41.3209794  67.3824661 119.8175464
  42.0219253  68.0161144 119.9704859  40.8504909  67.7239392 119.0571104
  49.3504621  51.7479376 115.1428121  48.4367701  51.9783603 115.3110328
  49.7797723  51.8317820 115.9942153  49.1211080  59.9369268 117.6428015
  48.4682530  60.1845176 116.9880467  49.4991459  59.1233406 117.3090492
  45.1698653  60.6789079 124.1294052  44.4939290  60.5783208 124.7996427
  45.9926286  60.5228293 124.5930049  36.9177512  66.9161016 116.7506567
  37.5030948  66.1704704 116.8834471  36.7202350  67.2264972 117.6343231
  31.5095166  59.4866616 115.4711010  31.5479266  58.9530207 116.2648128
  31.0035459  58.9601821 114.8521987  43.9121435  71.9856007 118.3651668
  44.4639743  72.1487628 119.1300753  44.2527629  72.5760444 117.6931693
  38.8885929  54.3331156 118.9673552  38.9527255  55.1945987 118.5550950
  38.8253049  53.7205158 118.2345911  48.7632310  66.8117264 124.2200322
  49.3072214  67.4247222 123.7255277  48.1819155  67.3696843 124.7367335
  35.1403744  58.2130718 108.5464942  35.4357185  57.3041396 108.4931995
  34.2391780  58.1918457 108.2245944  47.0489823  69.9337982 115.3515350
  46.9240962  69.1327722 114.8426295  47.7068914  70.4284175 114.8629320
  38.6697991  56.2886715 114.5292490  37.9484577  56.9022682 114.3899963
  39.4591247  56.8244479 114.4509136  49.1124731  67.7347002 116.9794900
  48.1655067  67.6152353 116.9073227  49.4607504  66.8469500 117.0621161
  41.4724304  53.6241141 120.8033142  41.9958706  53.8703438 121.5659451
  41.2536638  54.4561176 120.3836279  36.8691586  55.8944816 108.6704267
  36.5404292  55.0142195 108.4879373  37.2230956  55.8392484 109.5580656
  39.9833409  56.1817785 109.0379744  40.3229481  56.7103707 108.3158353
  40.4305529  56.5198192 109.8138311  42.6776850  54.5654836 118.4882812
  42.3373670  53.7662649 118.8903492  41.9715856  54.8656547 117.9159646
  43.3293321  51.6504149 116.9410135  44.1519391  51.1764627 116.8189026
  43.5731385  52.4294632 117.4408822  41.9701556  54.6792407 107.2373037
  42.6909918  55.0573660 106.7336754  41.3466860  55.3981284 107.3408015
  46.1132679  55.3837556 108.1731370  46.3296293  56.2662194 107.8720198
  45.6326746  54.9923769 107.4437011  40.8531900  58.3423269 114.7502114
  40.7076481  58.6563572 115.6426396  40.3757104  58.9608170 114.1973013
  42.7128283  55.3325817 114.7983004  42.6989852  54.4366911 114.4615302
  43.4300711  55.3396481 115.4321290  44.5654414  55.7663157 116.8436131
  44.3072192  56.6880228 116.8420462  44.0339454  55.3693592 117.5336595
  35.3277562  60.8828614 117.6889775  34.7831030  61.6588422 117.8210050
  36.2056912  61.2299418 117.5308897  42.1165179  54.2140198 110.0670574
  42.2381090  53.2856844 110.2661461  41.8267221  54.2278884 109.1548889
  44.9856369  51.8995108 113.2037294  45.0078066  51.9634441 112.2489273
  45.4024428  51.0599617 113.3977800  55.3639994  61.6350368 111.2416516
  55.8071140  60.8857693 110.8435639  54.4866504  61.6260504 110.8590248
  36.1143584  60.0098510 120.5819932  35.3725320  60.1581145 121.1684563
  35.7936328  60.2706776 119.7186682  52.3967198  65.6380415 108.2510446
  52.9218522  65.9767687 107.5259766  52.3089551  64.7027430 108.0673580
  44.0587247  69.5514488 120.3800322  44.3674373  69.3063635 121.2523022
  44.8562729  69.7561127 119.8919192  34.7608803  65.8150265 113.5719260
  33.9240711  65.3872439 113.3903262  34.7332448  66.0082708 114.5090052
  52.0861104  66.2713318 123.5561643  51.2956648  66.2537457 123.0166143
  51.8494459  66.8101612 124.3110680  52.2058979  63.1205785 120.8694372
  52.2556984  62.9555792 121.8109895  52.0972903  62.2533044 120.4792253
  49.4962742  59.1036713 122.1853679  50.3972604  58.9643177 121.8937677
  49.5710716  59.2691167 123.1251856  43.8305547  56.4803567 121.0306865
  42.9608856  56.7737133 120.7589454  44.0665027  57.0644012 121.7514129
  53.7077176  65.5402726 121.1136394  53.4161984  65.9032707 121.9499855
  53.0949307  64.8269734 120.9349726  54.9072858  63.1055606 113.6338964
  55.7419750  63.5445410 113.7976524  55.0431987  62.6294259 112.8147210
  51.9564364  60.6635341 119.5816452  52.4318486  60.8562987 118.7735303
  51.0329930  60.7194527 119.3359835  38.8447871  61.8259508 109.1647530
  38.5993913  60.9221838 109.3627740  39.0143785  61.8276658 108.2227008
  46.5344581  52.6983184 118.5472285  47.0526525  53.4344211 118.2218774
  46.1799714  53.0047178 119.3819045  38.1143518  57.5587865 106.6633691
  37.4212763  57.6332220 106.0073727  37.8695270  56.7948209 107.1855208
  46.7857175  49.1183467 114.0673182  47.0658929  48.4506656 114.6933609
  47.5707782  49.3112562 113.5547846  50.6566033  57.5401101 117.8144757
  51.6083456  57.6399198 117.8356981  50.4869484  56.7479369 118.3242842
  48.6780413  54.6256684 118.0004158  48.0830345  54.9061697 117.3050647
  48.3930109  55.1150585 118.7720899  50.4375920  67.8945481 103.7210738
  50.3589551  67.5605345 104.6146496  51.2585587  68.3867249 103.7202211
  53.1354111  60.7607220 116.9287057  53.1030431  59.8223221 117.1146741
  53.7454735  60.8391257 116.1952882  53.2848600  57.5518264 116.9745340
  52.7687648  56.7676721 116.7875269  54.1688548  57.2236981 117.1391859
  50.9459326  51.2959279 112.9341153  50.7484148  50.9874368 113.8184485
  51.5559032  52.0220918 113.0639083  58.9530661  61.8223227 116.0693094
  59.6834049  61.5608515 116.6300797  58.3437606  61.0851949 116.1095162
  57.0345958  59.9631090 116.6667545  56.3079122  59.8287055 116.0584036
  56.6193245  60.2707919 117.4724263  44.8576134  63.6821020 124.4314918
  45.7779144  63.8599619 124.6254964  44.8225717  62.7377065 124.2794617
  34.0758299  58.8759613 113.3568192  33.7561084  58.0224921 113.0642566
  33.5291728  59.0908191 114.1126160  37.8538207  61.5922054 117.0737699
  38.0724217  62.5239162 117.0925733  38.2663981  61.2330029 117.8592503
  44.7742425  52.0990140 109.0613387  43.9643153  51.7537225 109.4368633
  45.4626842  51.7897683 109.6500999  46.7032973  51.1768186 110.6837684
  47.2564012  51.5963640 111.3427707  46.9403059  50.2503934 110.7260640
  33.9446559  62.4962525 115.3261314  33.2510031  62.0816478 114.8131268
  34.6919550  62.5383061 114.7294733  50.0811780  53.2868712 110.1916348
  49.5010449  53.9453516 109.8094401  49.8147713  52.4646056 109.7803766
  48.5315347  52.6873769 112.3937669  49.0315125  52.7990304 111.5851987
  49.1750954  52.3834822 113.0338477  42.5897342  60.5952399 125.2805510
  42.1064424  61.3952759 125.4869399  42.6758281  60.6060344 124.3272954
  35.8583302  62.4280779 113.2027329  35.8353990  62.5268466 112.2509212
  36.1683938  63.2745929 113.5244495  38.5170680  64.4856934 117.3173943
  39.4713933  64.4540876 117.2503875  38.3183203  64.0247557 118.1324169
  39.1070062  63.0558050 119.8844741  39.9262951  63.5502128 119.9079578
  39.3806870  62.1390018 119.8562309  48.8636658  55.4468802 109.2472697
  47.9762513  55.7318453 109.0292891  49.2790647  55.2862565 108.3999973
  52.2151194  55.4715323 112.9627036  52.9911584  55.9611775 113.2351653
  51.4899328  55.8973377 113.4198905  54.6523753  56.1842942 114.0200976
  55.2468244  55.9438678 113.3094285  54.7250337  55.4650073 114.6474513
  36.8720909  70.0276553 114.3344141  36.7375377  69.2676954 113.7682139
  36.4552971  70.7517453 113.8672930  48.8377682  60.9623338 109.4622987
  48.7812883  61.4191889 108.6230619  49.3906024  60.2014022 109.2845829
  52.6482488  56.7513070 110.2873106  52.3919422  56.3509705 111.1181314
  52.0235356  57.4656864 110.1623245  56.9594826  59.4909143 112.7944398
  56.3994384  59.5602332 113.5675960  56.3538329  59.3150128 112.0743894
  34.3604976  57.3896183 120.5836938  35.0063840  56.8795137 121.0724163
  34.1522127  58.1264865 121.1580363  46.8858368  64.4577031 126.0829079
  47.7549528  64.6317683 125.7215714  46.4065120  65.2771448 125.9604808
  42.8808587  51.6536228 106.3360834  42.8687257  52.5978068 106.4929105
  43.7732009  51.4706373 106.0420295  41.0544549  71.5774132 117.7618512
  41.9571795  71.6097742 118.0785007  40.8281919  70.6474583 117.7764848
  46.6960706  48.2479005 110.5906771  45.9293102  47.6937491 110.7363453
  47.1071411  48.3200873 111.4520923  58.5450844  76.1665657 115.4874353
  59.1829254  76.0472404 114.7837693  58.4271687  77.1146501 115.5462305
  55.3540550  76.1193085 115.4235878  55.0159062  76.0034150 114.5356413
  56.2230319  75.7184250 115.4036884  51.2127366  77.9728561 111.4132769
  50.6492231  77.8818498 110.6449057  51.0979761  77.1528466 111.8935261
  55.8360333  77.2727937 121.3822084  55.8248974  76.8780735 120.5102587
  55.9980973  76.5394009 121.9755855  48.7591798  79.4679753 114.2516989
  49.5513090  79.1270578 113.8363289  48.9988448  79.5774728 115.1719143
  56.7926925  81.6399529 106.7247234  56.1414905  82.2253610 106.3381248
  57.5871288  82.1705724 106.7842271  50.7182552  78.7288666 107.1234368
  51.4913428  78.1817653 106.9847244  51.0707951  79.5932916 107.3348830
  52.5567595  80.0565049 120.3301268  52.2657461  80.9610679 120.2147934
  53.1924579  80.0981576 121.0445337  53.4823801  77.4341897 116.9202627
  54.0787374  77.2097919 116.2059590  53.5398773  76.6926643 117.5228075
  53.0548830  74.8881332 104.7552818  53.3074351  74.3662854 103.9936281
  52.1173389  74.7247478 104.8579502  58.0992113  73.8917111 112.5627561
  58.8855202  73.4736534 112.2117978  58.3630817  74.7963203 112.7309210
  58.2702190  79.3289961 107.2616218  57.6348023  79.4024588 107.9737123
  57.9399596  79.9183560 106.5835297  63.5000540  73.8292344 113.4660540
  64.2325712  73.2591561 113.6998369  62.7439895  73.4413944 113.9067045
  52.7745119  76.7909438 106.9577193  52.6581377  76.1154342 107.6258277
  52.8847378  76.3041812 106.1409346  55.1176659  76.2519585 110.6623882
  54.7534867  75.7250206 111.3736804  55.9743775  75.8618054 110.4890368
  61.0225960  67.5413918 117.9255148  60.6909285  68.4109329 117.7016363
  60.4271574  67.2250202 118.6049179  54.7582146  71.2809485 105.6585231
  54.9256549  72.1489722 106.0255702  54.5679316  71.4436767 104.7346520
  57.5157480  79.7426464 117.3251061  57.2158203  80.6451503 117.2166868
  57.1708539  79.4758647 118.1772214  50.9669961  76.1940261 113.3587766
  50.0420458  76.0616475 113.5665457  51.2154374  76.9734480 113.8557708
  60.9154623  72.2609004 115.0048499  60.0071501  72.1924413 114.7107259
  60.8642219  72.7380949 115.8330324  54.7371367  73.7367143 106.6431898
  54.6170993  74.1824193 107.4817378  54.0423956  74.0852460 106.0845436
  48.3278772  75.8373534 114.1931555  48.4571153  76.0908013 115.1070966
  47.6476223  76.4301242 113.8736210  52.4978259  86.5070784 110.2922029
  52.4202289  87.4578609 110.3710509  51.8939903  86.1616657 110.9496955
  54.9895489  73.6798650 122.9483396  54.2128823  74.2392570 122.9386260
  55.6286052  74.1655433 123.4698266  62.7816270  70.4625443 116.7826372
  62.1390650  70.7557976 116.1366167  62.2771198  70.3478363 117.5879569
  60.4356434  74.2088616 107.4712232  61.3474290  74.4416003 107.2959929
  59.9266081  74.7925660 106.9087310  53.2441862  76.4884103 122.5101363
  53.9856546  77.0269147 122.2336186  52.5378847  77.1150392 122.6672915
  58.7197201  78.6313244 121.1073524  59.1280557  78.1895654 120.3628157
  57.9974463  78.0565871 121.3607717  55.0728271  73.5685850 118.4807081
  55.9189466  73.9925264 118.6241730  55.0126909  72.9119475 119.1745644
  59.0426016  79.1914434 114.8625813  58.4134878  79.3560148 114.1601881
  58.6551678  79.6056044 115.6336777  62.9215248  80.1268872 112.2170177
  62.2366286  80.5067773 111.6667210  63.0059097  80.7364199 112.9502125
  58.2227717  71.2290219 120.1388255  57.9788648  71.9832279 119.6022531
  58.4987647  71.6075566 120.9735502  60.1766179  77.7728831 118.8165520
  60.3883075  78.4160591 118.1399902  60.1295928  76.9391148 118.3487451
  57.7792408  70.3846652 115.7202093  56.9176887  70.6827905 116.0118830
  57.8054843  70.6017051 114.7883125  54.5953978  78.9288842 112.1275898
  55.0592323  79.2076545 111.3380521  54.3310776  78.0272287 111.9448989
  51.4878059  78.4760324 115.0655662  52.0579416  78.9047592 114.4273146
  52.0786171  78.1942909 115.7639847  53.5322864  75.0511995 108.9365463
  54.2346907  75.5033038 109.4039390  53.2003492  74.4095814 109.5645357
  51.9803225  73.6423751 123.3116673  51.3501886  74.3240032 123.5452070
  51.8739313  73.5306833 122.3669811  61.2912007  80.6500787 116.9887878
  62.1129451  80.2480974 116.7070559  61.2874410  80.5469021 117.9403994
  55.0568611  80.1984830 119.1448588  55.1213043  80.6605237 119.9806760
  54.3479535  79.5682195 119.2730898  45.5585901  73.5626038 116.6697588
  45.8093939  74.4473048 116.9355164  46.0945449  73.3830639 115.8972680
  69.3818000  76.9939535 113.3372849  68.6281709  76.4246933 113.1816854
  69.5165542  76.9602200 114.2843484  54.7716628  81.8652937 109.0127569
  54.6362303  82.7104473 109.4412416  55.3126441  82.0672215 108.2493502
  51.2583968  67.9444517 125.6741924  50.8650914  67.3910716 126.3489568
  52.0750108  68.2555096 126.0648441  48.2246026  79.3828375 109.5855494
  48.7370546  80.1771626 109.7361058  48.8768739  78.6854666 109.5189095
  50.0340910  82.4994132 111.6678247  50.2107539  83.4212096 111.4799231
  50.8297744  82.1852551 112.0972627  54.1751929  69.3602396 123.2662180
  54.9161642  69.9609549 123.1866643  54.4069852  68.6180034 122.7080223
  49.3193267  74.5458764 121.5440410  49.2046782  73.6444021 121.8447509
  48.4637785  74.7922460 121.1925227  56.3985105  82.4876504 123.1427911
  55.9548959  81.7012882 122.8248815  57.0602318  82.6755654 122.4771801
  51.1572226  84.0172305 117.6688589  51.7079651  83.8889369 116.8965583
  50.3183702  84.3167194 117.3183482  58.4966343  82.7679304 121.1709312
  58.4784818  83.5888185 120.6789581  59.4186263  82.6433379 121.3959453
  54.9539397  80.2823433 122.0132820  55.4867734  79.5211721 121.7832128
  54.4253478  79.9897085 122.7556975  58.1209092  65.3883499 117.5426462
  57.7773361  66.2785141 117.4665573  58.4888055  65.1985157 116.6796047
  58.0859375  75.3792110 106.0498897  57.5705998  76.1496715 106.2887285
  57.8136683  74.7057246 106.6731959  55.6706486  70.2241811 111.1084136
  54.8148082  69.8348661 110.9289774  56.0833437  70.3033772 110.2483921
  57.2005632  67.7588154 115.5075695  56.6970428  67.7218290 114.6943501
  57.4936239  68.6680897 115.5672352  53.4448518  67.8426884 114.5141877
  54.3101515  67.6469693 114.1547767  53.5126027  67.6137236 115.4411234
  63.0593649  78.1324465 107.9852071  62.2823092  77.7935624 107.5407233
  63.7385130  78.1377088 107.3107036  57.8745678  73.2519202 107.8758678
  57.5695813  73.5665352 108.7268822  58.8276120  73.3300622 107.9186011
  56.3192110  79.4109426 109.5251632  55.7913471  78.6762185 109.2124870
  55.8179612  80.1884102 109.2791601  61.2984956  77.6058446 114.6418679
  60.6408630  78.2957708 114.7298807  62.1025355  77.9954878 114.9852665
  51.0510837  70.0729092 111.8858244  51.6254589  69.8504274 111.1531437
  51.6381820  70.1417787 112.6386845  60.1090414  75.9602819 112.6922620
  60.6222296  76.5932811 113.1944330  60.7591638  75.3604014 112.3265980
  51.3780424  72.1033553 105.9054129  50.5417737  72.4408240 106.2263404
  51.2385194  71.9682533 104.9681266  53.3533505  66.9470341 110.6133313
  52.6997917  66.6319358 109.9889928  53.3113979  66.3246081 111.3393136
  54.4644710  77.2289636 102.5286605  53.5571772  76.9978889 102.7277754
  54.9615742  76.4327255 102.7160587  57.3712789  85.9387143 105.4483292
  56.6974487  86.2418840 106.0568249  57.7578611  86.7416224 105.0988749
  56.5871245  73.4352274 114.9380961  55.6693807  73.6567221 114.7802649
  57.0031389  73.5098585 114.0792668  57.3706293  74.8343690 110.0683641
  58.1178112  75.3465087 109.7590763  57.6397883  74.5127743 110.9288035
  55.6432943  77.3302231 107.0510595  54.7344163  77.0461264 107.1483065
  55.6728027  77.7501309 106.1913902  60.8752211  80.9408820 110.8201763
  60.4214538  80.0999730 110.8766954  60.2446177  81.5770219 111.1576543
  59.8185130  71.8700806 112.0502430  59.0807887  71.3578193 112.3812673
  60.0711904  71.4301188 111.2385707  59.3185150  82.7785317 111.7551581
  59.6108124  83.3390374 111.0363947  59.8283771  83.0713878 112.5104740
  59.9196758  64.6477058 112.6444200  60.2255634  63.7874422 112.3570115
  60.6449362  65.2394679 112.4443194  54.1917837  74.9430851 113.1520391
  54.2466447  73.9904688 113.0762867  53.3809039  75.0990291 113.6361689
  55.3409031  78.8710975 104.3898674  54.9028461  78.1546833 103.9304311
  56.0819472  79.0987089 103.8283765  52.1310197  73.5607911 110.9110770
  51.3178063  73.8602082 111.3175962  52.6269191  73.1663600 111.6285252
  54.2818775  83.5565668 112.8445034  54.2394954  83.7826514 111.9153566
  55.1981474  83.3229043 112.9930836  57.7284409  74.0249736 119.7425664
  58.0833797  74.2521209 120.6020129  58.3756540  74.3568112 119.1202919
  63.4582146  77.1468172 110.4474993  63.3200044  77.3369768 109.5196182
  63.1018365  77.9087554 110.9043044  51.6224272  71.1326267 116.5272005
  52.2623651  70.9915026 115.8294968  50.7901803  70.8460780 116.1510607
  63.4851525  79.2144699 115.4586264  63.9188032  79.1219988 116.3069318
  64.1983106  79.1902199 114.8206280  52.3984576  80.4328697 112.6406997
  53.1925174  79.9379017 112.4389572  51.6876268  79.9046560 112.2774703
  57.2179420  82.8146793 116.9919365  57.2716443  83.3837729 117.7597081
  56.3494202  82.9848678 116.6273402  50.0977814  72.5164349 118.4743816
  50.7700867  72.3081711 117.8256465  49.2707600  72.3186435 118.0349048
  64.3467075  79.2568399 117.9919150  64.5402965  80.1614210 118.2378424
  64.2467693  78.7975818 118.8257735  56.0003386  69.1426290 120.4909477
  55.3531301  69.8416239 120.3973953  56.7704401  69.5762434 120.8585725
  59.4082184  79.4075142 123.5660030  59.2567690  79.1785694 122.6490114
  59.3986863  80.3645743 123.5791375  56.1767520  76.9807055 118.5506297
  57.1059580  77.1318214 118.3775264  55.7558550  77.0691076 117.6954943
  54.9755852  81.0057719 116.3204834  54.8366938  80.6376504 117.1930772
  54.1870448  81.5205359 116.1488792  55.5704004  86.1066816 107.6630371
  55.7455760  85.6354859 108.4775993  54.8836792  86.7332582 107.8911631
  56.5261067  80.3839322 113.7093672  56.1910900  80.3440092 114.6051322
  56.0265013  79.7184038 113.2364082  50.5005311  75.7906952 119.2346253
  50.3625109  75.0587191 119.8357792  51.4110234  75.7015852 118.9530441
  59.4620259  77.7295356 103.9830732  58.8449429  77.0042184 103.8863784
  58.9936747  78.4904716 103.6397806  53.1287612  75.5026911 118.7229933
  53.8387230  74.8620103 118.6816551  53.0856920  75.7539806 119.6456114
  61.1174390  82.4394265 121.6436512  61.0586937  81.7553485 120.9767095
  61.5193909  83.1813255 121.1917138  51.8416546  72.4892129 120.5425572
  51.3053903  72.0382868 121.1947169  51.2533254  72.6238038 119.7996037
  50.1365089  89.2556178 114.4370231  50.3761687  89.8874703 115.1149249
  49.2934286  88.9044218 114.7235590  51.2518805  71.9480780 103.1052036
  50.3748271  71.8269581 102.7414283  51.7276558  71.1566859 102.8530925
  61.1191798  80.4033848 119.8750492  60.2318576  80.0659770 119.9976891
  61.6890349  79.6716880 120.1119257  42.7720945  76.7357940 113.1993543
  43.4591985  76.4219670 112.6114558  42.6169073  77.6399305 112.9260794
  47.5755667  71.6248137 117.6278567  47.4913856  71.0173806 116.8928977
  46.7538373  72.1157155 117.6288063  54.6492951  85.0635301 116.8411735
  54.5763123  85.8690272 117.3531039  54.2070344  85.2627267 116.0159756
  54.4382731  84.3007071 110.3514556  53.6550253  84.8428751 110.4452781
  55.1375476  84.8181050 110.7508798  57.7479381  70.1101700 112.9948762
  58.2448080  69.3571663 112.6749832  56.9766362  70.1466017 112.4291971
  65.6009138  75.8142066 114.6367053  65.5899014  76.6966781 114.2660986
  64.7326518  75.4613617 114.4421590  57.1091635  84.9622135 118.9969894
  57.8219607  85.5969600 118.9245795  56.6181663  85.0586001 118.1809895
  58.8309161  78.8673388 110.5687185  57.8965440  78.9874850 110.3991890
  59.0085830  77.9645854 110.3047195  54.3314350  72.2519083 112.7220446
  53.9612137  71.6990124 113.4101352  54.8273442  71.6477217 112.1695446
  62.2181713  74.7090707 111.1037219  62.6842165  75.5418698 111.0297522
  62.6689213  74.2435688 111.8082478  52.1603548  82.7116578 119.8175464
  52.8613008  83.3453061 119.9704859  51.6898663  83.0531310 119.0571104
  60.2857944  81.0534528 108.1023371  60.5617788  80.9391123 109.0117245
  59.4162443  80.6552013 108.0635544  60.1898376  67.0771294 115.1428121
  59.2761455  67.3075521 115.3110328  60.6191477  67.1609738 115.9942153
  59.9604834  75.2661186 117.6428015  59.3076284  75.5137093 116.9880467
  60.3385214  74.4525324 117.3090492  56.9212008  85.3020879 111.7456185
  57.1034402  84.4842535 112.2083937  57.7444994  85.5188571 111.3081075
  57.2554173  84.2289064 109.0071233  57.7841940  83.7181519 108.3941396
  57.5182393  83.9131594 109.8716767  56.0092407  76.0080997 124.1294052
  55.3333044  75.9075126 124.7996427  56.8320041  75.8520211 124.5930049
  47.7571266  82.2452933 116.7506567  48.3424703  81.4996621 116.8834471
  47.5596105  82.5556890 117.6343231  50.6109921  85.2804181 111.7669009
  49.9420297  85.7650308 111.2833049  50.4722791  85.5273401 112.6812388
  42.3488921  74.8158534 115.4711010  42.3873020  74.2822124 116.2648128
  41.8429214  74.2893739 114.8521987  54.7515190  87.3147924 118.3651668
  55.3033498  87.4779546 119.1300753  55.0921383  87.9052362 117.6931693
  49.7279683  69.6623074 118.9673552  49.7921010  70.5237905 118.5550950
  49.6646803  69.0497076 118.2345911  49.2031956  71.7346207 122.6146587
  49.8303995  71.3523284 123.2284111  48.3459875  71.5160409 122.9802279
  57.8883577  85.2629900 115.3515350  57.7634717  84.4619640 114.8426295
  58.5462668  85.7576093 114.8629320  49.5091745  71.6178632 114.5292490
  48.7878331  72.2314600 114.3899963  50.2985001  72.1536397 114.4509136
  59.9518486  83.0638920 116.9794900  59.0048821  82.9444271 116.9073227
  60.3001259  82.1761418 117.0621161  52.3118059  68.9533059 120.8033142
  52.8352461  69.1995355 121.5659451  52.0930392  69.7853094 120.3836279
  56.9564919  82.8591636 113.1799252  56.8089881  81.9308344 113.3606822
  57.7818412  82.8811727 112.6956328  60.5599041  83.6820195 114.2664125
  61.4845588  83.4763056 114.1288576  60.3914344  83.4336596 115.1753467
  53.5170604  69.8946754 118.4882812  53.1767424  69.0954567 118.8903492
  52.8109610  70.1948465 117.9159646  54.1687076  66.9796066 116.9410135
  54.9913145  66.5056545 116.8189026  54.4125139  67.7586550 117.4408822
  52.8095310  70.0084325 107.2373037  53.5303673  70.3865578 106.7336754
  52.1860614  70.7273202 107.3408015  56.9526433  70.7129474 108.1731370
  57.1690048  71.5954112 107.8720198  56.4720500  70.3215687 107.4437011
  51.6925655  73.6715187 114.7502114  51.5470235  73.9855490 115.6426396
  51.2150858  74.2900087 114.1973013  53.5522037  70.6617735 114.7983004
  53.5383606  69.7658828 114.4615302  54.2694466  70.6688399 115.4321290
  55.4048168  71.0955075 116.8436131  55.1465946  72.0172146 116.8420462
  54.8733209  70.6985510 117.5336595  60.3494357  84.2005862 109.6226216
  60.5231235  83.6352285 108.8700069  60.8423248  85.0006757 109.4405706
  46.1671317  76.2120531 117.6889775  45.6224785  76.9880339 117.8210050
  47.0450667  76.5591336 117.5308897  52.9558933  69.5432115 110.0670574
  53.0774845  68.6148761 110.2661461  52.6660976  69.5570801 109.1548889
  55.8250124  67.2287026 113.2037294  55.8471821  67.2926359 112.2489273
  56.2418183  66.3891534 113.3977800  66.2033748  76.9642285 111.2416516
  66.6464894  76.2149610 110.8435639  65.3260258  76.9552422 110.8590248
  61.3369529  83.5172627 106.7223115  62.0320434  84.1379319 106.9410429
  61.6792680  82.6667978 106.9975493  46.9537339  75.3390428 120.5819932
  46.2119075  75.4873063 121.1684563  46.6330083  75.5998693 119.7186682
  63.2360953  80.9672332 108.2510446  63.7612277  81.3059605 107.5259766
  63.1483305  80.0319348 108.0673580  54.8981001  84.8806406 120.3800322
  55.2068128  84.6355553 121.2523022  55.6956483  85.0853044 119.8919192
  54.9201613  87.0344315 112.6105699  54.4806604  86.5420694 113.3038555
  55.6709730  86.4917283 112.3697774  47.3993952  83.2255856 112.6130327
  48.2251972  82.9259628 112.2328970  47.0488004  82.4563479 113.0620115
  52.3675485  82.5782325 114.6828000  51.7455495  81.9153030 114.3830228
  53.0380352  82.6043456 114.0001648  45.6002557  81.1442183 113.5719260
  44.7634466  80.7164357 113.3903262  45.5726203  81.3374626 114.5090052
  52.4400013  71.0564113 124.2760506  52.4888168  71.9326235 123.8938276
  52.9822527  70.5141506 123.7032150  63.0452734  78.4497702 120.8694372
  63.0950739  78.2847710 121.8109895  62.9366657  77.5824961 120.4792253
  51.9288992  81.1286248 108.1586461  52.0777113  81.8121712 107.5053134
  52.7355436  81.1091338 108.6735917  60.3356496  74.4328630 122.1853679
  61.2366359  74.2935095 121.8937677  60.4104471  74.5983085 123.1251856
  54.6699301  71.8095485 121.0306865  53.8002611  72.1029051 120.7589454
  54.9058782  72.3935930 121.7514129  64.5470931  80.8694644 121.1136394
  64.2555739  81.2324624 121.9499855  63.9343062  80.1561652 120.9349726
  65.7466613  78.4347524 113.6338964  66.5813504  78.8737328 113.7976524
  65.8825742  77.9586177 112.8147210  62.7958119  75.9927258 119.5816452
  63.2712240  76.1854905 118.7735303  61.8723684  76.0486444 119.3359835
  57.3738335  68.0275102 118.5472285  57.8920279  68.7636129 118.2218774
  57.0193468  68.3339095 119.3819045  57.6250929  64.4475384 114.0673182
  57.9052683  63.7798574 114.6933609  58.4101536  64.6404480 113.5547846
  55.4284398  83.6234378 105.6298208  54.8558365  84.2424565 105.1768680
  56.0017192  84.1733740 106.1638130  61.4959788  72.8693018 117.8144757
  62.4477211  72.9691116 117.8356981  61.3263238  72.0771287 118.3242842
  59.5174167  69.9548602 118.0004158  58.9224099  70.2353614 117.3050647
  59.2323864  70.4442503 118.7720899  58.6481658  83.9071528 106.7606791
  59.5812331  83.8417090 106.9639666  58.5604871  84.7427795 106.3021323
  61.2769674  83.2237399 103.7210738  61.1983306  82.8897262 104.6146496
  62.0979341  83.7159167 103.7202211  63.9747866  76.0899138 116.9287057
  63.9424186  75.1515139 117.1146741  64.5848489  76.1683175 116.1952882
  55.8131196  74.9595191 102.9714261  56.7590301  74.8301399 103.0402679
  55.4345441  74.2209853 103.4483689  64.1242354  72.8810182 116.9745340
  63.6081403  72.0968638 116.7875269  65.0082303  72.5528898 117.1391859
  61.7853081  66.6251197 112.9341153  61.5877902  66.3166285 113.8184485
  62.3952787  67.3512836 113.0639083  69.7924415  77.1515145 116.0693094
  70.5227804  76.8900433 116.6300797  69.1831361  76.4143867 116.1095162
  67.8739713  75.2923008 116.6667545  67.1472876  75.1578973 116.0584036
  67.4586999  75.5999836 117.4724263  55.6969889  79.0112937 124.4314918
  56.6172898  79.1891536 124.6254964  55.6619472  78.0668983 124.2794617
  53.9974114  72.8845168 102.9069146  53.0905569  72.5878280 102.9831860
  54.2750095  72.5874986 102.0403432  48.6931961  76.9213972 117.0737699
  48.9117971  77.8531080 117.0925733  49.1057735  76.5621946 117.8592503
  55.6136179  67.4282057 109.0613387  54.8036908  67.0829142 109.4368633
  56.3020596  67.1189601 109.6500999  57.5426728  66.5060104 110.6837684
  58.0957766  66.9255557 111.3427707  57.7796814  65.5795852 110.7260640
  53.5659827  72.4947178 126.4640448  53.4656554  73.4441535 126.3952539
  53.3481369  72.1665417 125.5916518  52.7672898  69.7432103 103.0481125
  53.6292062  70.0687001 103.3076943  52.9523242  68.9563599 102.5354191
  44.7840314  77.8254442 115.3261314  44.0903785  77.4108395 114.8131268
  45.5313305  77.8674979 114.7294733  60.9205535  68.6160629 110.1916348
  60.3404204  69.2745433 109.8094401  60.6541467  67.7937974 109.7803766
  59.3709101  68.0165687 112.3937669  59.8708879  68.1282221 111.5851987
  60.0144709  67.7126740 113.0338477  53.4291097  75.9244317 125.2805510
  52.9458179  76.7244677 125.4869399  53.5152036  75.9352261 124.3272954
  46.6977056  77.7572696 113.2027329  46.6747745  77.8560383 112.2509212
  47.0077693  78.6037847 113.5244495  49.3564434  79.8148851 117.3173943
  50.3107688  79.7832794 117.2503875  49.1576958  79.3539475 118.1324169
  49.9463816  78.3849967 119.8844741  50.7656705  78.8794046 119.9079578
  50.2200624  77.4681935 119.8562309  59.7030413  70.7760720 109.2472697
  58.8156268  71.0610370 109.0292891  60.1184402  70.6154483 108.3999973
  63.0544949  70.8007241 112.9627036  63.8305339  71.2903693 113.2351653
  62.3293083  71.2265295 113.4198905  65.4917507  71.5134860 114.0200976
  66.0861998  71.2730596 113.3094285  65.5644091  70.7941990 114.6474513
  47.7114663  85.3568471 114.3344141  47.5769131  84.5968872 113.7682139
  47.2946725  86.0809371 113.8672930  58.8473626  80.5405394 103.3420717
  59.5509476  80.7455397 103.9578372  58.1236275  81.1082156 103.6069800
  59.6771436  76.2915255 109.4622987  59.6206638  76.7483807 108.6230619
  60.2299779  75.5305940 109.2845829  63.4876242  72.0804987 110.2873106
  63.2313177  71.6801623 111.1181314  62.8629110  72.7948781 110.1623245
  67.7988580  74.8201061 112.7944398  67.2388138  74.8894250 113.5675960
  67.1932084  74.6442045 112.0743894  50.8683789  86.2537788 114.5462584
  50.7516173  87.1983220 114.4441274  50.0476235  85.9511349 114.9348383
  60.7560324  80.9787923 105.3919177  61.5905927  80.5469122 105.2096651
  60.5944666  80.8069937 106.3196071  60.4106216  77.4820037 106.7575516
  60.3555020  77.3164308 105.8163960  59.7852271  78.1896070 106.9137706
  45.1998731  72.7188101 120.5836938  45.8457594  72.2087055 121.0724163
  44.9915882  73.4556783 121.1580363  53.7202341  66.9828146 106.3360834
  53.7081011  67.9269986 106.4929105  54.6125763  66.7998291 106.0420295
  51.8938303  86.9066050 117.7618512  52.7965550  86.9389660 118.0785007
  51.6675673  85.9766501 117.7764848  53.6491905  85.6597036 114.4228591
  52.6987536  85.6598898 114.3092963  53.9524391  84.9129771 113.9064626
  57.5354461  63.5770922 110.5906771  56.7686856  63.0229409 110.7363453
  57.9465166  63.6492791 111.4520923  49.5396222  69.8655718 124.6811952
  50.4027683  69.5092523 124.8915277  48.9661632  69.5269613 125.3687357
  62.0521121  93.3020479 111.4132769  61.4885986  93.2110416 110.6449057
  61.9373516  92.4820384 111.8935261  59.5985553  94.7971671 114.2516989
  60.3906844  94.4562495 113.8363289  59.8382203  94.9066646 115.1719143
  67.6320679  96.9691447 106.7247234  66.9808659  97.5545527 106.3381248
  68.4265042  97.4997642 106.7842271  61.5576306  94.0580584 107.1234368
  62.3307182  93.5109571 106.9847244  61.9101705  94.9224833 107.3348830
  63.8942584  90.2173250 104.7552818  64.1468105  89.6954771 103.9936281
  62.9567143  90.0539395 104.8579502  68.9385867  89.2209028 112.5627561
  69.7248956  88.8028452 112.2117978  69.2024571  90.1255121 112.7309210
  69.1095944  94.6581879 107.2616218  68.4741777  94.7316505 107.9737123
  68.7793351  95.2475478 106.5835297  63.6138873  92.1201356 106.9577193
  63.4975131  91.4446259 107.6258277  63.7241133  91.6333730 106.1409346
  65.9570414  91.5811503 110.6623882  65.5928621  91.0542124 111.3736804
  66.8137530  91.1909972 110.4890368  65.5975901  86.6101403 105.6585231
  65.7650303  87.4781639 106.0255702  65.4073070  86.7728684 104.7346520
  61.8063716  91.5232179 113.3587766  60.8814212  91.3908393 113.5665457
  62.0548129  92.3026398 113.8557708  65.5765122  89.0659060 106.6431898
  65.4564747  89.5116111 107.4817378  64.8817710  89.4144378 106.0845436
  59.1672527  91.1665452 114.1931555  59.2964908  91.4199931 115.1070966
  58.4869978  91.7593160 113.8736210  71.2750188  89.5380533 107.4712232
  72.1868044  89.7707920 107.2959929  70.7659835  90.1217578 106.9087310
  68.6186163  85.7138569 115.7202093  67.7570642  86.0119823 116.0118830
  68.6448597  85.9308968 114.7883125  65.4347732  94.2580760 112.1275898
  65.8986078  94.5368463 111.3380521  65.1704530  93.3564205 111.9448989
  64.3716618  90.3803912 108.9365463  65.0740662  90.8324956 109.4039390
  64.0397247  89.7387731 109.5645357  58.1141952  88.6387465 114.2382597
  57.3241006  88.8944994 113.7622708  58.6053200  89.4535803 114.3434638
  60.0656698  89.0032044 111.1966074  59.2687861  89.1150739 111.7149569
  59.8382290  89.3418697 110.3306964  56.3979655  88.8917955 116.6697588
  56.6487694  89.7764965 116.9355164  56.9339204  88.7122557 115.8972680
  65.6110383  97.1944855 109.0127569  65.4756058  98.0396391 109.4412416
  66.1520195  97.3964133 108.2493502  59.0639780  94.7120293 109.5855494
  59.5764301  95.5063543 109.7361058  59.7162493  94.0146583 109.5189095
  60.8734665  97.8286049 111.6678247  61.0501293  98.7504014 111.4799231
  61.6691498  97.5144469 112.0972627  68.9602846  80.7175417 117.5426462
  68.6167116  81.6077059 117.4665573  69.3281809  80.5277075 116.6796047
  57.0288697  93.0408947 110.3615064  57.8663919  93.4505956 110.1448772
  57.2066965  92.1008390 110.3315258  68.9253129  90.7084028 106.0498897
  68.4099753  91.4788633 106.2887285  68.6530438  90.0349164 106.6731959
  66.5100240  85.5533729 111.1084136  65.6541837  85.1640579 110.9289774
  66.9227192  85.6325690 110.2483921  68.0399387  83.0880072 115.5075695
  67.5364182  83.0510207 114.6943501  68.3329994  83.9972815 115.5672352
  64.2842273  83.1718802 114.5141877  65.1495269  82.9761610 114.1547767
  64.3519782  82.9429154 115.4411234  73.8987403  93.4616383 107.9852071
  73.1216846  93.1227542 107.5407233  74.5778884  93.4669006 107.3107036
  68.7139432  88.5811120 107.8758678  68.4089568  88.8957269 108.7268822
  69.6669874  88.6592540 107.9186011  67.1585864  94.7401343 109.5251632
  66.6307226  94.0054103 109.2124870  66.6573367  95.5176020 109.2791601
  61.8904592  85.4021010 111.8858244  62.4648344  85.1796191 111.1531437
  62.4775574  85.4709704 112.6386845  62.2174179  87.4325471 105.9054129
  61.3811491  87.7700157 106.2263404  62.0778949  87.2974451 104.9681266
  64.1927259  82.2762259 110.6133313  63.5391672  81.9611276 109.9889928
  64.1507734  81.6537999 111.3393136  65.3038464  92.5581554 102.5286605
  64.3965526  92.3270807 102.7277754  65.8009496  91.7619173 102.7160587
  68.2106543 101.2679061 105.4483292  67.5368242 101.5710758 106.0568249
  68.5972365 102.0708141 105.0988749  67.4265000  88.7644192 114.9380961
  66.5087561  88.9859139 114.7802649  67.8425143  88.8390503 114.0792668
  68.2100048  90.1635608 110.0683641  68.9571867  90.6757005 109.7590763
  68.4791637  89.8419661 110.9288035  66.4826698  92.6594149 107.0510595
  65.5737917  92.3753181 107.1483065  66.5121782  93.0793227 106.1913902
  70.6578885  87.1992724 112.0502430  69.9201642  86.6870110 112.3812673
  70.9105658  86.7593106 111.2385707  70.7590512  79.9768976 112.6444200
  71.0649389  79.1166339 112.3570115  71.4843117  80.5686596 112.4443194
  57.0514868  90.3799663 111.0325798  56.8539268  89.7869023 110.3076864
  56.4961532  90.0751873 111.7501736  65.0311592  90.2722769 113.1520391
  65.0860202  89.3196606 113.0762867  64.2202794  90.4282208 113.6361689
  66.1802786  94.2002892 104.3898674  65.7422216  93.4838751 103.9304311
  66.9213226  94.4279007 103.8283765  62.9703952  88.8899829 110.9110770
  62.1571817  89.1893999 111.3175962  63.4662946  88.4955518 111.6285252
  74.2975900  92.4760089 110.4474993  74.1593799  92.6661685 109.5196182
  73.9412119  93.2379472 110.9043044  62.4618027  86.4618184 116.5272005
  63.1017406  86.3206944 115.8294968  61.6295557  86.1752698 116.1510607
  63.2378330  95.7620615 112.6406997  64.0318929  95.2670935 112.4389572
  62.5270023  95.2338478 112.2774703  59.5461094  89.9063697 108.7166750
  58.6158682  89.8448152 108.9336712  59.6418566  89.3839649 107.9203391
  59.4646643  86.4318509 111.3044991  59.7253460  87.3463843 111.1954152
  60.2863815  85.9642952 111.4541604  60.9371568  87.8456267 118.4743816
  61.6094622  87.6373629 117.8256465  60.1101355  87.6478353 118.0349048
  66.4097758 101.4358733 107.6630371  66.5849514 100.9646776 108.4775993
  65.7230546 102.0624499 107.8911631  70.3014013  93.0587274 103.9830732
  69.6843184  92.3334102 103.8863784  69.8330502  93.8196634 103.6397806
  62.0912559  87.2772698 103.1052036  61.2142025  87.1561499 102.7414283
  62.5670312  86.4858776 102.8530925  53.6114699  92.0649858 113.1993543
  54.2985739  91.7511588 112.6114558  53.4562828  92.9691223 112.9260794
  58.4149421  86.9540054 117.6278567  58.3307610  86.3465724 116.8928977
  57.5932128  87.4449073 117.6288063  68.5873135  85.4393618 112.9948762
  69.0841835  84.6863580 112.6749832  67.8160117  85.4757935 112.4291971
  69.6702916  94.1965305 110.5687185  68.7359195  94.3166768 110.3991890
  69.8479584  93.2937772 110.3047195  65.1708104  87.5811001 112.7220446
  64.8005892  87.0282041 113.4101352  65.6667196  86.9769134 112.1695446
  73.0575467  90.0382624 111.1037219  73.5235920  90.8710616 111.0297522
  73.5082968  89.5727606 111.8082478  71.1251698  96.3826446 108.1023371
  71.4011542  96.2683040 109.0117245  70.2556197  95.9843931 108.0635544
  71.0292130  82.4063211 115.1428121  70.1155210  82.6367438 115.3110328
  71.4585232  82.4901656 115.9942153  68.0947928  99.5580982 109.0071233
  68.6235694  99.0473436 108.3941396  68.3576148  99.2423512 109.8716767
  53.1882675  90.1450451 115.4711010  53.2266775  89.6114042 116.2648128
  52.6822968  89.6185657 114.8521987  60.5673438  84.9914992 118.9673552
  60.6314764  85.8529823 118.5550950  60.5040558  84.3788993 118.2345911
  56.8191253  88.8714553 108.5464942  57.1144694  87.9625232 108.4931995
  55.9179289  88.8502293 108.2245944  60.3485500  86.9470550 114.5292490
  59.6272086  87.5606518 114.3899963  61.1378756  87.4828315 114.4509136
  58.5479095  86.5528651 108.6704267  58.2191801  85.6726030 108.4879373
  58.9018465  86.4976320 109.5580656  61.6620918  86.8401621 109.0379744
  62.0016990  87.3687542 108.3158353  62.1093038  87.1782027 109.8138311
  64.3564359  85.2238672 118.4882812  64.0161179  84.4246485 118.8903492
  63.6503365  85.5240382 117.9159646  65.0080830  82.3087984 116.9410135
  65.8306900  81.8348462 116.8189026  65.2518894  83.0878468 117.4408822
  63.6489065  85.3376242 107.2373037  64.3697427  85.7157495 106.7336754
  63.0254369  86.0565119 107.3408015  67.7920188  86.0421391 108.1731370
  68.0083802  86.9246029 107.8720198  67.3114255  85.6507605 107.4437011
  62.5319409  89.0007105 114.7502114  62.3863990  89.3147408 115.6426396
  62.0544613  89.6192005 114.1973013  64.3915792  85.9909653 114.7983004
  64.3777361  85.0950746 114.4615302  65.1088220  85.9980316 115.4321290
  66.2441923  86.4246993 116.8436131  65.9859701  87.3464063 116.8420462
  65.7126963  86.0277427 117.5336595  57.0065071  91.5412449 117.6889775
  56.4618539  92.3172257 117.8210050  57.8844421  91.8883254 117.5308897
  63.7952688  84.8724033 110.0670574  63.9168599  83.9440679 110.2661461
  63.5054730  84.8862719 109.1548889  66.6643878  82.5578943 113.2037294
  66.6865575  82.6218276 112.2489273  67.0811937  81.7183452 113.3977800
  72.1763284  98.8464544 106.7223115  72.8714189  99.4671237 106.9410429
  72.5186434  97.9959896 106.9975493  74.0754707  96.2964250 108.2510446
  74.6006031  96.6351523 107.5259766  73.9877060  95.3611265 108.0673580
  58.2387707  98.5547774 112.6130327  59.0645727  98.2551546 112.2328970
  57.8881759  97.7855396 113.0620115  56.4396312  96.4734100 113.5719260
  55.6028220  96.0456275 113.3903262  56.4119957  96.6666544 114.5090052
  62.7682747  96.4578166 108.1586461  62.9170867  97.1413630 107.5053134
  63.5749190  96.4383256 108.6735917  60.5235380  92.4843343 109.1647530
  60.2781422  91.5805673 109.3627740  60.6931294  92.4860494 108.2227008
  59.7931027  88.2171701 106.6633691  59.1000272  88.2916056 106.0073727
  59.5482779  87.4532044 107.1855208  68.4644684  79.7767302 114.0673182
  68.7446438  79.1090491 114.6933609  69.2495291  79.9696398 113.5547846
  66.2678152  98.9526296 105.6298208  65.6952119  99.5716483 105.1768680
  66.8410946  99.5025658 106.1638130  69.4875412  99.2363446 106.7606791
  70.4206085  99.1709008 106.9639666  69.3998625 100.0719713 106.3021323
  72.1163429  98.5529317 103.7210738  72.0377060  98.2189180 104.6146496
  72.9373096  99.0451084 103.7202211  66.6524951  90.2887109 102.9714261
  67.5984056  90.1593317 103.0402679  66.2739196  89.5501771 103.4483689
  72.6246835  81.9543115 112.9341153  72.4271657  81.6458203 113.8184485
  73.2346541  82.6804754 113.0639083  64.8367868  88.2137085 102.9069146
  63.9299323  87.9170198 102.9831860  65.1143849  87.9166903 102.0403432
  55.7545808  89.5343449 113.3568192  55.4348593  88.6808757 113.0642566
  55.2079237  89.7492027 114.1126160  66.4529934  82.7573975 109.0613387
  65.6430662  82.4121060 109.4368633  67.1414351  82.4481519 109.6500999
  68.3820482  81.8352022 110.6837684  68.9351521  82.2547475 111.3427707
  68.6190568  80.9087770 110.7260640  63.6066653  85.0724020 103.0481125
  64.4685817  85.3978919 103.3076943  63.7916997  84.2855516 102.5354191
  55.6234068  93.1546360 115.3261314  54.9297540  92.7400313 114.8131268
  56.3707059  93.1966897 114.7294733  71.7599289  83.9452547 110.1916348
  71.1797958  84.6037351 109.8094401  71.4935222  83.1229891 109.7803766
  70.2102856  83.3457605 112.3937669  70.7102634  83.4574139 111.5851987
  70.8538463  83.0418657 113.0338477  57.5370811  93.0864614 113.2027329
  57.5141499  93.1852301 112.2509212  57.8471447  93.9329765 113.5244495
  70.5424167  86.1052637 109.2472697  69.6550022  86.3902288 109.0292891
  70.9578156  85.9446401 108.3999973  73.8938703  86.1299158 112.9627036
  74.6699093  86.6195611 113.2351653  73.1686837  86.5557212 113.4198905
  69.6867381  95.8697312 103.3420717  70.3903231  96.0747314 103.9578372
  68.9630029  96.4374074 103.6069800  70.5165191  91.6207173 109.4622987
  70.4600392  92.0775725 108.6230619  71.0693533  90.8597858 109.2845829
  74.3269997  87.4096905 110.2873106  74.0706931  87.0093541 111.1181314
  73.7022865  88.1240699 110.1623245  71.5954078  96.3079841 105.3919177
  72.4299682  95.8761040 105.2096651  71.4338421  96.1361855 106.3196071
  71.2499970  92.8111954 106.7575516  71.1948774  92.6456226 105.8163960
  70.6246025  93.5187987 106.9137706  56.0392485  88.0480019 120.5836938
  56.6851349  87.5378973 121.0724163  55.8309636  88.7848700 121.1580363
  64.5596096  82.3120063 106.3360834  64.5474766  83.2561903 106.4929105
  65.4519518  82.1290209 106.0420295  68.3748215  78.9062840 110.5906771
  67.6080611  78.3521327 110.7363453  68.7858920  78.9784709 111.4520923
  73.0567933 102.7617388 105.9054129  72.2205246 103.0992075 106.2263404
  72.9172703 102.6266368 104.9681266  72.9306314 102.6064616 103.1052036
  72.0535780 102.4853417 102.7414283  73.4064067 101.8150694 102.8530925
  70.6324782 103.5463618 106.6633691  69.9394027 103.6207973 106.0073727
  70.3876534 102.7823962 107.1855208  75.6761623 103.5429003 102.9069146
  74.7693078 103.2462116 102.9831860  75.9537604 103.2458821 102.0403432
  74.4460407 100.4015938 103.0481125  75.3079571 100.7270836 103.3076943
  74.6310751  99.6147434 102.5354191  75.3989850  97.6411981 106.3360834
  75.3868520  98.5853821 106.4929105  76.2913272  97.4582127 106.0420295
  24.8531527  16.9573513  92.1728598  24.1793225  17.2605210  92.7813556
  25.2397348  17.7602593  91.8234055  28.8188267  14.5358996  93.4468421
  29.5139172  15.1565689  93.6655736  29.1611417  13.6854347  93.7220799
  22.9103136  14.6420748  92.3543515  22.3377103  15.2610935  91.9013987
  23.4835929  15.1920110  92.8883437  26.1300395  14.9257898  93.4852097
  27.0631069  14.8603460  93.6884973  26.0423608  15.7614165  93.0266630
  28.7588412  14.2423768  90.4456045  28.6802044  13.9083632  91.3391803
  29.5798079  14.7345536  90.4447517  26.3292364  11.5591764  90.0666023
  27.0328214  11.7641766  90.6823679  25.6055013  12.1268526  90.3315107
  28.2379061  11.9974293  92.1164483  29.0724665  11.5655491  91.9341958
  28.0763404  11.8256307  93.0441378  36.8663336  22.5143944 102.2119660
  37.5041746  22.3950691 101.5083000  36.7484179  23.4624788 102.2707612
  29.5339858  24.3206849  98.1378076  28.9704724  24.2296786  97.3694363
  29.4192253  23.5006753  98.6180568  35.1139417  27.9877816  93.4492541
  34.4627397  28.5731897  93.0626554  35.9083780  28.5184011  93.5087578
  29.0395044  25.0766953  93.8479675  29.8125920  24.5295941  93.7092551
  29.3920443  25.9411203  94.0594136  31.3761322  21.2359620  91.4798125
  31.6286843  20.7141141  90.7181588  30.4385881  21.0725765  91.5824808
  36.4204605  20.2395398  99.2872868  37.2067694  19.8214821  98.9363285
  36.6843309  21.1441490  99.4554516  36.5914682  25.6768248  93.9861525
  35.9560515  25.7502875  94.6982429  36.2612089  26.2661847  93.3080604
  41.8213032  20.1770631 100.1905847  42.5538204  19.6069848 100.4243676
  41.0652388  19.7892232 100.6312352  31.0957611  23.1387726  93.6822500
  30.9793869  22.4632629  94.3503584  31.2059871  22.6520099  92.8654653
  33.4389152  22.5997873  97.3869189  33.0747359  22.0728494  98.0982110
  34.2956268  22.2096342  97.2135674  33.0794639  17.6287772  92.3830537
  33.2469041  18.4968009  92.7501009  32.8891808  17.7915054  91.4591827
  33.0583860  20.0845430  93.3677204  32.9383485  20.5302481  94.2062685
  32.3636448  20.4330748  92.8090742  30.8190752  32.8549072  97.0167336
  30.7414781  33.8056897  97.0955816  30.2152395  32.5094944  97.6742262
  38.7568926  20.5566903  94.1957538  39.6686782  20.7894290  94.0205236
  38.2478573  21.1403947  93.6332617  37.3638508  25.5392721 101.5871120
  36.7347371  25.7038436 100.8847188  36.9764170  25.9534331 102.3582084
  41.2427740  26.4747159  98.9415484  40.5578778  26.8546061  98.3912517
  41.3271589  27.0842486  99.6747431  32.9166470  25.2767130  98.8521205
  33.3804815  25.5554833  98.0625827  32.6523268  24.3750574  98.6694296
  31.8535356  21.3990282  95.6610770  32.5559399  21.8511326  96.1284696
  31.5215985  20.7574101  96.2890663  39.6124500  26.9979074 103.7133184
  40.4341943  26.5959261 103.4315866  39.6086902  26.8947308 104.6649300
  47.7030493  23.3417822 100.0618156  46.9494201  22.7725220  99.9062160
  47.8378034  23.3080487 101.0088791  33.0929121  28.2131225  95.7372875
  32.9574795  29.0582760  96.1657723  33.6338933  28.4150502  94.9738809
  26.5458518  25.7306663  96.3100800  27.0583039  26.5249913  96.4606365
  27.1981231  25.0332953  96.2434402  28.3553403  28.8472419  98.3923554
  28.5320031  29.7690384  98.2044537  29.1510236  28.5330838  98.8217933
  29.4784718  30.3650593 104.3933896  30.0292143  30.2367656 103.6210890
  28.6396194  30.6645482 104.0428789  24.5107435  24.0595317  97.0860371
  25.3482657  24.4692325  96.8694079  24.6885703  23.1194759  97.0560565
  36.4071867  21.7270398  92.7744204  35.8918490  22.4975002  93.0132591
  36.1349175  21.0535534  93.3977265  33.9918978  16.5720098  97.8329442
  33.1360574  16.1826949  97.6535081  34.4045930  16.6512059  96.9729228
  41.3806141  24.4802752  94.7097377  40.6035584  24.1413912  94.2652539
  42.0597622  24.4855375  94.0352342  36.1958170  19.5997490  94.6003985
  35.8908306  19.9143639  95.4514128  37.1488612  19.6778910  94.6431318
  34.6404602  25.7587713  96.2496939  34.1125964  25.0240473  95.9370176
  34.1392105  26.5362389  96.0036907  39.6197448  23.9536733 101.3663985
  38.9621122  24.6435995 101.4544114  40.4237847  24.3433165 101.7097972
  38.4302907  22.3081106  99.4167927  38.9434789  22.9411098  99.9189637
  39.0804131  21.7082302  99.0511287  29.6992917  18.4511840  92.6299436
  28.8630229  18.7886527  92.9508711  29.5597686  18.3160820  91.6926573
  32.7857202  23.5767923  89.2531912  31.8784264  23.3457177  89.4523061
  33.2828234  22.7805542  89.4405894  35.6925281  32.2865430  92.1728598
  35.0186980  32.5897127  92.7813556  36.0791103  33.0894511  91.8234055
  35.6918785  21.1821977  96.7928948  36.4390604  21.6943375  96.4836070
  35.9610375  20.8606030  97.6533341  33.9645436  23.6780518  93.7755902
  33.0556655  23.3939551  93.8728372  33.9940519  24.0979597  92.9159209
  39.1964703  27.2887108  97.5447070  38.7427030  26.4478017  97.6012260
  38.5658670  27.9248506  97.8821850  38.1397623  18.2179094  98.7747737
  37.4020379  17.7056480  99.1057980  38.3924396  17.7779475  97.9631014
  37.6397642  29.1263604  98.4796888  37.9320617  29.6868661  97.7609253
  38.1496263  29.4192165  99.2350047  32.5130330  21.2909139  99.8765697
  32.5678939  20.3382975  99.8008174  31.7021532  21.4468578 100.3606996
  33.6621523  25.2189262  91.1143981  33.2240953  24.5025121  90.6549618
  34.4031964  25.4465377  90.5529072  30.4522690  19.9086198  97.6356076
  29.6390555  20.2080369  98.0421268  30.9481684  19.5141887  98.3530559
  32.6031267  29.9043955  99.5690341  32.5607446  30.1304802  98.6398873
  33.5193966  29.6707330  99.7176142  41.7794638  23.4946459  97.1720299
  41.6412537  23.6848055  96.2441488  41.4230857  24.2565842  97.6288350
  41.8064018  25.5622986 102.1831571  42.2400524  25.4698275 103.0314625
  42.5195598  25.5380486 101.5451587  30.7197068  26.7806984  99.3652304
  31.5137667  26.2857305  99.1634879  30.0088761  26.2524848  99.0020009
  35.5391913  29.1625080 103.7164671  35.5928935  29.7316016 104.4842387
  34.6706694  29.3326965 103.3518709  27.0279832  20.9250066  95.4412056
  26.0977420  20.8634522  95.6582019  27.1237304  20.4026019  94.6448698
  42.6679567  25.6046686 104.7164456  42.8615457  26.5092497 104.9623731
  42.5680185  25.1454106 105.5503041  33.2968344  27.3536006 103.0450141
  33.1579430  26.9854791 103.9176079  32.5082940  27.8683646 102.8734099
  33.8916496  32.4545103  94.3875677  34.0668252  31.9833146  95.2021300
  33.2049284  33.0810869  94.6156938  34.8473559  26.7317609 100.4338979
  34.5123392  26.6918379 101.3296629  34.3477505  26.0662325  99.9609389
  37.7832751  24.0773643  90.7076038  37.1661922  23.3520472  90.6109091
  37.3149239  24.8383004  90.3643113  28.4577581  35.6034466 101.1615538
  28.6974180  36.2352990 101.8394556  27.6146778  35.2522506 101.4480897
  29.5731297  18.2959068  89.8297343  28.6960763  18.1747869  89.4659589
  30.0489050  17.5045146  89.5776231  32.9705443  31.4113588 103.5657042
  32.8975615  32.2168560 104.0776346  32.5282836  31.6105554 102.7405063
  32.7595223  30.6485358  97.0759863  31.9762745  31.1907038  97.1698088
  33.4587968  31.1659338  97.4754104  43.9221630  22.1620353 101.3612360
  43.9111507  23.0445069 100.9906293  43.0539010  21.8091904 101.1666897
  35.4304127  31.3100422 105.7215200  36.1432099  31.9447887 105.6491102
  34.9394155  31.4064288 104.9055202  37.1521654  25.2151675  97.2932492
  36.2177932  25.3353137  97.1237196  37.3298322  24.3124142  97.0292502
  40.5394205  21.0568994  97.8282526  41.0054657  21.8896986  97.7542829
  40.9901706  20.5913976  98.5327784  38.6070436  27.4012815  94.8268678
  38.8830280  27.2869410  95.7362552  37.7374935  27.0030300  94.7880851
  35.2424500  31.6499166  98.4701492  35.4246895  30.8320822  98.9329244
  36.0657486  31.8666858  98.0326382  35.5766666  30.5767351  95.7316540
  36.1054432  30.0659806  95.1186702  35.8394885  30.2609882  96.5962073
  28.9322414  31.6282468  98.4914316  28.2632789  32.1128596  98.0078356
  28.7935283  31.8751688  99.4057695  33.0727682  33.6626212 105.0896974
  33.6245990  33.8257833 105.8546060  33.4133876  34.2530649 104.4176999
  24.3009991  19.8900923  95.2710248  24.5963432  18.9811601  95.2177302
  23.3998026  19.8688662  94.9491251  36.2096070  31.6108187 102.0760657
  36.0847209  30.8097927 101.5671602  36.8675161  32.1054380 101.5874627
  38.2730978  29.4117207 103.7040207  37.3261313  29.2922558 103.6318533
  38.6213751  28.5239705 103.7866468  35.2777411  29.2069923  99.9044559
  35.1302374  28.2786631 100.0852129  36.1030905  29.2290014  99.4201634
  29.1439655  17.8587990  95.7625051  29.4835728  18.3873912  95.0403659
  29.5911776  18.1968397  96.5383618  38.8811533  30.0298482 100.9909432
  39.8058081  29.8241343 100.8533883  38.7126836  29.7814883 101.8998773
  31.1307803  16.3562612  93.9618344  31.8516165  16.7343865  93.4582061
  30.5073107  17.0751489  94.0653322  35.2738926  17.0607761  94.8976676
  35.4902540  17.9432399  94.5965504  34.7932993  16.6693974  94.1682318
  38.6706849  30.5484150  96.3471523  38.8443727  29.9830572  95.5945376
  39.1635740  31.3485044  96.1651013  44.5246240  23.3120572  97.9661823
  44.9677386  22.5627898  97.5680946  43.6472751  23.3030709  97.5835555
  39.6582022  29.8650914  93.4468421  40.3532926  30.4857607  93.6655736
  40.0005172  29.0146265  93.7220799  41.5573445  27.3150619  94.9755752
  42.0824769  27.6537892  94.2505072  41.4695797  26.3797635  94.7918887
  33.2414106  33.3822603  99.3351005  32.8019096  32.8898981 100.0283862
  33.9922223  32.8395570  99.0943081  25.7206445  29.5734144  99.3375633
  26.5464464  29.2737915  98.9574277  25.3700497  28.8041766  99.7865422
  30.6887978  28.9260612 101.4073307  30.0667987  28.2631317 101.1075535
  31.3592845  28.9521744 100.7246955  30.2501485  27.4764535  94.8831768
  30.3989605  28.1600000  94.2298440  31.0567928  27.4569625  95.3981223
  44.0679105  24.7825811 100.3584270  44.9025996  25.2215615 100.5221831
  44.2038234  24.3064464  99.5392516  28.0054118  23.5029713  95.8892836
  27.7600160  22.5992043  96.0873047  28.1750032  23.5046863  94.9472314
  27.2749765  19.2358070  93.3878998  26.5819010  19.3102425  92.7319034
  27.0301517  18.4718414  93.9100515  33.7496890  29.9712666  92.3543515
  33.1770857  30.5902853  91.9013987  34.3229684  30.5212027  92.8883437
  36.9694150  30.2549816  93.4852097  37.9024823  30.1895377  93.6884973
  36.8817363  31.0906083  93.0266630  39.5982167  29.5715686  90.4456045
  39.5195798  29.2375550  91.3391803  40.4191833  30.0637454  90.4447517
  42.2960358  22.4377425 103.6532363  42.2636678  21.4993426 103.8392047
  42.9060981  22.5161462 102.9198188  34.1343689  21.3073478  89.6959567
  35.0802793  21.1779686  89.7647986  33.7557934  20.5688140  90.1728996
  48.1136908  23.4993432 102.7938400  48.8440296  23.2378720 103.3546104
  47.5043853  22.7622154 102.8340468  46.1952205  21.6401295 103.3912851
  45.4685368  21.5057260 102.7829343  45.7799492  21.9478123 104.1969569
  32.3186606  19.2323455  89.6314453  31.4118061  18.9356567  89.7077166
  32.5962587  18.9353273  88.7648739  33.9348672  13.7760344  95.7858694
  33.1249400  13.4307429  96.1613940  34.6233088  13.4667888  96.3746306
  31.0885390  16.0910390  89.7726432  31.9504554  16.4165288  90.0322249
  31.2735735  15.3041886  89.2599498  39.2418027  14.9638916  96.9161655
  38.6616696  15.6223720  96.5339707  38.9753960  14.1416261  96.5049072
  38.0242905  17.1239007  95.9718003  37.1368760  17.4088657  95.7538198
  38.4396894  16.9632770  95.1245280  41.3757441  17.1485528  99.6872342
  42.1517831  17.6381980  99.9596959  40.6505575  17.5743582 100.1444212
  43.8130000  17.8613147 100.7446283  44.4074491  17.6208883 100.0339591
  43.8856583  17.1420278 101.3719819  26.0327155  31.7046758 101.0589448
  25.8981623  30.9447159 100.4927446  25.6159218  32.4287658 100.5918237
  37.1686118  26.8883681  90.0666023  37.8721969  27.0933684  90.6823679
  36.4448767  27.4560443  90.3315107  37.9983929  22.6393543  96.1868293
  37.9419130  23.0962094  95.3475926  38.5512271  21.8784227  96.0091136
  41.8088735  18.4283275  97.0118413  41.5525669  18.0279910  97.8426621
  41.1841603  19.1427069  96.8868552  46.1201072  21.1679348  99.5189704
  45.5600630  21.2372537 100.2921266  45.5144576  20.9920332  98.7989200
  29.1896281  32.6016075 101.2707891  29.0728665  33.5461507 101.1686581
  28.3688728  32.2989637 101.6593690  39.0772816  27.3266211  92.1164483
  39.9118420  26.8947409  91.9341958  38.9157159  27.1548224  93.0441378
  38.7318708  23.8298324  93.4820823  38.6767512  23.6642595  92.5409267
  38.1064763  24.5374357  93.6383012  32.0414833  13.3306433  93.0606141
  32.0293503  14.2748273  93.2174412  32.9338255  13.1476578  92.7665602
  30.2150795  33.2544337 104.4863819  31.1178042  33.2867947 104.8030314
  29.9888165  32.3244788 104.5010155  31.9704397  32.0075323 101.1473898
  31.0200028  32.0077185 101.0338270  32.2736884  31.2608058 100.6309932
  47.7057091  37.8435862 102.2119660  48.3435501  37.7242609 101.5083000
  47.5877934  38.7916706 102.2707612  44.5146797  37.7963290 102.1481185
  44.1765309  37.6804355 101.2601720  45.3836565  37.3954455 102.1282191
  40.3733613  39.6498766  98.1378076  39.8098478  39.5588703  97.3694363
  40.2586008  38.8298671  98.6180568  44.9966580  38.9498142 108.1067390
  44.9855221  38.5550940 107.2347894  45.1587220  38.2164214 108.7001162
  37.9198045  41.1449958 100.9762296  38.7119337  40.8040783 100.5608595
  38.1594695  41.2544933 101.8964449  45.9533172  43.3169734  93.4492541
  45.3021151  43.9023814  93.0626554  46.7477534  43.8475929  93.5087578
  39.8788799  40.4058871  93.8479675  40.6519675  39.8587858  93.7092551
  40.2314198  41.2703120  94.0594136  41.7173841  41.7335253 107.0546574
  41.4263707  42.6380884 106.9393240  42.3530826  41.7751781 107.7690644
  42.6430048  39.1112102 103.6447934  43.2393620  38.8868124 102.9304897
  42.7005020  38.3696847 104.2473382  42.2155077  36.5651537  91.4798125
  42.4680597  36.0433059  90.7181588  41.2779636  36.4017683  91.5824808
  47.2598359  35.5687316  99.2872868  48.0461449  35.1506739  98.9363285
  47.5237064  36.4733408  99.4554516  47.4308437  41.0060166  93.9861525
  46.7954270  41.0794792  94.6982429  47.1005843  41.5953765  93.3080604
  52.6606787  35.5062549 100.1905847  53.3931958  34.9361766 100.4243676
  51.9046142  35.1184149 100.6312352  41.9351365  38.4679643  93.6822500
  41.8187623  37.7924547  94.3503584  42.0453625  37.9812017  92.8654653
  44.2782906  37.9289790  97.3869189  43.9141113  37.4020411  98.0982110
  45.1350022  37.5388259  97.2135674  50.1832207  29.2184123 104.6500455
  49.8515532  30.0879534 104.4261670  49.5877820  28.9020407 105.3294486
  43.9188393  32.9579690  92.3830537  44.0862796  33.8259926  92.7501009
  43.7285562  33.1206972  91.4591827  46.6763726  41.4196669 104.0496368
  46.3764450  42.3221708 103.9412175  46.3314786  41.1528852 104.9017521
  40.1276208  37.8710466 100.0833072  39.2026704  37.7386680 100.2910764
  40.3760621  38.6504685 100.5803015  50.0760870  33.9379209 101.7293805
  49.1677748  33.8694618 101.4352566  50.0248466  34.4151154 102.5575631
  43.8977614  35.4137348  93.3677204  43.7777239  35.8594398  94.2062685
  43.2030202  35.7622665  92.8090742  37.4885019  37.5143739 100.9176861
  37.6177400  37.7678218 101.8316273  36.8082470  38.1071447 100.5981516
  44.1501736  35.3568855 109.6728702  43.3735070  35.9162775 109.6631567
  44.7892299  35.8425638 110.1943573  51.9422517  32.1395648 103.5071679
  51.2996897  32.4328181 102.8611474  51.4377445  32.0248568 104.3124876
  49.5962680  35.8858821  94.1957538  50.5080536  36.1186207  94.0205236
  49.0872327  36.4695865  93.6332617  42.4048108  38.1654308 109.2346669
  43.1462793  38.7039352 108.9581493  41.6985094  38.7920597 109.3918221
  47.8803448  40.3083449 107.8318831  48.2886804  39.8665859 107.0873463
  47.1580709  39.7336076 108.0853024  44.2334518  35.2456055 105.2052388
  45.0795713  35.6695469 105.3487037  44.1733156  34.5889680 105.8990951
  48.2032263  40.8684639 101.5871120  47.5741125  41.0330353 100.8847188
  47.8157925  41.2826249 102.3582084  52.0821494  41.8039077  98.9415484
  51.3972533  42.1837978  98.3912517  52.1665344  42.4134404  99.6747431
  47.3833963  32.9060424 106.8633562  47.1394895  33.6602484 106.3267837
  47.6593894  33.2845771 107.6980809  49.3372426  39.4499036 105.5410827
  49.5489321  40.0930796 104.8645208  49.2902174  38.6161353 105.0732757
  46.9398655  32.0616857 102.4447399  46.0783134  32.3598110 102.7364137
  46.9661090  32.2787256 101.5128432  43.7560224  40.6059047  98.8521205
  44.2198570  40.8846750  98.0625827  43.4917023  39.7042492  98.6694296
  40.6484306  40.1530529 101.7900968  41.2185663  40.5817797 101.1518453
  41.2392417  39.8713113 102.4885154  42.6929111  36.7282200  95.6610770
  43.3953154  37.1803243  96.1284696  42.3609739  36.0866018  96.2890663
  41.1409472  35.3193956 110.0361979  40.5108133  36.0010237 110.2697376
  41.0345560  35.2077038 109.0915118  36.4354444  34.9865752 100.9627904
  35.6453498  35.2423281 100.4868014  36.9265692  35.8014090 101.0679944
  50.4518254  42.3270991 103.7133184  51.2735698  41.9251179 103.4315866
  50.4480657  42.2239226 104.6649300  38.3869190  35.3510332  97.9211380
  37.5900353  35.4629026  98.4394876  38.1594782  35.6896984  97.0552271
  44.2174857  41.8755035 105.8693895  44.2819290  42.3375442 106.7052067
  43.5085781  41.2452400 105.9976205  34.7192147  35.2396243 103.3942894
  34.9700186  36.1243253 103.6600470  35.2551696  35.0600844 102.6217986
  58.5424247  38.6709740 100.0618156  57.7887955  38.1017138  99.9062160
  58.6771788  38.6372404 101.0088791  43.9322875  43.5423142  95.7372875
  43.7968550  44.3874678  96.1657723  44.4732688  43.7442420  94.9738809
  37.3852273  41.0598580  96.3100800  37.8976793  41.8541831  96.4606365
  38.0374985  40.3624871  96.2434402  39.1947157  44.1764337  98.3923554
  39.3713786  45.0982301  98.2044537  39.9903991  43.8622756  98.8217933
  43.3358176  31.0372601 109.9907487  44.0767889  31.6379754 109.9111950
  43.5676099  30.2950239 109.4325530  38.4799514  36.2228968 108.2685717
  38.3653029  35.3214226 108.5692816  37.6244032  36.4692665 107.9170533
  45.5591352  44.1646709 109.8673217  45.1155206  43.3783087 109.5494122
  46.2208565  44.3525859 109.2017108  40.3178473  45.6942510 104.3933896
  40.8685898  45.5659574 103.6210890  39.4789949  45.9937399 104.0428789
  47.6572590  44.4449509 107.8954619  47.6391065  45.2658390 107.4034888
  48.5792510  44.3203584 108.1204760  44.1145644  41.9593638 108.7378127
  44.6473981  41.1981926 108.5077435  43.5859725  41.6667290 109.4802281
  47.2815339  27.0653704 104.2671769  46.9379608  27.9555346 104.1910879
  47.6494301  26.8755362 103.4041354  35.3501189  39.3887235  97.0860371
  36.1876411  39.7984243  96.8694079  35.5279457  38.4486677  97.0560565
  47.2465621  37.0562315  92.7744204  46.7312245  37.8266920  93.0132591
  46.9742930  36.3827451  93.3977265  44.8312732  31.9012016  97.8329442
  43.9754329  31.5118866  97.6535081  45.2439684  31.9803977  96.9729228
  46.3611879  29.4358359 102.2321002  45.8576675  29.3988494 101.4188807
  46.6542486  30.3451102 102.2917659  42.6054765  29.5197089 101.2387184
  43.4707762  29.3239898 100.8793073  42.6732274  29.2907441 102.1656540
  52.2199896  39.8094670  94.7097377  51.4429338  39.4705829  94.2652539
  52.8991377  39.8147293  94.0352342  47.0351925  34.9289407  94.6003985
  46.7302060  35.2435557  95.4514128  47.9882367  35.0070827  94.6431318
  45.4798356  41.0879631  96.2496939  44.9519718  40.3532390  95.9370176
  44.9785859  41.8654307  96.0036907  50.4591202  39.2828651 101.3663985
  49.8014877  39.9727913 101.4544114  51.2631602  39.6725083 101.7097972
  40.2117084  31.7499297  98.6103551  40.7860836  31.5274478  97.8776743
  40.7988066  31.8187991  99.3632152  49.2696661  37.6373024  99.4167927
  49.7828543  38.2703016  99.9189637  49.9197885  37.0374219  99.0511287
  40.5386671  33.7803758  92.6299436  39.7023983  34.1178444  92.9508711
  40.3991441  33.6452738  91.6926573  42.5139752  28.6240546  97.3378620
  41.8604164  28.3089563  96.7135235  42.4720226  28.0016286  98.0638443
  43.6250957  38.9059841  89.2531912  42.7178018  38.6749094  89.4523061
  44.1221989  38.1097460  89.4405894  45.7477492  35.1122479 101.6626268
  44.8300053  35.3337426 101.5047956  46.1637636  35.1868790 100.8037975
  46.5312540  36.5113895  96.7928948  47.2784359  37.0235292  96.4836070
  46.8004129  36.1897948  97.6533341  44.8039190  39.0072436  93.7755902
  43.8950409  38.7231469  93.8728372  44.8334274  39.4271514  92.9159209
  50.0358457  42.6179025  97.5447070  49.5820785  41.7769935  97.6012260
  49.4052424  43.2540424  97.8821850  48.9791377  33.5471011  98.7747737
  48.2414134  33.0348398  99.1057980  49.2318151  33.1071393  97.9631014
  48.4791397  44.4555522  98.4796888  48.7714371  45.0160579  97.7609253
  48.9890017  44.7484083  99.2350047  49.0803004  26.3247263  99.3689506
  49.3861881  25.4644627  99.0815421  49.8055609  26.9164884  99.1688500
  35.3727360  36.7277950  97.7571104  35.1751760  36.1347311  97.0322171
  34.8174024  36.4230160  98.4747043  43.3524084  36.6201056  99.8765697
  43.4072694  35.6674893  99.8008174  42.5415286  36.7760495 100.3606996
  44.5015278  40.5481179  91.1143981  44.0634708  39.8317038  90.6549618
  45.2425719  40.7757294  90.5529072  41.2916444  35.2378116  97.6356076
  40.4784310  35.5372287  98.0421268  41.7875438  34.8433805  98.3530559
  43.4425022  45.2335873  99.5690341  43.4001201  45.4596719  98.6398873
  44.3587721  44.9999248  99.7176142  46.8890656  35.7019941 106.4670970
  47.2440043  35.9291414 107.3265436  47.5362787  36.0338317 105.8448226
  52.6188393  38.8238376  97.1720299  52.4806291  39.0139972  96.2441488
  52.2624611  39.5857759  97.6288350  40.7830519  32.8096472 103.2517311
  41.4229898  32.6685231 102.5540275  39.9508049  32.5230985 102.8755913
  52.6457772  40.8914903 102.1831571  53.0794279  40.7990193 103.0314625
  53.3589353  40.8672404 101.5451587  41.5590823  42.1098902  99.3652304
  42.3531421  41.6149222  99.1634879  40.8482515  41.5816765  99.0020009
  46.3785667  44.4916998 103.7164671  46.4322689  45.0607934 104.4842387
  45.5100449  44.6618883 103.3518709  37.8673586  36.2541984  95.4412056
  36.9371174  36.1926439  95.6582019  37.9631058  35.7317937  94.6448698
  37.7859135  32.7796797  98.0290298  38.0465952  33.6942130  97.9199459
  38.6076308  32.3121239  98.1786911  39.2584061  34.1934554 105.1989123
  39.9307114  33.9851916 104.5501772  38.4313847  33.9956640 104.7594355
  53.5073322  40.9338604 104.7164456  53.7009212  41.8384415 104.9623731
  53.4073940  40.4746023 105.5503041  45.1609633  30.8196495 107.2154784
  44.5137548  31.5186444 107.1219260  45.9310648  31.2532639 107.5831032
  48.5688430  41.0845347 110.2905337  48.4173937  40.8555899 109.3735420
  48.5593110  42.0415948 110.3036682  45.3373767  38.6577260 105.2751603
  46.2665827  38.8088419 105.1020571  44.9164797  38.7461280 104.4200250
  44.1362099  42.6827924 103.0450141  43.9973184  42.3146708 103.9176079
  43.3476695  43.1975563 102.8734099  45.6867314  42.0609527 100.4338979
  45.3517146  42.0210297 101.3296629  45.1871260  41.3954243  99.9609389
  39.6611558  37.4677157 105.9591560  39.5231356  36.7357396 106.5603099
  40.5716481  37.3786057 105.6775748  48.6226505  39.4065561  90.7076038
  48.0055676  38.6812389  90.6109091  48.1542994  40.1674921  90.3643113
  42.2893858  37.1797116 105.4475239  42.9993477  36.5390308 105.4061858
  42.2463167  37.4310011 106.3701420  50.2780637  44.1164469 108.3681819
  50.2193183  43.4323690 107.7012402  50.6800156  44.8583459 107.9162445
  41.0022792  34.1662334 107.2670879  40.4660149  33.7153072 107.9192475
  40.4139501  34.3008243 106.5241343  39.2971336  50.9326383 101.1615538
  39.5367934  51.5644907 101.8394556  38.4540532  50.5814423 101.4480897
  40.4125051  33.6250985  89.8297343  39.5354518  33.5039786  89.4659589
  40.8882804  32.8337064  89.5776231  50.2798044  42.0804053 106.5995798
  49.3924823  41.7429975 106.7222197  50.8496595  41.3487085 106.8364564
  31.9327192  38.4128145  99.9238850  32.6198231  38.0989875  99.3359865
  31.7775320  39.3169510  99.6506101  36.7361914  33.3018342 104.3523873
  36.6520102  32.6944011 103.6174283  35.9144620  33.7927360 104.3533370
  43.8099198  46.7405506 103.5657042  43.7369369  47.5460477 104.0776346
  43.3676591  46.9397472 102.7405063  46.9085628  31.7871905  99.7194068
  47.4054327  31.0341868  99.3995139  46.1372609  31.8236222  99.1537278
  54.7615385  37.4912271 101.3612360  54.7505261  38.3736986 100.9906293
  53.8932764  37.1383822 101.1666897  46.2697881  46.6392340 105.7215200
  46.9825854  47.2739805 105.6491102  45.7787910  46.7356206 104.9055202
  47.9915408  40.5443592  97.2932492  47.0571687  40.6645055  97.1237196
  48.1692077  39.6416059  97.0292502  43.4920596  33.9289288  99.4465753
  43.1218384  33.3760329 100.1346659  43.9879689  33.3247422  98.8940753
  51.3787960  36.3860912  97.8282526  51.8448412  37.2188903  97.7542829
  51.8295460  35.9205893  98.5327784  41.3209795  44.3886783 106.5420771
  42.0219254  45.0223266 106.6950165  40.8504910  44.7301515 105.7816410
  49.4464191  42.7304733  94.8268678  49.7224035  42.6161328  95.7362552
  48.5768689  42.3322218  94.7880851  49.3504622  28.7541499 101.8673427
  48.4367702  28.9845726 102.0355634  49.7797724  28.8379943 102.7187460
  49.1211081  36.9431391 104.3673321  48.4682531  37.1907298 103.7125774
  49.4991461  36.1295529 104.0335799  46.0818255  46.9791084  98.4701492
  46.2640649  46.1612740  98.9329244  46.9051241  47.1958776  98.0326382
  46.4160420  45.9059269  95.7316540  46.9448187  45.3951724  95.1186702
  46.6788640  45.5901799  96.5962073  45.1698654  37.6851202 110.8539358
  44.4939291  37.5845331 111.5241734  45.9926288  37.5290415 111.3175356
  36.9177513  43.9223138 103.4751874  37.5030950  43.1766826 103.6079778
  36.7202351  44.2327095 104.3588538  39.7716168  46.9574386  98.4914316
  39.1026543  47.4420513  98.0078356  39.6329038  47.2043606  99.4057695
  31.5095168  36.4928738 102.1956317  31.5479267  35.9592329 102.9893435
  31.0035460  35.9663944 101.5767294  43.9121437  48.9918129 105.0896974
  44.4639745  49.1549751 105.8546060  44.2527630  49.5822567 104.4176999
  38.8885930  31.3393279 105.6918859  38.9527256  32.2008110 105.2796257
  38.8253050  30.7267281 104.9591218  48.7632311  43.8179387 110.9445629
  49.3072215  44.4309345 110.4500584  48.1819156  44.3758965 111.4612642
  35.1403745  35.2192841  95.2710248  35.4357186  34.3103519  95.2177302
  34.2391781  35.1980580  94.9491251  47.0489824  46.9400105 102.0760657
  46.9240963  46.1389845 101.5671602  47.7068915  47.4346298 101.5874627
  38.6697992  33.2948837 101.2537797  37.9484578  33.9084805 101.1145270
  39.4591248  33.8306602 101.1754443  49.1124732  44.7409125 103.7040207
  48.1655068  44.6214476 103.6318533  49.4607505  43.8531623 103.7866468
  41.4724306  30.6303264 107.5278449  41.9958708  30.8765560 108.2904758
  41.2536639  31.4623299 107.1081586  36.8691587  32.9006938  95.3949573
  36.5404293  32.0204317  95.2124679  37.2230958  32.8454607  96.2825963
  46.1171166  44.5361841  99.9044559  45.9696128  43.6078548 100.0852129
  46.9424659  44.5581932  99.4201634  39.9833410  33.1879908  95.7625051
  40.3229482  33.7165829  95.0403659  40.4305530  33.5260314  96.5383618
  49.7205288  45.3590400 100.9909432  50.6451835  45.1533261 100.8533883
  49.5520591  45.1106801 101.8998773  42.6776851  31.5716959 105.2128119
  42.3373671  30.7724772 105.6148799  41.9715857  31.8718670 104.6404952
  43.3293323  28.6566271 103.6655442  44.1519392  28.1826749 103.5434332
  43.5731386  29.4356755 104.1654128  41.9701557  31.6854530  93.9618344
  42.6909920  32.0635782  93.4582061  41.3466861  32.4043406  94.0653322
  46.1132680  32.3899679  94.8976676  46.3296294  33.2724317  94.5965504
  45.6326747  31.9985892  94.1682318  40.8531901  35.3485392 101.4747421
  40.7076482  35.6625695 102.3671702  40.3757105  35.9670292 100.9218319
  42.7128284  32.3387940 101.5228310  42.6989853  31.4429033 101.1860608
  43.4300712  32.3458604 102.1566596  44.5654415  32.7725280 103.5681438
  44.3072193  33.6942351 103.5665768  44.0339455  32.3755715 104.2581902
  49.5100604  45.8776067  96.3471523  49.6837481  45.3122490  95.5945376
  50.0029495  46.6776962  96.1651013  35.3277564  37.8890736 104.4135082
  34.7831032  38.6650544 104.5455356  36.2056913  38.2361541 104.2554203
  42.1165180  31.2202320  96.7915880  42.2381091  30.2918966  96.9906768
  41.8267223  31.2341006  95.8794196  44.9856371  28.9057231  99.9282600
  45.0078067  28.9696564  98.9734580  45.4024430  28.0661739 100.1223106
  55.3639995  38.6412490  97.9661823  55.8071141  37.8919815  97.5680946
  54.4866505  38.6322626  97.5835555  50.4975776  45.1942832  93.4468421
  51.1926681  45.8149524  93.6655736  50.8398926  44.3438183  93.7220799
  36.1143585  37.0160633 107.3065239  35.3725321  37.1643268 107.8929869
  35.7936330  37.2768898 106.4431988  52.3967199  42.6442537  94.9755752
  52.9218523  42.9829810  94.2505072  52.3089552  41.7089552  94.7918887
  44.0587248  46.5576611 107.1045629  44.3674374  46.3125758 107.9768328
  44.8562730  46.7623249 106.6164499  44.0807860  48.7114520  99.3351005
  43.6412850  48.2190899 100.0283862  44.8315977  48.1687488  99.0943081
  36.5600199  44.9026061  99.3375633  37.3858219  44.6029833  98.9574277
  36.2094251  44.1333684  99.7865422  41.5281732  44.2552529 101.4073307
  40.9061742  43.5923235 101.1075535  42.1986599  44.2813661 100.7246955
  34.7608804  42.8212388 100.2964567  33.9240712  42.3934562 100.1148568
  34.7332450  43.0144831 101.2335358  52.0861105  43.2775441 110.2806950
  51.2956649  43.2599580 109.7411450  51.8494460  43.8163734 111.0355987
  52.2058980  40.1267907 107.5939679  52.2556985  39.9617915 108.5355201
  52.0972904  39.2595166 107.2037559  41.0895239  42.8056453  94.8831768
  41.2383360  43.4891917  94.2298440  41.8961683  42.7861543  95.3981223
  49.4962743  36.1098835 108.9098985  50.3972606  35.9705300 108.6182983
  49.5710717  36.2753290 109.8497163  43.8305548  33.4865690 107.7552172
  42.9608858  33.7799256 107.4834760  44.0665029  34.0706135 108.4759435
  53.7077177  42.5464849 107.8381700  53.4161986  42.9094829 108.6745161
  53.0949309  41.8331857 107.6595032  54.9072860  40.1117728 100.3584270
  55.7419751  40.5507533 100.5221831  55.0431988  39.6356382  99.5392516
  51.9564366  37.6697463 106.3061758  52.4318487  37.8625110 105.4980610
  51.0329931  37.7256649 106.0605142  38.8447872  38.8321630  95.8892836
  38.5993914  37.9283960  96.0873047  39.0143787  38.8338781  94.9472314
  46.5344582  29.7045307 105.2717592  47.0526526  30.4406334 104.9464081
  46.1799715  30.0109300 106.1064351  38.1143520  34.5649988  93.3878998
  37.4212765  34.6394343  92.7319034  37.8695272  33.8010332  93.9100515
  46.7857176  26.1245589 100.7918489  47.0658930  25.4568778 101.4178915
  47.5707783  26.3174685 100.2793153  50.6566035  34.5463223 104.5390064
  51.6083457  34.6461321 104.5602288  50.4869485  33.7541492 105.0488148
  48.6780414  31.6318807 104.7249465  48.0830346  31.9123819 104.0295953
  48.3930111  32.1212708 105.4966206  50.4375921  44.9007604  90.4456045
  50.3589553  44.5667467  91.3391803  51.2585588  45.3929372  90.4447517
  53.1354112  37.7669343 103.6532363  53.1030432  36.8285344 103.8392047
  53.7454736  37.8453380 102.9198188  44.9737443  36.6365396  89.6959567
  45.9196548  36.5071604  89.7647986  44.5951688  35.8980058  90.1728996
  53.2848601  34.5580386 103.6990647  52.7687649  33.7738843 103.5120575
  54.1688549  34.2299103 103.8637166  50.9459328  28.3021402  99.6586459
  50.7484149  27.9936490 100.5429791  51.5559033  29.0283041  99.7884389
  58.9530662  38.8285350 102.7938400  59.6834051  38.5670638 103.3546104
  58.3437608  38.0914072 102.8340468  57.0345959  36.9693212 103.3912851
  56.3079123  36.8349177 102.7829343  56.6193246  37.2770041 104.1969569
  44.8576136  40.6883142 111.1560224  45.7779145  40.8661741 111.3500271
  44.8225719  39.7439188 111.0039924  43.1580360  34.5615372  89.6314453
  42.2511816  34.2648485  89.7077166  43.4356341  34.2645191  88.7648739
  34.0758301  35.8821736 100.0813499  33.7561085  35.0287044  99.7887873
  33.5291729  36.0970314 100.8371466  37.8538208  38.5984177 103.7983006
  38.0724218  39.5301285 103.8171039  38.2663982  38.2392151 104.5837809
  44.7742426  29.1052262  95.7858694  43.9643154  28.7599347  96.1613940
  45.4626843  28.7959806  96.3746306  46.7032974  28.1830309  97.4082991
  47.2564013  28.6025762  98.0673014  46.9403061  27.2566057  97.4505947
  41.9279145  31.4202308  89.7726432  42.7898309  31.7457206  90.0322249
  42.1129489  30.6333804  89.2599498  33.9446561  39.5024647 102.0506621
  33.2510032  39.0878600 101.5376575  34.6919552  39.5445184 101.4540040
  50.0811781  30.2930834  96.9161655  49.5010450  30.9515638  96.5339707
  49.8147714  29.4708179  96.5049072  48.5315348  29.6935892  99.1182975
  49.0315126  29.8052426  98.3097294  49.1750956  29.3896945  99.7583784
  42.5897344  37.6014521 112.0050816  42.1064425  38.4014882 112.2114705
  42.6758283  37.6122466 111.0518260  35.8583303  39.4342901  99.9272636
  35.8353991  39.5330588  98.9754519  36.1683940  40.2808052 100.2489802
  38.5170681  41.4919056 104.0419250  39.4713935  41.4602998 103.9749182
  38.3183205  41.0309680 104.8569476  39.1070063  40.0620172 106.6090048
  39.9262952  40.5564251 106.6324885  39.3806871  39.1452140 106.5807615
  48.8636659  32.4530924  95.9718003  47.9762514  32.7380575  95.7538198
  49.2790649  32.2924688  95.1245280  52.2151196  32.4777445  99.6872342
  52.9911586  32.9673898  99.9596959  51.4899330  32.9035500 100.1444212
  54.6523754  33.1905065 100.7446283  55.2468245  32.9500801 100.0339591
  54.7250338  32.4712195 101.3719819  36.8720910  47.0338676 101.0589448
  36.7375378  46.2739077 100.4927446  36.4552972  47.7579575 100.5918237
  48.0079873  42.2175599  90.0666023  48.7115723  42.4225602  90.6823679
  47.2842522  42.7852361  90.3315107  48.8377683  37.9685460  96.1868293
  48.7812885  38.4254012  95.3475926  49.3906026  37.2076145  96.0091136
  52.6482489  33.7575192  97.0118413  52.3919423  33.3571828  97.8426621
  52.0235357  34.4718986  96.8868552  56.9594827  36.4971266  99.5189704
  56.3994385  36.5664455 100.2921266  56.3538330  36.3212250  98.7989200
  40.0290036  47.9307993 101.2707891  39.9122420  48.8753425 101.1686581
  39.2082482  47.6281554 101.6593690  49.9166570  42.6558128  92.1164483
  50.7512174  42.2239327  91.9341958  49.7550913  42.4840142  93.0441378
  49.5712463  39.1590242  93.4820823  49.5161266  38.9934513  92.5409267
  48.9458518  39.8666275  93.6383012  34.3604977  34.3958306 107.3082245
  35.0063841  33.8857260 107.7969470  34.1522129  35.1326988 107.8825670
  46.8858370  41.4639154 112.8074385  47.7549529  41.6379806 112.4461020
  46.4065121  42.2833570 112.6850115  42.8808588  28.6598351  93.0606141
  42.8687258  29.6040191  93.2174412  43.7732010  28.4768496  92.7665602
  41.0544550  48.5836255 104.4863819  41.9571797  48.6159865 104.8030314
  40.8281920  47.6536705 104.5010155  42.8098152  47.3367241 101.1473898
  41.8593783  47.3369103 101.0338270  43.1130638  46.5899976 100.6309932
  46.6960707  25.2541127  97.3152078  45.9293103  24.6999614  97.4608760
  47.1071412  25.3262996  98.1766229  58.5450845  53.1727779 102.2119660
  59.1829255  53.0534527 101.5083000  58.4271688  54.1208623 102.2707612
  55.3540552  53.1255208 102.1481185  55.0159063  53.0096272 101.2601720
  56.2230320  52.7246373 102.1282191  55.8360335  54.2790059 108.1067390
  55.8248975  53.8842858 107.2347894  55.9980974  53.5456132 108.7001162
  56.7926926  58.6461652  93.4492541  56.1414906  59.2315732  93.0626554
  57.5871289  59.1767847  93.5087578  52.5567596  57.0627171 107.0546574
  52.2657462  57.9672802 106.9393240  53.1924580  57.1043699 107.7690644
  53.4823803  54.4404020 103.6447934  54.0787375  54.2160042 102.9304897
  53.5398774  53.6988765 104.2473382  53.0548831  51.8943455  91.4798125
  53.3074352  51.3724976  90.7181588  52.1173390  51.7309600  91.5824808
  58.0992114  50.8979233  99.2872868  58.8855203  50.4798656  98.9363285
  58.3630818  51.8025326  99.4554516  58.2702191  56.3352084  93.9861525
  57.6348024  56.4086710  94.6982429  57.9399598  56.9245682  93.3080604
  63.5000541  50.8354467 100.1905847  64.2325713  50.2653683 100.4243676
  62.7439897  50.4476067 100.6312352  52.7745120  53.7971561  93.6822500
  52.6581378  53.1216464  94.3503584  52.8847380  53.3103935  92.8654653
  55.1176661  53.2581708  97.3869189  54.7534868  52.7312329  98.0982110
  55.9743777  52.8680177  97.2135674  61.0225961  44.5476041 104.6500455
  60.6909286  45.4171452 104.4261670  60.4271575  44.2312325 105.3294486
  54.7582148  48.2871608  92.3830537  54.9256550  49.1551844  92.7501009
  54.5679317  48.4498889  91.4591827  57.5157481  56.7488587 104.0496368
  57.2158204  57.6513625 103.9412175  57.1708540  56.4820770 104.9017521
  50.9669962  53.2002383 100.0833072  50.0420459  53.0678598 100.2910764
  51.2154376  53.9796603 100.5803015  60.9154625  49.2671127 101.7293805
  60.0071502  49.1986535 101.4352566  60.8642220  49.7443072 102.5575631
  54.7371369  50.7429265  93.3677204  54.6170994  51.1886316  94.2062685
  54.0423957  51.0914583  92.8090742  52.4978261  63.5132907  97.0167336
  52.4202290  64.4640732  97.0955816  51.8939904  63.1678779  97.6742262
  54.9895490  50.6860772 109.6728702  54.2128825  51.2454693 109.6631567
  55.6286054  51.1717555 110.1943573  62.7816271  47.4687565 103.5071679
  62.1390651  47.7620098 102.8611474  62.2771200  47.3540486 104.3124876
  60.4356435  51.2150738  94.1957538  61.3474291  51.4478125  94.0205236
  59.9266082  51.7987783  93.6332617  53.2441863  53.4946226 109.2346669
  53.9856547  54.0331270 108.9581493  52.5378848  54.1212515 109.3918221
  58.7197202  55.6375366 107.8318831  59.1280558  55.1957777 107.0873463
  57.9974464  55.0627994 108.0853024  55.0728272  50.5747973 105.2052388
  55.9189468  50.9987387 105.3487037  55.0126910  49.9181597 105.8990951
  59.0426017  56.1976557 101.5871120  58.4134880  56.3622271 100.8847188
  58.6551679  56.6118166 102.3582084  62.9215249  57.1330995  98.9415484
  62.2366287  57.5129896  98.3912517  63.0059098  57.7426321  99.6747431
  58.2227718  48.2352341 106.8633562  57.9788650  48.9894402 106.3267837
  58.4987648  48.6137689 107.6980809  60.1766181  54.7790954 105.5410827
  60.3883076  55.4222714 104.8645208  60.1295929  53.9453270 105.0732757
  57.7792410  47.3908774 102.4447399  56.9176889  47.6890028 102.7364137
  57.8054844  47.6079173 101.5128432  54.5953979  55.9350965  98.8521205
  55.0592324  56.2138668  98.0625827  54.3310777  55.0334410  98.6694296
  51.4878060  55.4822446 101.7900968  52.0579417  55.9109715 101.1518453
  52.0786172  55.2005031 102.4885154  53.5322865  52.0574117  95.6610770
  54.2346908  52.5095161  96.1284696  53.2003494  51.4157936  96.2890663
  51.9803227  50.6485874 110.0361979  51.3501887  51.3302155 110.2697376
  51.8739314  50.5368956 109.0915118  61.2912009  57.6562909 103.7133184
  62.1129452  57.2543096 103.4315866  61.2874411  57.5531143 104.6649300
  55.0568612  57.2046952 105.8693895  55.1213044  57.6667360 106.7052067
  54.3479536  56.5744317 105.9976205  69.3818002  54.0001658 100.0618156
  68.6281710  53.4309056  99.9062160  69.5165543  53.9664322 101.0088791
  54.7716630  58.8715060  95.7372875  54.6362304  59.7166596  96.1657723
  55.3126442  59.0734338  94.9738809  51.2583969  44.9506640 112.3987230
  50.8650915  44.3972838 113.0734875  52.0750110  45.2617218 112.7893748
  54.1751930  46.3664519 109.9907487  54.9161644  46.9671672 109.9111950
  54.4069853  45.6242157 109.4325530  49.3193268  51.5520886 108.2685717
  49.2046783  50.6506143 108.5692816  48.4637786  51.7984583 107.9170533
  56.3985106  59.4938626 109.8673217  55.9548960  58.7075005 109.5494122
  57.0602320  59.6817777 109.2017108  58.4966344  59.7741426 107.8954619
  58.4784819  60.5950307 107.4034888  59.4186264  59.6495502 108.1204760
  54.9539398  57.2885556 108.7378127  55.4867735  56.5273844 108.5077435
  54.4253479  56.9959208 109.4802281  58.1209093  42.3945622 104.2671769
  57.7773363  43.2847263 104.1910879  58.4888056  42.2047279 103.4041354
  58.0859376  52.3854233  92.7744204  57.5705999  53.1558838  93.0132591
  57.8136684  51.7119369  93.3977265  55.6706487  47.2303934  97.8329442
  54.8148083  46.8410784  97.6535081  56.0833439  47.3095894  96.9729228
  57.2005634  44.7650277 102.2321002  56.6970429  44.7280412 101.4188807
  57.4936240  45.6743020 102.2917659  53.4448519  44.8489007 101.2387184
  54.3101516  44.6531815 100.8793073  53.5126028  44.6199358 102.1656540
  63.0593650  55.1386588  94.7097377  62.2823093  54.7997747  94.2652539
  63.7385131  55.1439211  94.0352342  57.8745679  50.2581325  94.6003985
  57.5695815  50.5727474  95.4514128  58.8276121  50.3362745  94.6431318
  56.3192111  56.4171548  96.2496939  55.7913473  55.6824308  95.9370176
  55.8179614  57.1946225  96.0036907  61.2984957  54.6120569 101.3663985
  60.6408631  55.3019830 101.4544114  62.1025356  55.0017001 101.7097972
  51.0510839  47.0791215  98.6103551  51.6254590  46.8566396  97.8776743
  51.6381821  47.1479909  99.3632152  60.1090416  52.9664941  99.4167927
  60.6222298  53.5994933  99.9189637  60.7591640  52.3666137  99.0511287
  51.3780426  49.1095676  92.6299436  50.5417738  49.4470362  92.9508711
  51.2385195  48.9744655  91.6926573  53.3533506  43.9532464  97.3378620
  52.6997919  43.6381481  96.7135235  53.3113980  43.3308204  98.0638443
  54.4644711  54.2351759  89.2531912  53.5571773  54.0041012  89.4523061
  54.9615743  53.4389378  89.4405894  57.3712790  62.9449266  92.1728598
  56.6974489  63.2480963  92.7813556  57.7578612  63.7478346  91.8234055
  56.5871247  50.4414397 101.6626268  55.6693808  50.6629344 101.5047956
  57.0031390  50.5160708 100.8037975  57.3706294  51.8405813  96.7928948
  58.1178113  52.3527210  96.4836070  57.6397884  51.5189865  97.6533341
  55.6432945  54.3364353  93.7755902  54.7344164  54.0523386  93.8728372
  55.6728028  54.7563432  92.9159209  60.8752212  57.9470943  97.5447070
  60.4214539  57.1061853  97.6012260  60.2446179  58.5832341  97.8821850
  59.8185132  48.8762929  98.7747737  59.0807888  48.3640315  99.1057980
  60.0711905  48.4363311  97.9631014  59.3185151  59.7847440  98.4796888
  59.6108126  60.3452497  97.7609253  59.8283772  60.0776001  99.2350047
  59.9196759  41.6539181  99.3689506  60.2255636  40.7936544  99.0815421
  60.6449364  42.2456801  99.1688500  54.1917839  51.9492974  99.8765697
  54.2466448  50.9966810  99.8008174  53.3809041  52.1052413 100.3606996
  55.3409032  55.8773097  91.1143981  54.9028462  55.1608956  90.6549618
  56.0819473  56.1049212  90.5529072  52.1310199  50.5670034  97.6356076
  51.3178064  50.8664204  98.0421268  52.6269193  50.1725723  98.3530559
  54.2818776  60.5627791  99.5690341  54.2394955  60.7888637  98.6398873
  55.1981475  60.3291165  99.7176142  57.7284410  51.0311858 106.4670970
  58.0833798  51.2583331 107.3265436  58.3756541  51.3630235 105.8448226
  63.4582147  54.1530294  97.1720299  63.3200046  54.3431890  96.2441488
  63.1018366  54.9149677  97.6288350  51.6224273  48.1388389 103.2517311
  52.2623653  47.9977148 102.5540275  50.7901804  47.8522903 102.8755913
  63.4851527  56.2206821 102.1831571  63.9188033  56.1282110 103.0314625
  64.1983107  56.1964322 101.5451587  52.3984577  57.4390820  99.3652304
  53.1925176  56.9441140  99.1634879  51.6876270  56.9108683  99.0020009
  57.2179422  59.8208915 103.7164671  57.2716444  60.3899852 104.4842387
  56.3494203  59.9910800 103.3518709  48.6252890  48.1088714  98.0290298
  48.8859707  49.0234048  97.9199459  49.4470062  47.6413157  98.1786911
  50.0977815  49.5226471 105.1989123  50.7700868  49.3143834 104.5501772
  49.2707602  49.3248557 104.7594355  64.3467076  56.2630522 104.7164456
  64.5402966  57.1676332 104.9623731  64.2467694  55.8037941 105.5503041
  56.0003387  46.1488412 107.2154784  55.3531302  46.8478362 107.1219260
  56.7704402  46.5824556 107.5831032  59.4082185  56.4137265 110.2905337
  59.2567691  56.1847816 109.3735420  59.3986864  57.3707866 110.3036682
  56.1767521  53.9869177 105.2751603  57.1059581  54.1380337 105.1020571
  55.7558551  54.0753198 104.4200250  54.9755853  58.0119842 103.0450141
  54.8366939  57.6438626 103.9176079  54.1870449  58.5267481 102.8734099
  55.5704005  63.1128938  94.3875677  55.7455761  62.6416981  95.2021300
  54.8836793  63.7394704  94.6156938  56.5261068  57.3901444 100.4338979
  56.1910901  57.3502214 101.3296629  56.0265014  56.7246160  99.9609389
  50.5005312  52.7969074 105.9591560  50.3625110  52.0649313 106.5603099
  51.4110236  52.7077975 105.6775748  59.4620260  54.7357479  90.7076038
  58.8449431  54.0104307  90.6109091  58.9936748  55.4966839  90.3643113
  53.1287613  52.5089034 105.4475239  53.8387231  51.8682226 105.4061858
  53.0856921  52.7601929 106.3701420  61.1174392  59.4456387 108.3681819
  61.0586938  58.7615607 107.7012402  61.5193910  60.1875377 107.9162445
  51.8416547  49.4954252 107.2670879  51.3053904  49.0444990 107.9192475
  51.2533255  49.6300160 106.5241343  50.1365090  66.2618301 101.1615538
  50.3761689  66.8936825 101.8394556  49.2934287  65.9106341 101.4480897
  51.2518806  48.9542903  89.8297343  50.3748272  48.8331704  89.4659589
  51.7276559  48.1628981  89.5776231  61.1191799  57.4095971 106.5995798
  60.2318578  57.0721893 106.7222197  61.6890350  56.6779002 106.8364564
  47.5755668  48.6310259 104.3523873  47.4913857  48.0235929 103.6174283
  46.7538375  49.1219278 104.3533370  54.6492952  62.0697423 103.5657042
  54.5763124  62.8752395 104.0776346  54.2070345  62.2689389 102.7405063
  54.4382732  61.3069193  97.0759863  53.6550254  61.8490874  97.1698088
  55.1375477  61.8243173  97.4754104  57.7479382  47.1163823  99.7194068
  58.2448082  46.3633785  99.3995139  56.9766364  47.1528140  99.1537278
  65.6009139  52.8204188 101.3612360  65.5899016  53.7028904 100.9906293
  64.7326519  52.4675739 101.1666897  57.1091636  61.9684257 105.7215200
  57.8219608  62.6031722 105.6491102  56.6181664  62.0648123 104.9055202
  58.8309163  55.8735510  97.2932492  57.8965441  55.9936973  97.1237196
  59.0085831  54.9707977  97.0292502  54.3314351  49.2581206  99.4465753
  53.9612138  48.7052246 100.1346659  54.8273443  48.6539339  98.8940753
  62.2181714  51.7152829  97.8282526  62.6842166  52.5480821  97.7542829
  62.6689215  51.2497811  98.5327784  60.2857945  58.0596651  94.8268678
  60.5617789  57.9453245  95.7362552  59.4162444  57.6614136  94.7880851
  60.1898377  44.0833416 101.8673427  59.2761457  44.3137643 102.0355634
  60.6191478  44.1671860 102.7187460  59.9604835  52.2723308 104.3673321
  59.3076286  52.5199216 103.7125774  60.3385215  51.4587447 104.0335799
  56.9212009  62.3083002  98.4701492  57.1034404  61.4904657  98.9329244
  57.7444995  62.5250694  98.0326382  57.2554175  61.2351187  95.7316540
  57.7841941  60.7243641  95.1186702  57.5182394  60.9193717  96.5962073
  56.0092408  53.0143119 110.8539358  55.3333045  52.9137249 111.5241734
  56.8320042  52.8582333 111.3175356  54.7515191  64.3210047 105.0896974
  55.3033499  64.4841668 105.8546060  55.0921385  64.9114485 104.4176999
  49.7279684  46.6685197 105.6918859  49.7921011  47.5300028 105.2796257
  49.6646805  46.0559198 104.9591218  49.2031957  48.7408329 109.3391893
  49.8303996  48.3585407 109.9529418  48.3459876  48.5222531 109.7047586
  59.6026066  59.1471304 110.9445629  60.1465970  59.7601263 110.4500584
  59.0212910  59.7050883 111.4612642  57.8883578  62.2692022 102.0760657
  57.7634718  61.4681762 101.5671602  58.5462670  62.7638216 101.5874627
  49.5091747  48.6240755 101.2537797  48.7878332  49.2376723 101.1145270
  50.2985002  49.1598520 101.1754443  59.9518487  60.0701042 103.7040207
  59.0048822  59.9506394 103.6318533  60.3001260  59.1823541 103.7866468
  52.3118060  45.9595181 107.5278449  52.8352462  46.2057478 108.2904758
  52.0930394  46.7915216 107.1081586  47.7085341  48.2298856  95.3949573
  47.3798047  47.3496235  95.2124679  48.0624712  48.1746525  96.2825963
  56.9564920  59.8653759  99.9044559  56.8089883  58.9370466 100.0852129
  57.7818414  59.8873849  99.4201634  50.8227164  48.5171826  95.7625051
  51.1623237  49.0457747  95.0403659  51.2699285  48.8552232  96.5383618
  60.5599042  60.6882317 100.9909432  61.4845589  60.4825179 100.8533883
  60.3914345  60.4398719 101.8998773  53.5170605  46.9008877 105.2128119
  53.1767426  46.1016690 105.6148799  52.8109612  47.2010587 104.6404952
  54.1687077  43.9858189 103.6655442  54.9913146  43.5118667 103.5434332
  54.4125141  44.7648673 104.1654128  52.8095312  47.0146447  93.9618344
  53.5303674  47.3927700  93.4582061  52.1860616  47.7335324  94.0653322
  56.9526434  47.7191596  94.8976676  57.1690049  48.6016234  94.5965504
  56.4720502  47.3277810  94.1682318  51.6925656  50.6777310 101.4747421
  51.5470237  50.9917613 102.3671702  51.2150859  51.2962210 100.9218319
  53.5522039  47.6679858 101.5228310  53.5383608  46.7720951 101.1860608
  54.2694467  47.6750521 102.1566596  55.4048169  48.1017198 103.5681438
  55.1465947  49.0234268 103.5665768  54.8733210  47.7047632 104.2581902
  60.3494358  61.2067985  96.3471523  60.5231236  60.6414407  95.5945376
  60.8423249  62.0068880  96.1651013  52.9558935  46.5494238  96.7915880
  53.0774846  45.6210884  96.9906768  52.6660977  46.5632924  95.8794196
  55.8250125  44.2349148  99.9282600  55.8471822  44.2988481  98.9734580
  56.2418184  43.3953657 100.1223106  66.2033749  53.9704408  97.9661823
  66.6464895  53.2211733  97.5680946  65.3260260  53.9614544  97.5835555
  61.3369531  60.5234749  93.4468421  62.0320435  61.1441442  93.6655736
  61.6792681  59.6730100  93.7220799  46.9537340  52.3452550 107.3065239
  46.2119076  52.4935186 107.8929869  46.6330084  52.6060816 106.4431988
  63.2360954  57.9734455  94.9755752  63.7612278  58.3121728  94.2505072
  63.1483306  57.0381470  94.7918887  54.8981003  61.8868528 107.1045629
  55.2068129  61.6417675 107.9768328  55.6956485  62.0915167 106.6164499
  54.9201615  64.0406438  99.3351005  54.4806605  63.5482817 100.0283862
  55.6709732  63.4979406  99.0943081  52.4400014  48.0626235 111.0005813
  52.4888170  48.9388358 110.6183583  52.9822528  47.5203628 110.4277456
  62.9254860  58.6067358 110.2806950  62.1350404  58.5891497 109.7411450
  62.6888214  59.1455652 111.0355987  63.0452735  55.4559825 107.5939679
  63.0950740  55.2909832 108.5355201  62.9366658  54.5887084 107.2037559
  51.9288994  58.1348371  94.8831768  52.0777114  58.8183835  94.2298440
  52.7355437  58.1153461  95.3981223  60.3356497  51.4390753 108.9098985
  61.2366360  51.2997218 108.6182983  60.4104472  51.6045208 109.8497163
  54.6699303  48.8157608 107.7552172  53.8002612  49.1091174 107.4834760
  54.9058783  49.3998053 108.4759435  64.5470932  57.8756766 107.8381700
  64.2555740  58.2386747 108.6745161  63.9343063  57.1623775 107.6595032
  65.7466614  55.4409646 100.3584270  66.5813505  55.8799450 100.5221831
  65.8825743  54.9648299  99.5392516  62.7958120  52.9989381 106.3061758
  63.2712242  53.1917027 105.4980610  61.8723685  53.0548567 106.0605142
  57.3738337  45.0337225 105.2717592  57.8920280  45.7698251 104.9464081
  57.0193469  45.3401218 106.1064351  57.6250931  41.4537507 100.7918489
  57.9052684  40.7860696 101.4178915  58.4101538  41.6466603 100.2793153
  55.4284399  60.6296501  92.3543515  54.8558366  61.2486688  91.9013987
  56.0017193  61.1795863  92.8883437  61.4959789  49.8755141 104.5390064
  62.4477212  49.9753239 104.5602288  61.3263239  49.0833410 105.0488148
  59.5174168  46.9610724 104.7249465  58.9224101  47.2415737 104.0295953
  59.2323865  47.4504625 105.4966206  58.6481659  60.9133651  93.4852097
  59.5812332  60.8479213  93.6884973  58.5604872  61.7489918  93.0266630
  61.2769676  60.2299521  90.4456045  61.1983307  59.8959385  91.3391803
  62.0979342  60.7221289  90.4447517  63.9747867  53.0961261 103.6532363
  63.9424187  52.1577261 103.8392047  64.5848490  53.1745297 102.9198188
  55.8131198  51.9657314  89.6959567  56.7590302  51.8363522  89.7647986
  55.4345443  51.2271976  90.1728996  64.1242355  49.8872304 103.6990647
  63.6081404  49.1030761 103.5120575  65.0082304  49.5591021 103.8637166
  61.7853082  43.6313320  99.6586459  61.5877903  43.3228408 100.5429791
  62.3952788  44.3574959  99.7884389  69.7924417  54.1577268 102.7938400
  70.5227805  53.8962556 103.3546104  69.1831362  53.4205990 102.8340468
  67.8739714  52.2985130 103.3912851  67.1472877  52.1641095 102.7829343
  67.4587001  52.6061959 104.1969569  55.6969890  56.0175060 111.1560224
  56.6172900  56.1953659 111.3500271  55.6619473  55.0731105 111.0039924
  53.9974115  49.8907290  89.6314453  53.0905570  49.5940403  89.7077166
  54.2750096  49.5937108  88.7648739  55.6136181  44.4344180  95.7858694
  54.8036909  44.0891265  96.1613940  56.3020597  44.1251724  96.3746306
  57.5426729  43.5122227  97.4082991  58.0957767  43.9317680  98.0673014
  57.7796815  42.5857975  97.4505947  53.5659828  49.5009300 113.1885755
  53.4656555  50.4503657 113.1197846  53.3481370  49.1727539 112.3161825
  52.7672899  46.7494225  89.7726432  53.6292063  47.0749124  90.0322249
  52.9523244  45.9625721  89.2599498  60.9205536  45.6222752  96.9161655
  60.3404205  46.2807556  96.5339707  60.6541469  44.8000096  96.5049072
  59.3709102  45.0227809  99.1182975  59.8708881  45.1344344  98.3097294
  60.0144710  44.7188862  99.7583784  53.4291098  52.9306439 112.0050816
  52.9458180  53.7306799 112.2114705  53.5152037  52.9414384 111.0518260
  49.3564436  56.8210974 104.0419250  50.3107689  56.7894916 103.9749182
  49.1576959  56.3601598 104.8569476  49.9463818  55.3912090 106.6090048
  50.7656707  55.8856169 106.6324885  50.2200625  54.4744058 106.5807615
  59.7030414  47.7822842  95.9718003  58.8156269  48.0672493  95.7538198
  60.1184403  47.6216606  95.1245280  63.0544950  47.8069363  99.6872342
  63.8305340  48.2965816  99.9596959  62.3293084  48.2327417 100.1444212
  65.4917509  48.5196982 100.7446283  66.0862000  48.2792718 100.0339591
  65.5644092  47.8004113 101.3719819  58.8473627  57.5467517  90.0666023
  59.5509478  57.7517519  90.6823679  58.1236276  58.1144279  90.3315107
  59.6771438  53.2977378  96.1868293  59.6206639  53.7545930  95.3475926
  60.2299780  52.5368063  96.0091136  63.4876244  49.0867110  97.0118413
  63.2313178  48.6863746  97.8426621  62.8629112  49.8010904  96.8868552
  67.7988581  51.8263183  99.5189704  67.2388139  51.8956373 100.2921266
  67.1932085  51.6504168  98.7989200  60.7560325  57.9850046  92.1164483
  61.5905929  57.5531245  91.9341958  60.5944668  57.8132060  93.0441378
  60.4106217  54.4882159  93.4820823  60.3555021  54.3226431  92.5409267
  59.7852272  55.1958192  93.6383012  45.1998732  49.7250224 107.3082245
  45.8457596  49.2149178 107.7969470  44.9915883  50.4618905 107.8825670
  57.7252124  56.7931071 112.8074385  58.5943284  56.9671723 112.4461020
  57.2458876  57.6125488 112.6850115  53.7202342  43.9890268  93.0606141
  53.7081012  44.9332108  93.2174412  54.6125764  43.8060414  92.7665602
  57.5354462  40.5833045  97.3152078  56.7686858  40.0291532  97.4608760
  57.9465167  40.6554914  98.1766229  49.5396223  46.8717841 111.4057259
  50.4027685  46.5154646 111.6160584  48.9661634  46.5331736 112.0932663
  69.3844600  68.5019697 102.2119660  70.0223010  68.3826445 101.5083000
  69.2665443  69.4500541 102.2707612  66.1934306  68.4547125 102.1481185
  65.8552818  68.3388190 101.2601720  67.0624074  68.0538290 102.1282191
  62.0521122  70.3082602  98.1378076  61.4885987  70.2172539  97.3694363
  61.9373517  69.4882506  98.6180568  66.6754089  69.6081977 108.1067390
  66.6642730  69.2134775 107.2347894  66.8374729  68.8748050 108.7001162
  59.5985554  71.8033793 100.9762296  60.3906846  71.4624618 100.5608595
  59.8382204  71.9128768 101.8964449  67.6320681  73.9753569  93.4492541
  66.9808660  74.5607650  93.0626554  68.4265043  74.5059764  93.5087578
  61.5576308  71.0642707  93.8479675  62.3307184  70.5171694  93.7092551
  61.9101707  71.9286956  94.0594136  63.3961350  72.3919089 107.0546574
  63.1051216  73.2964720 106.9393240  64.0318335  72.4335616 107.7690644
  64.3217557  69.7695937 103.6447934  64.9181129  69.5451960 102.9304897
  64.3792529  69.0280683 104.2473382  63.8942586  67.2235373  91.4798125
  64.1468106  66.7016894  90.7181588  62.9567145  67.0601518  91.5824808
  68.9385868  66.2271151  99.2872868  69.7248958  65.8090574  98.9363285
  69.2024573  67.1317243  99.4554516  69.1095946  71.6644001  93.9861525
  68.4741779  71.7378628  94.6982429  68.7793352  72.2537600  93.3080604
  74.3394296  66.1646384 100.1905847  75.0719467  65.5945601 100.4243676
  73.5833651  65.7767985 100.6312352  63.6138874  69.1263479  93.6822500
  63.4975132  68.4508382  94.3503584  63.7241134  68.6395853  92.8654653
  65.9570415  68.5873626  97.3869189  65.5928622  68.0604247  98.0982110
  66.8137531  68.1972095  97.2135674  71.8619716  59.8767958 104.6500455
  71.5303041  60.7463369 104.4261670  71.2665329  59.5604242 105.3294486
  65.5975902  63.6163525  92.3830537  65.7650305  64.4843762  92.7501009
  65.4073071  63.7790807  91.4591827  68.3551235  72.0780504 104.0496368
  68.0551958  72.9805543 103.9412175  68.0102295  71.8112688 104.9017521
  61.8063717  68.5294301 100.0833072  60.8814213  68.3970515 100.2910764
  62.0548130  69.3088520 100.5803015  71.7548379  64.5963044 101.7293805
  70.8465257  64.5278453 101.4352566  71.7035975  65.0734989 102.5575631
  65.5765123  66.0721183  93.3677204  65.4564748  66.5178234  94.2062685
  64.8817711  66.4206501  92.8090742  59.1672528  68.1727575 100.9176861
  59.2964909  68.4262054 101.8316273  58.4869979  68.7655283 100.5981516
  63.3372015  78.8424825  97.0167336  63.2596045  79.7932650  97.0955816
  62.7333659  78.4970697  97.6742262  65.8289245  66.0152690 109.6728702
  65.0522579  66.5746610 109.6631567  66.4679808  66.5009473 110.1943573
  73.6210026  62.7979483 103.5071679  72.9784406  63.0912016 102.8611474
  73.1164954  62.6832403 104.3124876  71.2750189  66.5442656  94.1957538
  72.1868045  66.7770043  94.0205236  70.7659836  67.1279700  93.6332617
  64.0835617  68.8238143 109.2346669  64.8250302  69.3623187 108.9581493
  63.3772603  69.4504432 109.3918221  69.5590957  70.9667284 107.8318831
  69.9674313  70.5249694 107.0873463  68.8368218  70.3919911 108.0853024
  65.9122027  65.9039891 105.2052388  66.7583222  66.3279304 105.3487037
  65.8520665  65.2473515 105.8990951  69.8819772  71.5268475 101.5871120
  69.2528634  71.6914189 100.8847188  69.4945434  71.9410084 102.3582084
  73.7609003  72.4622912  98.9415484  73.0760042  72.8421814  98.3912517
  73.8452853  73.0718239  99.6747431  69.0621472  63.5644259 106.8633562
  68.8182404  64.3186320 106.3267837  69.3381403  63.9429607 107.6980809
  71.0159935  70.1082871 105.5410827  71.2276830  70.7514631 104.8645208
  70.9689683  69.2745188 105.0732757  68.6186164  62.7200692 102.4447399
  67.7570643  63.0181946 102.7364137  68.6448599  62.9371091 101.5128432
  65.4347733  71.2642883  98.8521205  65.8986079  71.5430586  98.0625827
  65.1704532  70.3626327  98.6694296  62.3271815  70.8114364 101.7900968
  62.8973172  71.2401633 101.1518453  62.9179926  70.5296949 102.4885154
  64.3716619  67.3866035  95.6610770  65.0740663  67.8387079  96.1284696
  64.0397248  66.7449854  96.2890663  62.8196981  65.9777792 110.0361979
  62.1895642  66.6594072 110.2697376  62.7133069  65.8660873 109.0915118
  58.1141953  65.6449588 100.9627904  57.3241007  65.9007116 100.4868014
  58.6053201  66.4597925 101.0679944  72.1305763  72.9854827 103.7133184
  72.9523207  72.5835014 103.4315866  72.1268166  72.8823061 104.6649300
  60.0656699  66.0094167  97.9211380  59.2687862  66.1212861  98.4394876
  59.8382291  66.3480819  97.0552271  65.8962366  72.5338870 105.8693895
  65.9606799  72.9959277 106.7052067  65.1873290  71.9036235 105.9976205
  56.3979656  65.8980078 103.3942894  56.6487695  66.7827088 103.6600470
  56.9339205  65.7184680 102.6217986  80.2211756  69.3293575 100.0618156
  79.4675464  68.7600973  99.9062160  80.3559297  69.2956240 101.0088791
  65.6110384  74.2006978  95.7372875  65.4756059  75.0458513  96.1657723
  66.1520197  74.4026255  94.9738809  62.0977724  60.2798557 112.3987230
  61.7044669  59.7264756 113.0734875  62.9143864  60.5909136 112.7893748
  59.0639782  71.7182416  96.3100800  59.5764302  72.5125666  96.4606365
  59.7162494  71.0208706  96.2434402  60.8734666  74.8348172  98.3923554
  61.0501295  75.7566137  98.2044537  61.6691500  74.5206591  98.8217933
  65.0145685  61.6956437 109.9907487  65.7555398  62.2963590 109.9111950
  65.2463608  60.9534074 109.4325530  60.1587023  66.8812804 108.2685717
  60.0440538  65.9798061 108.5692816  59.3031541  67.1276501 107.9170533
  67.2378860  74.8230544 109.8673217  66.7942715  74.0366923 109.5494122
  67.8996074  75.0109695 109.2017108  61.9965982  76.3526346 104.3933896
  62.5473407  76.2243409 103.6210890  61.1577458  76.6521235 104.0428789
  69.3360099  75.1033344 107.8954619  69.3178574  75.9242225 107.4034888
  70.2580019  74.9787419 108.1204760  65.7933153  72.6177474 108.7378127
  66.3261490  71.8565762 108.5077435  65.2647234  72.3251125 109.4802281
  68.9602848  57.7237539 104.2671769  68.6167117  58.6139181 104.1910879
  69.3281810  57.5339197 103.4041354  57.0288698  70.0471070  97.0860371
  57.8663920  70.4568078  96.8694079  57.2066966  69.1070512  97.0560565
  68.9253130  67.7146151  92.7744204  68.4099754  68.4850755  93.0132591
  68.6530439  67.0411287  93.3977265  66.5100241  62.5595851  97.8329442
  65.6541838  62.1702702  97.6535081  66.9227193  62.6387812  96.9729228
  68.0399388  60.0942195 102.2321002  67.5364184  60.0572330 101.4188807
  68.3329995  61.0034937 102.2917659  64.2842274  60.1780924 101.2387184
  65.1495271  59.9823733 100.8793073  64.3519783  59.9491276 102.1656540
  73.8987405  70.4678505  94.7097377  73.1216847  70.1289665  94.2652539
  74.5778886  70.4731128  94.0352342  68.7139434  65.5873243  94.6003985
  68.4089569  65.9019392  95.4514128  69.6669876  65.6654663  94.6431318
  67.1585865  71.7463466  96.2496939  66.6307227  71.0116226  95.9370176
  66.6573368  72.5238142  96.0036907  72.1378711  69.9412486 101.3663985
  71.4802386  70.6311748 101.4544114  72.9419111  70.3308918 101.7097972
  61.8904593  62.4083132  98.6103551  62.4648345  62.1858314  97.8776743
  62.4775575  62.4771827  99.3632152  70.9484170  68.2956859  99.4167927
  71.4616052  68.9286851  99.9189637  71.5985394  67.6958055  99.0511287
  62.2174180  64.4387593  92.6299436  61.3811492  64.7762280  92.9508711
  62.0778950  64.3036573  91.6926573  64.1927261  59.2824381  97.3378620
  63.5391673  58.9673398  96.7135235  64.1507735  58.6600122  98.0638443
  65.3038466  69.5643676  89.2531912  64.3965527  69.3332930  89.4523061
  65.8009498  68.7681296  89.4405894  68.2106544  78.2741183  92.1728598
  67.5368243  78.5772880  92.7813556  68.5972366  79.0770264  91.8234055
  67.4265001  65.7706315 101.6626268  66.5087562  65.9921262 101.5047956
  67.8425145  65.8452625 100.8037975  68.2100049  67.1697730  96.7928948
  68.9571868  67.6819128  96.4836070  68.4791638  66.8481783  97.6533341
  66.4826699  69.6656271  93.7755902  65.5737918  69.3815304  93.8728372
  66.5121783  70.0855350  92.9159209  71.7145966  73.2762861  97.5447070
  71.2608294  72.4353771  97.6012260  71.0839933  73.9124259  97.8821850
  70.6578886  64.2054847  98.7747737  69.9201643  63.6932233  99.1057980
  70.9105660  63.7655228  97.9631014  70.1578906  75.1139357  98.4796888
  70.4501880  75.6744414  97.7609253  70.6677526  75.4067918  99.2350047
  70.7590513  56.9831099  99.3689506  71.0649390  56.1228462  99.0815421
  71.4843118  57.5748719  99.1688500  57.0514869  67.3861785  97.7571104
  56.8539269  66.7931146  97.0322171  56.4961533  67.0813995  98.4747043
  65.0311593  67.2784892  99.8765697  65.0860203  66.3258728  99.8008174
  64.2202795  67.4344331 100.3606996  66.1802787  71.2065015  91.1143981
  65.7422217  70.4900874  90.6549618  66.9213228  71.4341130  90.5529072
  62.9703953  65.8961951  97.6356076  62.1571819  66.1956122  98.0421268
  63.4662947  65.5017640  98.3530559  65.1212531  75.8919708  99.5690341
  65.0788710  76.1180555  98.6398873  66.0375230  75.6583083  99.7176142
  68.5678165  66.3603776 106.4670970  68.9227552  66.5875249 107.3265436
  69.2150296  66.6922153 105.8448226  74.2975902  69.4822212  97.1720299
  74.1593800  69.6723808  96.2441488  73.9412120  70.2441595  97.6288350
  62.4618028  63.4680307 103.2517311  63.1017407  63.3269066 102.5540275
  61.6295558  63.1814820 102.8755913  74.3245281  71.5498739 102.1831571
  74.7581788  71.4574028 103.0314625  75.0376862  71.5256239 101.5451587
  63.2378332  72.7682737  99.3652304  64.0318930  72.2733058  99.1634879
  62.5270024  72.2400601  99.0020009  68.0573176  75.1500833 103.7164671
  68.1110198  75.7191769 104.4842387  67.1887958  75.3202718 103.3518709
  59.5461095  66.9125819  95.4412056  58.6158683  66.8510275  95.6582019
  59.6418567  66.3901772  94.6448698  59.4646644  63.4380632  98.0290298
  59.7253461  64.3525965  97.9199459  60.2863817  62.9705075  98.1786911
  60.9371570  64.8518389 105.1989123  61.6094623  64.6435751 104.5501772
  60.1101356  64.6540475 104.7594355  75.1860831  71.5922439 104.7164456
  75.3796721  72.4968250 104.9623731  75.0861449  71.1329859 105.5503041
  66.8397142  61.4780330 107.2154784  66.1925057  62.1770280 107.1219260
  67.6098157  61.9116474 107.5831032  70.2475939  71.7429182 110.2905337
  70.0961446  71.5139734 109.3735420  70.2380619  72.6999784 110.3036682
  67.0161276  69.3161095 105.2751603  67.9453336  69.4672255 105.1020571
  66.5952306  69.4045116 104.4200250  65.8149608  73.3411759 103.0450141
  65.6760693  72.9730544 103.9176079  65.0264204  73.8559399 102.8734099
  66.4097760  78.4420856  94.3875677  66.5849515  77.9708899  95.2021300
  65.7230548  79.0686622  94.6156938  67.3654823  72.7193362 100.4338979
  67.0304655  72.6794132 101.3296629  66.8658768  72.0538078  99.9609389
  61.3399067  68.1260992 105.9591560  61.2018865  67.3941231 106.5603099
  62.2503990  68.0369892 105.6775748  70.3014014  70.0649396  90.7076038
  69.6843185  69.3396225  90.6109091  69.8330503  70.8258757  90.3643113
  63.9681367  67.8380951 105.4475239  64.6780986  67.1974144 105.4061858
  63.9250676  68.0893846 106.3701420  71.9568146  74.7748305 108.3681819
  71.8980692  74.0907525 107.7012402  72.3587664  75.5167295 107.9162445
  62.6810301  64.8246169 107.2670879  62.1447658  64.3736908 107.9192475
  62.0927010  64.9592078 106.5241343  60.9758845  81.5910219 101.1615538
  61.2155443  82.2228743 101.8394556  60.1328041  81.2398259 101.4480897
  62.0912560  64.2834821  89.8297343  61.2142027  64.1623622  89.4659589
  62.5670313  63.4920899  89.5776231  71.9585553  72.7387889 106.5995798
  71.0712332  72.4013811 106.7222197  72.5284104  72.0070920 106.8364564
  53.6114701  69.0711980  99.9238850  54.2985740  68.7573711  99.3359865
  53.4562829  69.9753345  99.6506101  58.4149423  63.9602177 104.3523873
  58.3307611  63.3527847 103.6174283  57.5932129  64.4511195 104.3533370
  65.4886707  77.3989341 103.5657042  65.4156878  78.2044313 104.0776346
  65.0464100  77.5981307 102.7405063  65.2776486  76.6361111  97.0759863
  64.4944008  77.1782791  97.1698088  65.9769232  77.1535091  97.4754104
  68.5873137  62.4455741  99.7194068  69.0841836  61.6925703  99.3995139
  67.8160118  62.4820057  99.1537278  76.4402894  68.1496106 101.3612360
  76.4292770  69.0320822 100.9906293  75.5720273  67.7967657 101.1666897
  67.9485390  77.2976175 105.7215200  68.6613363  77.9323640 105.6491102
  67.4575419  77.3940041 104.9055202  69.6702917  71.2027428  97.2932492
  68.7359196  71.3228890  97.1237196  69.8479586  70.2999895  97.0292502
  65.1708105  64.5873124  99.4465753  64.8005893  64.0344164 100.1346659
  65.6667198  63.9831257  98.8940753  73.0575469  67.0444747  97.8282526
  73.5235921  67.8772739  97.7542829  73.5082969  66.5789729  98.5327784
  62.9997304  75.0470619 106.5420771  63.7006763  75.6807102 106.6950165
  62.5292419  75.3885350 105.7816410  71.1251700  73.3888568  94.8268678
  71.4011544  73.2745163  95.7362552  70.2556198  72.9906053  94.7880851
  71.0292131  59.4125334 101.8673427  70.1155211  59.6429561 102.0355634
  71.4585233  59.4963778 102.7187460  70.7998590  67.6015226 104.3673321
  70.1470040  67.8491133 103.7125774  71.1778970  66.7879364 104.0335799
  67.7605764  77.6374919  98.4701492  67.9428158  76.8196575  98.9329244
  68.5838750  77.8542611  98.0326382  68.0947929  76.5643104  95.7316540
  68.6235696  76.0535559  95.1186702  68.3576149  76.2485635  96.5962073
  66.8486163  68.3435037 110.8539358  66.1726800  68.2429166 111.5241734
  67.6713797  68.1874251 111.3175356  58.5965022  74.5806974 103.4751874
  59.1818459  73.8350662 103.6079778  58.3989860  74.8910930 104.3588538
  61.4503677  77.6158221  98.4914316  60.7814052  78.1004349  98.0078356
  61.3116547  77.8627441  99.4057695  53.1882677  67.1512574 102.1956317
  53.2266776  66.6176165 102.9893435  52.6822969  66.6247779 101.5767294
  65.5908946  79.6501965 105.0896974  66.1427254  79.8133586 105.8546060
  65.9315139  80.2406402 104.4176999  60.5673439  61.9977114 105.6918859
  60.6314765  62.8591945 105.2796257  60.5040559  61.3851116 104.9591218
  60.0425711  64.0700247 109.3391893  60.6697750  63.6877324 109.9529418
  59.1853630  63.8514449 109.7047586  70.4419820  74.4763222 110.9445629
  70.9859724  75.0893180 110.4500584  69.8606665  75.0342800 111.4612642
  56.8191254  65.8776676  95.2710248  57.1144695  64.9687354  95.2177302
  55.9179290  65.8564415  94.9491251  68.7277333  77.5983940 102.0760657
  68.6028472  76.7973680 101.5671602  69.3856424  78.0930133 101.5874627
  60.3485501  63.9532673 101.2537797  59.6272087  64.5668640 101.1145270
  61.1378757  64.4890437 101.1754443  70.7912241  75.3992960 103.7040207
  69.8442577  75.2798311 103.6318533  71.1395014  74.5115458 103.7866468
  63.1511815  61.2887099 107.5278449  63.6746217  61.5349396 108.2904758
  62.9324148  62.1207134 107.1081586  58.5479096  63.5590774  95.3949573
  58.2191802  62.6788153  95.2124679  58.9018466  63.5038442  96.2825963
  67.7958675  75.1945676  99.9044559  67.6483637  74.2662384 100.0852129
  68.6212168  75.2165767  99.4201634  61.6620919  63.8463743  95.7625051
  62.0016991  64.3749665  95.0403659  62.1093039  64.1844150  96.5383618
  71.3992796  76.0174235 100.9909432  72.3239344  75.8117096 100.8533883
  71.2308100  75.7690636 101.8998773  64.3564360  62.2300794 105.2128119
  64.0161180  61.4308607 105.6148799  63.6503366  62.5302505 104.6404952
  65.0080832  59.3150107 103.6655442  65.8306901  58.8410585 103.5434332
  65.2518895  60.0940590 104.1654128  63.6489066  62.3438365  93.9618344
  64.3697429  62.7219618  93.4582061  63.0254370  63.0627242  94.0653322
  67.7920189  63.0483514  94.8976676  68.0083803  63.9308152  94.5965504
  67.3114256  62.6569727  94.1682318  62.5319410  66.0069227 101.4747421
  62.3863991  66.3209530 102.3671702  62.0544614  66.6254128 100.9218319
  64.3915793  62.9971775 101.5228310  64.3777362  62.1012869 101.1860608
  65.1088221  63.0042439 102.1566596  66.2441924  63.4309115 103.5681438
  65.9859702  64.3526186 103.5665768  65.7126964  63.0339550 104.2581902
  71.1888113  76.5359903  96.3471523  71.3624990  75.9706325  95.5945376
  71.6817004  77.3360797  96.1651013  57.0065073  68.5474572 104.4135082
  56.4618541  69.3234380 104.5455356  57.8844422  68.8945376 104.2554203
  63.7952689  61.8786156  96.7915880  63.9168600  60.9502802  96.9906768
  63.5054732  61.8924841  95.8794196  66.6643880  59.5641066  99.9282600
  66.6865576  59.6280399  98.9734580  67.0811939  58.7245575 100.1223106
  77.0427504  69.2996325  97.9661823  77.4858650  68.5503651  97.5680946
  76.1654014  69.2906462  97.5835555  72.1763285  75.8526667  93.4468421
  72.8714190  76.4733360  93.6655736  72.5186435  75.0022018  93.7220799
  57.7931094  67.6744468 107.3065239  57.0512830  67.8227103 107.8929869
  57.4723839  67.9352734 106.4431988  74.0754708  73.3026372  94.9755752
  74.6006032  73.6413645  94.2505072  73.9877061  72.3673388  94.7918887
  65.7374757  77.2160446 107.1045629  66.0461883  76.9709593 107.9768328
  66.5350239  77.4207085 106.6164499  65.7595369  79.3698356  99.3351005
  65.3200359  78.8774734 100.0283862  66.5103486  78.8271323  99.0943081
  58.2387708  75.5609897  99.3375633  59.0645728  75.2613668  98.9574277
  57.8881760  74.7917519  99.7865422  63.2069241  74.9136365 101.4073307
  62.5849251  74.2507070 101.1075535  63.8774108  74.9397497 100.7246955
  56.4396313  73.4796223 100.2964567  55.6028221  73.0518397 100.1148568
  56.4119959  73.6728666 101.2335358  63.2793769  63.3918153 111.0005813
  63.3281924  64.2680276 110.6183583  63.8216283  62.8495546 110.4277456
  73.7648614  73.9359276 110.2806950  72.9744158  73.9183415 109.7411450
  73.5281969  74.4747570 111.0355987  73.8846489  70.7851742 107.5939679
  73.9344494  70.6201750 108.5355201  73.7760413  69.9179002 107.2037559
  62.7682748  73.4640288  94.8831768  62.9170869  74.1475753  94.2298440
  63.5749192  73.4445378  95.3981223  71.1750252  66.7682671 108.9098985
  72.0760115  66.6289135 108.6182983  71.2498226  66.9337125 109.8497163
  65.5093057  64.1449525 107.7552172  64.6396367  64.4383091 107.4834760
  65.7452538  64.7289970 108.4759435  75.3864686  73.2048684 107.8381700
  75.0949495  73.5678665 108.6745161  74.7736818  72.4915692 107.6595032
  76.5860369  70.7701564 100.3584270  77.4207260  71.2091368 100.5221831
  76.7219497  70.2940217  99.5392516  73.6351875  68.3281299 106.3061758
  74.1105996  68.5208945 105.4980610  72.7117440  68.3840484 106.0605142
  60.5235381  69.4905466  95.8892836  60.2781423  68.5867796  96.0873047
  60.6931296  69.4922616  94.9472314  68.2132091  60.3629142 105.2717592
  68.7314035  61.0990169 104.9464081  67.8587224  60.6693135 106.1064351
  59.7931029  65.2233823  93.3878998  59.1000274  65.2978178  92.7319034
  59.5482781  64.4594167  93.9100515  68.4644685  56.7829425 100.7918489
  68.7446439  56.1152614 101.4178915  69.2495292  56.9758520 100.2793153
  66.2678154  75.9588419  92.3543515  65.6952121  76.5778606  91.9013987
  66.8410947  76.5087780  92.8883437  72.3353544  65.2047059 104.5390064
  73.2870966  65.3045156 104.5602288  72.1656994  64.4125327 105.0488148
  70.3567923  62.2902642 104.7249465  69.7617855  62.5707655 104.0295953
  70.0717620  62.7796543 105.4966206  69.4875413  76.2425569  93.4852097
  70.4206087  76.1771130  93.6884973  69.3998626  77.0781836  93.0266630
  72.1163430  75.5591439  90.4456045  72.0377062  75.2251303  91.3391803
  72.9373097  76.0513207  90.4447517  74.8141621  68.4253178 103.6532363
  74.7817941  67.4869179 103.8392047  75.4242245  68.5037215 102.9198188
  66.6524952  67.2949231  89.6959567  67.5984057  67.1655439  89.7647986
  66.2739197  66.5563893  90.1728996  74.9636110  65.2164222 103.6990647
  74.4475158  64.4322678 103.5120575  75.8476058  64.8882938 103.8637166
  72.6246837  58.9605237  99.6586459  72.4271658  58.6520326 100.5429791
  73.2346542  59.6866876  99.7884389  80.6318171  69.4869185 102.7938400
  81.3621560  69.2254473 103.3546104  80.0225117  68.7497907 102.8340468
  78.7133468  67.6277048 103.3912851  77.9866632  67.4933013 102.7829343
  78.2980755  67.9353876 104.1969569  66.5363645  71.3466978 111.1560224
  67.4566654  71.5245577 111.3500271  66.5013228  70.4023023 111.0039924
  64.8367869  65.2199208  89.6314453  63.9299325  64.9232320  89.7077166
  65.1143850  64.9229026  88.7648739  55.7545810  66.5405571 100.0813499
  55.4348594  65.6870879  99.7887873  55.2079238  66.7554149 100.8371466
  59.5325717  69.2568012 103.7983006  59.7511727  70.1885120 103.8171039
  59.9451491  68.8975987 104.5837809  66.4529935  59.7636097  95.7858694
  65.6430663  59.4183182  96.1613940  67.1414352  59.4543641  96.3746306
  68.3820483  58.8414144  97.4082991  68.9351522  59.2609598  98.0673014
  68.6190570  57.9149892  97.4505947  64.4053583  64.8301218 113.1885755
  64.3050309  65.7795575 113.1197846  64.1875125  64.5019457 112.3161825
  63.6066654  62.0786143  89.7726432  64.4685818  62.4041041  90.0322249
  63.7916998  61.2917639  89.2599498  55.6234070  70.1608483 102.0506621
  54.9297541  69.7462435 101.5376575  56.3707061  70.2029019 101.4540040
  71.7599290  60.9514669  96.9161655  71.1797959  61.6099473  96.5339707
  71.4935223  60.1292014  96.5049072  70.2102857  60.3519727  99.1182975
  70.7102635  60.4636262  98.3097294  70.8538465  60.0480780  99.7583784
  64.2684853  68.2598357 112.0050816  63.7851934  69.0598717 112.2114705
  64.3545792  68.2706302 111.0518260  57.5370812  70.0926736  99.9272636
  57.5141500  70.1914424  98.9754519  57.8471449  70.9391887 100.2489802
  60.1958190  72.1502891 104.0419250  61.1501444  72.1186834 103.9749182
  59.9970714  71.6893515 104.8569476  60.7857572  70.7204008 106.6090048
  61.6050461  71.2148086 106.6324885  61.0594380  69.8035976 106.5807615
  70.5424168  63.1114760  95.9718003  69.6550023  63.3964410  95.7538198
  70.9578158  62.9508523  95.1245280  73.8938705  63.1361281  99.6872342
  74.6699095  63.6257733  99.9596959  73.1686839  63.5619335 100.1444212
  76.3311263  63.8488900 100.7446283  76.9255754  63.6084636 100.0339591
  76.4037847  63.1296031 101.3719819  58.5508419  77.6922511 101.0589448
  58.4162887  76.9322912 100.4927446  58.1340481  78.4163411 100.5918237
  69.6867382  72.8759435  90.0666023  70.3903232  73.0809437  90.6823679
  68.9630031  73.4436196  90.3315107  70.5165192  68.6269296  96.1868293
  70.4600394  69.0837847  95.3475926  71.0693535  67.8659980  96.0091136
  74.3269998  64.4159028  97.0118413  74.0706932  64.0155663  97.8426621
  73.7022866  65.1302822  96.8868552  78.6382336  67.1555101  99.5189704
  78.0781894  67.2248290 100.2921266  78.0325839  66.9796086  98.7989200
  61.7077545  78.5891828 101.2707891  61.5909929  79.5337260 101.1686581
  60.8869991  78.2865390 101.6593690  71.5954079  73.3141964  92.1164483
  72.4299683  72.8823162  91.9341958  71.4338422  73.1423977  93.0441378
  71.2499971  69.8174077  93.4820823  71.1948775  69.6518348  92.5409267
  70.6246027  70.5250110  93.6383012  56.0392486  65.0542141 107.3082245
  56.6851350  64.5441095 107.7969470  55.8309638  65.7910823 107.8825670
  68.5645879  72.1222989 112.8074385  69.4337038  72.2963641 112.4461020
  68.0852630  72.9417406 112.6850115  64.5596097  59.3182186  93.0606141
  64.5474767  60.2624026  93.2174412  65.4519519  59.1352331  92.7665602
  62.7332059  79.2420090 104.4863819  63.6359306  79.2743700 104.8030314
  62.5069429  78.3120541 104.5010155  64.4885661  77.9951076 101.1473898
  63.5381292  77.9952938 101.0338270  64.7918147  77.2483811 100.6309932
  68.3748216  55.9124963  97.3152078  67.6080612  55.3583449  97.4608760
  68.7858921  55.9846831  98.1766229  60.3789977  62.2009758 111.4057259
  61.2421439  61.8446563 111.6160584  59.8055388  61.8623653 112.0932663
  80.2238354  83.8311615 102.2119660  80.8616764  83.7118362 101.5083000
  80.1059197  84.7792459 102.2707612  77.0328061  83.7839043 102.1481185
  76.6946572  83.6680108 101.2601720  77.9017829  83.3830208 102.1282191
  72.8914876  85.6374519  98.1378076  72.3279742  85.5464456  97.3694363
  72.7767271  84.8174424  98.6180568  77.5147844  84.9373895 108.1067390
  77.5036484  84.5426693 107.2347894  77.6768483  84.2039967 108.7001162
  70.4379308  87.1325711 100.9762296  71.2300600  86.7916536 100.5608595
  70.6775958  87.2420686 101.8964449  78.4714435  89.3045487  93.4492541
  77.8202415  89.8899567  93.0626554  79.2658798  89.8351682  93.5087578
  72.3970062  86.3934624  93.8479675  73.1700938  85.8463611  93.7092551
  72.7495461  87.2578874  94.0594136  74.2355105  87.7211006 107.0546574
  73.9444971  88.6256637 106.9393240  74.8712089  87.7627534 107.7690644
  75.1611312  85.0987855 103.6447934  75.7574884  84.8743877 102.9304897
  75.2186283  84.3572600 104.2473382  74.7336340  82.5527290  91.4798125
  74.9861861  82.0308812  90.7181588  73.7960899  82.3893436  91.5824808
  79.7779623  81.5563069  99.2872868  80.5642712  81.1382492  98.9363285
  80.0418327  82.4609161  99.4554516  79.9489700  86.9935919  93.9861525
  79.3135533  87.0670545  94.6982429  79.6187107  87.5829518  93.3080604
  85.1788050  81.4938302 100.1905847  85.9113222  80.9237519 100.4243676
  84.4227406  81.1059902 100.6312352  74.4532629  84.4555396  93.6822500
  74.3368887  83.7800300  94.3503584  74.5634889  83.9687770  92.8654653
  76.7964170  83.9165543  97.3869189  76.4322377  83.3896164  98.0982110
  77.6531286  83.5264012  97.2135674  82.7013470  75.2059876 104.6500455
  82.3696795  76.0755287 104.4261670  82.1059084  74.8896160 105.3294486
  76.4369657  78.9455443  92.3830537  76.6044059  79.8135679  92.7501009
  76.2466826  79.1082725  91.4591827  79.1944990  87.4072422 104.0496368
  78.8945713  88.3097461 103.9412175  78.8496049  87.1404605 104.9017521
  72.6457471  83.8586219 100.0833072  71.7207968  83.7262433 100.2910764
  72.8941885  84.6380438 100.5803015  82.5942134  79.9254962 101.7293805
  81.6859011  79.8570371 101.4352566  82.5429729  80.4026907 102.5575631
  76.4158878  81.4013101  93.3677204  76.2958503  81.8470151  94.2062685
  75.7211466  81.7498418  92.8090742  70.0066282  83.5019492 100.9176861
  70.1358664  83.7553971 101.8316273  69.3263734  84.0947200 100.5981516
  74.1765770  94.1716742  97.0167336  74.0989799  95.1224567  97.0955816
  73.5727413  93.8262615  97.6742262  76.6682999  81.3444608 109.6728702
  75.8916334  81.9038528 109.6631567  77.3073563  81.8301391 110.1943573
  84.4603780  78.1271401 103.5071679  83.8178160  78.4203934 102.8611474
  83.9558709  78.0124321 104.3124876  82.1143944  81.8734574  94.1957538
  83.0261800  82.1061960  94.0205236  81.6053591  82.4571618  93.6332617
  74.9229372  84.1530061 109.2346669  75.6644056  84.6915105 108.9581493
  74.2166357  84.7796350 109.3918221  80.3984711  86.2959202 107.8318831
  80.8068067  85.8541612 107.0873463  79.6761973  85.7211829 108.0853024
  76.7515781  81.2331808 105.2052388  77.5976977  81.6571222 105.3487037
  76.6914419  80.5765433 105.8990951  80.7213526  86.8560392 101.5871120
  80.0922388  87.0206106 100.8847188  80.3339188  87.2702002 102.3582084
  84.6002758  87.7914830  98.9415484  83.9153796  88.1713731  98.3912517
  84.6846607  88.4010157  99.6747431  79.9015227  78.8936177 106.8633562
  79.6576159  79.6478237 106.3267837  80.1775157  79.2721524 107.6980809
  81.8553690  85.4374789 105.5410827  82.0670585  86.0806549 104.8645208
  81.8083438  84.6037106 105.0732757  79.4579919  78.0492610 102.4447399
  78.5964398  78.3473863 102.7364137  79.4842353  78.2663009 101.5128432
  76.2741488  86.5934800  98.8521205  76.7379833  86.8722503  98.0625827
  76.0098286  85.6918245  98.6694296  73.1665569  86.1406282 101.7900968
  73.7366926  86.5693550 101.1518453  73.7573681  85.8588867 102.4885154
  75.2110374  82.7157953  95.6610770  75.9134417  83.1678996  96.1284696
  74.8791002  82.0741772  96.2890663  73.6590736  81.3069709 110.0361979
  73.0289396  81.9885990 110.2697376  73.5526823  81.1952791 109.0915118
  68.9535708  80.9741505 100.9627904  68.1634762  81.2299034 100.4868014
  69.4446955  81.7889843 101.0679944  82.9699518  88.3146744 103.7133184
  83.7916961  87.9126932 103.4315866  82.9661920  88.2114979 104.6649300
  70.9050453  81.3386085  97.9211380  70.1081617  81.4504779  98.4394876
  70.6776046  81.6772737  97.0552271  76.7356121  87.8630788 105.8693895
  76.8000553  88.3251195 106.7052067  76.0267045  87.2328153 105.9976205
  67.2373411  81.2271996 103.3942894  67.4881449  82.1119006 103.6600470
  67.7732959  81.0476597 102.6217986  91.0605511  84.6585493 100.0618156
  90.3069219  84.0892891  99.9062160  91.1953052  84.6248157 101.0088791
  76.4504139  89.5298895  95.7372875  76.3149813  90.3750431  96.1657723
  76.9913951  89.7318173  94.9738809  72.9371478  75.6090475 112.3987230
  72.5438424  75.0556674 113.0734875  73.7537619  75.9201054 112.7893748
  69.9033536  87.0474333  96.3100800  70.4158057  87.8417584  96.4606365
  70.5556249  86.3500624  96.2434402  71.7128421  90.1640090  98.3923554
  71.8895049  91.0858054  98.2044537  72.5085254  89.8498509  98.8217933
  75.8539439  77.0248354 109.9907487  76.5949153  77.6255507 109.9111950
  76.0857362  76.2825992 109.4325530  70.9980777  82.2104721 108.2685717
  70.8834292  81.3089979 108.5692816  70.1425295  82.4568418 107.9170533
  78.0772615  90.1522462 109.8673217  77.6336469  89.3658840 109.5494122
  78.7389829  90.3401612 109.2017108  72.8359736  91.6818263 104.3933896
  73.3867161  91.5535327 103.6210890  71.9971212  91.9813152 104.0428789
  80.1753853  90.4325262 107.8954619  80.1572328  91.2534143 107.4034888
  81.0973773  90.3079337 108.1204760  76.6326907  87.9469391 108.7378127
  77.1655244  87.1857679 108.5077435  76.1040988  87.6543043 109.4802281
  79.7996602  73.0529457 104.2671769  79.4560872  73.9431099 104.1910879
  80.1675565  72.8631115 103.4041354  67.8682453  85.3762988  97.0860371
  68.7057675  85.7859996  96.8694079  68.0460720  84.4362430  97.0560565
  79.7646885  83.0438068  92.7744204  79.2493508  83.8142673  93.0132591
  79.4924193  82.3703204  93.3977265  77.3493996  77.8887769  97.8329442
  76.4935592  77.4994619  97.6535081  77.7620948  77.9679730  96.9729228
  78.8793143  75.4234112 102.2321002  78.3757938  75.3864247 101.4188807
  79.1723749  76.3326855 102.2917659  75.1236028  75.5072842 101.2387184
  75.9889025  75.3115651 100.8793073  75.1913537  75.2783194 102.1656540
  84.7381159  85.7970423  94.7097377  83.9610602  85.4581582  94.2652539
  85.4172640  85.8023046  94.0352342  79.5533188  80.9165160  94.6003985
  79.2483324  81.2311310  95.4514128  80.5063630  80.9946580  94.6431318
  77.9979620  87.0755384  96.2496939  77.4700981  86.3408143  95.9370176
  77.4967123  87.8530060  96.0036907  82.9772466  85.2704404 101.3663985
  82.3196140  85.9603666 101.4544114  83.7812865  85.6600836 101.7097972
  72.7298348  77.7375050  98.6103551  73.3042099  77.5150231  97.8776743
  73.3169330  77.8063744  99.3632152  81.7877925  83.6248777  99.4167927
  82.3009806  84.2578769  99.9189637  82.4379149  83.0249972  99.0511287
  73.0567935  79.7679511  92.6299436  72.2205247  80.1054198  92.9508711
  72.9172704  79.6328491  91.6926573  75.0321015  74.6116299  97.3378620
  74.3785428  74.2965316  96.7135235  74.9901489  73.9892039  98.0638443
  76.1432220  84.8935594  89.2531912  75.2359282  84.6624847  89.4523061
  76.6403252  84.0973213  89.4405894  79.0500299  93.6033101  92.1728598
  78.3761998  93.9064798  92.7813556  79.4366121  94.4062181  91.8234055
  78.2658756  81.0998232 101.6626268  77.3481317  81.3213179 101.5047956
  78.6818899  81.1744543 100.8037975  79.0493803  82.4989648  96.7928948
  79.7965622  83.0111045  96.4836070  79.3185393  82.1773701  97.6533341
  77.3220454  84.9948189  93.7755902  76.4131673  84.7107222  93.8728372
  77.3515537  85.4147267  92.9159209  82.5539721  88.6054778  97.5447070
  82.1002048  87.7645688  97.6012260  81.9233688  89.2416177  97.8821850
  81.4972641  79.5346764  98.7747737  80.7595397  79.0224151  99.1057980
  81.7499414  79.0947146  97.9631014  80.9972660  90.4431275  98.4796888
  81.2895635  91.0036332  97.7609253  81.5071281  90.7359836  99.2350047
  81.5984268  72.3123016  99.3689506  81.9043145  71.4520380  99.0815421
  82.3236873  72.9040637  99.1688500  67.8908624  82.7153703  97.7571104
  67.6933024  82.1223064  97.0322171  67.3355288  82.4105913  98.4747043
  75.8705348  82.6076809  99.8765697  75.9253957  81.6550646  99.8008174
  75.0596550  82.7636249 100.3606996  77.0196541  86.5356932  91.1143981
  76.5815971  85.8192791  90.6549618  77.7606982  86.7633047  90.5529072
  73.8097707  81.2253869  97.6356076  72.9965573  81.5248040  98.0421268
  74.3056702  80.8309558  98.3530559  75.9606285  91.2211626  99.5690341
  75.9182464  91.4472472  98.6398873  76.8768984  90.9875001  99.7176142
  79.4071919  81.6895694 106.4670970  79.7621307  81.9167167 107.3265436
  80.0544050  82.0214070 105.8448226  85.1369656  84.8114130  97.1720299
  84.9987555  85.0015725  96.2441488  84.7805875  85.5733512  97.6288350
  73.3011782  78.7972225 103.2517311  73.9411162  78.6560984 102.5540275
  72.4689313  78.5106738 102.8755913  85.1639036  86.8790657 102.1831571
  85.5975542  86.7865946 103.0314625  85.8770616  86.8548157 101.5451587
  74.0772086  88.0974655  99.3652304  74.8712685  87.6024975  99.1634879
  73.3663779  87.5692518  99.0020009  78.8966931  90.4792751 103.7164671
  78.9503953  91.0483687 104.4842387  78.0281712  90.6494636 103.3518709
  70.3854850  82.2417737  95.4412056  69.4552438  82.1802192  95.6582019
  70.4812322  81.7193690  94.6448698  70.3040399  78.7672550  98.0290298
  70.5647216  79.6817883  97.9199459  71.1257571  78.2996992  98.1786911
  71.7765324  80.1810307 105.1989123  72.4488377  79.9727669 104.5501772
  70.9495111  79.9832393 104.7594355  86.0254585  86.9214357 104.7164456
  86.2190475  87.8260168 104.9623731  85.9255203  86.4621776 105.5503041
  77.6790896  76.8072248 107.2154784  77.0318811  77.5062197 107.1219260
  78.4491911  77.2408392 107.5831032  81.0869694  87.0721100 110.2905337
  80.9355200  86.8431652 109.3735420  81.0774373  88.0291701 110.3036682
  77.8555030  84.6453013 105.2751603  78.7847090  84.7964172 105.1020571
  77.4346060  84.7337033 104.4200250  76.6543362  88.6703677 103.0450141
  76.5154448  88.3022461 103.9176079  75.8657958  89.1851317 102.8734099
  77.2491514  93.7712774  94.3875677  77.4243270  93.3000817  95.2021300
  76.5624302  94.3978540  94.6156938  78.2048577  88.0485280 100.4338979
  77.8698410  88.0086050 101.3296629  77.7052523  87.3829996  99.9609389
  72.1792821  83.4552910 105.9591560  72.0412619  82.7233149 106.5603099
  73.0897745  83.3661810 105.6775748  81.1407769  85.3941314  90.7076038
  80.5236940  84.6688142  90.6109091  80.6724257  86.1550674  90.3643113
  74.8075122  83.1672869 105.4475239  75.5174740  82.5266061 105.4061858
  74.7644430  83.4185764 106.3701420  82.7961901  90.1040222 108.3681819
  82.7374447  89.4199443 107.7012402  83.1981419  90.8459212 107.9162445
  73.5204056  80.1538087 107.2670879  72.9841413  79.7028825 107.9192475
  72.9320764  80.2883996 106.5241343  71.8152599  96.9202136 101.1615538
  72.0549198  97.5520660 101.8394556  70.9721796  96.5690176 101.4480897
  72.9306315  79.6126738  89.8297343  72.0535781  79.4915539  89.4659589
  73.4064068  78.8212817  89.5776231  82.7979308  88.0679806 106.5995798
  81.9106087  87.7305728 106.7222197  83.3677859  87.3362838 106.8364564
  64.4508455  84.4003898  99.9238850  65.1379495  84.0865628  99.3359865
  64.2956584  85.3045263  99.6506101  69.2543177  79.2894095 104.3523873
  69.1701366  78.6819764 103.6174283  68.4325884  79.7803113 104.3533370
  76.3280461  92.7281259 103.5657042  76.2550633  93.5336230 104.0776346
  75.8857854  92.9273225 102.7405063  76.1170241  91.9653029  97.0759863
  75.3337763  92.5074709  97.1698088  76.8162986  92.4827008  97.4754104
  79.4266891  77.7747658  99.7194068  79.9235591  77.0217621  99.3995139
  78.6553873  77.8111975  99.1537278  87.2796648  83.4788024 101.3612360
  87.2686525  84.3612739 100.9906293  86.4114028  83.1259575 101.1666897
  78.7879145  92.6268093 105.7215200  79.5007117  93.2615558 105.6491102
  78.2969173  92.7231959 104.9055202  80.5096672  86.5319345  97.2932492
  79.5752950  86.6520808  97.1237196  80.6873340  85.6291812  97.0292502
  76.0101860  79.9165041  99.4465753  75.6399647  79.3636082 100.1346659
  76.5060952  79.3123175  98.8940753  83.8969223  82.3736665  97.8282526
  84.3629675  83.2064656  97.7542829  84.3476724  81.9081646  98.5327784
  73.8391058  90.3762536 106.5420771  74.5400518  91.0099019 106.6950165
  73.3686173  90.7177268 105.7816410  81.9645454  88.7180486  94.8268678
  82.2405298  88.6037081  95.7362552  81.0949953  88.3197971  94.7880851
  81.8685886  74.7417252 101.8673427  80.9548966  74.9721479 102.0355634
  82.2978987  74.8255696 102.7187460  81.6392344  82.9307144 104.3673321
  80.9863795  83.1783051 103.7125774  82.0172724  82.1171282 104.0335799
  78.5999518  92.9666837  98.4701492  78.7821913  92.1488493  98.9329244
  79.4232504  93.1834529  98.0326382  78.9341684  91.8935022  95.7316540
  79.4629450  91.3827477  95.1186702  79.1969903  91.5777552  96.5962073
  77.6879917  83.6726955 110.8539358  77.0120554  83.5721084 111.5241734
  78.5107551  83.5166169 111.3175356  69.4358776  89.9098891 103.4751874
  70.0212213  89.1642579 103.6079778  69.2383615  90.2202848 104.3588538
  72.2897432  92.9450139  98.4914316  71.6207807  93.4296266  98.0078356
  72.1510301  93.1919359  99.4057695  64.0276431  82.4804492 102.1956317
  64.0660531  81.9468082 102.9893435  63.5216724  81.9539697 101.5767294
  76.4302700  94.9793882 105.0896974  76.9821008  95.1425504 105.8546060
  76.7708894  95.5698320 104.4176999  71.4067193  77.3269032 105.6918859
  71.4708520  78.1883863 105.2796257  71.3434314  76.7143034 104.9591218
  70.8819466  79.3992165 109.3391893  71.5091505  79.0169242 109.9529418
  70.0247385  79.1806366 109.7047586  67.6585009  81.2068594  95.2710248
  67.9538450  80.2979272  95.2177302  66.7573044  81.1856333  94.9491251
  79.5671087  92.9275858 102.0760657  79.4422227  92.1265598 101.5671602
  80.2250179  93.4222051 101.5874627  71.1879256  79.2824590 101.2537797
  70.4665841  79.8960558 101.1145270  71.9772511  79.8182355 101.1754443
  81.6305996  90.7284878 103.7040207  80.6836331  90.6090229 103.6318533
  81.9788769  89.8407376 103.7866468  73.9905569  76.6179017 107.5278449
  74.5139971  76.8641313 108.2904758  73.7717902  77.4499052 107.1081586
  69.3872850  78.8882691  95.3949573  69.0585556  78.0080070  95.2124679
  69.7412221  78.8330360  96.2825963  78.6352429  90.5237594  99.9044559
  78.4877392  89.5954301 100.0852129  79.4605923  90.5457685  99.4201634
  72.5014673  79.1755661  95.7625051  72.8410746  79.7041582  95.0403659
  72.9486794  79.5136067  96.5383618  82.2386551  91.3466153 100.9909432
  83.1633098  91.1409014 100.8533883  82.0701854  91.0982554 101.8998773
  75.1958114  77.5592712 105.2128119  74.8554935  76.7600525 105.6148799
  74.4897121  77.8594423 104.6404952  75.8474586  74.6442024 103.6655442
  76.6700655  74.1702502 103.5434332  76.0912650  75.4232508 104.1654128
  74.4882821  77.6730283  93.9618344  75.2091183  78.0511536  93.4582061
  73.8648125  78.3919160  94.0653322  78.6313943  78.3775432  94.8976676
  78.8477558  79.2600070  94.5965504  78.1508011  77.9861645  94.1682318
  73.3713165  81.3361145 101.4747421  73.2257746  81.6501448 102.3671702
  72.8938368  81.9546045 100.9218319  75.2309548  78.3263693 101.5228310
  75.2171116  77.4304786 101.1860608  75.9481976  78.3334357 102.1566596
  77.0835678  78.7601033 103.5681438  76.8253456  79.6818104 103.5665768
  76.5520719  78.3631468 104.2581902  82.0281867  91.8651820  96.3471523
  82.2018745  91.2998243  95.5945376  82.5210758  92.6652715  96.1651013
  67.8458827  83.8766489 104.4135082  67.3012295  84.6526297 104.5455356
  68.7238177  84.2237294 104.2554203  74.6346444  77.2078073  96.7915880
  74.7562355  76.2794719  96.9906768  74.3448486  77.2216759  95.8794196
  77.5037634  74.8932984  99.9282600  77.5259331  74.9572317  98.9734580
  77.9205693  74.0537492 100.1223106  87.8821258  84.6288243  97.9661823
  88.3252404  83.8795568  97.5680946  87.0047769  84.6198380  97.5835555
  83.0157040  91.1818585  93.4468421  83.7107944  91.8025277  93.6655736
  83.3580190  90.3313936  93.7220799  68.6324849  83.0036386 107.3065239
  67.8906585  83.1519021 107.8929869  68.3117593  83.2644651 106.4431988
  84.9148463  88.6318290  94.9755752  85.4399787  88.9705563  94.2505072
  84.8270815  87.6965305  94.7918887  76.5768512  92.5452364 107.1045629
  76.8855638  92.3001511 107.9768328  77.3743994  92.7499002 106.6164499
  76.5989124  94.6990273  99.3351005  76.1594114  94.2066652 100.0283862
  77.3497241  94.1563241  99.0943081  69.0781463  90.8901814  99.3375633
  69.9039482  90.5905586  98.9574277  68.7275515  90.1209437  99.7865422
  74.0462996  90.2428283 101.4073307  73.4243005  89.5798988 101.1075535
  74.7167863  90.2689414 100.7246955  67.2790068  88.8088141 100.2964567
  66.4421976  88.3810315 100.1148568  67.2513713  89.0020584 101.2335358
  74.1187523  78.7210071 111.0005813  74.1675679  79.5972193 110.6183583
  74.6610037  78.1787464 110.4277456  84.7240244  86.1143660 107.5939679
  84.7738249  85.9493668 108.5355201  84.6154167  85.2470919 107.2037559
  73.6076503  88.7932206  94.8831768  73.7564623  89.4767670  94.2298440
  74.4142946  88.7737296  95.3981223  82.0144006  82.0974588 108.9098985
  82.9153869  81.9581053 108.6182983  82.0891981  82.2629043 109.8497163
  76.3486812  79.4741443 107.7552172  75.4790121  79.7675009 107.4834760
  76.5846292  80.0581888 108.4759435  86.2258441  88.5340602 107.8381700
  85.9343249  88.8970582 108.6745161  85.6130572  87.8207610 107.6595032
  87.4254123  86.0993481 100.3584270  88.2601014  86.5383286 100.5221831
  87.5613252  85.6232135  99.5392516  84.4745629  83.6573216 106.3061758
  84.9499751  83.8500863 105.4980610  83.5511194  83.7132402 106.0605142
  71.3629136  84.8197383  95.8892836  71.1175178  83.9159713  96.0873047
  71.5325050  84.8214534  94.9472314  79.0525845  75.6921060 105.2717592
  79.5707789  76.4282087 104.9464081  78.6980978  75.9985053 106.1064351
  70.6324783  80.5525741  93.3878998  69.9394028  80.6270096  92.7319034
  70.3876535  79.7886085  93.9100515  79.3038440  72.1121342 100.7918489
  79.5840193  71.4444531 101.4178915  80.0889047  72.3050438 100.2793153
  77.1071908  91.2880336  92.3543515  76.5345875  91.9070523  91.9013987
  77.6804702  91.8379698  92.8883437  83.1747298  80.5338976 104.5390064
  84.1264721  80.6337074 104.5602288  83.0050748  79.7417245 105.0488148
  81.1961677  77.6194560 104.7249465  80.6011610  77.8999572 104.0295953
  80.9111374  78.1088461 105.4966206  80.3269168  91.5717486  93.4852097
  81.2599841  91.5063048  93.6884973  80.2392381  92.4073753  93.0266630
  82.9557185  90.8883357  90.4456045  82.8770816  90.5543220  91.3391803
  83.7766851  91.3805125  90.4447517  85.6535376  83.7545096 103.6532363
  85.6211696  82.8161097 103.8392047  86.2635999  83.8329133 102.9198188
  77.4918707  82.6241149  89.6959567  78.4377811  82.4947357  89.7647986
  77.1132952  81.8855811  90.1728996  85.8029864  80.5456140 103.6990647
  85.2868913  79.7614596 103.5120575  86.6869813  80.2174856 103.8637166
  83.4640591  74.2897155  99.6586459  83.2665412  73.9812243 100.5429791
  84.0740297  75.0158794  99.7884389  91.4711926  84.8161103 102.7938400
  92.2015314  84.5546391 103.3546104  90.8618871  84.0789825 102.8340468
  89.5527223  82.9568966 103.3912851  88.8260386  82.8224930 102.7829343
  89.1374510  83.2645794 104.1969569  77.3757399  86.6758895 111.1560224
  78.2960409  86.8537494 111.3500271  77.3406982  85.7314941 111.0039924
  75.6761624  80.5491125  89.6314453  74.7693079  80.2524238  89.7077166
  75.9537605  80.2520944  88.7648739  66.5939564  81.8697489 100.0813499
  66.2742349  81.0162797  99.7887873  66.0472992  82.0846067 100.8371466
  70.3719472  84.5859930 103.7983006  70.5905482  85.5177038 103.8171039
  70.7845246  84.2267904 104.5837809  77.2923690  75.0928015  95.7858694
  76.4824418  74.7475100  96.1613940  77.9808106  74.7835559  96.3746306
  79.2214238  74.1706062  97.4082991  79.7745276  74.5901515  98.0673014
  79.4584324  73.2441810  97.4505947  75.2447337  80.1593136 113.1885755
  75.1444064  81.1087493 113.1197846  75.0268879  79.8311375 112.3161825
  74.4460408  77.4078061  89.7726432  75.3079572  77.7332959  90.0322249
  74.6310753  76.6209557  89.2599498  66.4627824  85.4900400 102.0506621
  65.7691296  85.0754353 101.5376575  67.2100815  85.5320937 101.4540040
  82.5993045  76.2806587  96.9161655  82.0191714  76.9391391  96.5339707
  82.3328978  75.4583932  96.5049072  81.0496611  75.6811645  99.1182975
  81.5496390  75.7928179  98.3097294  81.6932219  75.3772698  99.7583784
  75.1078607  83.5890274 112.0050816  74.6245689  84.3890635 112.2114705
  75.1939546  83.5998219 111.0518260  68.3764567  85.4218654  99.9272636
  68.3535255  85.5206341  98.9754519  68.6865203  86.2683805 100.2489802
  71.0351945  87.4794809 104.0419250  71.9895198  87.4478751 103.9749182
  70.8364468  87.0185433 104.8569476  71.6251327  86.0495925 106.6090048
  72.4444216  86.5440004 106.6324885  71.8988134  85.1327893 106.5807615
  81.3817923  78.4406678  95.9718003  80.4943778  78.7256328  95.7538198
  81.7971912  78.2800441  95.1245280  84.7332459  78.4653198  99.6872342
  85.5092849  78.9549651  99.9596959  84.0080593  78.8911253 100.1444212
  87.1705018  79.1780818 100.7446283  87.7649508  78.9376554 100.0339591
  87.2431601  78.4587948 101.3719819  69.3902173  93.0214429 101.0589448
  69.2556641  92.2614830 100.4927446  68.9734236  93.7455329 100.5918237
  80.5261136  88.2051352  90.0666023  81.2296987  88.4101355  90.6823679
  79.8023785  88.7728114  90.3315107  81.3558947  83.9561213  96.1868293
  81.2994148  84.4129765  95.3475926  81.9087289  83.1951898  96.0091136
  85.1663753  79.7450945  97.0118413  84.9100687  79.3447581  97.8426621
  84.5416621  80.4594739  96.8868552  89.4776090  82.4847019  99.5189704
  88.9175648  82.5540208 100.2921266  88.8719594  82.3088003  98.7989200
  72.5471299  93.9183746 101.2707891  72.4303683  94.8629178 101.1686581
  71.7263746  93.6157307 101.6593690  82.4347834  88.6433881  92.1164483
  83.2693438  88.2115080  91.9341958  82.2732177  88.4715895  93.0441378
  82.0893726  85.1465995  93.4820823  82.0342530  84.9810266  92.5409267
  81.4639781  85.8542028  93.6383012  66.8786241  80.3834059 107.3082245
  67.5245105  79.8733013 107.7969470  66.6703392  81.1202741 107.8825670
  75.3989851  74.6474104  93.0606141  75.3868521  75.5915944  93.2174412
  76.2913273  74.4644249  92.7665602  73.5725813  94.5712008 104.4863819
  74.4753060  94.6035618 104.8030314  73.3463183  93.6412459 104.5010155
  75.3279415  93.3242994 101.1473898  74.3775046  93.3244856 101.0338270
  75.6311902  92.5775729 100.6309932  79.2141971  71.2416880  97.3152078
  78.4474367  70.6875367  97.4608760  79.6252676  71.3138749  98.1766229
  71.2183732  77.5301676 111.4057259  72.0815194  77.1738481 111.6160584
  70.6449143  77.1915571 112.0932663  83.7308631 100.9666437  98.1378076
  83.1673496 100.8756374  97.3694363  83.6161026 100.1466341  98.6180568
  81.2773063 102.4617629 100.9762296  82.0694355 102.1208453 100.5608595
  81.5169713 102.5712604 101.8964449  89.3108190 104.6337405  93.4492541
  88.6596169 105.2191485  93.0626554  90.1052552 105.1643600  93.5087578
  83.2363817 101.7226542  93.8479675  84.0094693 101.1755529  93.7092551
  83.5889216 102.5870791  94.0594136  85.5730095  97.8819208  91.4798125
  85.8255615  97.3600729  90.7181588  84.6354654  97.7185353  91.5824808
  90.6173377  96.8854986  99.2872868  91.4036467  96.4674410  98.9363285
  90.8812082  97.7901079  99.4554516  90.7883455 102.3227837  93.9861525
  90.1529288 102.3962463  94.6982429  90.4580861 102.9121435  93.3080604
  85.2926383  99.7847314  93.6822500  85.1762641  99.1092217  94.3503584
  85.4028643  99.2979688  92.8654653  87.6357924  99.2457461  97.3869189
  87.2716131  98.7188082  98.0982110  88.4925040  98.8555930  97.2135674
  87.2763411  94.2747361  92.3830537  87.4437814  95.1427597  92.7501009
  87.0860580  94.4374642  91.4591827  83.4851226  99.1878136 100.0833072
  82.5601722  99.0554351 100.2910764  83.7335639  99.9672356 100.5803015
  87.2552632  96.7305018  93.3677204  87.1352257  97.1762069  94.2062685
  86.5605220  97.0790336  92.8090742  80.8460037  98.8311410 100.9176861
  80.9752418  99.0845889 101.8316273  80.1657488  99.4239118 100.5981516
  92.9537698  97.2026491  94.1957538  93.8655554  97.4353878  94.0205236
  92.4447345  97.7863536  93.6332617  90.2973673  93.3784527 102.4447399
  89.4358152  93.6765781 102.7364137  90.3236108  93.5954926 101.5128432
  87.1135242 101.9226718  98.8521205  87.5773588 102.2014421  98.0625827
  86.8492041 101.0210163  98.6694296  86.0504128  98.0449870  95.6610770
  86.7528172  98.4970914  96.1284696  85.7184757  97.4033689  96.2890663
  79.7929462  96.3033423 100.9627904  79.0028516  96.5590952 100.4868014
  80.2840710  97.1181761 101.0679944  81.7444208  96.6678002  97.9211380
  80.9475371  96.7796696  98.4394876  81.5169800  97.0064654  97.0552271
  78.0767165  96.5563913 103.3942894  78.3275204  97.4410923 103.6600470
  78.6126714  96.3768515 102.6217986  87.2897893 104.8590813  95.7372875
  87.1543568 105.7042349  96.1657723  87.8307706 105.0610091  94.9738809
  80.7427290 102.3766251  96.3100800  81.2551811 103.1709501  96.4606365
  81.3950003 101.6792541  96.2434402  82.5522175 105.4932007  98.3923554
  82.7288804 106.4149972  98.2044537  83.3479009 105.1790426  98.8217933
  90.6390357  88.3821375 104.2671769  90.2954626  89.2723017 104.1910879
  91.0069319  88.1923032 103.4041354  78.7076207 100.7054905  97.0860371
  79.5451429 101.1151914  96.8694079  78.8854475  99.7654347  97.0560565
  90.6040639  98.3729986  92.7744204  90.0887263  99.1434591  93.0132591
  90.3317948  97.6995122  93.3977265  88.1887750  93.2179687  97.8329442
  87.3329347  92.8286537  97.6535081  88.6014702  93.2971648  96.9729228
  89.7186897  90.7526030 102.2321002  89.2151693  90.7156165 101.4188807
  90.0117504  91.6618773 102.2917659  85.9629783  90.8364760 101.2387184
  86.8282780  90.6407568 100.8793073  86.0307292  90.6075111 102.1656540
  95.5774914 101.1262341  94.7097377  94.8004356 100.7873500  94.2652539
  96.2566394 101.1314964  94.0352342  90.3926943  96.2457078  94.6003985
  90.0877078  96.5603227  95.4514128  91.3457385  96.3238498  94.6431318
  88.8373374 102.4047301  96.2496939  88.3094736 101.6700061  95.9370176
  88.3360877 103.1821978  96.0036907  83.5692102  93.0666968  98.6103551
  84.1435854  92.8442149  97.8776743  84.1563084  93.1355662  99.3632152
  83.8961689  95.0971429  92.6299436  83.0599001  95.4346115  92.9508711
  83.7566459  94.9620408  91.6926573  85.8714770  89.9408217  97.3378620
  85.2179182  89.6257234  96.7135235  85.8295244  89.3183957  98.0638443
  86.9825975 100.2227512  89.2531912  86.0753036  99.9916765  89.4523061
  87.4797007  99.4265131  89.4405894  89.8894053 108.9325019  92.1728598
  89.2155752 109.2356716  92.7813556  90.2759875 109.7354099  91.8234055
  89.1052510  96.4290150 101.6626268  88.1875071  96.6505097 101.5047956
  89.5212654  96.5036461 100.8037975  89.8887558  97.8281566  96.7928948
  90.6359377  98.3402963  96.4836070  90.1579147  97.5065618  97.6533341
  88.1614208 100.3240106  93.7755902  87.2525427 100.0399139  93.8728372
  88.1909292 100.7439185  92.9159209  92.3366395  94.8638682  98.7747737
  91.5989152  94.3516068  99.1057980  92.5893169  94.4239064  97.9631014
  92.4378022  87.6414934  99.3689506  92.7436899  86.7812297  99.0815421
  93.1630627  88.2332554  99.1688500  78.7302378  98.0445621  97.7571104
  78.5326778  97.4514981  97.0322171  78.1749042  97.7397831  98.4747043
  86.7099102  97.9368727  99.8765697  86.7647712  96.9842563  99.8008174
  85.8990304  98.0928166 100.3606996  87.8590296 101.8648850  91.1143981
  87.4209726 101.1484709  90.6549618  88.6000737 102.0924965  90.5529072
  84.6491462  96.5545787  97.6356076  83.8359328  96.8539957  98.0421268
  85.1450456  96.1601476  98.3530559  95.9763411 100.1406047  97.1720299
  95.8381309 100.3307643  96.2441488  95.6199629 100.9025430  97.6288350
  84.1405537  94.1264142 103.2517311  84.7804916  93.9852901 102.5540275
  83.3083067  93.8398656 102.8755913  84.9165841 103.4266573  99.3652304
  85.7106439 102.9316893  99.1634879  84.2057533 102.8984436  99.0020009
  81.2248604  97.5709655  95.4412056  80.2946192  97.5094110  95.6582019
  81.3206076  97.0485607  94.6448698  81.1434153  94.0964467  98.0290298
  81.4040970  95.0109801  97.9199459  81.9651325  93.6288910  98.1786911
  82.6159078  95.5102225 105.1989123  83.2882132  95.3019587 104.5501772
  81.7888865  95.3124311 104.7594355  88.0885269 109.1004691  94.3875677
  88.2637024 108.6292734  95.2021300  87.4018057 109.7270457  94.6156938
  91.9801523 100.7233232  90.7076038  91.3630694  99.9980060  90.6109091
  91.5118012 101.4842592  90.3643113  83.7700069  94.9418656  89.8297343
  82.8929536  94.8207457  89.4659589  84.2457822  94.1504734  89.5776231
  75.2902209  99.7295816  99.9238850  75.9773249  99.4157546  99.3359865
  75.1350338 100.6337180  99.6506101  80.0936932  94.6186012 104.3523873
  80.0095120  94.0111682 103.6174283  79.2719638  95.1095031 104.3533370
  90.2660645  93.1039576  99.7194068  90.7629345  92.3509538  99.3995139
  89.4947627  93.1403893  99.1537278  91.3490426 101.8611263  97.2932492
  90.4146705 101.9812726  97.1237196  91.5267095 100.9583730  97.0292502
  86.8495614  95.2456959  99.4465753  86.4793402  94.6927999 100.1346659
  87.3454707  94.6415092  98.8940753  94.7362978  97.7028582  97.8282526
  95.2023430  98.5356574  97.7542829  95.1870478  97.2373564  98.5327784
  92.8039209 104.0472404  94.8268678  93.0799053 103.9328998  95.7362552
  91.9343707 103.6489889  94.7880851  92.7079640  90.0709169 101.8673427
  91.7942720  90.3013396 102.0355634  93.1372742  90.1547613 102.7187460
  89.7735438 107.2226940  95.7316540  90.3023205 106.7119394  95.1186702
  90.0363658 106.9069470  96.5962073  74.8670186  97.8096409 102.1956317
  74.9054285  97.2760000 102.9893435  74.3610478  97.2831615 101.5767294
  82.2460948  92.6560950 105.6918859  82.3102274  93.5175781 105.2796257
  82.1828068  92.0434951 104.9591218  78.4978763  96.5360511  95.2710248
  78.7932204  95.6271190  95.2177302  77.5966799  96.5148251  94.9491251
  82.0273010  94.6116508 101.2537797  81.3059596  95.2252476 101.1145270
  82.8166266  95.1474273 101.1754443  80.2266605  94.2174609  95.3949573
  79.8979311  93.3371988  95.2124679  80.5805975  94.1622278  96.2825963
  83.3408428  94.5047579  95.7625051  83.6804500  95.0333500  95.0403659
  83.7880548  94.8427985  96.5383618  86.0351869  92.8884630 105.2128119
  85.6948689  92.0892443 105.6148799  85.3290875  93.1886340 104.6404952
  86.6868341  89.9733942 103.6655442  87.5094410  89.4994420 103.5434332
  86.9306404  90.7524426 104.1654128  85.3276575  93.0022200  93.9618344
  86.0484938  93.3803453  93.4582061  84.7041879  93.7211077  94.0653322
  89.4707698  93.7067349  94.8976676  89.6871312  94.5891987  94.5965504
  88.9901765  93.3153563  94.1682318  84.2106919  96.6653063 101.4747421
  84.0651500  96.9793366 102.3671702  83.7332123  97.2837963 100.9218319
  86.0703302  93.6555611 101.5228310  86.0564871  92.7596704 101.1860608
  86.7875730  93.6626274 102.1566596  87.9229433  94.0892951 103.5681438
  87.6647211  95.0110021 103.5665768  87.3914473  93.6923385 104.2581902
  78.6852581  99.2058407 104.4135082  78.1406050  99.9818215 104.5455356
  79.5631931  99.5529211 104.2554203  85.4740198  92.5369991  96.7915880
  85.5956109  91.6086637  96.9906768  85.1842241  92.5508677  95.8794196
  88.3431389  90.2224901  99.9282600  88.3653085  90.2864234  98.9734580
  88.7599448  89.3829410 100.1223106  93.8550794 106.5110502  93.4468421
  94.5501699 107.1317195  93.6655736  94.1973944 105.6605854  93.7220799
  95.7542217 103.9610208  94.9755752  96.2793541 104.2997481  94.2505072
  95.6664570 103.0257223  94.7918887  79.9175217 106.2193732  99.3375633
  80.7433237 105.9197504  98.9574277  79.5669269 105.4501354  99.7865422
  78.1183822 104.1380058 100.2964567  77.2815730 103.7102233 100.1148568
  78.0907468 104.3312502 101.2335358  84.4470257 104.1224124  94.8831768
  84.5958377 104.8059588  94.2298440  85.2536701 104.1029214  95.3981223
  82.2022890 100.1489301  95.8892836  81.9568932  99.2451631  96.0873047
  82.3718805 100.1506452  94.9472314  81.4718538  95.8817659  93.3878998
  80.7787783  95.9562014  92.7319034  81.2270290  95.1178002  93.9100515
  90.1432194  87.4413260 100.7918489  90.4233948  86.7736449 101.4178915
  90.9282801  87.6342356 100.2793153  87.9465663 106.6172254  92.3543515
  87.3739630 107.2362441  91.9013987  88.5198456 107.1671616  92.8883437
  91.1662922 106.9009404  93.4852097  92.0993596 106.8354966  93.6884973
  91.0786135 107.7365671  93.0266630  93.7950939 106.2175274  90.4456045
  93.7164571 105.8835138  91.3391803  94.6160606 106.7097042  90.4447517
  88.3312461  97.9533067  89.6959567  89.2771566  97.8239275  89.7647986
  87.9526706  97.2147729  90.1728996  94.3034346  89.6189073  99.6586459
  94.1059167  89.3104161 100.5429791  94.9134051  90.3450712  99.7884389
  86.5155378  95.8783043  89.6314453  85.6086834  95.5816156  89.7077166
  86.7931359  95.5812861  88.7648739  77.4333319  97.1989407 100.0813499
  77.1136103  96.3454715  99.7887873  76.8866747  97.4137985 100.8371466
  88.1317444  90.4219933  95.7858694  87.3218172  90.0767018  96.1613940
  88.8201861  90.1127477  96.3746306  90.0607992  89.4997980  97.4082991
  90.6139031  89.9193433  98.0673014  90.2978079  88.5733728  97.4505947
  85.2854163  92.7369978  89.7726432  86.1473327  93.0624877  90.0322249
  85.4704507  91.9501474  89.2599498  77.3021579 100.8192318 102.0506621
  76.6085050 100.4046271 101.5376575  78.0494570 100.8612855 101.4540040
  93.4386799  91.6098505  96.9161655  92.8585468  92.2683309  96.5339707
  93.1722732  90.7875849  96.5049072  91.8890366  91.0103563  99.1182975
  92.3890144  91.1220097  98.3097294  92.5325974  90.7064615  99.7583784
  79.2158321 100.7510572  99.9272636  79.1929009 100.8498259  98.9754519
  79.5258958 101.5975723 100.2489802  92.2211677  93.7698595  95.9718003
  91.3337532  94.0548246  95.7538198  92.6365666  93.6092359  95.1245280
  95.5726214  93.7945116  99.6872342  96.3486604  94.2841569  99.9596959
  94.8474348  94.2203170 100.1444212  91.3654891 103.5343270  90.0666023
  92.0690741 103.7393272  90.6823679  90.6417540 104.1020032  90.3315107
  92.1952701  99.2853131  96.1868293  92.1387903  99.7421683  95.3475926
  92.7481044  98.5243816  96.0091136  96.0057507  95.0742863  97.0118413
  95.7494441  94.6739499  97.8426621  95.3810375  95.7886657  96.8868552
  93.2741588 103.9725799  92.1164483  94.1087192 103.5406998  91.9341958
  93.1125931 103.8007813  93.0441378  92.9287480 100.4757912  93.4820823
  92.8736284 100.3102184  92.5409267  92.3033536 101.1833945  93.6383012
  77.7179995  95.7125977 107.3082245  78.3638859  95.2024931 107.7969470
  77.5097147  96.4494658 107.8825670  86.2383606  89.9766021  93.0606141
  86.2262276  90.9207861  93.2174412  87.1307028  89.7936167  92.7665602
  90.0535725  86.5708798  97.3152078  89.2868121  86.0167285  97.4608760
  90.4646430  86.6430667  98.1766229  94.7355444 110.4263346  92.6299436
  93.8992756 110.7638033  92.9508711  94.5960213 110.2912326  91.6926573
  94.6093824 110.2710574  89.8297343  93.7323290 110.1499375  89.4659589
  95.0851577 109.4796652  89.5776231  92.3112292 111.2109576  93.3878998
  91.6181537 111.2853931  92.7319034  92.0664044 110.4469920  93.9100515
  97.3549133 111.2074961  89.6314453  96.4480588 110.9108074  89.7077166
  97.6325114 110.9104779  88.7648739  96.1247917 108.0661896  89.7726432
  96.9867081 108.3916794  90.0322249  96.3098262 107.2793392  89.2599498
  97.0777360 105.3057939  93.0606141  97.0656030 106.2499779  93.2174412
  97.9700782 105.1228084  92.7665602  36.8663338  -0.4793933  88.9364967
  37.5041748  -0.5987186  88.2328307  36.7484181   0.4686911  88.9952919
  29.5339860   1.3268971  84.8623382  28.9704725   1.2358908  84.0939670
  29.4192255   0.5068876  85.3425875  35.1139418   4.9939939  80.1737847
  34.4627398   5.5794019  79.7871861  35.9083781   5.5246134  80.2332885
  29.0395046   2.0829076  80.5724981  29.8125922   1.5358063  80.4337857
  29.3920444   2.9473325  80.7839443  31.3761323  -1.7578258  78.2043431
  31.6286844  -2.2796737  77.4426894  30.4385882  -1.9212112  78.3070115
  36.4204606  -2.7542479  86.0118175  37.2067695  -3.1723056  85.6608592
  36.6843311  -1.8496387  86.1799823  36.5914684   2.6830371  80.7106831
  35.9560517   2.7564997  81.4227736  36.2612090   3.2723970  80.0325911
  41.8213033  -2.8167246  86.9151153  42.5538205  -3.3868029  87.1488983
  41.0652389  -3.2045646  87.3557659  31.0957612   0.1449848  80.4067806
  30.9793870  -0.5305248  81.0748891  31.2059872  -0.3417778  79.5899959
  33.4389153  -0.3940005  84.1114496  33.0747360  -0.9209384  84.8227417
  34.2956269  -0.7841536  83.9380981  33.0583861  -2.9092448  80.0922511
  32.9383486  -2.4635397  80.9307991  32.3636449  -2.5607130  79.5336049
  30.8190753   9.8611194  83.7412642  30.7414783  10.8119019  83.8201123
  30.2152397   9.5157067  84.3987568  38.7568927  -2.4370974  80.9202845
  39.6686783  -2.2043588  80.7450543  38.2478574  -1.8533930  80.3577924
  37.3638509   2.5454844  88.3116426  36.7347372   2.7100558  87.6092494
  36.9764171   2.9596454  89.0827390  41.2427741   3.4809282  85.6660790
  40.5578779   3.8608183  85.1157824  41.3271591   4.0904609  86.3992738
  32.9166471   2.2829252  85.5766512  33.3804817   2.5616955  84.7871134
  32.6523269   1.3812697  85.3939602  31.8535357  -1.5947595  82.3856077
  32.5559401  -1.1426552  82.8530003  31.5215986  -2.2363777  83.0135970
  39.6124501   4.0041196  90.4378491  40.4341945   3.6021384  90.1561173
  39.6086904   3.9009431  91.3894607  47.7030494   0.3479945  86.7863463
  46.9494202  -0.2212657  86.6307467  47.8378035   0.3142609  87.7334097
  33.0929122   5.2193347  82.4618182  32.9574797   6.0644883  82.8903030
  33.6338934   5.4212625  81.6984116  26.5458519   2.7368785  83.0346107
  27.0583040   3.5312035  83.1851672  27.1981232   2.0395076  82.9679708
  28.3553404   5.8534541  85.1168860  28.5320032   6.7752506  84.9289844
  29.1510238   5.5392961  85.5463240  29.4784719   7.3712715  91.1179202
  30.0292145   7.2429779  90.3456196  28.6396195   7.6707604  90.7674095
  36.4071868  -1.2667480  79.4989510  35.8918492  -0.4962875  79.7377898
  36.1349177  -1.9402344  80.1222572  41.3806142   1.4864875  81.4342684
  40.6035585   1.1476034  80.9897846  42.0597623   1.4917498  80.7597649
  36.1958171  -3.3940388  81.3249292  35.8908307  -3.0794239  82.1759435
  37.1488613  -3.3158968  81.3676625  34.6404603   2.7649836  82.9742246
  34.1125965   2.0302595  82.6615483  34.1392106   3.5424512  82.7282214
  39.6197449   0.9598856  88.0909292  38.9621124   1.6498117  88.1789421
  40.4237848   1.3495288  88.4343278  38.4302908  -0.6856771  86.1413234
  38.9434790  -0.0526779  86.6434943  39.0804132  -1.2855576  85.7756594
  32.7857203   0.5830046  75.9777219  31.8784265   0.3519299  76.1768368
  33.2828235  -0.2132335  76.1651200  35.6925282   9.2927553  78.8973905
  35.0186981   9.5959250  79.5058863  36.0791104  10.0956633  78.5479362
  35.6918787  -1.8115900  83.5174254  36.4390606  -1.2994503  83.2081377
  35.9610376  -2.1331847  84.3778648  33.9645437   0.6842641  80.5001209
  33.0556656   0.4001674  80.5973679  33.9940521   1.1041719  79.6404516
  39.1964704   4.2949230  84.2692376  38.7427031   3.4540140  84.3257567
  38.5658671   4.9310629  84.6067156  38.1397624  -4.7758784  85.4993044
  37.4020381  -5.2881398  85.8303286  38.3924397  -5.2158402  84.6876321
  37.6397643   6.1325727  85.2042194  37.9320618   6.6930784  84.4854560
  38.1496264   6.4254288  85.9595354  32.5130331  -1.7028739  86.6011004
  32.5678941  -2.6554902  86.5253481  31.7021533  -1.5469300  87.0852303
  33.6621525   2.2251384  77.8389287  33.2240955   1.5087243  77.3794925
  34.4031965   2.4527499  77.2774379  32.6031269   6.9106078  86.2935648
  32.5607447   7.1366924  85.3644180  33.5193968   6.6769453  86.4421449
  41.7794639   0.5008581  83.8965606  41.6412538   0.6910177  82.9686795
  41.4230858   1.2627964  84.3533657  41.8064019   2.5685108  88.9076877
  42.2400526   2.4760398  89.7559931  42.5195600   2.5442609  88.2696893
  30.7197069   3.7869107  86.0897610  31.5137668   3.2919427  85.8880185
  30.0088762   3.2586970  85.7265316  35.5391914   6.1687203  90.4409978
  35.5928936   6.7378139  91.2087694  34.6706695   6.3389088  90.0764015
  42.6679569   2.6108809  91.4409763  42.8615459   3.5154620  91.6869038
  42.5680187   2.1516228  92.2748348  33.2968345   4.3598129  89.7695447
  33.1579431   3.9916913  90.6421386  32.5082942   4.8745768  89.5979405
  33.8916497   9.4607225  81.1120984  34.0668253   8.9895269  81.9266607
  33.2049285  10.0872992  81.3402245  34.8473561   3.7379732  87.1584285
  34.5123393   3.6980502  88.0541935  34.3477506   3.0724448  86.6854696
  37.7832752   1.0835766  77.4321345  37.1661923   0.3582594  77.3354398
  37.3149241   1.8445126  77.0888419  28.4577583  12.6096588  87.8860844
  28.6974181  13.2415112  88.5639863  27.6146779  12.2584628  88.1726203
  32.9705445   8.4175711  90.2902348  32.8975616   9.2230682  90.8021653
  32.5282838   8.6167676  89.4650370  32.7595224   7.6547481  83.8005170
  31.9762746   8.1969161  83.8943394  33.4587969   8.1721460  84.1999411
  43.9221632  -0.8317524  88.0857667  43.9111508   0.0507191  87.7151600
  43.0539011  -1.1845973  87.8912204  35.4304128   8.3162545  92.4460507
  36.1432100   8.9510010  92.3736408  34.9394157   8.4126411  91.6300509
  37.1521655   2.2213797  84.0177798  36.2177934   2.3415260  83.8482503
  37.3298323   1.3186264  83.7537808  40.5394206  -1.9368883  84.5527833
  41.0054659  -1.1040892  84.4788135  40.9901707  -2.4023902  85.2573091
  38.6070437   4.4074938  81.5513985  38.8830281   4.2931533  82.4607859
  37.7374936   4.0092423  81.5126158  35.2424501   8.6561289  85.1946798
  35.4246896   7.8382945  85.6574551  36.0657487   8.8728981  84.7571688
  35.5766667   7.5829474  82.4561847  36.1054433   7.0721928  81.8432009
  35.8394887   7.2672004  83.3207380  28.9322415   8.6344591  85.2159623
  28.2632790   9.1190718  84.7323663  28.7935285   8.8813811  86.1303001
  33.0727683  10.6688334  91.8142281  33.6245992  10.8319956  92.5791366
  33.4133877  11.2592772  91.1422306  36.2096071   8.6170310  88.8005963
  36.0847210   7.8160049  88.2916909  36.8675162   9.1116503  88.3119933
  38.2730979   6.4179330  90.4285513  37.3261315   6.2984681  90.3563840
  38.6213752   5.5301828  90.5111775  35.2777412   6.2132046  86.6289866
  35.1302375   5.2848753  86.8097436  36.1030906   6.2352137  86.1446941
  38.8811534   7.0360605  87.7154738  39.8058082   6.8303466  87.5779189
  38.7126838   6.7877006  88.6244080  38.6706851   7.5546272  83.0716830
  38.8443728   6.9892695  82.3190682  39.1635742   8.3547167  82.8896320
  44.5246242   0.3182695  84.6907129  44.9677388  -0.4309980  84.2926253
  43.6472752   0.3092831  84.3080861  39.6582023   6.8713037  80.1713728
  40.3532928   7.4919729  80.3901043  40.0005173   6.0208388  80.4466106
  41.5573446   4.3212742  81.7001059  42.0824770   4.6600015  80.9750379
  41.4695799   3.3859757  81.5164193  33.2414107  10.3884725  86.0596312
  32.8019097   9.8961104  86.7529169  33.9922224   9.8457693  85.8188387
  25.7206446   6.5796266  86.0620940  26.5464466   6.2800038  85.6819584
  25.3700498   5.8103889  86.5110729  30.6887979   5.9322734  88.1318614
  30.0667988   5.2693439  87.8320842  31.3592846   5.9583866  87.4492261
  30.2501486   4.4826658  81.6077074  30.3989606   5.1662122  80.9543747
  31.0567929   4.4631748  82.1226530  44.0679106   1.7887933  87.0829577
  44.9025998   2.2277737  87.2467137  44.2038235   1.3126587  86.2637823
  28.0054119   0.5091835  82.6138143  27.7600161  -0.3945835  82.8118353
  28.1750033   0.5108986  81.6717621  33.7496891   6.9774788  79.0788822
  33.1770859   7.5964975  78.6259293  34.3229685   7.5274150  79.6128744
  36.9694151   7.2611938  80.2097404  37.9024824   7.1957500  80.4130279
  36.8817364   8.0968205  79.7511937  39.5982168   6.5777809  77.1701351
  39.5195799   6.2437672  78.0637109  40.4191835   7.0699577  77.1692824
  42.2960359  -0.5560452  90.3777670  42.2636679  -1.4944451  90.5637354
  42.9060983  -0.4776415  89.6443495  34.1343690  -1.6864399  76.4204874
  35.0802795  -1.8158191  76.4893292  33.7557935  -2.4249737  76.8974302
  48.1136909   0.5055555  89.5183707  48.8440297   0.2440843  90.0791410
  47.5043854  -0.2315723  89.5585775  46.1952206  -1.3536583  90.1158158
  45.4685370  -1.4880618  89.5074650  45.7799493  -1.0459754  90.9214876
  39.2418028  -8.0298961  83.6406962  38.6616697  -7.3714157  83.2585014
  38.9753961  -8.8521616  83.2294379  38.0242906  -5.8698871  82.6963310
  37.1368761  -5.5849220  82.4783505  38.4396895  -6.0305107  81.8490587
  41.3757442  -5.8452350  86.4117649  42.1517832  -5.3555897  86.6842266
  40.6505577  -5.4194295  86.8689519  43.8130001  -5.1324730  87.4691590
  44.4074492  -5.3728994  86.7584898  43.8856585  -5.8517600  88.0965126
  26.0327157   8.7108881  87.7834754  25.8981625   7.9509281  87.2172753
  25.6159219   9.4349780  87.3163543  37.1686120   3.8945804  76.7911330
  37.8721970   4.0995807  77.4068985  36.4448768   4.4622566  77.0560413
  37.9983930  -0.3544335  82.9113600  37.9419131   0.1024217  82.0721232
  38.5512272  -1.1153650  82.7336443  41.8088736  -4.5654603  83.7363719
  41.5525670  -4.9657967  84.5671927  41.1841604  -3.8510809  83.6113859
  46.1201074  -1.8258530  86.2435011  45.5600632  -1.7565340  87.0166573
  45.5144577  -2.0017545  85.5234507  29.1896283   9.6078198  87.9953197
  29.0728667  10.5523630  87.8931887  28.3688729   9.3051759  88.3838996
  39.0772817   4.3328333  78.8409790  39.9118421   3.9009532  78.6587265
  38.9157160   4.1610347  79.7686684  38.7318709   0.8360447  80.2066129
  38.6767513   0.6704718  79.2654573  38.1064765   1.5436479  80.3628319
  30.2150797  10.2606459  91.2109126  31.1178043  10.2930070  91.5275621
  29.9888167   9.3306910  91.2255461  31.9704399   9.0137446  87.8719204
  31.0200030   9.0139308  87.7583576  32.2736885   8.2670181  87.3555239
  47.7057092  14.8497984  88.9364967  48.3435502  14.7304732  88.2328307
  47.5877935  15.7978828  88.9952919  44.5146798  14.8025412  88.8726491
  44.1765310  14.6866477  87.9847026  45.3836567  14.4016578  88.8527497
  40.3733614  16.6560889  84.8623382  39.8098479  16.5650826  84.0939670
  40.2586009  15.8360793  85.3425875  44.9966581  15.9560264  94.8312697
  44.9855222  15.5613062  93.9593200  45.1587221  15.2226337  95.4246468
  37.9198046  18.1512081  87.7007603  38.7119338  17.8102905  87.2853902
  38.1594696  18.2607056  88.6209756  45.9533173  20.3231857  80.1737847
  45.3021153  20.9085937  79.7871861  46.7477536  20.8538052  80.2332885
  39.8788800  17.4120994  80.5724981  40.6519676  16.8649981  80.4337857
  40.2314199  18.2765243  80.7839443  41.7173843  18.7397376  93.7791881
  41.4263709  19.6443007  93.6638547  42.3530827  18.7813904  94.4935950
  42.6430049  16.1174225  90.3693240  43.2393622  15.8930247  89.6550203
  42.7005021  15.3758970  90.9718688  42.2155078  13.5713660  78.2043431
  42.4680599  13.0495181  77.4426894  41.2779637  13.4079805  78.3070115
  47.2598361  12.5749438  86.0118175  48.0461450  12.1568861  85.6608592
  47.5237065  13.4795530  86.1799823  47.4308438  18.0122289  80.7106831
  46.7954271  18.0856915  81.4227736  47.1005844  18.6015887  80.0325911
  52.6606788  12.5124671  86.9151153  53.3931960  11.9423888  87.1488983
  51.9046143  12.1246272  87.3557659  41.9351367  15.4741766  80.4067806
  41.8187625  14.7986669  81.0748891  42.0453626  14.9874140  79.5899959
  44.2782908  14.9351913  84.1114496  43.9141115  14.4082534  84.8227417
  45.1350023  14.5450382  83.9380981  50.1832208   6.2246246  91.3745762
  49.8515533   7.0941657  91.1506977  49.5877822   5.9082530  92.0539792
  43.9188394   9.9641813  79.1075844  44.0862797  10.8322049  79.4746315
  43.7285564  10.1269094  78.1837133  46.6763728  18.4258792  90.7741674
  46.3764451  19.3283830  90.6657482  46.3314787  18.1590975  91.6262827
  40.1276209  14.8772588  86.8078379  39.2026706  14.7448802  87.0156071
  40.3760622  15.6566808  87.3048321  50.0760871  10.9441332  88.4539112
  49.1677749  10.8756740  88.1597873  50.0248467  11.4213277  89.2820937
  43.8977615  12.4199470  80.0922511  43.7777241  12.8656521  80.9307991
  43.2030204  12.7684788  79.5336049  37.4885020  14.5205862  87.6422168
  37.6177401  14.7740341  88.5561580  36.8082472  15.1133570  87.3226823
  41.6584507  25.1903112  83.7412642  41.5808537  26.1410937  83.8201123
  41.0546151  24.8448984  84.3987568  44.1501737  12.3630977  96.3974009
  43.3735071  12.9224897  96.3876874  44.7892300  12.8487760  96.9188879
  51.9422518   9.1457770  90.2316986  51.2996898   9.4390303  89.5856780
  51.4377446   9.0310690  91.0370182  49.5962682  12.8920943  80.9202845
  50.5080538  13.1248330  80.7450543  49.0872329  13.4757988  80.3577924
  42.4048110  15.1716431  95.9591976  43.1462794  15.7101475  95.6826800
  41.6985095  15.7982719  96.1163528  47.8803449  17.3145571  94.5564138
  48.2886805  16.8727982  93.8118770  47.1580711  16.7398199  94.8098330
  44.2334519  12.2518178  91.9297695  45.0795714  12.6757591  92.0732344
  44.1733157  11.5951802  92.6236258  48.2032264  17.8746762  88.3116426
  47.5741126  18.0392476  87.6092494  47.8157926  18.2888371  89.0827390
  52.0821496  18.8101200  85.6660790  51.3972534  19.1900101  85.1157824
  52.1665345  19.4196526  86.3992738  47.3833965   9.9122546  93.5878868
  47.1394896  10.6664607  93.0513144  47.6593895  10.2907894  94.4226115
  49.3372427  16.4561159  92.2656134  49.5489323  17.0992919  91.5890515
  49.2902176  15.6223475  91.7978064  46.9398656   9.0678979  89.1692706
  46.0783135   9.3660233  89.4609443  46.9661091   9.2849378  88.2373739
  43.7560226  17.6121170  85.5766512  44.2198571  17.8908873  84.7871134
  43.4917024  16.7104614  85.3939602  40.6484307  17.1592651  88.5146275
  41.2185664  17.5879920  87.8763759  41.2392419  16.8775236  89.2130460
  42.6929112  13.7344322  82.3856077  43.3953155  14.1865366  82.8530003
  42.3609740  13.0928141  83.0135970  41.1409473  12.3256079  96.7607286
  40.5108134  13.0072360  96.9942683  41.0345561  12.2139160  95.8160424
  36.4354446  11.9927875  87.6873210  35.6453500  12.2485403  87.2113321
  36.9265693  12.8076213  87.7925251  50.4518255  19.3333114  90.4378491
  51.2735699  18.9313301  90.1561173  50.4480658  19.2301348  91.3894607
  38.3869191  12.3572454  84.6456687  37.5900354  12.4691148  85.1640183
  38.1594783  12.6959106  83.7797577  44.2174859  18.8817157  92.5939202
  44.2819291  19.3437565  93.4297373  43.5085783  18.2514522  92.7221511
  34.7192149  12.2458365  90.1188201  34.9700187  13.1305375  90.3845777
  35.2551697  12.0662967  89.3463293  58.5424248  15.6771863  86.7863463
  57.7887957  15.1079261  86.6307467  58.6771790  15.6434527  87.7334097
  43.9322876  20.5485265  82.4618182  43.7968551  21.3936801  82.8903030
  44.4732689  20.7504542  81.6984116  37.3852274  18.0660703  83.0346107
  37.8976794  18.8603953  83.1851672  38.0374987  17.3686993  82.9679708
  39.1947158  21.1826459  85.1168860  39.3713787  22.1044424  84.9289844
  39.9903992  20.8684878  85.5463240  43.3358177   8.0434724  96.7152794
  44.0767890   8.6441877  96.6357256  43.5676100   7.3012362  96.1570836
  38.4799515  13.2291091  94.9931023  38.3653030  12.3276348  95.2938122
  37.6244033  13.4754788  94.6415840  45.5591353  21.1708831  96.5918524
  45.1155207  20.3845210  96.2739428  46.2208566  21.3587982  95.9262415
  40.3178474  22.7004633  91.1179202  40.8685899  22.5721696  90.3456196
  39.4789950  22.9999522  90.7674095  47.6572591  21.4511631  94.6199925
  47.6391066  22.2720512  94.1280194  48.5792511  21.3265707  94.8450066
  44.1145645  18.9655761  95.4623434  44.6473982  18.2044049  95.2322742
  43.5859726  18.6729413  96.2047588  47.2815340   4.0715827  90.9917075
  46.9379609   4.9617468  90.9156186  47.6494303   3.8817484  90.1286660
  35.3501191  16.3949357  83.8105678  36.1876413  16.8046366  83.5939385
  35.5279458  15.4548799  83.7805871  47.2465623  14.0624438  79.4989510
  46.7312246  14.8329042  79.7377898  46.9742931  13.3889574  80.1222572
  44.8312734   8.9074139  84.5574749  43.9754330   8.5180989  84.3780388
  45.2439685   8.9866099  83.6974534  46.3611880   6.4420482  88.9566309
  45.8576676   6.4050617  88.1434114  46.6542487   7.3513225  89.0162965
  42.6054766   6.5259212  87.9632490  43.4707763   6.3302020  87.6038380
  42.6732275   6.2969563  88.8901847  52.2199897  16.8156792  81.4342684
  51.4429340  16.4767952  80.9897846  52.8991378  16.8209416  80.7597649
  47.0351926  11.9351530  81.3249292  46.7302061  12.2497679  82.1759435
  47.9882368  12.0132950  81.3676625  45.4798358  18.0941753  82.9742246
  44.9519719  17.3594513  82.6615483  44.9785860  18.8716430  82.7282214
  50.4591204  16.2890774  88.0909292  49.8014878  16.9790035  88.1789421
  51.2631603  16.6787206  88.4343278  40.2117085   8.7561420  85.3348857
  40.7860837   8.5336601  84.6022050  40.7988068   8.8250114  86.0877458
  49.2696663  14.6435146  86.1413234  49.7828544  15.2765138  86.6434943
  49.9197886  14.0436342  85.7756594  40.5386672  10.7865881  79.3544742
  39.7023985  11.1240567  79.6754017  40.3991442  10.6514860  78.4171879
  42.5139753   5.6302668  84.0623927  41.8604165   5.3151686  83.4380541
  42.4720227   5.0078409  84.7883750  43.6250958  15.9121964  75.9777219
  42.7178020  15.6811217  76.1768368  44.1221990  15.1159583  76.1651200
  46.5319037  24.6219471  78.8973905  45.8580736  24.9251167  79.5058863
  46.9184859  25.4248551  78.5479362  45.7477493  12.1184602  88.3871574
  44.8300055  12.3399549  88.2293262  46.1637637  12.1930912  87.5283282
  46.5312541  13.5176018  83.5174254  47.2784360  14.0297415  83.2081377
  46.8004131  13.1960070  84.3778648  44.8039191  16.0134558  80.5001209
  43.8950411  15.7293591  80.5973679  44.8334275  16.4333637  79.6404516
  50.0358459  19.6241148  84.2692376  49.5820786  18.7832058  84.3257567
  49.4052425  20.2602546  84.6067156  48.9791378  10.5533134  85.4993044
  48.2414135  10.0410520  85.8303286  49.2318152  10.1133516  84.6876321
  48.4791398  21.4617645  85.2042194  48.7714372  22.0222702  84.4854560
  48.9890019  21.7546206  85.9595354  49.0803006   3.3309386  86.0934813
  49.3861882   2.4706749  85.8060728  49.8055610   3.9227006  85.8933807
  35.3727362  13.7340072  84.4816411  35.1751762  13.1409433  83.7567478
  34.8174026  13.4292283  85.1992350  43.3524085  13.6263179  86.6011004
  43.4072695  12.6737015  86.5253481  42.5415287  13.7822618  87.0852303
  44.5015279  17.5543302  77.8389287  44.0634709  16.8379161  77.3794925
  45.2425720  17.7819417  77.2774379  41.2916445  12.2440239  84.3601383
  40.4784311  12.5434409  84.7666575  41.7875439  11.8495927  85.0775865
  43.4425023  22.2397996  86.2935648  43.4001202  22.4658842  85.3644180
  44.3587722  22.0061370  86.4421449  46.8890657  12.7082063  93.1916277
  47.2440045  12.9353536  94.0510743  47.5362788  13.0400440  92.5693532
  52.6188394  15.8300499  83.8965606  52.4806292  16.0202095  82.9686795
  52.2624613  16.5919882  84.3533657  40.7830520   9.8158594  89.9762618
  41.4229899   9.6747353  89.2785581  39.9508051   9.5293108  89.6001220
  52.6457774  17.8977026  88.9076877  53.0794280  17.8052315  89.7559931
  53.3589354  17.8734527  88.2696893  41.5590824  19.1161025  86.0897610
  42.3531422  18.6211345  85.8880185  40.8482516  18.5878888  85.7265316
  46.3785668  21.4979120  90.4409978  46.4322691  22.0670057  91.2087694
  45.5100450  21.6681005  90.0764015  37.8673587  13.2604106  82.1657363
  36.9371176  13.1988562  82.3827325  37.9631059  12.7380059  81.3694004
  37.7859136   9.7858919  84.7535605  38.0465954  10.7004252  84.6444765
  38.6076309   9.3183362  84.9032218  39.2584062  11.1996676  91.9234429
  39.9307115  10.9914039  91.2747078  38.4313848  11.0018762  91.4839662
  53.5073323  17.9400727  91.4409763  53.7009213  18.8446537  91.6869038
  53.4073941  17.4808146  92.2748348  45.1609634   7.8258617  93.9400090
  44.5137549   8.5248567  93.8464567  45.9310649   8.2594761  94.3076338
  48.5688432  18.0907469  97.0150643  48.4173938  17.8618021  96.0980727
  48.5593111  19.0478071  97.0281988  45.3373768  15.6639382  91.9996910
  46.2665828  15.8150542  91.8265877  44.9164798  15.7523403  91.1445556
  44.1362100  19.6890047  89.7695447  43.9973186  19.3208831  90.6421386
  43.3476696  20.2037686  89.5979405  44.7310252  24.7899143  81.1120984
  44.9062008  24.3187186  81.9266607  44.0443040  25.4164909  81.3402245
  45.6867315  19.0671649  87.1584285  45.3517148  19.0272419  88.0541935
  45.1871261  18.4016365  86.6854696  39.6611559  14.4739279  92.6836866
  39.5231357  13.7419518  93.2848405  40.5716483  14.3848179  92.4021054
  48.6226507  16.4127684  77.4321345  48.0055677  15.6874512  77.3354398
  48.1542995  17.1737044  77.0888419  42.2893860  14.1859239  92.1720546
  42.9993478  13.5452431  92.1307165  42.2463168  14.4372134  93.0946727
  50.2780638  21.1226592  95.0927125  50.2193185  20.4385812  94.4257708
  50.6800157  21.8645582  94.6407751  41.0022794  11.1724457  93.9916186
  40.4660151  10.7215195  94.6437782  40.4139502  11.3070365  93.2486650
  39.2971337  27.9388506  87.8860844  39.5367935  28.5707030  88.5639863
  38.4540534  27.5876546  88.1726203  40.4125053  10.6313108  76.5542649
  39.5354519  10.5101909  76.1904896  40.8882806   9.8399186  76.3021538
  50.2798046  19.0866176  93.3241105  49.3924824  18.7492098  93.4467504
  50.8496597  18.3549207  93.5609870  31.9327193  15.4190268  86.6484156
  32.6198233  15.1051998  86.0605172  31.7775321  16.3231632  86.3751408
  36.7361915  10.3080464  91.0769180  36.6520104   9.7006134  90.3419590
  35.9144621  10.7989483  91.0778676  43.8099199  23.7467628  90.2902348
  43.7369371  24.5522600  90.8021653  43.3676592  23.9459594  89.4650370
  43.5988979  22.9839398  83.8005170  42.8156501  23.5261079  83.8943394
  44.2981724  23.5013378  84.1999411  46.9085629   8.7934028  86.4439375
  47.4054328   8.0403990  86.1240445  46.1372610   8.8298344  85.8782584
  54.7615386  14.4974393  88.0857667  54.7505262  15.3799109  87.7151600
  53.8932766  14.1445944  87.8912204  46.2697883  23.6454462  92.4460507
  46.9825855  24.2801927  92.3736408  45.7787911  23.7418328  91.6300509
  47.9915409  17.5505715  84.0177798  47.0571688  17.6707177  83.8482503
  48.1692078  16.6478182  83.7537808  43.4920598  10.9351411  86.1711060
  43.1218385  10.3822451  86.8591965  43.9879690  10.3309544  85.6186060
  51.3787961  13.3923034  84.5527833  51.8448413  14.2251026  84.4788135
  51.8295461  12.9268016  85.2573091  41.3209796  21.3948906  93.2666078
  42.0219256  22.0285389  93.4195472  40.8504911  21.7363637  92.5061717
  49.4464192  19.7366856  81.5513985  49.7224036  19.6223450  82.4607859
  48.5768691  19.3384340  81.5126158  49.3504624   5.7603621  88.5918734
  48.4367703   5.9907848  88.7600941  49.7797725   5.8442065  89.4432766
  49.1211082  13.9493513  91.0918628  48.4682532  14.1969421  90.4371081
  49.4991462  13.1357651  90.7581105  46.0818256  23.9853206  85.1946798
  46.2640650  23.1674862  85.6574551  46.9051242  24.2020899  84.7571688
  46.4160421  22.9121392  82.4561847  46.9448188  22.4013846  81.8432009
  46.6788641  22.5963922  83.3207380  45.1698655  14.6913324  97.5784665
  44.4939292  14.5907454  98.2487040  45.9926289  14.5352538  98.0420662
  36.9177514  20.9285261  90.1997180  37.5030951  20.1828949  90.3325085
  36.7202353  21.2389218  91.0833844  39.7716169  23.9636508  85.2159623
  39.1026545  24.4482636  84.7323663  39.6329039  24.2105729  86.1303001
  31.5095169  13.4990861  88.9201623  31.5479268  12.9654452  89.7138742
  31.0035462  12.9726067  88.3012601  43.9121438  25.9980252  91.8142281
  44.4639746  26.1611873  92.5791366  44.2527631  26.5884690  91.1422306
  38.8885931   8.3455402  92.4164166  38.9527258   9.2070232  92.0041563
  38.8253051   7.7329403  91.6836524  48.7632312  20.8241509  97.6690936
  49.3072216  21.4371468  97.1745890  48.1819157  21.3821088  98.1857949
  35.1403746  12.2254963  81.9955555  35.4357188  11.3165642  81.9422609
  34.2391782  12.2042703  81.6736557  47.0489825  23.9462227  88.8005963
  46.9240965  23.1451967  88.2916909  47.7068916  24.4408421  88.3119933
  38.6697993  10.3010960  87.9783103  37.9484579  10.9146928  87.8390577
  39.4591249  10.8368725  87.8999749  49.1124734  21.7471247  90.4285513
  48.1655069  21.6276599  90.3563840  49.4607507  20.8593745  90.5111775
  41.4724307   7.6365386  94.2523755  41.9958709   7.8827683  95.0150065
  41.2536640   8.4685421  93.8326893  36.8691588   9.9069061  82.1194880
  36.5404294   9.0266440  81.9369986  37.2230959   9.8516730  83.0071269
  46.1171167  21.5423964  86.6289866  45.9696129  20.6140671  86.8097436
  46.9424660  21.5644054  86.1446941  39.9833411  10.1942031  82.4870358
  40.3229484  10.7227952  81.7648966  40.4305532  10.5322437  83.2628924
  49.7205289  22.3652522  87.7154738  50.6451836  22.1595384  87.5779189
  49.5520592  22.1168924  88.6244080  42.6776852   8.5779081  91.9373426
  42.3373672   7.7786894  92.3394106  41.9715858   8.8780792  91.3650259
  43.3293324   5.6628394  90.3900749  44.1519393   5.1888872  90.2679639
  43.5731387   6.4418878  90.8899435  41.9701558   8.6916652  80.6863650
  42.6909921   9.0697905  80.1827367  41.3466862   9.4105529  80.7898628
  46.1132681   9.3961801  81.6221983  46.3296296  10.2786439  81.3210811
  45.6326748   9.0048015  80.8927625  40.8531903  12.3547514  88.1992727
  40.7076483  12.6687818  89.0917009  40.3757106  12.9732415  87.6463626
  42.7128286   9.3450062  88.2473617  42.6989854   8.4491156  87.9105915
  43.4300714   9.3520726  88.8811903  44.5654416   9.7787403  90.2926744
  44.3072194  10.7004473  90.2911075  44.0339457   9.3817837  90.9827209
  49.5100605  22.8838190  83.0716830  49.6837483  22.3184612  82.3190682
  50.0029496  23.6839085  82.8896320  35.3277565  14.8952859  91.1380389
  34.7831033  15.6712667  91.2700663  36.2056915  15.2423663  90.9799510
  42.1165181   8.2264443  83.5161187  42.2381093   7.2981089  83.7152075
  41.8267224   8.2403129  82.6039503  44.9856372   5.9119353  86.6527907
  45.0078069   5.9758686  85.6979886  45.4024431   5.0723862  86.8468413
  55.3639996  15.6474613  84.6907129  55.8071142  14.8981938  84.2926253
  54.4866506  15.6384749  84.3080861  50.4975777  22.2004954  80.1713728
  51.1926682  22.8211647  80.3901043  50.8398928  21.3500305  80.4466106
  36.1143587  14.0222755  94.0310545  35.3725323  14.1705390  94.6175176
  35.7936331  14.2831021  93.1677295  52.3967201  19.6504660  81.7001059
  52.9218525  19.9891932  80.9750379  52.3089553  18.7151675  81.5164193
  44.0587249  23.5638733  93.8290935  44.3674376  23.3187880  94.7013635
  44.8562731  23.7685372  93.3409806  44.0807861  25.7176643  86.0596312
  43.6412852  25.2253022  86.7529169  44.8315978  25.1749611  85.8188387
  36.5600200  21.9088184  86.0620940  37.3858220  21.6091956  85.6819584
  36.2094252  21.1395806  86.5110729  41.5281734  21.2614652  88.1318614
  40.9061743  20.5985357  87.8320842  42.1986600  21.2875784  87.4492261
  34.7608805  19.8274510  87.0209874  33.9240714  19.3996685  86.8393875
  34.7332451  20.0206954  87.9580665  52.0861107  20.2837563  97.0052257
  51.2956650  20.2661702  96.4656756  51.8494461  20.8225857  97.7601293
  52.2058982  17.1330030  94.3184985  52.2556987  16.9680037  95.2600508
  52.0972905  16.2657289  93.9282866  41.0895240  19.8118575  81.6077074
  41.2383361  20.4954040  80.9543747  41.8961684  19.7923665  82.1226530
  49.4962744  13.1160958  95.6344292  50.3972607  12.9767423  95.3428290
  49.5710719  13.2815413  96.5742469  43.8305549  10.4927813  94.4797478
  42.9608859  10.7861379  94.2080067  44.0665030  11.0768258  95.2004742
  53.7077179  19.5526971  94.5627007  53.4161987  19.9156952  95.3990468
  53.0949310  18.8393980  94.3840339  54.9072861  17.1179851  87.0829577
  55.7419752  17.5569655  87.2467137  55.0431990  16.6418504  86.2637823
  51.9564367  14.6759586  93.0307065  52.4318488  14.8687232  92.2225916
  51.0329932  14.7318772  92.7850448  38.8447873  15.8383753  82.6138143
  38.5993915  14.9346083  82.8118353  39.0143788  15.8400904  81.6717621
  46.5344583   6.7107429  91.9962899  47.0526527   7.4468456  91.6709387
  46.1799716   7.0171423  92.8309658  38.1143521  11.5712111  80.1124305
  37.4212766  11.6456466  79.4564341  37.8695273  10.8072454  80.6345821
  46.7857177   3.1307712  87.5163795  47.0658931   2.4630901  88.1424222
  47.5707784   3.3236808  87.0038459  44.5890646  22.3066706  79.0788822
  44.0164613  22.9256893  78.6259293  45.1623440  22.8566068  79.6128744
  50.6566036  11.5525346  91.2635370  51.6083459  11.6523444  91.2847594
  50.4869486  10.7603615  91.7733455  48.6780415   8.6380929  91.4494771
  48.0830347   8.9185942  90.7541260  48.3930112   9.1274830  92.2211512
  47.8087906  22.5903856  80.2097404  48.7418579  22.5249418  80.4130279
  47.7211119  23.4260123  79.7511937  50.4375922  21.9069726  77.1701351
  50.3589554  21.5729590  78.0637109  51.2585589  22.3991494  77.1692824
  53.1354114  14.7731466  90.3777670  53.1030434  13.8347466  90.5637354
  53.7454737  14.8515502  89.6443495  44.9737444  13.6427519  76.4204874
  45.9196549  13.5133727  76.4893292  44.5951689  12.9042181  76.8974302
  53.2848602  11.5642509  90.4235953  52.7687651  10.7800966  90.2365882
  54.1688551  11.2361226  90.5882473  50.9459329   5.3083525  86.3831766
  50.7484150   4.9998613  87.2675098  51.5559035   6.0345164  86.5129696
  58.9530663  15.8347473  89.5183707  59.6834052  15.5732761  90.0791410
  58.3437609  15.0976194  89.5585775  57.0345961  13.9755335  90.1158158
  56.3079124  13.8411300  89.5074650  56.6193247  14.2832164  90.9214876
  44.8576137  17.6945265  97.8805531  45.7779146  17.8723864  98.0745578
  44.8225720  16.7501310  97.7285230  43.1580362  11.5677495  76.3559759
  42.2511817  11.2710608  76.4322473  43.4356343  11.2707313  75.4894046
  34.0758302  12.8883858  86.8058806  33.7561086  12.0349167  86.5133180
  33.5291730  13.1032437  87.5616773  37.8538210  15.6046299  90.5228312
  38.0724219  16.5363407  90.5416346  38.2663983  15.2454274  91.3083116
  44.7742427   6.1114385  82.5104001  43.9643156   5.7661470  82.8859247
  45.4626844   5.8021928  83.0991612  46.7032976   5.1892432  84.1328297
  47.2564014   5.6087885  84.7918320  46.9403062   4.2628180  84.1751253
  41.9279146   8.4264430  76.4971739  42.7898310   8.7519329  76.7567556
  42.1129490   7.6395926  75.9844804  33.9446562  16.5086770  88.7751927
  33.2510033  16.0940723  88.2621882  34.6919553  16.5507306  88.1785346
  50.0811783   7.2992957  83.6406962  49.5010452   7.9577761  83.2585014
  49.8147715   6.4770301  83.2294379  48.5315349   6.6998014  85.8428282
  49.0315127   6.8114549  85.0342601  49.1750957   6.3959067  86.4829090
  42.5897345  14.6076644  98.7296123  42.1064427  15.4077004  98.9360012
  42.6758284  14.6184589  97.7763567  35.8583304  16.4405024  86.6517942
  35.8353993  16.5392711  85.6999825  36.1683941  17.2870174  86.9735108
  38.5170682  18.4981179  90.7664557  39.4713936  18.4665121  90.6994488
  38.3183206  18.0371802  91.5814783  39.1070064  17.0682295  93.3335354
  39.9262953  17.5626373  93.3570192  39.3806872  16.1514263  93.3052922
  48.8636661   9.4593047  82.6963310  47.9762516   9.7442698  82.4783505
  49.2790650   9.2986810  81.8490587  52.2151197   9.4839568  86.4117649
  52.9911587   9.9736021  86.6842266  51.4899331   9.9097622  86.8689519
  54.6523755  10.1967187  87.4691590  55.2468246   9.9562923  86.7584898
  54.7250339   9.4774318  88.0965126  36.8720911  24.0400798  87.7834754
  36.7375379  23.2801199  87.2172753  36.4552973  24.7641698  87.3163543
  48.0079874  19.2237722  76.7911330  48.7115724  19.4287724  77.4068985
  47.2842523  19.7914484  77.0560413  48.8377684  14.9747583  82.9113600
  48.7812886  15.4316134  82.0721232  49.3906027  14.2138268  82.7336443
  52.6482490  10.7637315  83.7363719  52.3919425  10.3633951  84.5671927
  52.0235358  11.4781109  83.6113859  56.9594828  13.5033388  86.2435011
  56.3994386  13.5726577  87.0166573  56.3538332  13.3274373  85.5234507
  40.0290037  24.9370115  87.9953197  39.9122421  25.8815548  87.8931887
  39.2082483  24.6343677  88.3838996  49.9166572  19.6620251  78.8409790
  50.7512176  19.2301449  78.6587265  49.7550914  19.4902265  79.7686684
  49.5712464  16.1652364  80.2066129  49.5161268  15.9996636  79.2654573
  48.9458519  16.8728397  80.3628319  34.3604979  11.4020429  94.0327551
  35.0063842  10.8919383  94.5214777  34.1522130  12.1389110  94.6070977
  46.8858371  18.4701276  99.5319692  47.7549531  18.6441928  99.1706327
  46.4065122  19.2895693  99.4095421  42.8808589   5.6660473  79.7851448
  42.8687259   6.6102313  79.9419718  43.7732011   5.4830619  79.4910909
  41.0544551  25.5898377  91.2109126  41.9571798  25.6221987  91.5275621
  40.8281921  24.6598828  91.2255461  42.8098153  24.3429364  87.8719204
  41.8593784  24.3431225  87.7583576  43.1130639  23.5962098  87.3555239
  46.6960709   2.2603250  84.0397384  45.9293104   1.7061737  84.1854067
  47.1071414   2.3325119  84.9011536  58.5450847  30.1789902  88.9364967
  59.1829257  30.0596649  88.2328307  58.4271690  31.1270746  88.9952919
  55.3540553  30.1317330  88.8726491  55.0159064  30.0158395  87.9847026
  56.2230321  29.7308495  88.8527497  51.2127369  31.9852807  84.8623382
  50.6492234  31.8942744  84.0939670  51.0979764  31.1652711  85.3425875
  55.8360336  31.2852182  94.8312697  55.8248977  30.8904980  93.9593200
  55.9980975  30.5518255  95.4246468  48.7591801  33.4803998  87.7007603
  49.5513092  33.1394823  87.2853902  48.9988451  33.5898973  88.6209756
  56.7926927  35.6523774  80.1737847  56.1414907  36.2377855  79.7871861
  57.5871290  36.1829969  80.2332885  50.7182555  32.7412911  80.5724981
  51.4913431  32.1941899  80.4337857  51.0707953  33.6057161  80.7839443
  52.5567597  34.0689294  93.7791881  52.2657463  34.9734925  93.6638547
  53.1924581  34.1105821  94.4935950  53.4823804  31.4466142  90.3693240
  54.0787376  31.2222165  89.6550203  53.5398775  30.7050888  90.9718688
  53.0548832  28.9005578  78.2043431  53.3074353  28.3787099  77.4426894
  52.1173391  28.7371723  78.3070115  58.0992115  27.9041356  86.0118175
  58.8855204  27.4860779  85.6608592  58.3630819  28.8087448  86.1799823
  58.2702193  33.3414206  80.7106831  57.6348025  33.4148833  81.4227736
  57.9399599  33.9307805  80.0325911  63.5000542  27.8416589  86.9151153
  64.2325714  27.2715806  87.1488983  62.7439898  27.4538190  87.3557659
  52.7745121  30.8033684  80.4067806  52.6581379  30.1278587  81.0748891
  52.8847381  30.3166057  79.5899959  55.1176662  30.2643831  84.1114496
  54.7534869  29.7374452  84.8227417  55.9743778  29.8742300  83.9380981
  61.0225963  21.5538163  91.3745762  60.6909287  22.4233574  91.1506977
  60.4271576  21.2374447  92.0539792  54.7582149  25.2933730  79.1075844
  54.9256551  26.1613967  79.4746315  54.5679318  25.4561012  78.1837133
  57.5157482  33.7550709  90.7741674  57.2158205  34.6575748  90.6657482
  57.1708542  33.4882892  91.6262827  50.9669964  30.2064506  86.8078379
  50.0420460  30.0740720  87.0156071  51.2154377  30.9858725  87.3048321
  60.9154626  26.2733249  88.4539112  60.0071503  26.2048658  88.1597873
  60.8642222  26.7505194  89.2820937  54.7371370  27.7491388  80.0922511
  54.6170995  28.1948439  80.9307991  54.0423958  28.0976705  79.5336049
  48.3278775  29.8497780  87.6422168  48.4571156  30.1032259  88.5561580
  47.6476226  30.4425488  87.3226823  52.4978262  40.5195030  83.7412642
  52.4202292  41.4702855  83.8201123  51.8939906  40.1740902  84.3987568
  54.9895492  27.6922895  96.3974009  54.2128826  28.2516815  96.3876874
  55.6286055  28.1779678  96.9188879  62.7816272  24.4749688  90.2316986
  62.1390653  24.7682221  89.5856780  62.2771201  24.3602608  91.0370182
  60.4356436  28.2212861  80.9202845  61.3474292  28.4540248  80.7450543
  59.9266083  28.8049905  80.3577924  53.2441864  30.5008348  95.9591976
  53.9856548  31.0393392  95.6826800  52.5378850  31.1274637  96.1163528
  58.7197204  32.6437489  94.5564138  59.1280560  32.2019899  93.8118770
  57.9974465  32.0690116  94.8098330  55.0728274  27.5810096  91.9297695
  55.9189469  28.0049509  92.0732344  55.0126911  26.9243720  92.6236258
  59.0426018  33.2038679  88.3116426  58.4134881  33.3684394  87.6092494
  58.6551680  33.6180289  89.0827390  62.9215250  34.1393117  85.6660790
  62.2366288  34.5192019  85.1157824  63.0059100  34.7488444  86.3992738
  58.2227719  25.2414464  93.5878868  57.9788651  25.9956524  93.0513144
  58.4987650  25.6199812  94.4226115  60.1766182  31.7853076  92.2656134
  60.3883077  32.4284836  91.5890515  60.1295930  30.9515393  91.7978064
  57.7792411  24.3970897  89.1692706  56.9176890  24.6952151  89.4609443
  57.8054845  24.6141296  88.2373739  54.5953980  32.9413088  85.5766512
  55.0592326  33.2200791  84.7871134  54.3310778  32.0396532  85.3939602
  51.4878061  32.4884569  88.5146275  52.0579418  32.9171837  87.8763759
  52.0786173  32.2067154  89.2130460  53.5322866  29.0636240  82.3856077
  54.2346910  29.5157284  82.8530003  53.2003495  28.4220059  83.0135970
  51.9803228  27.6547997  96.7607286  51.3501888  28.3364277  96.9942683
  51.8739316  27.5431078  95.8160424  47.2748200  27.3219793  87.6873210
  46.4847254  27.5777321  87.2113321  47.7659448  28.1368130  87.7925251
  61.2912010  34.6625032  90.4378491  62.1129454  34.2605219  90.1561173
  61.2874413  34.5593266  91.3894607  49.2262946  27.6864372  84.6456687
  48.4294109  27.7983066  85.1640183  48.9988538  28.0251024  83.7797577
  55.0568613  34.2109075  92.5939202  55.1213046  34.6729482  93.4297373
  54.3479537  33.5806440  92.7221511  45.5585903  27.5750283  90.1188201
  45.8093942  28.4597293  90.3845777  46.0945452  27.3954885  89.3463293
  69.3818003  31.0063780  86.7863463  68.6281711  30.4371178  86.6307467
  69.5165544  30.9726445  87.7334097  54.7716631  35.8777183  82.4618182
  54.6362306  36.7228718  82.8903030  55.3126443  36.0796460  81.6984116
  51.2583971  21.9568762  99.1232537  50.8650916  21.4034961  99.7980181
  52.0750111  22.2679341  99.5139055  48.2246028  33.3952621  83.0346107
  48.7370549  34.1895871  83.1851672  48.8768741  32.6978911  82.9679708
  50.0340913  36.5118377  85.1168860  50.2107541  37.4336342  84.9289844
  50.8297746  36.1976796  85.5463240  54.1751932  23.3726641  96.7152794
  54.9161645  23.9733795  96.6357256  54.4069854  22.6304279  96.1570836
  49.3193270  28.5583009  94.9931023  49.2046785  27.6568266  95.2938122
  48.4637787  28.8046705  94.6415840  56.3985107  36.5000749  96.5918524
  55.9548961  35.7137128  96.2739428  57.0602321  36.6879900  95.9262415
  51.1572228  38.0296551  91.1179202  51.7079654  37.9013614  90.3456196
  50.3183704  38.3291440  90.7674095  58.4966345  36.7803549  94.6199925
  58.4784821  37.6012430  94.1280194  59.4186265  36.6557624  94.8450066
  54.9539399  34.2947678  95.4623434  55.4867736  33.5335967  95.2322742
  54.4253481  34.0021330  96.2047588  58.1209094  19.4007744  90.9917075
  57.7773364  20.2909386  90.9156186  58.4888057  19.2109402  90.1286660
  46.1894945  31.7241275  83.8105678  47.0270167  32.1338283  83.5939385
  46.3673213  30.7840717  83.7805871  58.0859377  29.3916356  79.4989510
  57.5706001  30.1620960  79.7377898  57.8136686  28.7181492  80.1222572
  55.6706488  24.2366056  84.5574749  54.8148085  23.8472907  84.3780388
  56.0833440  24.3158017  83.6974534  57.2005635  21.7712400  88.9566309
  56.6970430  21.7342535  88.1434114  57.4936242  22.6805142  89.0162965
  53.4448521  21.8551129  87.9632490  54.3101517  21.6593938  87.6038380
  53.5126030  21.6261481  88.8901847  63.0593651  32.1448710  81.4342684
  62.2823094  31.8059870  80.9897846  63.7385132  32.1501333  80.7597649
  57.8745680  27.2643448  81.3249292  57.5695816  27.5789597  82.1759435
  58.8276122  27.3424867  81.3676625  56.3192112  33.4233671  82.9742246
  55.7913474  32.6886430  82.6615483  55.8179615  34.2008347  82.7282214
  61.2984958  31.6182691  88.0909292  60.6408633  32.3081953  88.1789421
  62.1025357  32.0079123  88.4343278  51.0510840  24.0853337  85.3348857
  51.6254592  23.8628519  84.6022050  51.6381822  24.1542032  86.0877458
  60.1090417  29.9727064  86.1413234  60.6222299  30.6057056  86.6434943
  60.7591641  29.3728260  85.7756594  51.3780427  26.1157798  79.3544742
  50.5417739  26.4532485  79.6754017  51.2385197  25.9806778  78.4171879
  53.3533508  20.9594586  84.0623927  52.6997920  20.6443603  83.4380541
  53.3113982  20.3370327  84.7883750  54.4644712  31.2413881  75.9777219
  53.5571774  31.0103135  76.1768368  54.9615744  30.4451500  76.1651200
  57.3712791  39.9511388  78.8973905  56.6974490  40.2543085  79.5058863
  57.7578613  40.7540469  78.5479362  56.5871248  27.4476520  88.3871574
  55.6693809  27.6691467  88.2293262  57.0031391  27.5222830  87.5283282
  57.3706296  28.8467935  83.5174254  58.1178115  29.3589333  83.2081377
  57.6397885  28.5251988  84.3778648  55.6432946  31.3426476  80.5001209
  54.7344165  31.0585509  80.5973679  55.6728030  31.7625555  79.6404516
  60.8752213  34.9533066  84.2692376  60.4214540  34.1123975  84.3257567
  60.2446180  35.5894464  84.6067156  59.8185133  25.8825052  85.4993044
  59.0807890  25.3702438  85.8303286  60.0711906  25.4425433  84.6876321
  59.3185152  36.7909562  85.2042194  59.6108127  37.3514619  84.4854560
  59.8283773  37.0838123  85.9595354  59.9196760  18.6601304  86.0934813
  60.2255637  17.7998667  85.8060728  60.6449365  19.2518924  85.8933807
  46.2121116  29.0631990  84.4816411  46.0145516  28.4701351  83.7567478
  45.6567780  28.7584200  85.1992350  54.1917840  28.9555097  86.6011004
  54.2466450  28.0028933  86.5253481  53.3809042  29.1114536  87.0852303
  55.3409034  32.8835220  77.8389287  54.9028464  32.1671079  77.3794925
  56.0819474  33.1111335  77.2774379  52.1310200  27.5732156  84.3601383
  51.3178065  27.8726327  84.7666575  52.6269194  27.1787845  85.0775865
  54.2818778  37.5689913  86.2935648  54.2394956  37.7950760  85.3644180
  55.1981477  37.3353288  86.4421449  57.7284411  28.0373981  93.1916277
  58.0833799  28.2645454  94.0510743  58.3756543  28.3692358  92.5693532
  63.4582148  31.1592417  83.8965606  63.3200047  31.3494013  82.9686795
  63.1018367  31.9211800  84.3533657  51.6224275  25.1450512  89.9762618
  52.2623654  25.0039271  89.2785581  50.7901805  24.8585025  89.6001220
  63.4851528  33.2268944  88.9076877  63.9188035  33.1344233  89.7559931
  64.1983109  33.2026444  88.2696893  52.3984578  34.4452942  86.0897610
  53.1925177  33.9503262  85.8880185  51.6876271  33.9170805  85.7265316
  57.2179423  36.8271038  90.4409978  57.2716445  37.3961974  91.2087694
  56.3494204  36.9972923  90.0764015  48.7067342  28.5896024  82.1657363
  47.7764930  28.5280480  82.3827325  48.8024814  28.0671977  81.3694004
  48.6252891  25.1150837  84.7535605  48.8859708  26.0296170  84.6444765
  49.4470063  24.6475279  84.9032218  50.0977816  26.5288594  91.9234429
  50.7700870  26.3205956  91.2747078  49.2707603  26.3310680  91.4839662
  64.3467078  33.2692644  91.4409763  64.5402968  34.1738455  91.6869038
  64.2467696  32.8100063  92.2748348  56.0003388  23.1550535  93.9400090
  55.3531303  23.8540485  93.8464567  56.7704404  23.5886679  94.3076338
  59.4082186  33.4199387  97.0150643  59.2567693  33.1909939  96.0980727
  59.3986866  34.3769989  97.0281988  56.1767523  30.9931300  91.9996910
  57.1059583  31.1442460  91.8265877  55.7558553  31.0815321  91.1445556
  54.9755854  35.0181964  89.7695447  54.8366940  34.6500749  90.6421386
  54.1870451  35.5329604  89.5979405  55.5704006  40.1191061  81.1120984
  55.7455762  39.6479104  81.9266607  54.8836794  40.7456827  81.3402245
  56.5261070  34.3963567  87.1584285  56.1910902  34.3564337  88.0541935
  56.0265015  33.7308283  86.6854696  50.5005314  29.8031197  92.6836866
  50.3625111  29.0711436  93.2848405  51.4110237  29.7140097  92.4021054
  59.4620261  31.7419601  77.4321345  58.8449432  31.0166430  77.3354398
  58.9936750  32.5028962  77.0888419  53.1287614  29.5151156  92.1720546
  53.8387233  28.8744349  92.1307165  53.0856922  29.7664051  93.0946727
  61.1174393  36.4518510  95.0927125  61.0586939  35.7677730  94.4257708
  61.5193911  37.1937500  94.6407751  51.8416548  26.5016374  93.9916186
  51.3053905  26.0507113  94.6437782  51.2533257  26.6362283  93.2486650
  50.1365092  43.2680424  87.8860844  50.3761690  43.8998948  88.5639863
  49.2934288  42.9168464  88.1726203  51.2518807  25.9605026  76.5542649
  50.3748273  25.8393826  76.1904896  51.7276560  25.1691104  76.3021538
  61.1191800  34.4158094  93.3241105  60.2318579  34.0784015  93.4467504
  61.6890351  33.6841125  93.5609870  42.7720947  30.7482185  86.6484156
  43.4591987  30.4343915  86.0605172  42.6169076  31.6523550  86.3751408
  47.5755669  25.6372382  91.0769180  47.4913858  25.0298052  90.3419590
  46.7538376  26.1281400  91.0778676  54.6492954  39.0759546  90.2902348
  54.5763125  39.8814518  90.8021653  54.2070347  39.2751512  89.4650370
  54.4382733  38.3131316  83.8005170  53.6550255  38.8552996  83.8943394
  55.1375478  38.8305296  84.1999411  57.7479383  24.1225945  86.4439375
  58.2448083  23.3695908  86.1240445  56.9766365  24.1590262  85.8782584
  65.6009141  29.8266311  88.0857667  65.5899017  30.7091026  87.7151600
  64.7326520  29.4737862  87.8912204  57.1091637  38.9746380  92.4460507
  57.8219609  39.6093845  92.3736408  56.6181666  39.0710246  91.6300509
  58.8309164  32.8797633  84.0177798  57.8965443  32.9999095  83.8482503
  59.0085832  31.9770099  83.7537808  54.3314352  26.2643328  86.1711060
  53.9612140  25.7114369  86.8591965  54.8273444  25.6601462  85.6186060
  62.2181715  28.7214952  84.5527833  62.6842168  29.5542944  84.4788135
  62.6689216  28.2559934  85.2573091  52.1603551  36.7240824  93.2666078
  52.8613010  37.3577306  93.4195472  51.6898666  37.0655555  92.5061717
  60.2857946  35.0658773  81.5513985  60.5617790  34.9515368  82.4607859
  59.4162445  34.6676258  81.5126158  60.1898378  21.0895539  88.5918734
  59.2761458  21.3199766  88.7600941  60.6191480  21.1733983  89.4432766
  59.9604837  29.2785431  91.0918628  59.3076287  29.5261338  90.4371081
  60.3385216  28.4649569  90.7581105  56.9212010  39.3145124  85.1946798
  57.1034405  38.4966780  85.6574551  57.7444996  39.5312816  84.7571688
  57.2554176  38.2413309  82.4561847  57.7841942  37.7305764  81.8432009
  57.5182396  37.9255839  83.3207380  56.0092410  30.0205242  97.5784665
  55.3333047  29.9199371  98.2487040  56.8320043  29.8644456  98.0420662
  47.7571269  36.2577179  90.1997180  48.3424705  35.5120866  90.3325085
  47.5596107  36.5681135  91.0833844  50.6109924  39.2928426  85.2159623
  49.9420299  39.7774554  84.7323663  50.4722794  39.5397646  86.1303001
  42.3488923  28.8282779  88.9201623  42.3873023  28.2946369  89.7138742
  41.8429216  28.3017984  88.3012601  54.7515192  41.3272169  91.8142281
  55.3033501  41.4903791  92.5791366  55.0921386  41.9176607  91.1422306
  49.7279686  23.6747319  92.4164166  49.7921012  24.5362150  92.0041563
  49.6646806  23.0621321  91.6836524  49.2031958  25.7470452  96.0637200
  49.8303997  25.3647529  96.6774724  48.3459877  25.5284654  96.4292893
  59.6026067  36.1533427  97.6690936  60.1465971  36.7663385  97.1745890
  59.0212912  36.7113005  98.1857949  45.9797501  27.5546881  81.9955555
  46.2750942  26.6457559  81.9422609  45.0785537  27.5334620  81.6736557
  57.8883580  39.2754145  88.8005963  57.7634719  38.4743885  88.2916909
  58.5462671  39.7700338  88.3119933  49.5091748  25.6302877  87.9783103
  48.7878334  26.2438845  87.8390577  50.2985004  26.1660642  87.8999749
  59.9518488  37.0763165  90.4285513  59.0048824  36.9568516  90.3563840
  60.3001261  36.1885663  90.5111775  52.3118062  22.9657304  94.2523755
  52.8352463  23.2119601  95.0150065  52.0930395  23.7977339  93.8326893
  47.7085343  25.2360979  82.1194880  47.3798049  24.3558357  81.9369986
  48.0624713  25.1808647  83.0071269  56.9564921  36.8715881  86.6289866
  56.8089884  35.9432589  86.8097436  57.7818415  36.8935972  86.1446941
  50.8227166  25.5233948  82.4870358  51.1623238  26.0519870  81.7648966
  51.2699286  25.8614354  83.2628924  60.5599043  37.6944440  87.7154738
  61.4845591  37.4887301  87.5779189  60.3914347  37.4460841  88.6244080
  53.5170607  23.9070999  91.9373426  53.1767427  23.1078812  92.3394106
  52.8109613  24.2072710  91.3650259  54.1687078  20.9920312  90.3900749
  54.9913148  20.5180790  90.2679639  54.4125142  21.7710795  90.8899435
  52.8095313  24.0208570  80.6863650  53.5303675  24.3989823  80.1827367
  52.1860617  24.7397447  80.7898628  56.9526436  24.7253719  81.6221983
  57.1690050  25.6078357  81.3210811  56.4720503  24.3339932  80.8927625
  51.6925657  27.6839432  88.1992727  51.5470238  27.9979735  89.0917009
  51.2150861  28.3024332  87.6463626  53.5522040  24.6741980  88.2473617
  53.5383609  23.7783073  87.9105915  54.2694468  24.6812644  88.8811903
  55.4048171  25.1079320  90.2926744  55.1465949  26.0296391  90.2911075
  54.8733211  24.7109755  90.9827209  60.3494359  38.2130107  83.0716830
  60.5231237  37.6476530  82.3190682  60.8423251  39.0131002  82.8896320
  46.1671319  30.2244777  91.1380389  45.6224787  31.0004585  91.2700663
  47.0450669  30.5715581  90.9799510  52.9558936  23.5556360  83.5161187
  53.0774847  22.6273007  83.7152075  52.6660978  23.5695046  82.6039503
  55.8250126  21.2411271  86.6527907  55.8471823  21.3050604  85.6979886
  56.2418185  20.4015779  86.8468413  66.2033751  30.9766530  84.6907129
  66.6464897  30.2273856  84.2926253  65.3260261  30.9676667  84.3080861
  61.3369532  37.5296872  80.1713728  62.0320437  38.1503565  80.3901043
  61.6792682  36.6792223  80.4466106  46.9537341  29.3514673  94.0310545
  46.2119077  29.4997308  94.6175176  46.6330085  29.6122938  93.1677295
  63.2360955  34.9796577  81.7001059  63.7612279  35.3183850  80.9750379
  63.1483308  34.0443593  81.5164193  54.8981004  38.8930651  93.8290935
  55.2068130  38.6479798  94.7013635  55.6956486  39.0977290  93.3409806
  54.9201616  41.0468561  86.0596312  54.4806606  40.5544939  86.7529169
  55.6709733  40.5041528  85.8188387  47.3993955  37.2380102  86.0620940
  48.2251975  36.9383873  85.6819584  47.0488007  36.4687724  86.5110729
  52.3675488  36.5906570  88.1318614  51.7455497  35.9277275  87.8320842
  53.0380355  36.6167702  87.4492261  45.6002560  35.1566428  87.0209874
  44.7634468  34.7288602  86.8393875  45.5726205  35.3498871  87.9580665
  52.4400015  25.0688358  97.7251120  52.4888171  25.9450481  97.3428889
  52.9822530  24.5265751  97.1522763  62.9254861  35.6129481  97.0052257
  62.1350405  35.5953620  96.4656756  62.6888216  36.1517775  97.7601293
  63.0452736  32.4621947  94.3184985  63.0950741  32.2971955  95.2600508
  62.9366660  31.5949206  93.9282866  51.9288995  35.1410493  81.6077074
  52.0777115  35.8245957  80.9543747  52.7355438  35.1215583  82.1226530
  60.3356499  28.4452875  95.6344292  61.2366361  28.3059340  95.3428290
  60.4104473  28.6107330  96.5742469  54.6699304  25.8219730  94.4797478
  53.8002613  26.1153296  94.2080067  54.9058784  26.4060175  95.2004742
  64.5470933  34.8818889  94.5627007  64.2555741  35.2448869  95.3990468
  63.9343064  34.1685897  94.3840339  65.7466615  32.4471769  87.0829577
  66.5813507  32.8861573  87.2467137  65.8825744  31.9710422  86.2637823
  62.7958121  30.0051504  93.0307065  63.2712243  30.1979150  92.2225916
  61.8723687  30.0610689  92.7850448  49.6841628  31.1675671  82.6138143
  49.4387670  30.2638001  82.8118353  49.8537542  31.1692821  81.6717621
  57.3738338  22.0399347  91.9962899  57.8920282  22.7760374  91.6709387
  57.0193471  22.3463340  92.8309658  48.9537275  26.9004028  80.1124305
  48.2606520  26.9748383  79.4564341  48.7089027  26.1364372  80.6345821
  57.6250932  18.4599630  87.5163795  57.9052686  17.7922819  88.1424222
  58.4101539  18.6528725  87.0038459  55.4284400  37.6358624  79.0788822
  54.8558368  38.2548811  78.6259293  56.0017194  38.1857985  79.6128744
  61.4959790  26.8817264  91.2635370  62.4477213  26.9815361  91.2847594
  61.3263241  26.0895532  91.7733455  59.5174170  23.9672847  91.4494771
  58.9224102  24.2477860  90.7541260  59.2323866  24.4566748  92.2211512
  58.6481660  37.9195774  80.2097404  59.5812333  37.8541335  80.4130279
  58.5604873  38.7552041  79.7511937  61.2769677  37.2361644  77.1701351
  61.1983308  36.9021508  78.0637109  62.0979344  37.7283412  77.1692824
  63.9747868  30.1023383  90.3777670  63.9424188  29.1639384  90.5637354
  64.5848492  30.1807420  89.6443495  55.8131199  28.9719436  76.4204874
  56.7590304  28.8425644  76.4893292  55.4345444  28.2334098  76.8974302
  64.1242357  26.8934427  90.4235953  63.6081405  26.1092883  90.2365882
  65.0082305  26.5653143  90.5882473  61.7853083  20.6375442  86.3831766
  61.5877905  20.3290531  87.2675098  62.3952789  21.3637081  86.5129696
  69.7924418  31.1639390  89.5183707  70.5227806  30.9024678  90.0791410
  69.1831363  30.4268112  89.5585775  67.8739715  29.3047253  90.1158158
  67.1472879  29.1703218  89.5074650  67.4587002  29.6124081  90.9214876
  55.6969891  33.0237182  97.8805531  56.6172901  33.2015781  98.0745578
  55.6619474  32.0793228  97.7285230  53.9974116  26.8969413  76.3559759
  53.0905571  26.6002525  76.4322473  54.2750097  26.5999231  75.4894046
  44.9152056  28.2175776  86.8058806  44.5954841  27.3641084  86.5133180
  44.3685485  28.4324354  87.5616773  48.6931964  30.9338217  90.5228312
  48.9117974  31.8655325  90.5416346  49.1057738  30.5746192  91.3083116
  55.6136182  21.4406302  82.5104001  54.8036910  21.0953387  82.8859247
  56.3020599  21.1313846  83.0991612  57.5426730  20.5184349  84.1328297
  58.0957769  20.9379803  84.7918320  57.7796816  19.5920097  84.1751253
  53.5659829  26.5071423  99.9131061  53.4656556  27.4565780  99.8443152
  53.3481371  26.1789662  99.0407131  52.7672901  23.7556348  76.4971739
  53.6292065  24.0811246  76.7567556  52.9523245  22.9687844  75.9844804
  44.7840316  31.8378688  88.7751927  44.0903788  31.4232640  88.2621882
  45.5313307  31.8799224  88.1785346  60.9205537  22.6284874  83.6406962
  60.3404206  23.2869678  83.2585014  60.6541470  21.8062219  83.2294379
  59.3709104  22.0289932  85.8428282  59.8708882  22.1406467  85.0342601
  60.0144711  21.7250985  86.4829090  53.4291099  29.9368562  98.7296123
  52.9458181  30.7368922  98.9360012  53.5152038  29.9476507  97.7763567
  46.6977059  31.7696941  86.6517942  46.6747747  31.8684629  85.6999825
  47.0077695  32.6162092  86.9735108  49.3564437  33.8273096  90.7664557
  50.3107690  33.7957039  90.6994488  49.1576960  33.3663720  91.5814783
  49.9463819  32.3974212  93.3335354  50.7656708  32.8918291  93.3570192
  50.2200627  31.4806181  93.3052922  59.7030415  24.7884965  82.6963310
  58.8156270  25.0734615  82.4783505  60.1184404  24.6278728  81.8490587
  63.0544951  24.8131486  86.4117649  63.8305341  25.3027938  86.6842266
  62.3293086  25.2389540  86.8689519  65.4917510  25.5259105  87.4691590
  66.0862001  25.2854841  86.7584898  65.5644094  24.8066236  88.0965126
  47.7114666  39.3692716  87.7834754  47.5769134  38.6093117  87.2172753
  47.2946728  40.0933616  87.3163543  58.8473629  34.5529639  76.7911330
  59.5509479  34.7579642  77.4068985  58.1236277  35.1206401  77.0560413
  59.6771439  30.3039501  82.9113600  59.6206640  30.7608052  82.0721232
  60.2299781  29.5430185  82.7336443  63.4876245  26.0929233  83.7363719
  63.2313179  25.6925868  84.5671927  62.8629113  26.8073026  83.6113859
  67.7988583  28.8325306  86.2435011  67.2388141  28.9018495  87.0166573
  67.1932086  28.6566290  85.5234507  50.8683792  40.2662033  87.9953197
  50.7516176  41.2107465  87.8931887  50.0476238  39.9635594  88.3838996
  60.7560326  34.9912169  78.8409790  61.5905930  34.5593367  78.6587265
  60.5944669  34.8194182  79.7686684  60.4106218  31.4944282  80.2066129
  60.3555022  31.3288553  79.2654573  59.7852274  32.2020315  80.3628319
  45.1998733  26.7312346  94.0327551  45.8457597  26.2211300  94.5214777
  44.9915884  27.4681028  94.6070977  57.7252125  33.7993194  99.5319692
  58.5943285  33.9733846  99.1706327  57.2458877  34.6187611  99.4095421
  53.7202344  20.9952391  79.7851448  53.7081014  21.9394231  79.9419718
  54.6125766  20.8122536  79.4910909  51.8938306  40.9190295  91.2109126
  52.7965552  40.9513905  91.5275621  51.6675676  39.9890746  91.2255461
  53.6491908  39.6721281  87.8719204  52.6987539  39.6723143  87.7583576
  53.9524394  38.9254016  87.3555239  57.5354463  17.5895168  84.0397384
  56.7686859  17.0353654  84.1854067  57.9465168  17.6617036  84.9011536
  49.5396224  23.8779963  98.1302566  50.4027686  23.5216768  98.3405890
  48.9661635  23.5393858  98.8177970  69.3844601  45.5081820  88.9364967
  70.0223011  45.3888567  88.2328307  69.2665444  46.4562664  88.9952919
  66.1934307  45.4609248  88.8726491  65.8552819  45.3450313  87.9847026
  67.0624076  45.0600413  88.8527497  62.0521123  47.3144724  84.8623382
  61.4885988  47.2234661  84.0939670  61.9373518  46.4944629  85.3425875
  66.6754090  46.6144100  94.8312697  66.6642731  46.2196898  93.9593200
  66.8374730  45.8810172  95.4246468  59.5985555  48.8095916  87.7007603
  60.3906847  48.4686741  87.2853902  59.8382205  48.9190891  88.6209756
  67.6320682  50.9815692  80.1737847  66.9808662  51.5669772  79.7871861
  68.4265045  51.5121887  80.2332885  61.5576309  48.0704829  80.5724981
  62.3307185  47.5233816  80.4337857  61.9101708  48.9349078  80.7839443
  63.3961352  49.3981211  93.7791881  63.1051218  50.3026842  93.6638547
  64.0318336  49.4397739  94.4935950  64.3217558  46.7758060  90.3693240
  64.9181131  46.5514082  89.6550203  64.3792530  46.0342805  90.9718688
  63.8942587  44.2297495  78.2043431  64.1468108  43.7079017  77.4426894
  62.9567146  44.0663641  78.3070115  68.9385870  43.2333274  86.0118175
  69.7248959  42.8152697  85.6608592  69.2024574  44.1379366  86.1799823
  69.1095947  48.6706124  80.7106831  68.4741780  48.7440750  81.4227736
  68.7793353  49.2599723  80.0325911  74.3394297  43.1708507  86.9151153
  75.0719469  42.6007724  87.1488983  73.5833652  42.7830107  87.3557659
  63.6138876  46.1325601  80.4067806  63.4975134  45.4570505  81.0748891
  63.7241135  45.6457975  79.5899959  65.9570416  45.5935748  84.1114496
  65.5928624  45.0666369  84.8227417  66.8137532  45.2034217  83.9380981
  71.8619717  36.8830081  91.3745762  71.5303042  37.7525492  91.1506977
  71.2665331  36.5666365  92.0539792  65.5975903  40.6225648  79.1075844
  65.7650306  41.4905884  79.4746315  65.4073073  40.7852930  78.1837133
  68.3551237  49.0842627  90.7741674  68.0551960  49.9867666  90.6657482
  68.0102296  48.8174810  91.6262827  61.8063718  45.5356424  86.8078379
  60.8814215  45.4032638  87.0156071  62.0548131  46.3150643  87.3048321
  65.5765124  43.0783305  80.0922511  65.4564750  43.5240356  80.9307991
  64.8817713  43.4268623  79.5336049  59.1672529  45.1789697  87.6422168
  59.2964910  45.4324176  88.5561580  58.4869980  45.7717405  87.3226823
  63.3372016  55.8486947  83.7412642  63.2596046  56.7994772  83.8201123
  62.7333660  55.5032820  84.3987568  65.8289246  43.0214813  96.3974009
  65.0522580  43.5808733  96.3876874  66.4679809  43.5071596  96.9188879
  73.6210027  39.8041605  90.2316986  72.9784407  40.0974139  89.5856780
  73.1164955  39.6894526  91.0370182  71.2750191  43.5504779  80.9202845
  72.1868047  43.7832165  80.7450543  70.7659838  44.1341823  80.3577924
  64.0835619  45.8300266  95.9591976  64.8250303  46.3685310  95.6826800
  63.3772604  46.4566555  96.1163528  69.5590958  47.9729406  94.5564138
  69.9674314  47.5311817  93.8118770  68.8368220  47.3982034  94.8098330
  65.9122028  42.9102013  91.9297695  66.7583223  43.3341427  92.0732344
  65.8520666  42.2535638  92.6236258  69.8819773  48.5330597  88.3116426
  69.2528635  48.6976311  87.6092494  69.4945435  48.9472207  89.0827390
  73.7609005  49.4685035  85.6660790  73.0760043  49.8483936  85.1157824
  73.8452854  50.0780362  86.3992738  69.0621474  40.5706382  93.5878868
  68.8182405  41.3248442  93.0513144  69.3381404  40.9491729  94.4226115
  71.0159936  47.1144994  92.2656134  71.2276832  47.7576754  91.5890515
  70.9689685  46.2807311  91.7978064  68.6186165  39.7262815  89.1692706
  67.7570644  40.0244068  89.4609443  68.6448600  39.9433214  88.2373739
  65.4347735  48.2705005  85.5766512  65.8986080  48.5492708  84.7871134
  65.1704533  47.3688450  85.3939602  62.3271816  47.8176487  88.5146275
  62.8973173  48.2463755  87.8763759  62.9179928  47.5359071  89.2130460
  64.3716621  44.3928158  82.3856077  65.0740664  44.8449201  82.8530003
  64.0397249  43.7511976  83.0135970  62.8196982  42.9839914  96.7607286
  62.1895643  43.6656195  96.9942683  62.7133070  42.8722996  95.8160424
  58.1141955  42.6511710  87.6873210  57.3241009  42.9069239  87.2113321
  58.6053202  43.4660048  87.7925251  72.1305764  49.9916949  90.4378491
  72.9523208  49.5897137  90.1561173  72.1268167  49.8885184  91.3894607
  60.0656700  43.0156289  84.6456687  59.2687863  43.1274984  85.1640183
  59.8382292  43.3542942  83.7797577  65.8962368  49.5400993  92.5939202
  65.9606800  50.0021400  93.4297373  65.1873292  48.9098358  92.7221511
  56.3979658  42.9042201  90.1188201  56.6487696  43.7889211  90.3845777
  56.9339206  42.7246802  89.3463293  80.2211757  46.3355698  86.7863463
  79.4675466  45.7663096  86.6307467  80.3559299  46.3018362  87.7334097
  65.6110385  51.2069100  82.4618182  65.4756060  52.0520636  82.8903030
  66.1520198  51.4088378  81.6984116  62.0977725  37.2860680  99.1232537
  61.7044671  36.7326879  99.7980181  62.9143865  37.5971259  99.5139055
  59.0639783  48.7244538  83.0346107  59.5764303  49.5187788  83.1851672
  59.7162496  48.0270829  82.9679708  60.8734667  51.8410295  85.1168860
  61.0501296  52.7628259  84.9289844  61.6691501  51.5268714  85.5463240
  65.0145686  38.7018559  96.7152794  65.7555399  39.3025712  96.6357256
  65.2463609  37.9596197  96.1570836  60.1587024  43.8874926  94.9931023
  60.0440539  42.9860184  95.2938122  59.3031542  44.1338623  94.6415840
  67.2378862  51.8292667  96.5918524  66.7942716  51.0429045  96.2739428
  67.8996075  52.0171817  95.9262415  61.9965983  53.3588468  91.1179202
  62.5473408  53.2305532  90.3456196  61.1577459  53.6583357  90.7674095
  69.3360100  52.1095467  94.6199925  69.3178575  52.9304348  94.1280194
  70.2580020  51.9849542  94.8450066  65.7933154  49.6239596  95.4623434
  66.3261491  48.8627884  95.2322742  65.2647235  49.3313248  96.2047588
  68.9602849  34.7299662  90.9917075  68.6167118  35.6201304  90.9156186
  69.3281812  34.5401320  90.1286660  57.0288700  47.0533193  83.8105678
  57.8663922  47.4630201  83.5939385  57.2066967  46.1132635  83.7805871
  68.9253132  44.7208273  79.4989510  68.4099755  45.4912878  79.7377898
  68.6530440  44.0473409  80.1222572  66.5100243  39.5657974  84.5574749
  65.6541839  39.1764824  84.3780388  66.9227194  39.6449935  83.6974534
  68.0399389  37.1004317  88.9566309  67.5364185  37.0634452  88.1434114
  68.3329996  38.0097060  89.0162965  64.2842275  37.1843047  87.9632490
  65.1495272  36.9885856  87.6038380  64.3519784  36.9553399  88.8901847
  73.8987406  47.4740628  81.4342684  73.1216849  47.1351787  80.9897846
  74.5778887  47.4793251  80.7597649  68.7139435  42.5935365  81.3249292
  68.4089570  42.9081514  82.1759435  69.6669877  42.6716785  81.3676625
  67.1585867  48.7525589  82.9742246  66.6307228  48.0178348  82.6615483
  66.6573369  49.5300265  82.7282214  72.1378713  46.9474609  88.0909292
  71.4802387  47.6373870  88.1789421  72.9419112  47.3371041  88.4343278
  61.8904594  39.4145255  85.3348857  62.4648346  39.1920436  84.6022050
  62.4775577  39.4833949  86.0877458  70.9484172  45.3018982  86.1413234
  71.4616053  45.9348974  86.6434943  71.5985395  44.7020177  85.7756594
  62.2174181  41.4449716  79.3544742  61.3811494  41.7824402  79.6754017
  62.0778951  41.3098696  78.4171879  64.1927262  36.2886504  84.0623927
  63.5391674  35.9735521  83.4380541  64.1507736  35.6662244  84.7883750
  65.3038467  46.5705799  75.9777219  64.3965529  46.3395052  76.1768368
  65.8009499  45.7743418  76.1651200  68.2106546  55.2803306  78.8973905
  67.5368245  55.5835003  79.5058863  68.5972368  56.0832386  78.5479362
  67.4265002  42.7768437  88.3871574  66.5087564  42.9983384  88.2293262
  67.8425146  42.8514748  87.5283282  68.2100050  44.1759853  83.5174254
  68.9571869  44.6881250  83.2081377  68.4791640  43.8543906  84.3778648
  66.4826700  46.6718394  80.5001209  65.5737920  46.3877427  80.5973679
  66.5121784  47.0917472  79.6404516  71.7145968  50.2824983  84.2692376
  71.2608295  49.4415893  84.3257567  71.0839934  50.9186382  84.6067156
  70.6578887  41.2116969  85.4993044  69.9201644  40.6994355  85.8303286
  70.9105661  40.7717351  84.6876321  70.1578907  52.1201480  85.2042194
  70.4501881  52.6806537  84.4854560  70.6677528  52.4130041  85.9595354
  70.7590515  33.9893221  86.0934813  71.0649391  33.1290585  85.8060728
  71.4843119  34.5810841  85.8933807  57.0514871  44.3923908  84.4816411
  56.8539270  43.7993269  83.7567478  56.4961535  44.0876118  85.1992350
  65.0311594  44.2847014  86.6011004  65.0860204  43.3320851  86.5253481
  64.2202796  44.4406453  87.0852303  66.1802788  48.2127137  77.8389287
  65.7422218  47.4962996  77.3794925  66.9213229  48.4403252  77.2774379
  62.9703954  42.9024074  84.3601383  62.1571820  43.2018245  84.7666575
  63.4662948  42.5079763  85.0775865  65.1212532  52.8981831  86.2935648
  65.0788711  53.1242677  85.3644180  66.0375231  52.6645206  86.4421449
  68.5678166  43.3665899  93.1916277  68.9227554  43.5937372  94.0510743
  69.2150297  43.6984275  92.5693532  74.2975903  46.4884334  83.8965606
  74.1593801  46.6785930  82.9686795  73.9412122  47.2503717  84.3533657
  62.4618029  40.4742430  89.9762618  63.1017408  40.3331189  89.2785581
  61.6295560  40.1876943  89.6001220  74.3245282  48.5560861  88.9076877
  74.7581789  48.4636151  89.7559931  75.0376863  48.5318362  88.2696893
  63.2378333  49.7744860  86.0897610  64.0318931  49.2795180  85.8880185
  62.5270025  49.2462723  85.7265316  68.0573177  52.1562956  90.4409978
  68.1110200  52.7253892  91.2087694  67.1887959  52.3264841  90.0764015
  59.5461096  43.9187942  82.1657363  58.6158684  43.8572397  82.3827325
  59.6418568  43.3963895  81.3694004  59.4646645  40.4442755  84.7535605
  59.7253463  41.3588088  84.6444765  60.2863818  39.9767197  84.9032218
  60.9371571  41.8580512  91.9234429  61.6094624  41.6497874  91.2747078
  60.1101357  41.6602598  91.4839662  75.1860832  48.5984562  91.4409763
  75.3796722  49.5030373  91.6869038  75.0861450  48.1391981  92.2748348
  66.8397143  38.4842453  93.9400090  66.1925058  39.1832402  93.8464567
  67.6098158  38.9178597  94.3076338  70.2475941  48.7491305  97.0150643
  70.0961447  48.5201857  96.0980727  70.2380620  49.7061906  97.0281988
  67.0161277  46.3223218  91.9996910  67.9453337  46.4734377  91.8265877
  66.5952307  46.4107238  91.1445556  65.8149609  50.3473882  89.7695447
  65.6760695  49.9792666  90.6421386  65.0264205  50.8621521  89.5979405
  66.4097761  55.4482978  81.1120984  66.5849517  54.9771022  81.9266607
  65.7230549  56.0748745  81.3402245  67.3654824  49.7255485  87.1584285
  67.0304657  49.6856255  88.0541935  66.8658770  49.0600201  86.6854696
  61.3399068  45.1323115  92.6836866  61.2018866  44.4003354  93.2848405
  62.2503991  45.0432015  92.4021054  70.3014016  47.0711519  77.4321345
  69.6843186  46.3458347  77.3354398  69.8330504  47.8320879  77.0888419
  63.9681369  44.8443074  92.1720546  64.6780987  44.2036266  92.1307165
  63.9250677  45.0955969  93.0946727  71.9568147  51.7810427  95.0927125
  71.8980694  51.0969648  94.4257708  72.3587666  52.5229417  94.6407751
  62.6810303  41.8308292  93.9916186  62.1447660  41.3799030  94.6437782
  62.0927011  41.9654201  93.2486650  60.9758846  58.5972341  87.8860844
  61.2155444  59.2290865  88.5639863  60.1328043  58.2460381  88.1726203
  62.0912562  41.2896943  76.5542649  61.2142028  41.1685744  76.1904896
  62.5670315  40.4983022  76.3021538  71.9585555  49.7450011  93.3241105
  71.0712333  49.4075933  93.4467504  72.5284106  49.0133043  93.5609870
  53.6114702  46.0774103  86.6484156  54.2985742  45.7635833  86.0605172
  53.4562830  46.9815468  86.3751408  58.4149424  40.9664300  91.0769180
  58.3307613  40.3589969  90.3419590  57.5932130  41.4573318  91.0778676
  65.4886708  54.4051464  90.2902348  65.4156880  55.2106435  90.8021653
  65.0464101  54.6043430  89.4650370  65.2776488  53.6423234  83.8005170
  64.4944010  54.1844914  83.8943394  65.9769233  54.1597213  84.1999411
  68.5873138  39.4517863  86.4439375  69.0841837  38.6987825  86.1240445
  67.8160119  39.4882180  85.8782584  76.4402895  45.1558229  88.0857667
  76.4292771  46.0382944  87.7151600  75.5720275  44.8029780  87.8912204
  67.9485392  54.3038298  92.4460507  68.6613364  54.9385763  92.3736408
  67.4575420  54.4002164  91.6300509  69.6702918  48.2089550  84.0177798
  68.7359197  48.3291013  83.8482503  69.8479587  47.3062017  83.7537808
  65.1708107  41.5935246  86.1711060  64.8005894  41.0406287  86.8591965
  65.6667199  40.9893380  85.6186060  62.9997305  52.0532741  93.2666078
  63.7006765  52.6869224  93.4195472  62.5292420  52.3947473  92.5061717
  71.1251701  50.3950691  81.5513985  71.4011545  50.2807286  82.4607859
  70.2556200  49.9968176  81.5126158  71.0292133  36.4187457  88.5918734
  70.1155212  36.6491684  88.7600941  71.4585234  36.5025901  89.4432766
  67.7605765  54.6437042  85.1946798  67.9428159  53.8258698  85.6574551
  68.5838751  54.8604734  84.7571688  68.0947930  53.5705227  82.4561847
  68.6235697  53.0597682  81.8432009  68.3576150  53.2547757  83.3207380
  66.8486164  45.3497160  97.5784665  66.1726801  45.2491289  98.2487040
  67.6713798  45.1936373  98.0420662  58.5965023  51.5869096  90.1997180
  59.1818460  50.8412784  90.3325085  58.3989862  51.8973053  91.0833844
  61.4503678  54.6220344  85.2159623  60.7814054  55.1066471  84.7323663
  61.3116548  54.8689564  86.1303001  53.1882678  44.1574696  88.9201623
  53.2266777  43.6238287  89.7138742  52.6822971  43.6309902  88.3012601
  65.5908947  56.6564087  91.8142281  66.1427255  56.8195709  92.5791366
  65.9315140  57.2468525  91.1422306  60.5673440  39.0039237  92.4164166
  60.6314767  39.8654068  92.0041563  60.5040560  38.3913239  91.6836524
  60.0425713  41.0762369  96.0637200  60.6697752  40.6939447  96.6774724
  59.1853632  40.8576571  96.4292893  70.4419821  51.4825345  97.6690936
  70.9859725  52.0955303  97.1745890  69.8606666  52.0404923  98.1857949
  56.8191255  42.8838799  81.9955555  57.1144697  41.9749477  81.9422609
  55.9179291  42.8626538  81.6736557  68.7277334  54.6046063  88.8005963
  68.6028474  53.8035803  88.2916909  69.3856425  55.0992256  88.3119933
  60.3485502  40.9594795  87.9783103  59.6272088  41.5730763  87.8390577
  61.1378758  41.4952560  87.8999749  70.7912243  52.4055083  90.4285513
  69.8442578  52.2860434  90.3563840  71.1395016  51.5177581  90.5111775
  63.1511816  38.2949222  94.2523755  63.6746218  38.5411518  95.0150065
  62.9324149  39.1269256  93.8326893  58.5479097  40.5652896  82.1194880
  58.2191803  39.6850275  81.9369986  58.9018468  40.5100565  83.0071269
  67.7958676  52.2007799  86.6289866  67.6483638  51.2724506  86.8097436
  68.6212169  52.2227890  86.1446941  61.6620920  40.8525866  82.4870358
  62.0016993  41.3811787  81.7648966  62.1093041  41.1906272  83.2628924
  71.3992798  53.0236358  87.7154738  72.3239345  52.8179219  87.5779189
  71.2308101  52.7752759  88.6244080  64.3564361  39.2362917  91.9373426
  64.0161181  38.4370730  92.3394106  63.6503367  39.5364628  91.3650259
  65.0080833  36.3212229  90.3900749  65.8306902  35.8472707  90.2679639
  65.2518896  37.1002713  90.8899435  63.6489067  39.3500488  80.6863650
  64.3697430  39.7281740  80.1827367  63.0254371  40.0689364  80.7898628
  67.7920190  40.0545637  81.6221983  68.0083805  40.9370274  81.3210811
  67.3114257  39.6631850  80.8927625  62.5319412  43.0131350  88.1992727
  62.3863992  43.3271653  89.0917009  62.0544615  43.6316250  87.6463626
  64.3915794  40.0033898  88.2473617  64.3777363  39.1074991  87.9105915
  65.1088223  40.0104562  88.8811903  66.2441925  40.4371238  90.2926744
  65.9859703  41.3588309  90.2911075  65.7126966  40.0401673  90.9827209
  57.0065074  45.5536694  91.1380389  56.4618542  46.3296502  91.2700663
  57.8844424  45.9007499  90.9799510  63.7952690  38.8848278  83.5161187
  63.9168602  37.9564924  83.7152075  63.5054733  38.8986964  82.6039503
  66.6643881  36.5703189  86.6527907  66.6865578  36.6342522  85.6979886
  67.0811940  35.7307697  86.8468413  77.0427505  46.3058448  84.6907129
  77.4858651  45.5565773  84.2926253  76.1654015  46.2968584  84.3080861
  72.1763286  52.8588790  80.1713728  72.8714191  53.4795482  80.3901043
  72.5186437  52.0084141  80.4466106  57.7931096  44.6806590  94.0310545
  57.0512832  44.8289226  94.6175176  57.4723840  44.9414856  93.1677295
  74.0754710  50.3088495  81.7001059  74.6006034  50.6475768  80.9750379
  73.9877062  49.3735510  81.5164193  65.7374758  54.2222569  93.8290935
  66.0461885  53.9771715  94.7013635  66.5350240  54.4269207  93.3409806
  65.7595370  56.3760478  86.0596312  65.3200361  55.8836857  86.7529169
  66.5103487  55.8333446  85.8188387  58.2387709  52.5672019  86.0620940
  59.0645729  52.2675791  85.6819584  57.8881761  51.7979642  86.5110729
  63.2069242  51.9198487  88.1318614  62.5849252  51.2569192  87.8320842
  63.8774109  51.9459619  87.4492261  56.4396314  50.4858346  87.0209874
  55.6028223  50.0580520  86.8393875  56.4119960  50.6790789  87.9580665
  63.2793770  40.3980275  97.7251120  63.3281925  41.2742398  97.3428889
  63.8216284  39.8557669  97.1522763  73.7648616  50.9421399  97.0052257
  72.9744159  50.9245538  96.4656756  73.5281970  51.4809692  97.7601293
  73.8846491  47.7913865  94.3184985  73.9344496  47.6263873  95.2600508
  73.7760414  46.9241124  93.9282866  62.7682749  50.4702411  81.6077074
  62.9170870  51.1537875  80.9543747  63.5749193  50.4507501  82.1226530
  71.1750253  43.7744793  95.6344292  72.0760116  43.6351258  95.3428290
  71.2498228  43.9399248  96.5742469  65.5093058  41.1511648  94.4797478
  64.6396368  41.4445214  94.2080067  65.7452539  41.7352093  95.2004742
  75.3864688  50.2110807  94.5627007  75.0949496  50.5740787  95.3990468
  74.7736819  49.4977815  94.3840339  76.5860370  47.7763686  87.0829577
  77.4207261  48.2153490  87.2467137  76.7219499  47.3002340  86.2637823
  73.6351876  45.3343421  93.0307065  74.1105997  45.5271068  92.2225916
  72.7117441  45.3902607  92.7850448  60.5235382  46.4967588  82.6138143
  60.2781424  45.5929918  82.8118353  60.6931297  46.4984739  81.6717621
  68.2132092  37.3691265  91.9962899  68.7314036  38.1052292  91.6709387
  67.8587225  37.6755258  92.8309658  59.7931030  42.2295946  80.1124305
  59.1000275  42.3040301  79.4564341  59.5482782  41.4656290  80.6345821
  68.4644686  33.7891547  87.5163795  68.7446440  33.1214736  88.1424222
  69.2495293  33.9820643  87.0038459  66.2678155  52.9650541  79.0788822
  65.6952122  53.5840728  78.6259293  66.8410949  53.5149903  79.6128744
  72.3353545  42.2109181  91.2635370  73.2870968  42.3107279  91.2847594
  72.1656995  41.4187450  91.7733455  70.3567924  39.2964765  91.4494771
  69.7617856  39.5769777  90.7541260  70.0717621  39.7858665  92.2211512
  69.4875415  53.2487691  80.2097404  70.4206088  53.1833253  80.4130279
  69.3998628  54.0843958  79.7511937  72.1163431  52.5653562  77.1701351
  72.0377063  52.2313425  78.0637109  72.9373098  53.0575330  77.1692824
  66.6524953  44.3011354  76.4204874  67.5984058  44.1717562  76.4893292
  66.2739198  43.5626016  76.8974302  74.9636111  42.2226344  90.4235953
  74.4475160  41.4384801  90.2365882  75.8476060  41.8945061  90.5882473
  72.6246838  35.9667360  86.3831766  72.4271659  35.6582448  87.2675098
  73.2346544  36.6928999  86.5129696  80.6318172  46.4931308  89.5183707
  81.3621561  46.2316596  90.0791410  80.0225118  45.7560030  89.5585775
  78.7133470  44.6339170  90.1158158  77.9866633  44.4995135  89.5074650
  78.2980756  44.9415999  90.9214876  66.5363646  48.3529100  97.8805531
  67.4566655  48.5307699  98.0745578  66.5013229  47.4085145  97.7285230
  64.8367871  42.2261330  76.3559759  63.9299326  41.9294443  76.4322473
  65.1143852  41.9291148  75.4894046  55.7545811  43.5467694  86.8058806
  55.4348595  42.6933002  86.5133180  55.2079239  43.7616272  87.5616773
  59.5325718  46.2630135  90.5228312  59.7511728  47.1947243  90.5416346
  59.9451492  45.9038109  91.3083116  66.4529936  36.7698220  82.5104001
  65.6430665  36.4245305  82.8859247  67.1414353  36.4605764  83.0991612
  68.3820485  35.8476267  84.1328297  68.9351523  36.2671720  84.7918320
  68.6190571  34.9212015  84.1751253  64.4053584  41.8363341  99.9131061
  64.3050311  42.7857697  99.8443152  64.1875126  41.5081579  99.0407131
  63.6066655  39.0848266  76.4971739  64.4685819  39.4103164  76.7567556
  63.7916999  38.2979761  75.9844804  55.6234071  47.1670605  88.7751927
  54.9297542  46.7524558  88.2621882  56.3707062  47.2091142  88.1785346
  71.7599292  37.9576792  83.6406962  71.1797961  38.6161596  83.2585014
  71.4935224  37.1354137  83.2294379  70.2102858  37.3581850  85.8428282
  70.7102636  37.4698384  85.0342601  70.8538466  37.0542903  86.4829090
  64.2684854  45.2660479  98.7296123  63.7851936  46.0660839  98.9360012
  64.3545793  45.2768424  97.7763567  57.5370813  47.0988859  86.6517942
  57.5141502  47.1976546  85.6999825  57.8471450  47.9454010  86.9735108
  60.1958191  49.1565014  90.7664557  61.1501445  49.1248956  90.6994488
  59.9970715  48.6955638  91.5814783  60.7857573  47.7266130  93.3335354
  61.6050462  48.2210209  93.3570192  61.0594381  46.8098098  93.3052922
  70.5424170  40.1176882  82.6963310  69.6550025  40.4026533  82.4783505
  70.9578159  39.9570646  81.8490587  73.8938706  40.1423403  86.4117649
  74.6699096  40.6319856  86.6842266  73.1686840  40.5681458  86.8689519
  58.5508420  54.6984634  87.7834754  58.4162888  53.9385034  87.2172753
  58.1340482  55.4225533  87.3163543  69.6867383  49.8821557  76.7911330
  70.3903233  50.0871560  77.4068985  68.9630032  50.4498319  77.0560413
  70.5165193  45.6331418  82.9113600  70.4600395  46.0899970  82.0721232
  71.0693536  44.8722103  82.7336443  74.3269999  41.4221150  83.7363719
  74.0706934  41.0217786  84.5671927  73.7022867  42.1364944  83.6113859
  78.6382337  44.1617223  86.2435011  78.0781895  44.2310413  87.0166573
  78.0325841  43.9858208  85.5234507  61.7077546  55.5953951  87.9953197
  61.5909930  56.5399383  87.8931887  60.8869992  55.2927512  88.3838996
  71.5954081  50.3204086  78.8409790  72.4299684  49.8885285  78.6587265
  71.4338423  50.1486100  79.7686684  71.2499973  46.8236200  80.2066129
  71.1948777  46.6580471  79.2654573  70.6246028  47.5312233  80.3628319
  56.0392488  42.0604264  94.0327551  56.6851351  41.5503218  94.5214777
  55.8309639  42.7972946  94.6070977  68.5645880  49.1285111  99.5319692
  69.4337040  49.3025764  99.1706327  68.0852631  49.9479528  99.4095421
  64.5596098  36.3244309  79.7851448  64.5474768  37.2686149  79.9419718
  65.4519520  36.1414454  79.4910909  62.7332060  56.2482212  91.2109126
  63.6359307  56.2805823  91.5275621  62.5069430  55.3182663  91.2255461
  64.4885662  55.0013199  87.8719204  63.5381293  55.0015061  87.7583576
  64.7918148  54.2545934  87.3555239  68.3748218  32.9187085  84.0397384
  67.6080613  32.3645572  84.1854067  68.7858923  32.9908954  84.9011536
  60.3789979  39.2071881  98.1302566  61.2421440  38.8508686  98.3405890
  59.8055389  38.8685776  98.8177970  80.2238356  60.8373737  88.9364967
  80.8616766  60.7180485  88.2328307  80.1059199  61.7854581  88.9952919
  77.0328062  60.7901166  88.8726491  76.6946573  60.6742230  87.9847026
  77.9017830  60.3892331  88.8527497  72.8914878  62.6436642  84.8623382
  72.3279743  62.5526579  84.0939670  72.7767273  61.8236546  85.3425875
  70.4379310  64.1387834  87.7007603  71.2300601  63.7978658  87.2853902
  70.6775960  64.2482809  88.6209756  74.2355106  64.7273129  93.7791881
  73.9444972  65.6318760  93.6638547  74.8712090  64.7689657  94.4935950
  75.1611313  62.1049978  90.3693240  75.7574885  61.8806000  89.6550203
  75.2186284  61.3634723  90.9718688  79.7779624  58.5625191  86.0118175
  80.5642713  58.1444614  85.6608592  80.0418328  59.4671283  86.1799823
  79.9489701  63.9998042  80.7106831  79.3135534  64.0732668  81.4227736
  79.6187108  64.5891640  80.0325911  85.1788051  58.5000424  86.9151153
  85.9113223  57.9299641  87.1488983  84.4227407  58.1122025  87.3557659
  76.7964171  60.9227666  84.1114496  76.4322378  60.3958287  84.8227417
  77.6531287  60.5326135  83.9380981  82.7013472  52.2121999  91.3745762
  82.3696796  53.0817410  91.1506977  82.1059085  51.8958283  92.0539792
  76.4369658  55.9517566  79.1075844  76.6044060  56.8197802  79.4746315
  76.2466827  56.1144847  78.1837133  79.1944991  64.4134545  90.7741674
  78.8945714  65.3159583  90.6657482  78.8496051  64.1466728  91.6262827
  72.6457473  60.8648341  86.8078379  71.7207969  60.7324556  87.0156071
  72.8941886  61.6442561  87.3048321  82.5942135  56.9317085  88.4539112
  81.6859012  56.8632493  88.1597873  82.5429731  57.4089030  89.2820937
  70.0066284  60.5081615  87.6422168  70.1358665  60.7616094  88.5561580
  69.3263735  61.1009323  87.3226823  74.1765771  71.1778865  83.7412642
  74.0989801  72.1286690  83.8201123  73.5727415  70.8324737  84.3987568
  76.6683001  58.3506730  96.3974009  75.8916335  58.9100650  96.3876874
  77.3073564  58.8363513  96.9188879  84.4603781  55.1333523  90.2316986
  83.8178162  55.4266056  89.5856780  83.9558710  55.0186443  91.0370182
  82.1143945  58.8796696  80.9202845  83.0261801  59.1124083  80.7450543
  81.6053592  59.4633741  80.3577924  76.7515783  58.2393931  91.9297695
  77.5976978  58.6633344  92.0732344  76.6914420  57.5827555  92.6236258
  80.7213527  63.8622515  88.3116426  80.0922390  64.0268229  87.6092494
  80.3339189  64.2764124  89.0827390  84.6002759  64.7976953  85.6660790
  83.9153797  65.1775854  85.1157824  84.6846609  65.4072279  86.3992738
  79.9015228  55.8998299  93.5878868  79.6576160  56.6540360  93.0513144
  80.1775159  56.2783647  94.4226115  81.8553691  62.4436912  92.2656134
  82.0670586  63.0868672  91.5890515  81.8083439  61.6099228  91.7978064
  79.4579920  55.0554732  89.1692706  78.5964399  55.3535986  89.4609443
  79.4842354  55.2725131  88.2373739  76.2741489  63.5996923  85.5766512
  76.7379835  63.8784626  84.7871134  76.0098287  62.6980367  85.3939602
  73.1665570  63.1468404  88.5146275  73.7366927  63.5755673  87.8763759
  73.7573682  62.8650989  89.2130460  75.2110375  59.7220075  82.3856077
  75.9134419  60.1741119  82.8530003  74.8791004  59.0803894  83.0135970
  73.6590737  58.3131832  96.7607286  73.0289397  58.9948113  96.9942683
  73.5526825  58.2014913  95.8160424  68.9535709  57.9803628  87.6873210
  68.1634763  58.2361156  87.2113321  69.4446957  58.7951966  87.7925251
  82.9699519  65.3208867  90.4378491  83.7916962  64.9189054  90.1561173
  82.9661922  65.2177101  91.3894607  76.7356122  64.8692910  92.5939202
  76.8000555  65.3313318  93.4297373  76.0267046  64.2390275  92.7221511
  67.2373412  58.2334118  90.1188201  67.4881451  59.1181128  90.3845777
  67.7732961  58.0538720  89.3463293  91.0605512  61.6647616  86.7863463
  90.3069220  61.0955014  86.6307467  91.1953053  61.6310280  87.7334097
  72.9371479  52.6152598  99.1232537  72.5438425  52.0618796  99.7980181
  73.7537620  52.9263176  99.5139055  71.7128422  67.1702212  85.1168860
  71.8895050  68.0920177  84.9289844  72.5085255  66.8560631  85.5463240
  75.8539440  54.0310477  96.7152794  76.5949154  54.6317630  96.6357256
  76.0857363  53.2888115  96.1570836  70.9980779  59.2166844  94.9931023
  70.8834294  58.3152101  95.2938122  70.1425296  59.4630541  94.6415840
  78.0772616  67.1584584  96.5918524  77.6336470  66.3720963  96.2739428
  78.7389830  67.3463735  95.9262415  72.8359737  68.6880386  91.1179202
  73.3867163  68.5597449  90.3456196  71.9971213  68.9875275  90.7674095
  80.1753854  67.4387384  94.6199925  80.1572330  68.2596265  94.1280194
  81.0973774  67.3141460  94.8450066  76.6326908  64.9531514  95.4623434
  77.1655245  64.1919802  95.2322742  76.1040990  64.6605166  96.2047588
  79.7996603  50.0591580  90.9917075  79.4560873  50.9493221  90.9156186
  80.1675566  49.8693237  90.1286660  67.8682454  62.3825110  83.8105678
  68.7057676  62.7922119  83.5939385  68.0460722  61.4424552  83.7805871
  79.7646886  60.0500191  79.4989510  79.2493510  60.8204795  79.7377898
  79.4924195  59.3765327  80.1222572  77.3493997  54.8949892  84.5574749
  76.4935594  54.5056742  84.3780388  77.7620949  54.9741852  83.6974534
  78.8793144  52.4296235  88.9566309  78.3757939  52.3926370  88.1434114
  79.1723751  53.3388978  89.0162965  75.1236030  52.5134965  87.9632490
  75.9889026  52.3177773  87.6038380  75.1913539  52.2845316  88.8901847
  84.7381160  62.8032546  81.4342684  83.9610603  62.4643705  80.9897846
  85.4172641  62.8085169  80.7597649  79.5533189  57.9227283  81.3249292
  79.2483325  58.2373432  82.1759435  80.5063631  58.0008703  81.3676625
  77.9979621  64.0817506  82.9742246  77.4700983  63.3470266  82.6615483
  77.4967124  64.8592183  82.7282214  82.9772467  62.2766527  88.0909292
  82.3196142  62.9665788  88.1789421  83.7812866  62.6662959  88.4343278
  81.7877926  60.6310899  86.1413234  82.3009808  61.2640891  86.6434943
  82.4379150  60.0312095  85.7756594  75.0321016  51.6178421  84.0623927
  74.3785429  51.3027439  83.4380541  74.9901491  50.9954162  84.7883750
  79.0500300  70.6095224  78.8973905  78.3761999  70.9126920  79.5058863
  79.4366122  71.4124304  78.5479362  78.2658757  58.1060355  88.3871574
  77.3481318  58.3275302  88.2293262  78.6818900  58.1806665  87.5283282
  79.0493805  59.5051771  83.5174254  79.7965624  60.0173168  83.2081377
  79.3185394  59.1835823  84.3778648  77.3220455  62.0010311  80.5001209
  76.4131674  61.7169344  80.5973679  77.3515539  62.4209390  79.6404516
  82.5539722  65.6116901  84.2692376  82.1002049  64.7707811  84.3257567
  81.9233689  66.2478299  84.6067156  81.4972642  56.5408887  85.4993044
  80.7595399  56.0286273  85.8303286  81.7499415  56.1009269  84.6876321
  80.9972661  67.4493398  85.2042194  81.2895636  68.0098455  84.4854560
  81.5071282  67.7421959  85.9595354  81.5984269  49.3185139  86.0934813
  81.9043146  48.4582502  85.8060728  82.3236874  49.9102759  85.8933807
  67.8908625  59.7215826  84.4816411  67.6933025  59.1285186  83.7567478
  67.3355289  59.4168036  85.1992350  75.8705349  59.6138932  86.6011004
  75.9253959  58.6612768  86.5253481  75.0596551  59.7698371  87.0852303
  75.9606287  68.2273749  86.2935648  75.9182465  68.4534595  85.3644180
  76.8768985  67.9937123  86.4421449  79.4071920  58.6957816  93.1916277
  79.7621308  58.9229289  94.0510743  80.0544052  59.0276193  92.5693532
  85.1369657  61.8176252  83.8965606  84.9987556  62.0077848  82.9686795
  84.7805876  62.5795635  84.3533657  73.3011784  55.8034347  89.9762618
  73.9411163  55.6623106  89.2785581  72.4689314  55.5168861  89.6001220
  85.1639037  63.8852779  88.9076877  85.5975544  63.7928068  89.7559931
  85.8770618  63.8610280  88.2696893  74.0772087  65.1036778  86.0897610
  74.8712686  64.6087098  85.8880185  73.3663780  64.5754641  85.7265316
  78.8966932  67.4854873  90.4409978  78.9503954  68.0545810  91.2087694
  78.0281713  67.6556758  90.0764015  71.7765325  57.1872429  91.9234429
  72.4488379  56.9789792  91.2747078  70.9495112  56.9894515  91.4839662
  86.0254587  63.9276480  91.4409763  86.2190477  64.8322290  91.6869038
  85.9255205  63.4683899  92.2748348  77.6790897  53.8134370  93.9400090
  77.0318812  54.5124320  93.8464567  78.4491913  54.2470514  94.3076338
  81.0869695  64.0783223  97.0150643  80.9355202  63.8493774  96.0980727
  81.0774375  65.0353824  97.0281988  77.8555032  61.6515135  91.9996910
  78.7847092  61.8026295  91.8265877  77.4346062  61.7399156  91.1445556
  76.6543363  65.6765800  89.7695447  76.5154449  65.3084584  90.6421386
  75.8657960  66.1913439  89.5979405  77.2491515  70.7774896  81.1120984
  77.4243271  70.3062939  81.9266607  76.5624303  71.4040662  81.3402245
  78.2048579  65.0547402  87.1584285  77.8698411  65.0148172  88.0541935
  77.7052524  64.3892118  86.6854696  72.1792823  60.4615032  92.6836866
  72.0412620  59.7295271  93.2848405  73.0897746  60.3723933  92.4021054
  81.1407770  62.4003437  77.4321345  80.5236941  61.6750265  77.3354398
  80.6724259  63.1612797  77.0888419  74.8075123  60.1734992  92.1720546
  75.5174742  59.5328184  92.1307165  74.7644431  60.4247887  93.0946727
  82.7961902  67.1102345  95.0927125  82.7374448  66.4261565  94.4257708
  83.1981420  67.8521335  94.6407751  73.5204057  57.1600210  93.9916186
  72.9841414  56.7090948  94.6437782  72.9320766  57.2946118  93.2486650
  82.7979309  65.0741929  93.3241105  81.9106088  64.7367851  93.4467504
  83.3677860  64.3424960  93.5609870  64.4508456  61.4066021  86.6484156
  65.1379496  61.0927751  86.0605172  64.2956585  62.3107385  86.3751408
  69.2543178  56.2956217  91.0769180  69.1701367  55.6881887  90.3419590
  68.4325885  56.7865236  91.0778676  76.3280463  69.7343381  90.2902348
  76.2550634  70.5398353  90.8021653  75.8857856  69.9335347  89.4650370
  79.4266892  54.7809781  86.4439375  79.9235592  54.0279743  86.1240445
  78.6553874  54.8174098  85.8782584  78.7879146  69.6330215  92.4460507
  79.5007118  70.2677680  92.3736408  78.2969175  69.7294081  91.6300509
  80.5096673  63.5381468  84.0177798  79.5752952  63.6582931  83.8482503
  80.6873341  62.6353935  83.7537808  76.0101861  56.9227164  86.1711060
  75.6399649  56.3698204  86.8591965  76.5060953  56.3185297  85.6186060
  83.8969224  59.3798787  84.5527833  84.3629677  60.2126779  84.4788135
  84.3476725  58.9143769  85.2573091  73.8391060  67.3824659  93.2666078
  74.5400519  68.0161142  93.4195472  73.3686175  67.7239390  92.5061717
  81.9645455  65.7242609  81.5513985  82.2405299  65.6099203  82.4607859
  81.0949954  65.3260093  81.5126158  81.8685887  51.7479374  88.5918734
  80.9548967  51.9783601  88.7600941  82.2978989  51.8317818  89.4432766
  81.6392346  59.9369266  91.0918628  80.9863796  60.1845174  90.4371081
  82.0172725  59.1233404  90.7581105  78.5999519  69.9728959  85.1946798
  78.7821914  69.1550615  85.6574551  79.4232505  70.1896652  84.7571688
  78.9341685  68.8997145  82.4561847  79.4629451  68.3889599  81.8432009
  79.1969905  68.5839675  83.3207380  77.6879919  60.6789077  97.5784665
  77.0120556  60.5783207  98.2487040  78.5107552  60.5228291  98.0420662
  69.4358778  66.9161014  90.1997180  70.0212214  66.1704702  90.3325085
  69.2383616  67.2264971  91.0833844  72.2897433  69.9512261  85.2159623
  71.6207808  70.4358389  84.7323663  72.1510303  70.1981482  86.1303001
  64.0276432  59.4866614  88.9201623  64.0660532  58.9530205  89.7138742
  63.5216725  58.9601820  88.3012601  76.4302701  71.9856005  91.8142281
  76.9821009  72.1487626  92.5791366  76.7708895  72.5760443  91.1422306
  71.4067195  54.3331155  92.4164166  71.4708521  55.1945986  92.0041563
  71.3434315  53.7205156  91.6836524  70.8819467  56.4054287  96.0637200
  71.5091506  56.0231364  96.6774724  70.0247386  56.1868489  96.4292893
  81.2813576  66.8117262  97.6690936  81.8253480  67.4247221  97.1745890
  80.7000421  67.3696841  98.1857949  79.5671089  69.9337980  88.8005963
  79.4422228  69.1327720  88.2916909  80.2250180  70.4284174  88.3119933
  71.1879257  56.2886713  87.9783103  70.4665843  56.9022681  87.8390577
  71.9772513  56.8244478  87.8999749  81.6305997  67.7347000  90.4285513
  80.6836333  67.6152352  90.3563840  81.9788770  66.8469498  90.5111775
  73.9905570  53.6241139  94.2523755  74.5139972  53.8703436  95.0150065
  73.7717904  54.4561174  93.8326893  78.6352430  67.5299717  86.6289866
  78.4877393  66.6016424  86.8097436  79.4605924  67.5519807  86.1446941
  82.2386552  68.3528275  87.7154738  83.1633100  68.1471137  87.5779189
  82.0701856  68.1044677  88.6244080  75.1958116  54.5654834  91.9373426
  74.8554936  53.7662648  92.3394106  74.4897122  54.8656545  91.3650259
  75.8474587  51.6504147  90.3900749  76.6700657  51.1764625  90.2679639
  76.0912651  52.4294631  90.8899435  78.6313945  55.3837554  81.6221983
  78.8477559  56.2662192  81.3210811  78.1508012  54.9923768  80.8927625
  73.3713166  58.3423268  88.1992727  73.2257747  58.6563571  89.0917009
  72.8938370  58.9608168  87.6463626  75.2309549  55.3325815  88.2473617
  75.2171118  54.4366909  87.9105915  75.9481977  55.3396479  88.8811903
  77.0835680  55.7663156  90.2926744  76.8253458  56.6880226  90.2911075
  76.5520720  55.3693590  90.9827209  82.0281868  68.8713943  83.0716830
  82.2018746  68.3060365  82.3190682  82.5210760  69.6714838  82.8896320
  67.8458828  60.8828612  91.1380389  67.3012296  61.6588420  91.2700663
  68.7238178  61.2299416  90.9799510  74.6346445  54.2140196  83.5161187
  74.7562356  53.2856842  83.7152075  74.3448487  54.2278882  82.6039503
  77.5037635  51.8995106  86.6527907  77.5259332  51.9634439  85.6979886
  77.9205694  51.0599615  86.8468413  87.8821260  61.6350366  84.6907129
  88.3252406  60.8857691  84.2926253  87.0047770  61.6260502  84.3080861
  83.0157041  68.1880707  80.1713728  83.7107946  68.8087400  80.3901043
  83.3580191  67.3376058  80.4466106  68.6324850  60.0098508  94.0310545
  67.8906586  60.1581144  94.6175176  68.3117594  60.2706774  93.1677295
  84.9148464  65.6380413  81.7001059  85.4399788  65.9767686  80.9750379
  84.8270817  64.7027428  81.5164193  76.5768513  69.5514486  93.8290935
  76.8855639  69.3063633  94.7013635  77.3743995  69.7561125  93.3409806
  76.5989125  71.7052396  86.0596312  76.1594115  71.2128775  86.7529169
  77.3497242  71.1625364  85.8188387  69.0781464  67.8963937  86.0620940
  69.9039484  67.5967709  85.6819584  68.7275516  67.1271559  86.5110729
  74.0462997  67.2490405  88.1318614  73.4243006  66.5861110  87.8320842
  74.7167864  67.2751537  87.4492261  67.2790069  65.8150263  87.0209874
  66.4421977  65.3872438  86.8393875  67.2513714  66.0082707  87.9580665
  74.1187524  55.7272193  97.7251120  74.1675680  56.6034316  97.3428889
  74.6610039  55.1849586  97.1522763  84.6042370  66.2713316  97.0052257
  83.8137914  66.2537455  96.4656756  84.3675725  66.8101610  97.7601293
  84.7240245  63.1205783  94.3184985  84.7738250  62.9555790  95.2600508
  84.6154169  62.2533042  93.9282866  82.0144008  59.1036711  95.6344292
  82.9153870  58.9643176  95.3428290  82.0891982  59.2691166  96.5742469
  76.3486813  56.4803566  94.4797478  75.4790122  56.7737132  94.2080067
  76.5846293  57.0644011  95.2004742  86.2258442  65.5402724  94.5627007
  85.9343250  65.9032705  95.3990468  85.6130573  64.8269733  94.3840339
  87.4254124  63.1055604  87.0829577  88.2601016  63.5445408  87.2467137
  87.5613253  62.6294257  86.2637823  79.0525847  52.6983182  91.9962899
  79.5707791  53.4344209  91.6709387  78.6980980  53.0047176  92.8309658
  79.3038441  49.1183465  87.5163795  79.5840195  48.4506654  88.1424222
  80.0889048  49.3112561  87.0038459  83.1747299  57.5401099  91.2635370
  84.1264722  57.6399197  91.2847594  83.0050750  56.7479368  91.7733455
  81.1961679  54.6256682  91.4494771  80.6011611  54.9061695  90.7541260
  80.9111375  55.1150583  92.2211512  80.3269169  68.5779609  80.2097404
  81.2599842  68.5125171  80.4130279  80.2392382  69.4135876  79.7511937
  82.9557186  67.8945479  77.1701351  82.8770817  67.5605343  78.0637109
  83.7766853  68.3867247  77.1692824  77.4918708  59.6303272  76.4204874
  78.4377813  59.5009480  76.4893292  77.1132953  58.8917934  76.8974302
  85.8029866  57.5518262  90.4235953  85.2868914  56.7676719  90.2365882
  86.6869814  57.2236979  90.5882473  83.4640592  51.2959278  86.3831766
  83.2665414  50.9874366  87.2675098  84.0740298  52.0220917  86.5129696
  91.4711927  61.8223226  89.5183707  92.2015315  61.5608514  90.0791410
  90.8618872  61.0851947  89.5585775  89.5527224  59.9631088  90.1158158
  88.8260388  59.8287053  89.5074650  89.1374511  60.2707917  90.9214876
  77.3757400  63.6821018  97.8805531  78.2960410  63.8599617  98.0745578
  77.3406983  62.7377063  97.7285230  66.5939565  58.8759611  86.8058806
  66.2742350  58.0224920  86.5133180  66.0472994  59.0908190  87.5616773
  70.3719473  61.5922052  90.5228312  70.5905483  62.5239160  90.5416346
  70.7845247  61.2330027  91.3083116  77.2923691  52.0990138  82.5104001
  76.4824419  51.7537223  82.8859247  77.9808108  51.7897681  83.0991612
  79.2214239  51.1768185  84.1328297  79.7745278  51.5963638  84.7918320
  79.4584325  50.2503933  84.1751253  75.2447338  57.1655258  99.9131061
  75.1444065  58.1149615  99.8443152  75.0268880  56.8373497  99.0407131
  74.4460410  54.4140183  76.4971739  75.3079574  54.7395082  76.7567556
  74.6310754  53.6271679  75.9844804  66.4627825  62.4962523  88.7751927
  65.7691297  62.0816476  88.2621882  67.2100816  62.5383059  88.1785346
  82.5993046  53.2868710  83.6406962  82.0191715  53.9453514  83.2585014
  82.3328979  52.4646054  83.2294379  81.0496613  52.6873767  85.8428282
  81.5496391  52.7990302  85.0342601  81.6932220  52.3834820  86.4829090
  75.1078608  60.5952397  98.7296123  74.6245690  61.3952757  98.9360012
  75.1939547  60.6060342  97.7763567  68.3764568  62.4280777  86.6517942
  68.3535256  62.5268464  85.6999825  68.6865204  63.2745928  86.9735108
  71.0351946  64.4856932  90.7664557  71.9895199  64.4540874  90.6994488
  70.8364469  64.0247555  91.5814783  71.6251328  63.0558048  93.3335354
  72.4444217  63.5502126  93.3570192  71.8988136  62.1390016  93.3052922
  81.3817924  55.4468800  82.6963310  80.4943779  55.7318451  82.4783505
  81.7971913  55.2862563  81.8490587  84.7332460  55.4715321  86.4117649
  85.5092850  55.9611774  86.6842266  84.0080594  55.8973375  86.8689519
  87.1705019  56.1842940  87.4691590  87.7649510  55.9438676  86.7584898
  87.2431603  55.4650071  88.0965126  69.3902175  70.0276551  87.7834754
  69.2556643  69.2676952  87.2172753  68.9734237  70.7517451  87.3163543
  80.5261138  65.2113475  76.7911330  81.2296988  65.4163477  77.4068985
  79.8023786  65.7790237  77.0560413  81.3558948  60.9623336  82.9113600
  81.2994149  61.4191887  82.0721232  81.9087290  60.2014021  82.7336443
  85.1663754  56.7513068  83.7363719  84.9100688  56.3509704  84.5671927
  84.5416622  57.4656862  83.6113859  89.4776092  59.4909141  86.2435011
  88.9175650  59.5602330  87.0166573  88.8719595  59.3150126  85.5234507
  72.5471301  70.9245868  87.9953197  72.4303685  71.8691301  87.8931887
  71.7263747  70.6219430  88.3838996  82.4347835  65.6496004  78.8409790
  83.2693439  65.2177202  78.6587265  82.2732178  65.4778018  79.7686684
  82.0893727  62.1528117  80.2066129  82.0342531  61.9872389  79.2654573
  81.4639783  62.8604150  80.3628319  66.8786242  57.3896182  94.0327551
  67.5245106  56.8795136  94.5214777  66.6703393  58.1264863  94.6070977
  79.4039634  64.4577029  99.5319692  80.2730794  64.6317681  99.1706327
  78.9246386  65.2771446  99.4095421  75.3989853  51.6536226  79.7851448
  75.3868523  52.5978066  79.9419718  76.2913275  51.4706372  79.4910909
  73.5725815  71.5774130  91.2109126  74.4753061  71.6097740  91.5275621
  73.3463185  70.6474581  91.2255461  75.3279417  70.3305117  87.8719204
  74.3775048  70.3306978  87.7583576  75.6311903  69.5837851  87.3555239
  79.2141972  48.2479003  84.0397384  78.4474368  47.6937490  84.1854067
  79.6252677  48.3200872  84.9011536  71.2183733  54.5363799  98.1302566
  72.0815195  54.1800604  98.3405890  70.6449144  54.1977694  98.8177970
  91.0632110  76.1665655  88.9364967  91.7010520  76.0472402  88.2328307
  90.9452953  77.1146499  88.9952919  87.8721816  76.1193083  88.8726491
  87.5340328  76.0034148  87.9847026  88.7411585  75.7184248  88.8527497
  83.7308632  77.9728560  84.8623382  83.1673497  77.8818497  84.0939670
  83.6161027  77.1528464  85.3425875  88.3541599  77.2727935  94.8312697
  88.3430240  76.8780733  93.9593200  88.5162239  76.5394008  95.4246468
  81.2773064  79.4679751  87.7007603  82.0694356  79.1270576  87.2853902
  81.5169714  79.5774726  88.6209756  89.3108191  81.6399527  80.1737847
  88.6596171  82.2253608  79.7871861  90.1052554  82.1705722  80.2332885
  83.2363818  78.7288664  80.5724981  84.0094694  78.1817652  80.4337857
  83.5889217  79.5932914  80.7839443  85.0748861  80.0565047  93.7791881
  84.7838727  80.9610678  93.6638547  85.7105845  80.0981574  94.4935950
  86.0005067  77.4341895  90.3693240  86.5968640  77.2097918  89.6550203
  86.0580039  76.6926641  90.9718688  85.5730096  74.8881331  78.2043431
  85.8255616  74.3662852  77.4426894  84.6354655  74.7247476  78.3070115
  90.6173379  73.8917109  86.0118175  91.4036468  73.4736532  85.6608592
  90.8812083  74.7963201  86.1799823  90.7883456  79.3289959  80.7106831
  90.1529289  79.4024586  81.4227736  90.4580862  79.9183558  80.0325911
  96.0181806  73.8292342  86.9151153  96.7506978  73.2591559  87.1488983
  95.2621161  73.4413943  87.3557659  85.2926385  76.7909437  80.4067806
  85.1762643  76.1154340  81.0748891  85.4028644  76.3041810  79.5899959
  87.6357925  76.2519584  84.1114496  87.2716133  75.7250205  84.8227417
  88.4925041  75.8618053  83.9380981  93.5407226  67.5413916  91.3745762
  93.2090551  68.4109327  91.1506977  92.9452839  67.2250200  92.0539792
  87.2763412  71.2809483  79.1075844  87.4437815  72.1489720  79.4746315
  87.0860582  71.4436765  78.1837133  90.0338746  79.7426462  90.7741674
  89.7339469  80.6451501  90.6657482  89.6889805  79.4758645  91.6262827
  83.4851227  76.1940259  86.8078379  82.5601724  76.0616473  87.0156071
  83.7335640  76.9734478  87.3048321  93.4335889  72.2609002  88.4539112
  92.5252767  72.1924411  88.1597873  93.3823485  72.7380947  89.2820937
  87.2552633  73.7367141  80.0922511  87.1352259  74.1824192  80.9307991
  86.5605222  74.0852459  79.5336049  80.8460038  75.8373533  87.6422168
  80.9752419  76.0908012  88.5561580  80.1657489  76.4301241  87.3226823
  85.0159525  86.5070783  83.7412642  84.9383555  87.4578608  83.8201123
  84.4121169  86.1616655  84.3987568  87.5076755  73.6798648  96.3974009
  86.7310089  74.2392568  96.3876874  88.1467318  74.1655431  96.9188879
  95.2997536  70.4625441  90.2316986  94.6571916  70.7557974  89.5856780
  94.7952464  70.3478361  91.0370182  92.9537699  74.2088614  80.9202845
  93.8655556  74.4416001  80.7450543  92.4447347  74.7925658  80.3577924
  85.7623128  76.4884101  95.9591976  86.5037812  77.0269145  95.6826800
  85.0560113  77.1150390  96.1163528  91.2378467  78.6313242  94.5564138
  91.6461823  78.1895652  93.8118770  90.5155729  78.0565869  94.8098330
  87.5909537  73.5685849  91.9297695  88.4370732  73.9925262  92.0732344
  87.5308175  72.9119473  92.6236258  91.5607282  79.1914432  88.3116426
  90.9316144  79.3560147  87.6092494  91.1732944  79.6056042  89.0827390
  95.4396514  80.1268870  85.6660790  94.7547552  80.5067772  85.1157824
  95.5240363  80.7364197  86.3992738  90.7408983  71.2290217  93.5878868
  90.4969914  71.9832278  93.0513144  91.0168913  71.6075565  94.4226115
  92.6947445  77.7728829  92.2656134  92.9064341  78.4160589  91.5890515
  92.6477194  76.9391146  91.7978064  90.2973674  70.3846650  89.1692706
  89.4358153  70.6827904  89.4609443  90.3236109  70.6017049  88.2373739
  87.1135244  78.9288841  85.5766512  87.5773589  79.2076544  84.7871134
  86.8492042  78.0272285  85.3939602  84.0059325  78.4760322  88.5146275
  84.5760682  78.9047590  87.8763759  84.5967437  78.1942907  89.2130460
  86.0504130  75.0511993  82.3856077  86.7528173  75.5033037  82.8530003
  85.7184758  74.4095812  83.0135970  84.4984491  73.6423750  96.7607286
  83.8683152  74.3240030  96.9942683  84.3920579  73.5306831  95.8160424
  79.7929464  73.3095546  87.6873210  79.0028518  73.5653074  87.2113321
  80.2840711  74.1243883  87.7925251  93.8093273  80.6500785  90.4378491
  94.6310717  80.2480972  90.1561173  93.8055676  80.5469019  91.3894607
  81.7444209  73.6740125  84.6456687  80.9475372  73.7858819  85.1640183
  81.5169801  74.0126777  83.7797577  87.5749877  80.1984828  92.5939202
  87.6394309  80.6605235  93.4297373  86.8660801  79.5682193  92.7221511
  78.0767167  73.5626036  90.1188201  78.3275205  74.4473046  90.3845777
  78.6126715  73.3830638  89.3463293 101.8999266  76.9939533  86.7863463
 101.1462975  76.4246931  86.6307467 102.0346808  76.9602198  87.7334097
  87.2897894  81.8652936  82.4618182  87.1543569  82.7104471  82.8903030
  87.8307707  82.0672213  81.6984116  83.7765234  67.9444515  99.1232537
  83.3832180  67.3910714  99.7980181  84.5931374  68.2555094  99.5139055
  80.7427292  79.3828374  83.0346107  81.2551812  80.1771624  83.1851672
  81.3950005  78.6854664  82.9679708  82.5522176  82.4994130  85.1168860
  82.7288805  83.4212095  84.9289844  83.3479010  82.1852549  85.5463240
  86.6933195  69.3602394  96.7152794  87.4342908  69.9609548  96.6357256
  86.9251118  68.6180032  96.1570836  81.8374533  74.5458762  94.9931023
  81.7228048  73.6444019  95.2938122  80.9819051  74.7922459  94.6415840
  88.9166371  82.4876502  96.5918524  88.4730225  81.7012881  96.2739428
  89.5783584  82.6755653  95.9262415  83.6753492  84.0172304  91.1179202
  84.2260917  83.8889367  90.3456196  82.8364968  84.3167193  90.7674095
  91.0147609  82.7679302  94.6199925  90.9966084  83.5888183  94.1280194
  91.9367529  82.6433377  94.8450066  87.4720663  80.2823431  95.4623434
  88.0049000  79.5211720  95.2322742  86.9434744  79.9897083  96.2047588
  90.6390358  65.3883497  90.9917075  90.2954627  66.2785139  90.9156186
  91.0069321  65.1985155  90.1286660  78.7076209  77.7117028  83.8105678
  79.5451431  78.1214036  83.5939385  78.8854476  76.7716470  83.7805871
  90.6040641  75.3792109  79.4989510  90.0887264  76.1496713  79.7377898
  90.3317949  74.7057245  80.1222572  88.1887752  70.2241809  84.5574749
  87.3329348  69.8348660  84.3780388  88.6014703  70.3033770  83.6974534
  89.7186898  67.7588153  88.9566309  89.2151694  67.7218288  88.1434114
  90.0117505  68.6680895  89.0162965  85.9629784  67.8426882  87.9632490
  86.8282781  67.6469691  87.6038380  86.0307293  67.6137234  88.8901847
  95.5774915  78.1324463  81.4342684  94.8004358  77.7935623  80.9897846
  96.2566396  78.1377086  80.7597649  90.3926944  73.2519201  81.3249292
  90.0877079  73.5665350  82.1759435  91.3457386  73.3300621  81.3676625
  88.8373376  79.4109424  82.9742246  88.3094737  78.6762184  82.6615483
  88.3360878  80.1884100  82.7282214  93.8166222  77.6058444  88.0909292
  93.1589896  78.2957706  88.1789421  94.6206621  77.9954876  88.4343278
  83.5692103  70.0729090  85.3348857  84.1435855  69.8504272  84.6022050
  84.1563086  70.1417785  86.0877458  92.6271680  75.9602817  86.1413234
  93.1403562  76.5932809  86.6434943  93.2772904  75.3604013  85.7756594
  83.8961690  72.1033551  79.3544742  83.0599003  72.4408238  79.6754017
  83.7566460  71.9682531  78.4171879  85.8714771  66.9470339  84.0623927
  85.2179183  66.6319356  83.4380541  85.8295245  66.3246080  84.7883750
  86.9825976  77.2289634  75.9777219  86.0753038  76.9978888  76.1768368
  87.4797008  76.4327253  76.1651200  89.8894055  85.9387141  78.8973905
  89.2155753  86.2418838  79.5058863  90.2759877  86.7416222  78.5479362
  89.1052511  73.4352273  88.3871574  88.1875073  73.6567220  88.2293262
  89.5212655  73.5098583  87.5283282  89.8887559  74.8343688  83.5174254
  90.6359378  75.3465086  83.2081377  90.1579149  74.5127741  84.3778648
  88.1614209  77.3302229  80.5001209  87.2525429  77.0461262  80.5973679
  88.1909293  77.7501308  79.6404516  93.3933477  80.9408819  84.2692376
  92.9395804  80.0999728  84.3257567  92.7627443  81.5770217  84.6067156
  92.3366396  71.8700805  85.4993044  91.5989153  71.3578191  85.8303286
  92.5893170  71.4301186  84.6876321  91.8366416  82.7785315  85.2042194
  92.1289390  83.3390372  84.4854560  92.3465037  83.0713876  85.9595354
  92.4378024  64.6477057  86.0934813  92.7436900  63.7874420  85.8060728
  93.1630628  65.2394677  85.8933807  78.7302380  75.0507743  84.4816411
  78.5326779  74.4577104  83.7567478  78.1749044  74.7459953  85.1992350
  86.7099103  74.9430850  86.6011004  86.7647713  73.9904686  86.5253481
  85.8990305  75.0990289  87.0852303  87.8590297  78.8710973  77.8389287
  87.4209727  78.1546832  77.3794925  88.6000738  79.0987088  77.2774379
  84.6491463  73.5607909  84.3601383  83.8359329  73.8602080  84.7666575
  85.1450457  73.1663598  85.0775865  86.8000041  83.5565666  86.2935648
  86.7576220  83.7826513  85.3644180  87.7162740  83.3229041  86.4421449
  90.2465675  74.0249734  93.1916277  90.6015063  74.2521207  94.0510743
  90.8937806  74.3568111  92.5693532  95.9763412  77.1468170  83.8965606
  95.8381310  77.3369766  82.9686795  95.6199631  77.9087553  84.3533657
  84.1405538  71.1326265  89.9762618  84.7804917  70.9915024  89.2785581
  83.3083069  70.8460778  89.6001220  96.0032791  79.2144697  88.9076877
  96.4369298  79.1219986  89.7559931  96.7164372  79.1902197  88.2696893
  84.9165842  80.4328695  86.0897610  85.7106440  79.9379016  85.8880185
  84.2057534  79.9046559  85.7265316  89.7360686  82.8146791  90.4409978
  89.7897709  83.3837727  91.2087694  88.8675468  82.9848676  90.0764015
  81.2248605  74.5771777  82.1657363  80.2946193  74.5156233  82.3827325
  81.3206077  74.0547730  81.3694004  81.1434154  71.1026590  84.7535605
  81.4040972  72.0171923  84.6444765  81.9651327  70.6351033  84.9032218
  82.6159080  72.5164347  91.9234429  83.2882133  72.3081709  91.2747078
  81.7888866  72.3186433  91.4839662  96.8648341  79.2568397  91.4409763
  97.0584231  80.1614208  91.6869038  96.7648959  78.7975817  92.2748348
  88.5184652  69.1426288  93.9400090  87.8712567  69.8416238  93.8464567
  89.2885667  69.5762432  94.3076338  91.9263450  79.4075140  97.0150643
  91.7748956  79.1785692  96.0980727  91.9168129  80.3645742  97.0281988
  88.6948786  76.9807053  91.9996910  89.6240846  77.1318213  91.8265877
  88.2739816  77.0691074  91.1445556  87.4937118  81.0057717  89.7695447
  87.3548204  80.6376502  90.6421386  86.7051714  81.5205357  89.5979405
  88.0885270  86.1066814  81.1120984  88.2637026  85.6354857  81.9266607
  87.4018058  86.7332580  81.3402245  89.0442333  80.3839320  87.1584285
  88.7092166  80.3440090  88.0541935  88.5446279  79.7184036  86.6854696
  83.0186577  75.7906950  92.6836866  82.8806375  75.0587189  93.2848405
  83.9291500  75.7015850  92.4021054  91.9801525  77.7295354  77.4321345
  91.3630695  77.0042183  77.3354398  91.5118013  78.4904715  77.0888419
  85.6468878  75.5026909  92.1720546  86.3568496  74.8620102  92.1307165
  85.6038186  75.7539804  93.0946727  93.6355656  82.4394263  95.0927125
  93.5768203  81.7553483  94.4257708  94.0375175  83.1813253  94.6407751
  84.3597812  72.4892127  93.9916186  83.8235169  72.0382866  94.6437782
  83.7714520  72.6238036  93.2486650  82.6546355  89.2556177  87.8860844
  82.8942953  89.8874701  88.5639863  81.8115552  88.9044217  88.1726203
  83.7700071  71.9480779  76.5542649  82.8929537  71.8269579  76.1904896
  84.2457824  71.1566857  76.3021538  93.6373064  80.4033847  93.3241105
  92.7499842  80.0659768  93.4467504  94.2071615  79.6716878  93.5609870
  75.2902211  76.7357938  86.6484156  75.9773251  76.4219668  86.0605172
  75.1350339  77.6399303  86.3751408  80.0936933  71.6248135  91.0769180
  80.0095122  71.0173805  90.3419590  79.2719639  72.1157153  91.0778676
  87.1674217  85.0635299  90.2902348  87.0944388  85.8690271  90.8021653
  86.7251610  85.2627265  89.4650370  86.9563997  84.3007069  83.8005170
  86.1731519  84.8428749  83.8943394  87.6556742  84.8181049  84.1999411
  90.2660647  70.1101699  86.4439375  90.7629346  69.3571661  86.1240445
  89.4947628  70.1466015  85.8782584  98.1190404  75.8142064  88.0857667
  98.1080280  76.6966779  87.7151600  97.2507784  75.4613615  87.8912204
  89.6272901  84.9622133  92.4460507  90.3400873  85.5969598  92.3736408
  89.1362929  85.0585999  91.6300509  91.3490427  78.8673386  84.0177798
  90.4146706  78.9874848  83.8482503  91.5267096  77.9645853  83.7537808
  86.8495616  72.2519082  86.1711060  86.4793403  71.6990122  86.8591965
  87.3454708  71.6477215  85.6186060  94.7362979  74.7090705  84.5527833
  95.2023431  75.5418697  84.4788135  95.1870479  74.2435687  85.2573091
  84.6784814  82.7116577  93.2666078  85.3794274  83.3453059  93.4195472
  84.2079929  83.0531308  92.5061717  92.8039210  81.0534526  81.5513985
  93.0799054  80.9391121  82.4607859  91.9343709  80.6552011  81.5126158
  92.7079642  67.0771292  88.5918734  91.7942721  67.3075519  88.7600941
  93.1372743  67.1609736  89.4432766  92.4786100  75.2661184  91.0918628
  91.8257550  75.5137091  90.4371081  92.8566480  74.4525322  90.7581105
  89.4393274  85.3020877  85.1946798  89.6215668  84.4842533  85.6574551
  90.2626260  85.5188569  84.7571688  89.7735439  84.2289062  82.4561847
  90.3023206  83.7181517  81.8432009  90.0363659  83.9131592  83.3207380
  88.5273673  76.0080995  97.5784665  87.8514310  75.9075124  98.2487040
  89.3501307  75.8520209  98.0420662  80.2752532  82.2452932  90.1997180
  80.8605969  81.4996619  90.3325085  80.0777371  82.5556888  91.0833844
  83.1291187  85.2804179  85.2159623  82.4601563  85.7650307  84.7323663
  82.9904057  85.5273399  86.1303001  74.8670187  74.8158532  88.9201623
  74.9054286  74.2822122  89.7138742  74.3610480  74.2893737  88.3012601
  87.2696456  87.3147922  91.8142281  87.8214764  87.4779544  92.5791366
  87.6102649  87.9052360  91.1422306  82.2460949  69.6623072  92.4164166
  82.3102276  70.5237903  92.0041563  82.1828069  69.0497074  91.6836524
  81.7213222  71.7346205  96.0637200  82.3485261  71.3523282  96.6774724
  80.8641141  71.5160407  96.4292893  92.1207330  82.1409180  97.6690936
  92.6647234  82.7539138  97.1745890  91.5394175  82.6988758  98.1857949
  78.4978764  73.5422634  81.9955555  78.7932206  72.6333312  81.9422609
  77.5966800  73.5210373  81.6736557  90.4064843  85.2629898  88.8005963
  90.2815983  84.4619638  88.2916909  91.0643934  85.7576091  88.3119933
  82.0273011  71.6178631  87.9783103  81.3059597  72.2314598  87.8390577
  82.8166267  72.1536395  87.8999749  92.4699752  83.0638918  90.4285513
  91.5230087  82.9444269  90.3563840  92.8182525  82.1761416  90.5111775
  84.8299325  68.9533057  94.2523755  85.3533727  69.1995354  95.0150065
  84.6111658  69.7853092  93.8326893  80.2266606  71.2236732  82.1194880
  79.8979312  70.3434111  81.9369986  80.5805977  71.1684400  83.0071269
  89.4746185  82.8591634  86.6289866  89.3271147  81.9308342  86.8097436
  90.2999678  82.8811725  86.1446941  83.3408429  71.5109701  82.4870358
  83.6804502  72.0395623  81.7648966  83.7880550  71.8490108  83.2628924
  93.0780307  83.6820193  87.7154738  94.0026854  83.4763054  87.5779189
  92.9095610  83.4336594  88.6244080  86.0351870  69.8946752  91.9373426
  85.6948690  69.0954565  92.3394106  85.3290876  70.1948463  91.3650259
  86.6868342  66.9796065  90.3900749  87.5094411  66.5056543  90.2679639
  86.9306405  67.7586548  90.8899435  85.3276576  70.0084323  80.6863650
  86.0484939  70.3865576  80.1827367  84.7041880  70.7273200  80.7898628
  89.4707699  70.7129472  81.6221983  89.6871314  71.5954110  81.3210811
  88.9901766  70.3215685  80.8927625  84.2106921  73.6715185  88.1992727
  84.0651501  73.9855488  89.0917009  83.7332124  74.2900086  87.6463626
  86.0703303  70.6617733  88.2473617  86.0564872  69.7658826  87.9105915
  86.7875732  70.6688397  88.8811903  87.9229434  71.0955073  90.2926744
  87.6647212  72.0172144  90.2911075  87.3914475  70.6985508  90.9827209
  92.8675623  84.2005860  83.0716830  93.0412500  83.6352283  82.3190682
  93.3604514  85.0006755  82.8896320  78.6852583  76.2120530  91.1380389
  78.1406051  76.9880338  91.2700663  79.5631933  76.5591334  90.9799510
  85.4740199  69.5432113  83.5161187  85.5956111  68.6148760  83.7152075
  85.1842242  69.5570799  82.6039503  88.3431390  67.2287024  86.6527907
  88.3653087  67.2926357  85.6979886  88.7599449  66.3891533  86.8468413
  98.7215014  76.9642283  84.6907129  99.1646160  76.2149609  84.2926253
  97.8441524  76.9552420  84.3080861  93.8550795  83.5172625  80.1713728
  94.5501700  84.1379318  80.3901043  94.1973946  82.6667976  80.4466106
  79.4718605  75.3390426  94.0310545  78.7300341  75.4873061  94.6175176
  79.1511349  75.5998691  93.1677295  95.7542219  80.9672330  81.7001059
  96.2793543  81.3059603  80.9750379  95.6664571  80.0319346  81.5164193
  87.4162267  84.8806404  93.8290935  87.7249394  84.6355551  94.7013635
  88.2137749  85.0853043  93.3409806  87.4382879  87.0344314  86.0596312
  86.9987870  86.5420692  86.7529169  88.1890996  86.4917281  85.8188387
  79.9175218  83.2255855  86.0620940  80.7433238  82.9259626  85.6819584
  79.5669270  82.4563477  86.5110729  84.8856751  82.5782323  88.1318614
  84.2636761  81.9153028  87.8320842  85.5561618  82.6043455  87.4492261
  78.1183823  81.1442181  87.0209874  77.2815732  80.7164355  86.8393875
  78.0907469  81.3374624  87.9580665  84.9581279  71.0564111  97.7251120
  85.0069434  71.9326234  97.3428889  85.5003793  70.5141504  97.1522763
  95.4436125  81.6005234  97.0052257  94.6531668  81.5829373  96.4656756
  95.2069479  82.1393528  97.7601293  95.5634000  78.4497700  94.3184985
  95.6132005  78.2847708  95.2600508  95.4547923  77.5824959  93.9282866
  84.4470258  81.1286246  81.6077074  84.5958379  81.8121711  80.9543747
  85.2536702  81.1091336  82.1226530  92.8537762  74.4328628  95.6344292
  93.7547625  74.2935093  95.3428290  92.9285737  74.5983083  96.5742469
  87.1880567  71.8095483  94.4797478  86.3183877  72.1029049  94.2080067
  87.4240048  72.3935928  95.2004742  97.0652197  80.8694642  94.5627007
  96.7737005  81.2324623  95.3990468  96.4524328  80.1561650  94.3840339
  98.2647879  78.4347522  87.0829577  99.0994770  78.8737326  87.2467137
  98.4007008  77.9586175  86.2637823  95.3139385  75.9927257  93.0307065
  95.7893506  76.1854903  92.2225916  94.3904950  76.0486442  92.7850448
  82.2022891  77.1551424  82.6138143  81.9568933  76.2513754  82.8118353
  82.3718806  77.1568574  81.6717621  89.8919601  68.0275100  91.9962899
  90.4101545  68.7636127  91.6709387  89.5374734  68.3339093  92.8309658
  81.4718539  72.8879781  80.1124305  80.7787784  72.9624136  79.4564341
  81.2270291  72.1240125  80.6345821  90.1432195  64.4475383  87.5163795
  90.4233949  63.7798572  88.1424222  90.9282802  64.6404478  87.0038459
  87.9465664  83.6234377  79.0788822  87.3739631  84.2424564  78.6259293
  88.5198458  84.1733738  79.6128744  94.0141054  72.8693017  91.2635370
  94.9658477  72.9691114  91.2847594  93.8444504  72.0771285  91.7733455
  92.0355433  69.9548600  91.4494771  91.4405365  70.2353613  90.7541260
  91.7505130  70.4442501  92.2211512  91.1662924  83.9071527  80.2097404
  92.0993597  83.8417088  80.4130279  91.0786137  84.7427794  79.7511937
  93.7950940  83.2237397  77.1701351  93.7164572  82.8897261  78.0637109
  94.6160607  83.7159165  77.1692824  96.4929132  76.0899136  90.3777670
  96.4605452  75.1515137  90.5637354  97.1029755  76.1683173  89.6443495
  88.3312462  74.9595189  76.4204874  89.2771567  74.8301397  76.4893292
  87.9526707  74.2209851  76.8974302  96.6423620  72.8810180  90.4235953
  96.1262669  72.0968636  90.2365882  97.5263569  72.5528896  90.5882473
  94.3034347  66.6251195  86.3831766  94.1059168  66.3166284  87.2675098
  94.9134053  67.3512834  86.5129696 102.3105681  77.1515143  89.5183707
 103.0409070  76.8900431  90.0791410 101.7012627  76.4143865  89.5585775
 100.3920979  75.2923006  90.1158158  99.6654142  75.1578971  89.5074650
  99.9768265  75.5999834  90.9214876  88.2151155  79.0112935  97.8805531
  89.1354164  79.1891534  98.0745578  88.1800738  78.0668981  97.7285230
  86.5155380  72.8845166  76.3559759  85.6086835  72.5878278  76.4322473
  86.7931361  72.5874984  75.4894046  77.4333320  74.2051529  86.8058806
  77.1136104  73.3516837  86.5133180  76.8866748  74.4200107  87.5616773
  81.2113227  76.9213970  90.5228312  81.4299237  77.8531078  90.5416346
  81.6239001  76.5621945  91.3083116  88.1317445  67.4282055  82.5104001
  87.3218174  67.0829140  82.8859247  88.8201862  67.1189599  83.0991612
  90.0607994  66.5060102  84.1328297  90.6139032  66.9255556  84.7918320
  90.2978080  65.5795850  84.1751253  86.0841093  72.4947176  99.9131061
  85.9837820  73.4441533  99.8443152  85.8662635  72.1665415  99.0407131
  85.2854164  69.7432101  76.4971739  86.1473328  70.0686999  76.7567556
  85.4704508  68.9563597  75.9844804  77.3021580  77.8254441  88.7751927
  76.6085051  77.4108393  88.2621882  78.0494571  77.8674977  88.1785346
  93.4386801  68.6160627  83.6406962  92.8585470  69.2745431  83.2585014
  93.1722733  67.7937972  83.2294379  91.8890367  68.0165685  85.8428282
  92.3890145  68.1282220  85.0342601  92.5325975  67.7126738  86.4829090
  85.9472363  75.9244315  98.7296123  85.4639445  76.7244675  98.9360012
  86.0333302  75.9352260  97.7763567  79.2158322  77.7572694  86.6517942
  79.1929011  77.8560382  85.6999825  79.5258959  78.6037845  86.9735108
  81.8745700  79.8148849  90.7664557  82.8288954  79.7832792  90.6994488
  81.6758224  79.3539473  91.5814783  82.4645082  78.3849965  93.3335354
  83.2837971  78.8794044  93.3570192  82.7381890  77.4681934  93.3052922
  92.2211679  70.7760718  82.6963310  91.3337534  71.0610368  82.4783505
  92.6365668  70.6154481  81.8490587  95.5726215  70.8007239  86.4117649
  96.3486605  71.2903691  86.6842266  94.8474349  71.2265293  86.8689519
  98.0098773  71.5134858  87.4691590  98.6043264  71.2730594  86.7584898
  98.0825357  70.7941989  88.0965126  80.2295929  85.3568469  87.7834754
  80.0950397  84.5968870  87.2172753  79.8127991  86.0809369  87.3163543
  91.3654892  80.5405392  76.7911330  92.0690742  80.7455395  77.4068985
  90.6417541  81.1082154  77.0560413  92.1952702  76.2915254  82.9113600
  92.1387904  76.7483805  82.0721232  92.7481045  75.5305938  82.7336443
  96.0057508  72.0804986  83.7363719  95.7494443  71.6801621  84.5671927
  95.3810376  72.7948780  83.6113859 100.3169846  74.8201059  86.2435011
  99.7569404  74.8894248  87.0166573  99.7113350  74.6442043  85.5234507
  83.3865055  86.2537786  87.9953197  83.2697439  87.1983218  87.8931887
  82.5657501  85.9511347  88.3838996  93.2741590  80.9787922  78.8409790
  94.1087193  80.5469120  78.6587265  93.1125932  80.8069935  79.7686684
  92.9287482  77.4820035  80.2066129  92.8736286  77.3164306  79.2654573
  92.3033537  78.1896068  80.3628319  77.7179997  72.7188099  94.0327551
  78.3638860  72.2087053  94.5214777  77.5097148  73.4556781  94.6070977
  90.2433389  79.7868947  99.5319692  91.1124549  79.9609599  99.1706327
  89.7640140  80.6063364  99.4095421  86.2383607  66.9828144  79.7851448
  86.2262277  67.9269984  79.9419718  87.1307029  66.7998289  79.4910909
  84.4119569  86.9066048  91.2109126  85.3146816  86.9389658  91.5275621
  84.1856939  85.9766499  91.2255461  86.1673171  85.6597034  87.8719204
  85.2168802  85.6598896  87.7583576  86.4705657  84.9129769  87.3555239
  90.0535727  63.5770921  84.0397384  89.2868122  63.0229407  84.1854067
  90.4646432  63.6492789  84.9011536  82.0577488  69.8655716  98.1302566
  82.9208949  69.5092521  98.3405890  81.4842898  69.5269611  98.8177970
 101.9025865  91.4957573  88.9364967 102.5404275  91.3764320  88.2328307
 101.7846708  92.4438417  88.9952919  98.7115571  91.4485001  88.8726491
  98.3734082  91.3326066  87.9847026  99.5805339  91.0476166  88.8527497
  94.5702387  93.3020477  84.8623382  94.0067252  93.2110414  84.0939670
  94.4554782  92.4820382  85.3425875  99.1935354  92.6019853  94.8312697
  99.1823995  92.2072651  93.9593200  99.3555993  91.8685925  95.4246468
  92.1166819  94.7971669  87.7007603  92.9088110  94.4562494  87.2853902
  92.3563469  94.9066644  88.6209756 100.1501945  96.9691445  80.1737847
  99.4989925  97.5545525  79.7871861 100.9446308  97.4997640  80.2332885
  94.0757572  94.0580582  80.5724981  94.8488448  93.5109569  80.4337857
  94.4282971  94.9224831  80.7839443  95.9142615  95.3856964  93.7791881
  95.6232481  96.2902595  93.6638547  96.5499599  95.4273492  94.4935950
  96.8398822  92.7633813  90.3693240  97.4362394  92.5389835  89.6550203
  96.8973793  92.0218558  90.9718688  96.4123850  90.2173248  78.2043431
  96.6649371  89.6954770  77.4426894  95.4748409  90.0539394  78.3070115
 101.4567133  89.2209027  86.0118175 102.2430222  88.8028450  85.6608592
 101.7205837  90.1255119  86.1799823 101.6277210  94.6581877  80.7106831
 100.9923043  94.7316503  81.4227736 101.2974617  95.2475476  80.0325911
 106.8575560  89.1584260  86.9151153 107.5900732  88.5883477  87.1488983
 106.1014916  88.7705860  87.3557659  96.1320139  92.1201354  80.4067806
  96.0156397  91.4446258  81.0748891  96.2422399  91.6333728  79.5899959
  98.4751680  91.5811501  84.1114496  98.1109887  91.0542122  84.8227417
  99.3318796  91.1909970  83.9380981 104.3800981  82.8705834  91.3745762
 104.0484305  83.7401245  91.1506977 103.7846594  82.5542118  92.0539792
  98.1157167  86.6101401  79.1075844  98.2831569  87.4781637  79.4746315
  97.9254336  86.7728683  78.1837133 100.8732500  95.0718380  90.7741674
 100.5733223  95.9743419  90.6657482 100.5283560  94.8050563  91.6262827
  94.3244982  91.5232177  86.8078379  93.3995478  91.3908391  87.0156071
  94.5729395  92.3026396  87.3048321 104.2729644  87.5900920  88.4539112
 103.3646521  87.5216329  88.1597873 104.2217240  88.0672865  89.2820937
  98.0946388  89.0659059  80.0922511  97.9746013  89.5116109  80.9307991
  97.3998976  89.4144376  79.5336049  91.6853793  91.1665450  87.6422168
  91.8146174  91.4199929  88.5561580  91.0051244  91.7593158  87.3226823
  95.8553280 101.8362700  83.7412642  95.7777310 102.7870525  83.8201123
  95.2514924 101.4908573  84.3987568  98.3470510  89.0090566  96.3974009
  97.5703844  89.5684486  96.3876874  98.9861073  89.4947349  96.9188879
 106.1391290  85.7917359  90.2316986 105.4965671  86.0849892  89.5856780
 105.6346219  85.6770279  91.0370182 103.7931454  89.5380532  80.9202845
 104.7049310  89.7707918  80.7450543 103.2841101  90.1217576  80.3577924
  96.6016882  91.8176019  95.9591976  97.3431566  92.3561063  95.6826800
  95.8953867  92.4442308  96.1163528 102.0772222  93.9605160  94.5564138
 102.4855578  93.5187570  93.8118770 101.3549483  93.3857787  94.8098330
  98.4303292  88.8977766  91.9297695  99.2764487  89.3217180  92.0732344
  98.3701929  88.2411391  92.6236258 102.4001036  94.5206350  88.3116426
 101.7709899  94.6852064  87.6092494 102.0126698  94.9347960  89.0827390
 106.2790268  95.4560788  85.6660790 105.5941306  95.8359689  85.1157824
 106.3634117  96.0656115  86.3992738 101.5802737  86.5582135  93.5878868
 101.3363669  87.3124195  93.0513144 101.8562668  86.9367482  94.4226115
 103.5341200  93.1020747  92.2656134 103.7458095  93.7452507  91.5890515
 103.4870948  92.2683064  91.7978064 101.1367429  85.7138568  89.1692706
 100.2751908  86.0119821  89.4609443 101.1629863  85.9308967  88.2373739
  97.9528998  94.2580758  85.5766512  98.4167344  94.5368461  84.7871134
  97.6885796  93.3564203  85.3939602  94.8453079  93.8052240  88.5146275
  95.4154436  94.2339508  87.8763759  95.4361191  93.5234824  89.2130460
  96.8897884  90.3803911  82.3856077  97.5921928  90.8324954  82.8530003
  96.5578513  89.7387729  83.0135970  95.3378246  88.9715667  96.7607286
  94.7076906  89.6531948  96.9942683  95.2314334  88.8598749  95.8160424
  90.6323218  88.6387463  87.6873210  89.8422272  88.8944992  87.2113321
  91.1234466  89.4535801  87.7925251 104.6487028  95.9792702  90.4378491
 105.4704471  95.5772890  90.1561173 104.6449431  95.8760937  91.3894607
  92.5837964  89.0032043  84.6456687  91.7869127  89.1150737  85.1640183
  92.3563556  89.3418695  83.7797577  98.4143631  95.5276746  92.5939202
  98.4788064  95.9897153  93.4297373  97.7054555  94.8974111  92.7221511
  88.9160921  88.8917954  90.1188201  89.1668960  89.7764964  90.3845777
  89.4520470  88.7122555  89.3463293 112.7393021  92.3231451  86.7863463
 111.9856729  91.7538849  86.6307467 112.8740562  92.2894115  87.7334097
  98.1291649  97.1944853  82.4618182  97.9937324  98.0396389  82.8903030
  98.6701461  97.3964131  81.6984116  94.6158988  83.2736433  99.1232537
  94.2225934  82.7202632  99.7980181  95.4325129  83.5847012  99.5139055
  91.5821046  94.7120291  83.0346107  92.0945567  95.5063542  83.1851672
  92.2343759  94.0146582  82.9679708  93.3915931  97.8286048  85.1168860
  93.5682559  98.7504012  84.9289844  94.1872764  97.5144467  85.5463240
  97.5326949  84.6894312  96.7152794  98.2736663  85.2901465  96.6357256
  97.7644872  83.9471950  96.1570836  92.6768287  89.8750679  94.9931023
  92.5621803  88.9735937  95.2938122  91.8212805  90.1214376  94.6415840
  99.7560125  97.8168420  96.5918524  99.3123979  97.0304798  96.2739428
 100.4177339  98.0047570  95.9262415  94.5147246  99.3464221  91.1179202
  95.0654672  99.2181285  90.3456196  93.6758722  99.6459110  90.7674095
 101.8541363  98.0971220  94.6199925 101.8359839  98.9180101  94.1280194
 102.7761283  97.9725295  94.8450066  98.3114417  95.6115349  95.4623434
  98.8442754  94.8503637  95.2322742  97.7828499  95.3189001  96.2047588
 101.4784112  80.7175415  90.9917075 101.1348382  81.6077057  90.9156186
 101.8463075  80.5277073  90.1286660  89.5469963  93.0408946  83.8105678
  90.3845185  93.4505954  83.5939385  89.7248231  92.1008388  83.7805871
 101.4434395  90.7084026  79.4989510 100.9281019  91.4788631  79.7377898
 101.1711704  90.0349162  80.1222572  99.0281506  85.5533727  84.5574749
  98.1723103  85.1640577  84.3780388  99.4408458  85.6325688  83.6974534
 100.5580653  83.0880070  88.9566309 100.0545448  83.0510205  88.1434114
 100.8511260  83.9972813  89.0162965  96.8023539  83.1718800  87.9632490
  97.6676535  82.9761609  87.6038380  96.8701048  82.9429152  88.8901847
 106.4168669  93.4616381  81.4342684 105.6398112  93.1227540  80.9897846
 107.0960150  93.4669004  80.7597649 101.2320698  88.5811118  81.3249292
 100.9270834  88.8957267  82.1759435 102.1851140  88.6592538  81.3676625
  99.6767130  94.7401342  82.9742246  99.1488492  94.0054101  82.6615483
  99.1754633  95.5176018  82.7282214 104.6559976  92.9350362  88.0909292
 103.9983651  93.6249624  88.1789421 105.4600375  93.3246794  88.4343278
  94.4085858  85.4021008  85.3348857  94.9829610  85.1796189  84.6022050
  94.9956840  85.4709702  86.0877458 103.4665435  91.2894735  86.1413234
 103.9797317  91.9224727  86.6434943 104.1166659  90.6895930  85.7756594
  94.7355445  87.4325469  79.3544742  93.8992757  87.7700155  79.6754017
  94.5960215  87.2974449  78.4171879  96.7108525  82.2762257  84.0623927
  96.0572938  81.9611274  83.4380541  96.6689000  81.6537997  84.7883750
  97.8219730  92.5581552  75.9777219  96.9146792  92.3270805  76.1768368
  98.3190762  91.7619171  76.1651200 100.7287809 101.2679059  78.8973905
 100.0549508 101.5710756  79.5058863 101.1153631 102.0708139  78.5479362
  99.9446266  88.7644190  88.3871574  99.0268827  88.9859137  88.2293262
 100.3606409  88.8390501  87.5283282 100.7281314  90.1635606  83.5174254
 101.4753133  90.6757003  83.2081377 100.9972903  89.8419659  84.3778648
  99.0007964  92.6594147  80.5001209  98.0919183  92.3753180  80.5973679
  99.0303048  93.0793225  79.6404516 104.2327231  96.2700736  84.2692376
 103.7789558  95.4291646  84.3257567 103.6021198  96.9062135  84.6067156
 103.1760151  87.1992722  85.4993044 102.4382908  86.6870108  85.8303286
 103.4286924  86.7593104  84.6876321 102.6760170  98.1077233  85.2042194
 102.9683145  98.6682290  84.4854560 103.1858791  98.4005794  85.9595354
 103.2771778  79.9768974  86.0934813 103.5830655  79.1166338  85.8060728
 104.0024383  80.5686594  85.8933807  89.5696134  90.3799661  84.4816411
  89.3720534  89.7869022  83.7567478  89.0142798  90.0751871  85.1992350
  97.5492858  90.2722767  86.6011004  97.6041468  89.3196604  86.5253481
  96.7384060  90.4282206  87.0852303  98.6984052  94.2002890  77.8389287
  98.2603481  93.4838749  77.3794925  99.4394492  94.4279005  77.2774379
  95.4885218  88.8899827  84.3601383  94.6753083  89.1893998  84.7666575
  95.9844212  88.4955516  85.0775865  97.6393796  98.8857584  86.2935648
  97.5969974  99.1118430  85.3644180  98.5556494  98.6520959  86.4421449
 101.0859429  89.3541652  93.1916277 101.4408817  89.5813125  94.0510743
 101.7331561  89.6860028  92.5693532 106.8157166  92.4760087  83.8965606
 106.6775065  92.6661683  82.9686795 106.4593385  93.2379470  84.3533657
  94.9799292  86.4618183  89.9762618  95.6198672  86.3206942  89.2785581
  94.1476823  86.1752696  89.6001220 106.8426546  94.5436614  88.9076877
 107.2763053  94.4511904  89.7559931 107.5558127  94.5194115  88.2696893
  95.7559596  95.7620613  86.0897610  96.5500195  95.2670933  85.8880185
  95.0451289  95.2338476  85.7265316 100.5754441  98.1438709  90.4409978
 100.6291463  98.7129645  91.2087694  99.7069222  98.3140594  90.0764015
  92.0642360  89.9063695  82.1657363  91.1339948  89.8448150  82.3827325
  92.1599832  89.3839648  81.3694004  91.9827909  86.4318508  84.7535605
  92.2434726  87.3463841  84.6444765  92.8045081  85.9642950  84.9032218
  93.4552834  87.8456265  91.9234429  94.1275888  87.6373627  91.2747078
  92.6282621  87.6478351  91.4839662 107.7042096  94.5860315  91.4409763
 107.8977986  95.4906126  91.6869038 107.6042714  94.1267734  92.2748348
  99.3578406  84.4718206  93.9400090  98.7106321  85.1708155  93.8464567
 100.1279422  84.9054350  94.3076338 102.7657204  94.7367058  97.0150643
 102.6142711  94.5077610  96.0980727 102.7561884  95.6937659  97.0281988
  99.5342541  92.3098971  91.9996910 100.4634601  92.4610130  91.8265877
  99.1133571  92.3982991  91.1445556  98.3330872  96.3349635  89.7695447
  98.1941958  95.9668419  90.6421386  97.5445469  96.8497274  89.5979405
  98.9279024 101.4358731  81.1120984  99.1030780 100.9646775  81.9266607
  98.2411812 102.0624498  81.3402245  99.8836088  95.7131238  87.1584285
  99.5485920  95.6732008  88.0541935  99.3840033  95.0475954  86.6854696
  93.8580331  91.1198868  92.6836866  93.7200129  90.3879107  93.2848405
  94.7685255  91.0307768  92.4021054 102.8195279  93.0587272  77.4321345
 102.2024450  92.3334100  77.3354398 102.3511768  93.8196632  77.0888419
  96.4862632  90.8318827  92.1720546  97.1962251  90.1912019  92.1307165
  96.4431940  91.0831722  93.0946727 104.4749411  97.7686180  95.0927125
 104.4161957  97.0845401  94.4257708 104.8768929  98.5105170  94.6407751
  95.1991566  87.8184045  93.9916186  94.6628923  87.3674783  94.6437782
  94.6108275  87.9529954  93.2486650  93.4940110 104.5848094  87.8860844
  93.7336708 105.2166618  88.5639863  92.6509306 104.2336134  88.1726203
  94.6093825  87.2772696  76.5542649  93.7323291  87.1561497  76.1904896
  95.0851578  86.4858775  76.3021538 104.4766818  95.7325764  93.3241105
 103.5893597  95.3951686  93.4467504 105.0465369  95.0008796  93.5609870
  86.1295965  92.0649856  86.6484156  86.8167005  91.7511586  86.0605172
  85.9744094  92.9691221  86.3751408  90.9330687  86.9540053  91.0769180
  90.8488876  86.3465722  90.3419590  90.1113394  87.4449071  91.0778676
  98.0067972 100.3927217  90.2902348  97.9338143 101.1982188  90.8021653
  97.5645365 100.5919183  89.4650370  97.7957751  99.6298987  83.8005170
  97.0125273 100.1720667  83.8943394  98.4950496 100.1472966  84.1999411
 101.1054401  85.4393616  86.4439375 101.6023101  84.6863579  86.1240445
 100.3341383  85.4757933  85.8782584 108.9584159  91.1433982  88.0857667
 108.9474035  92.0258697  87.7151600 108.0901538  90.7905533  87.8912204
 100.4666655 100.2914051  92.4460507 101.1794627 100.9261516  92.3736408
  99.9756684 100.3877917  91.6300509 102.1884182  94.1965303  84.0177798
 101.2540461  94.3166766  83.8482503 102.3660850  93.2937770  83.7537808
  97.6889370  87.5810999  86.1711060  97.3187158  87.0282040  86.8591965
  98.1848462  86.9769133  85.6186060 105.5756733  90.0382623  84.5527833
 106.0417185  90.8710614  84.4788135 106.0264234  89.5727604  85.2573091
  95.5178569  98.0408494  93.2666078  96.2188028  98.6744977  93.4195472
  95.0473684  98.3823226  92.5061717 103.6432964  96.3826444  81.5513985
 103.9192808  96.2683039  82.4607859 102.7737463  95.9843929  81.5126158
 103.5473396  82.4063210  88.5918734 102.6336476  82.6367437  88.7600941
 103.9766497  82.4901654  89.4432766 103.3179855  90.5953102  91.0918628
 102.6651305  90.8429009  90.4371081 103.6960234  89.7817240  90.7581105
 100.2787028 100.6312795  85.1946798 100.4609423  99.8134451  85.6574551
 101.1020014 100.8480487  84.7571688 100.6129194  99.5580980  82.4561847
 101.1416960  99.0473435  81.8432009 100.8757413  99.2423510  83.3207380
  99.3667428  91.3372913  97.5784665  98.6908065  91.2367042  98.2487040
 100.1895061  91.1812126  98.0420662  91.1146287  97.5744849  90.1997180
  91.6999723  96.8288537  90.3325085  90.9171125  97.8848806  91.0833844
  93.9684942 100.6096097  85.2159623  93.2995317 101.0942224  84.7323663
  93.8297812 100.8565317  86.1303001  85.7063941  90.1450449  88.9201623
  85.7448041  89.6114040  89.7138742  85.2004234  89.6185655  88.3012601
  98.1090210 102.6439840  91.8142281  98.6608518 102.8071462  92.5791366
  98.4496404 103.2344278  91.1422306  93.0854704  84.9914990  92.4164166
  93.1496030  85.8529821  92.0041563  93.0221824  84.3788992  91.6836524
  92.5606976  87.0638123  96.0637200  93.1879015  86.6815200  96.6774724
  91.7034895  86.8452324  96.4292893  89.3372519  88.8714552  81.9955555
  89.6325960  87.9625230  81.9422609  88.4360555  88.8502291  81.6736557
 101.2458598 100.5921816  88.8005963 101.1209737  99.7911556  88.2916909
 101.9037689 101.0868009  88.3119933  92.8666766  86.9470548  87.9783103
  92.1453352  87.5606516  87.8390577  93.6560022  87.4828313  87.8999749
 103.3093506  98.3930836  90.4285513 102.3623842  98.2736187  90.3563840
 103.6576279  97.5053334  90.5111775  95.6693079  84.2824975  94.2523755
  96.1927481  84.5287271  95.0150065  95.4505413  85.1145010  93.8326893
  91.0660361  86.5528649  82.1194880  90.7373067  85.6726028  81.9369986
  91.4199731  86.4976318  83.0071269 100.3139939  98.1883552  86.6289866
 100.1664902  97.2600259  86.8097436 101.1393433  98.2103643  86.1446941
  94.1802184  86.8401619  82.4870358  94.5198256  87.3687540  81.7648966
  94.6274304  87.1782025  83.2628924 103.9174061  99.0112111  87.7154738
 104.8420609  98.8054972  87.5779189 103.7489365  98.7628512  88.6244080
  96.8745625  85.2238670  91.9373426  96.5342445  84.4246483  92.3394106
  96.1684631  85.5240381  91.3650259  97.5262096  82.3087982  90.3900749
  98.3488166  81.8348460  90.2679639  97.7700160  83.0878466  90.8899435
  96.1670331  85.3376241  80.6863650  96.8878693  85.7157493  80.1827367
  95.5435635  86.0565117  80.7898628 100.3101454  86.0421390  81.6221983
 100.5265068  86.9246028  81.3210811  99.8295521  85.6507603  80.8927625
  95.0500675  89.0007103  88.1992727  94.9045256  89.3147406  89.0917009
  94.5725879  89.6192003  87.6463626  96.9097058  85.9909651  88.2473617
  96.8958627  85.0950744  87.9105915  97.6269486  85.9980315  88.8811903
  98.7623189  86.4246991  90.2926744  98.5040967  87.3464062  90.2911075
  98.2308229  86.0277426  90.9827209 103.7069377  99.5297778  83.0716830
 103.8806255  98.9644201  82.3190682 104.1998269 100.3298673  82.8896320
  89.5246337  91.5412447  91.1380389  88.9799805  92.3172255  91.2700663
  90.4025687  91.8883252  90.9799510  96.3133954  84.8724031  83.5161187
  96.4349865  83.9440677  83.7152075  96.0235996  84.8862717  82.6039503
  99.1825144  82.5578942  86.6527907  99.2046841  82.6218275  85.6979886
  99.5993203  81.7183450  86.8468413 109.5608769  92.2934201  84.6907129
 110.0039915  91.5441526  84.2926253 108.6835279  92.2844337  84.3080861
 104.6944550  98.8464543  80.1713728 105.3895455  99.4671235  80.3901043
 105.0367700  97.9959894  80.4466106  90.3112359  90.6682344  94.0310545
  89.5694095  90.8164979  94.6175176  89.9905103  90.9290609  93.1677295
 106.5935973  96.2964248  81.7001059 107.1187297  96.6351521  80.9750379
 106.5058326  95.3611263  81.5164193  98.2556022 100.2098322  93.8290935
  98.5643148  99.9647469  94.7013635  99.0531504 100.4144960  93.3409806
  98.2776634 102.3636231  86.0596312  97.8381624 101.8712610  86.7529169
  99.0284751 101.8209199  85.8188387  90.7568973  98.5547772  86.0620940
  91.5826993  98.2551544  85.6819584  90.4063025  97.7855395  86.5110729
  95.7250506  97.9074240  88.1318614  95.1030515  97.2444945  87.8320842
  96.3955373  97.9335372  87.4492261  88.9577578  96.4734099  87.0209874
  88.1209486  96.0456273  86.8393875  88.9301223  96.6666542  87.9580665
  95.7975033  86.3856028  97.7251120  95.8463189  87.2618151  97.3428889
  96.3397548  85.8433422  97.1522763 106.4027754  93.7789618  94.3184985
 106.4525759  93.6139626  95.2600508 106.2941678  92.9116877  93.9282866
  95.2864013  96.4578164  81.6077074  95.4352133  97.1413628  80.9543747
  96.0930456  96.4383254  82.1226530 103.6931517  89.7620546  95.6344292
 104.5941379  89.6227011  95.3428290 103.7679491  89.9275001  96.5742469
  98.0274322  87.1387401  94.4797478  97.1577631  87.4320967  94.2080067
  98.2633802  87.7227846  95.2004742 107.9045951  96.1986560  94.5627007
 107.6130759  96.5616540  95.3990468 107.2918082  95.4853568  94.3840339
 109.1041633  93.7639439  87.0829577 109.9388525  94.2029243  87.2467137
 109.2400762  93.2878093  86.2637823 106.1533139  91.3219174  93.0307065
 106.6287261  91.5146821  92.2225916 105.2298705  91.3778360  92.7850448
  93.0416646  92.4843341  82.6138143  92.7962688  91.5805671  82.8118353
  93.2112560  92.4860492  81.6717621 100.7313356  83.3567018  91.9962899
 101.2495300  84.0928045  91.6709387 100.3768488  83.6631011  92.8309658
  92.3112293  88.2171699  80.1124305  91.6181538  88.2916054  79.4564341
  92.0664045  87.4532043  80.6345821 100.9825950  79.7767300  87.5163795
 101.2627704  79.1090489  88.1424222 101.7676557  79.9696396  87.0038459
  98.7859418  98.9526294  79.0788822  98.2133385  99.5716481  78.6259293
  99.3592212  99.5025656  79.6128744 104.8534808  88.1984934  91.2635370
 105.8052231  88.2983032  91.2847594 104.6838259  87.4063203  91.7733455
 102.8749188  85.2840518  91.4494771 102.2799120  85.5645530  90.7541260
 102.5898884  85.7734418  92.2211512 102.0056678  99.2363444  80.2097404
 102.9387351  99.1709006  80.4130279 101.9179891 100.0719711  79.7511937
 104.6344695  98.5529315  77.1701351 104.5558326  98.2189178  78.0637109
 105.4554362  99.0451083  77.1692824 107.3322886  91.4191054  90.3777670
 107.2999206  90.4807055  90.5637354 107.9423510  91.4975091  89.6443495
  99.1706217  90.2887107  76.4204874 100.1165322  90.1593315  76.4893292
  98.7920462  89.5501769  76.8974302 107.4817375  88.2102097  90.4235953
 106.9656423  87.4260554  90.2365882 108.3657323  87.8820814  90.5882473
 105.1428101  81.9543113  86.3831766 104.9452923  81.6458201  87.2675098
 105.7527807  82.6804752  86.5129696 113.1499436  92.4807061  89.5183707
 113.8802824  92.2192349  90.0791410 112.5406381  91.7435783  89.5585775
 111.2314733  90.6214923  90.1158158 110.5047897  90.4870888  89.5074650
 110.8162020  90.9291752  90.9214876  99.0544909  94.3404853  97.8805531
  99.9747919  94.5183452  98.0745578  99.0194492  93.3960898  97.7285230
  97.3549134  88.2137083  76.3559759  96.4480589  87.9170196  76.4322473
  97.6325115  87.9166901  75.4894046  88.2727074  89.5343447  86.8058806
  87.9529859  88.6808755  86.5133180  87.7260503  89.7492025  87.5616773
  92.0506982  92.2505888  90.5228312  92.2692992  93.1822996  90.5416346
  92.4632756  91.8913862  91.3083116  98.9711200  82.7573973  82.5104001
  98.1611928  82.4121058  82.8859247  99.6595617  82.4481517  83.0991612
 100.9001748  81.8352020  84.1328297 101.4532787  82.2547473  84.7918320
 101.1371834  80.9087768  84.1751253  96.9234847  87.8239094  99.9131061
  96.8231574  88.7733451  99.8443152  96.7056389  87.4957332  99.0407131
  96.1247919  85.0724019  76.4971739  96.9867083  85.3978917  76.7567556
  96.3098263  84.2855515  75.9844804  88.1415334  93.1546358  88.7751927
  87.4478806  92.7400311  88.2621882  88.8888325  93.1966895  88.1785346
 104.2780555  83.9452545  83.6406962 103.6979224  84.6037349  83.2585014
 104.0116488  83.1229890  83.2294379 102.7284122  83.3457603  85.8428282
 103.2283900  83.4574137  85.0342601 103.3719729  83.0418656  86.4829090
  96.7866117  91.2536232  98.7296123  96.3033199  92.0536593  98.9360012
  96.8727056  91.2644177  97.7763567  90.0552077  93.0864612  86.6517942
  90.0322765  93.1852299  85.6999825  90.3652713  93.9329763  86.9735108
  92.7139455  95.1440767  90.7664557  93.6682708  95.1124709  90.6994488
  92.5151978  94.6831391  91.5814783  93.3038837  93.7141883  93.3335354
  94.1231726  94.2085962  93.3570192  93.5775645  92.7973851  93.3052922
 103.0605433  86.1052635  82.6963310 102.1731288  86.3902286  82.4783505
 103.4759422  85.9446399  81.8490587 106.4119969  86.1299156  86.4117649
 107.1880359  86.6195609  86.6842266 105.6868103  86.5557211  86.8689519
 108.8492528  86.8426776  87.4691590 109.4437019  86.6022512  86.7584898
 108.9219112  86.1233906  88.0965126  91.0689684 100.6860387  87.7834754
  90.9344152  99.9260787  87.2172753  90.6521746 101.4101286  87.3163543
 102.2048647  95.8697310  76.7911330 102.9084497  96.0747313  77.4068985
 101.4811295  96.4374072  77.0560413 103.0346457  91.6207171  82.9113600
 102.9781658  92.0775723  82.0721232 103.5874799  90.8597856  82.7336443
 106.8451263  87.4096903  83.7363719 106.5888197  87.0093539  84.5671927
 106.2204131  88.1240697  83.6113859 111.1563601  90.1492977  86.2435011
 110.5963159  90.2186166  87.0166573 110.5507104  89.9733961  85.5234507
  94.2258809 101.5829704  87.9953197  94.1091194 102.5275136  87.8931887
  93.4051256 101.2803265  88.3838996 104.1135344  96.3079839  78.8409790
 104.9480948  95.8761038  78.6587265 103.9519687  96.1361853  79.7686684
 103.7681236  92.8111953  80.2066129 103.7130040  92.6456224  79.2654573
 103.1427291  93.5187986  80.3628319  88.5573751  88.0480017  94.0327551
  89.2032615  87.5378971  94.5214777  88.3490902  88.7848699  94.6070977
  97.0777362  82.3120062  79.7851448  97.0656031  83.2561902  79.9419718
  97.9700784  82.1290207  79.4910909  95.2513324 102.2357966  91.2109126
  96.1540570 102.2681576  91.5275621  95.0250694 101.3058416  91.2255461
  97.0066926 100.9888952  87.8719204  96.0562557 100.9890814  87.7583576
  97.3099412 100.2421687  87.3555239 100.8929481  78.9062838  84.0397384
 100.1261877  78.3521325  84.1854067 101.3040186  78.9784707  84.9011536
  92.8971242  85.1947634  98.1302566  93.7602704  84.8384439  98.3405890
  92.3236653  84.8561529  98.8177970 105.4096141 108.6312395  84.8623382
 104.8461006 108.5402332  84.0939670 105.2948536 107.8112299  85.3425875
 102.9560573 110.1263587  87.7007603 103.7481865 109.7854411  87.2853902
 103.1957223 110.2358562  88.6209756 104.9151327 109.3872500  80.5724981
 105.6882203 108.8401487  80.4337857 105.2676726 110.2516749  80.7839443
 107.2517605 105.5465166  78.2043431 107.5043125 105.0246687  77.4426894
 106.3142164 105.3831311  78.3070115 112.2960888 104.5500944  86.0118175
 113.0823977 104.1320367  85.6608592 112.5599592 105.4547036  86.1799823
 106.9713894 107.4493272  80.4067806 106.8550152 106.7738175  81.0748891
 107.0816153 106.9625646  79.5899959 109.3145434 106.9103419  84.1114496
 108.9503642 106.3834040  84.8227417 110.1712550 106.5201888  83.9380981
 108.9550921 101.9393319  79.1075844 109.1225324 102.8073555  79.4746315
 108.7648091 102.1020600  78.1837133 105.1638736 106.8524094  86.8078379
 104.2389233 106.7200309  87.0156071 105.4123149 107.6318314  87.3048321
 108.9340142 104.3950976  80.0922511 108.8139768 104.8408027  80.9307991
 108.2392731 104.7436294  79.5336049 102.5247547 106.4957368  87.6422168
 102.6539928 106.7491847  88.5561580 101.8444998 107.0885076  87.3226823
 114.6325208 104.8672449  80.9202845 115.5443065 105.0999836  80.7450543
 114.1234856 105.4509494  80.3577924 111.9761183 101.0430485  89.1692706
 111.1145662 101.3411739  89.4609443 112.0023618 101.2600884  88.2373739
 108.7922753 109.5872676  85.5766512 109.2561098 109.8660379  84.7871134
 108.5279551 108.6856120  85.3939602 107.7291639 105.7095828  82.3856077
 108.4315682 106.1616872  82.8530003 107.3972267 105.0679647  83.0135970
 101.4716973 103.9679381  87.6873210 100.6816027 104.2236909  87.2113321
 101.9628220 104.7827719  87.7925251 103.4231718 104.3323960  84.6456687
 102.6262881 104.4442654  85.1640183 103.1957310 104.6710612  83.7797577
  99.7554676 104.2209871  90.1188201 100.0062714 105.1056881  90.3845777
 100.2914224 104.0414473  89.3463293 102.4214801 110.0412209  83.0346107
 102.9339321 110.8355459  83.1851672 103.0737514 109.3438499  82.9679708
 104.2309685 113.1577965  85.1168860 104.4076314 114.0795930  84.9289844
 105.0266519 112.8436384  85.5463240 112.3177867  96.0467333  90.9917075
 111.9742136  96.9368974  90.9156186 112.6856830  95.8568990  90.1286660
 100.3863718 108.3700863  83.8105678 101.2238940 108.7797872  83.5939385
 100.5641985 107.4300305  83.7805871 112.2828150 106.0375944  79.4989510
 111.7674773 106.8080549  79.7377898 112.0105458 105.3641080  80.1222572
 109.8675261 100.8825645  84.5574749 109.0116857 100.4932495  84.3780388
 110.2802212 100.9617605  83.6974534 111.3974407  98.4171988  88.9566309
 110.8939203  98.3802123  88.1434114 111.6905014  99.3264731  89.0162965
 107.6417293  98.5010718  87.9632490 108.5070290  98.3053526  87.6038380
 107.7094802  98.2721069  88.8901847 112.0714453 103.9103036  81.3249292
 111.7664588 104.2249185  82.1759435 113.0244895 103.9884456  81.3676625
 110.5160885 110.0693259  82.9742246 109.9882246 109.3346019  82.6615483
 110.0148387 110.8467936  82.7282214 105.2479612 100.7312926  85.3348857
 105.8223364 100.5088107  84.6022050 105.8350595 100.8001620  86.0877458
 105.5749199 102.7617387  79.3544742 104.7386512 103.0992073  79.6754017
 105.4353969 102.6266366  78.4171879 107.5502280  97.6054174  84.0623927
 106.8966692  97.2903192  83.4380541 107.5082754  96.9829915  84.7883750
 108.6613485 107.8873470  75.9777219 107.7540547 107.6562723  76.1768368
 109.1584517 107.0911089  76.1651200 110.7840020 104.0936108  88.3871574
 109.8662582 104.3151055  88.2293262 111.2000164 104.1682419  87.5283282
 111.5675068 105.4927524  83.5174254 112.3146887 106.0048921  83.2081377
 111.8366658 105.1711576  84.3778648 109.8401718 107.9886064  80.5001209
 108.9312938 107.7045097  80.5973679 109.8696802 108.4085143  79.6404516
 114.0153905 102.5284640  85.4993044 113.2776662 102.0162026  85.8303286
 114.2680679 102.0885022  84.6876321 114.1165533  95.3060892  86.0934813
 114.4224409  94.4458255  85.8060728 114.8418137  95.8978512  85.8933807
 100.4089889 105.7091579  84.4816411 100.2114288 105.1160939  83.7567478
  99.8536553 105.4043789  85.1992350 108.3886612 105.6014685  86.6011004
 108.4435222 104.6488521  86.5253481 107.5777814 105.7574124  87.0852303
 109.5377806 109.5294808  77.8389287 109.0997236 108.8130667  77.3794925
 110.2788247 109.7570923  77.2774379 106.3278972 104.2191745  84.3601383
 105.5146838 104.5185915  84.7666575 106.8237966 103.8247434  85.0775865
 105.8193047 101.7910100  89.9762618 106.4592426 101.6498859  89.2785581
 104.9870578 101.5044614  89.6001220 106.5953351 111.0912531  86.0897610
 107.3893949 110.5962851  85.8880185 105.8845043 110.5630394  85.7265316
 102.9036114 105.2355612  82.1657363 101.9733702 105.1740068  82.3827325
 102.9993586 104.7131565  81.3694004 102.8221663 101.7610425  84.7535605
 103.0828481 102.6755759  84.6444765 103.6438836 101.2934868  84.9032218
 104.2946589 103.1748182  91.9234429 104.9669642 102.9665545  91.2747078
 103.4676375 102.9770268  91.4839662 113.6589034 108.3879190  77.4321345
 113.0418204 107.6626018  77.3354398 113.1905522 109.1488550  77.0888419
 105.4487580 102.6064614  76.5542649 104.5717046 102.4853415  76.1904896
 105.9245333 101.8150692  76.3021538  96.9689720 107.3941774  86.6484156
  97.6560760 107.0803504  86.0605172  96.8137848 108.2983138  86.3751408
 101.7724442 102.2831970  91.0769180 101.6882631 101.6757640  90.3419590
 100.9507148 102.7740989  91.0778676 111.9448156 100.7685534  86.4439375
 112.4416855 100.0155496  86.1240445 111.1735137 100.8049851  85.8782584
 113.0277936 109.5257221  84.0177798 112.0934215 109.6458684  83.8482503
 113.2054605 108.6229688  83.7537808 108.5283124 102.9102917  86.1711060
 108.1580912 102.3573957  86.8591965 109.0242217 102.3061050  85.6186060
 116.4150488 105.3674540  84.5527833 116.8810940 106.2002532  84.4788135
 116.8657988 104.9019522  85.2573091 114.3867151  97.7355127  88.5918734
 113.4730230  97.9659354  88.7600941 114.8160252  97.8193571  89.4432766
  96.5457696 105.4742367  88.9201623  96.5841795 104.9405958  89.7138742
  96.0397989 104.9477573  88.3012601 103.9248458 100.3206908  92.4164166
 103.9889785 101.1821739  92.0041563 103.8615578  99.7080909  91.6836524
 100.1766273 104.2006469  81.9955555 100.4719715 103.2917148  81.9422609
  99.2754309 104.1794209  81.6736557 103.7060520 102.2762466  87.9783103
 102.9847106 102.8898434  87.8390577 104.4953776 102.8120231  87.8999749
 101.9054115 101.8820567  82.1194880 101.5766821 101.0017946  81.9369986
 102.2593486 101.8268236  83.0071269 105.0195938 102.1693537  82.4870358
 105.3592011 102.6979458  81.7648966 105.4668059 102.5073943  83.2628924
 107.7139379 100.5530587  91.9373426 107.3736199  99.7538401  92.3394106
 107.0078385 100.8532298  91.3650259 108.3655851  97.6379900  90.3900749
 109.1881920  97.1640378  90.2679639 108.6093914  98.4170384  90.8899435
 107.0064085 100.6668158  80.6863650 107.7272448 101.0449411  80.1827367
 106.3829389 101.3857035  80.7898628 111.1495208 101.3713307  81.6221983
 111.3658823 102.2537945  81.3210811 110.6689275 100.9799521  80.8927625
 105.8894430 104.3299021  88.1992727 105.7439010 104.6439324  89.0917009
 105.4119633 104.9483921  87.6463626 107.7490812 101.3201569  88.2473617
 107.7352381 100.4242662  87.9105915 108.4663241 101.3272232  88.8811903
 109.6016943 101.7538909  90.2926744 109.3434721 102.6755979  90.2911075
 109.0701984 101.3569343  90.9827209 100.3640092 106.8704365  91.1380389
  99.8193560 107.6464173  91.2700663 101.2419442 107.2175169  90.9799510
 107.1527708 100.2015949  83.5161187 107.2743620  99.2732595  83.7152075
 106.8629751 100.2154635  82.6039503 110.0218899  97.8870859  86.6527907
 110.0440596  97.9510192  85.6979886 110.4386958  97.0475368  86.8468413
 101.5962727 113.8839690  86.0620940 102.4220747 113.5843462  85.6819584
 101.2456779 113.1147312  86.5110729  99.7971332 111.8026016  87.0209874
  98.9603241 111.3748191  86.8393875  99.7694978 111.9958460  87.9580665
 106.1257767 111.7870081  81.6077074 106.2745888 112.4705546  80.9543747
 106.9324211 111.7675172  82.1226530 103.8810400 107.8135259  82.6138143
 103.6356442 106.9097589  82.8118353 104.0506315 107.8152410  81.6717621
 103.1506048 103.5463617  80.1124305 102.4575293 103.6207972  79.4564341
 102.9057800 102.7823960  80.6345821 111.8219704  95.1059218  87.5163795
 112.1021458  94.4382407  88.1424222 112.6070311  95.2988314  87.0038459
 110.0099971 105.6179025  76.4204874 110.9559076 105.4885233  76.4893292
 109.6314216 104.8793687  76.8974302 115.9821856  97.2835031  86.3831766
 115.7846677  96.9750119  87.2675098 116.5921561  98.0096670  86.5129696
 108.1942889 103.5429001  76.3559759 107.2874344 103.2462114  76.4322473
 108.4718870 103.2458819  75.4894046  99.1120829 104.8635364  86.8058806
  98.7923613 104.0100673  86.5133180  98.5654257 105.0783943  87.5616773
 109.8104954  98.0865891  82.5104001 109.0005683  97.7412976  82.8859247
 110.4989371  97.7773435  83.0991612 111.7395503  97.1643938  84.1328297
 112.2926541  97.5839391  84.7918320 111.9765589  96.2379686  84.1751253
 106.9641673 100.4015936  76.4971739 107.8260837 100.7270835  76.7567556
 107.1492017  99.6147432  75.9844804  98.9809089 108.4838276  88.7751927
  98.2872560 108.0692229  88.2621882  99.7282080 108.5258812  88.1785346
 115.1174310  99.2744463  83.6406962 114.5372979  99.9329267  83.2585014
 114.8510242  98.4521807  83.2294379 113.5677876  98.6749520  85.8428282
 114.0677654  98.7866055  85.0342601 114.2113484  98.3710573  86.4829090
 100.8945831 108.4156530  86.6517942 100.8716520 108.5144217  85.6999825
 101.2046468 109.2621681  86.9735108 113.8999188 101.4344553  82.6963310
 113.0125043 101.7194204  82.4783505 114.3153177 101.2738317  81.8490587
 117.2513724 101.4591074  86.4117649 118.0274114 101.9487527  86.6842266
 116.5261858 101.8849128  86.8689519 113.8740211 106.9499089  82.9113600
 113.8175413 107.4067641  82.0721232 114.4268554 106.1889774  82.7336443
 117.6845017 102.7388821  83.7363719 117.4281952 102.3385457  84.5671927
 117.0597885 103.4532615  83.6113859 114.6074991 108.1403870  80.2066129
 114.5523794 107.9748142  79.2654573 113.9821046 108.8479903  80.3628319
  99.3967506 103.3771935  94.0327551 100.0426369 102.8670889  94.5214777
  99.1884657 104.1140616  94.6070977 107.9171116  97.6411979  79.7851448
 107.9049786  98.5853819  79.9419718 108.8094538  97.4582125  79.4910909
 111.7323236  94.2354756  84.0397384 110.9655631  93.6813243  84.1854067
 112.1433941  94.3076625  84.9011536  44.5146800  -8.1912465  75.5971798
  44.1765311  -8.3071400  74.7092333  45.3836568  -8.5921300  75.5772804
  40.3733615  -6.3376988  71.5868689  39.8098481  -6.4287052  70.8184977
  40.2586010  -7.1577084  72.0671181  44.9966583  -7.0377613  81.5558003
  44.9855223  -7.4324815  80.6838507  45.1587222  -7.7711541  82.1491775
  37.9198047  -4.8425797  74.4252909  38.7119339  -5.1834972  74.0099209
  38.1594698  -4.7330822  75.3455063  45.9533174  -2.6706021  66.8983154
  45.3021154  -2.0851940  66.5117168  46.7477537  -2.1399826  66.9578191
  39.8788801  -5.5816884  67.2970288  40.6519677  -6.1287897  67.1583164
  40.2314200  -4.7172634  67.5084750  41.7173844  -4.2540501  80.5037187
  41.4263710  -3.3494871  80.3883854  42.3530828  -4.2123974  81.2181257
  42.6430051  -6.8763653  77.0938547  43.2393623  -7.1007630  76.3795510
  42.7005022  -7.6178907  77.6963995  47.4308439  -4.9815589  67.4352138
  46.7954272  -4.9080962  68.1473043  47.1005846  -4.3921990  66.7571217
  41.9351368  -7.5196112  67.1313113  41.8187626  -8.1951208  67.7994197
  42.0453628  -8.0063738  66.3145266  44.2782909  -8.0585964  70.8359802
  43.9141116  -8.5855343  71.5472724  45.1350025  -8.4487495  70.6626288
  46.6763729  -4.5679086  77.4986981  46.3764452  -3.6654047  77.3902788
  46.3314788  -4.8346903  78.3508134  40.1276210  -8.1165289  73.5323686
  39.2026707  -8.2489075  73.7401377  40.3760624  -7.3371070  74.0293628
  41.6584509   2.1965234  70.4657949  41.5808538   3.1473060  70.5446429
  41.0546152   1.8511107  71.1232875  42.4048111  -7.8221447  82.6837283
  43.1462795  -7.2836403  82.4072106  41.6985096  -7.1955158  82.8408835
  47.8803450  -5.6792306  81.2809444  48.2886806  -6.1209896  80.5364077
  47.1580712  -6.2539679  81.5343637  48.2032265  -5.1191116  75.0361733
  47.5741128  -4.9545402  74.3337801  47.8157927  -4.7049506  75.8072697
  52.0821497  -4.1836678  72.3906097  51.3972535  -3.8037776  71.8403130
  52.1665346  -3.5741351  73.1238045  49.3372429  -6.5376719  78.9901440
  49.5489324  -5.8944959  78.3135821  49.2902177  -7.3714402  78.5223370
  43.7560227  -5.3816708  72.3011818  44.2198573  -5.1029005  71.5116441
  43.4917025  -6.2833263  72.1184909  40.6484308  -5.8345226  75.2391581
  41.2185665  -5.4057958  74.6009066  41.2392420  -6.1162641  75.9375767
  50.4518257  -3.6604763  77.1623798  51.2735700  -4.0624576  76.8806479
  50.4480659  -3.7636529  78.1139914  44.2174860  -4.1120720  79.3184508
  44.2819293  -3.6500313  80.1542680  43.5085784  -4.7423355  79.4466818
  43.9322878  -2.4452613  69.1863489  43.7968552  -1.6001077  69.6148336
  44.4732690  -2.2433335  68.4229422  37.3852275  -4.9277175  69.7591414
  37.8976796  -4.1333924  69.9096978  38.0374988  -5.6250884  69.6925015
  39.1947160  -1.8111418  71.8414167  39.3713788  -0.8893454  71.6535151
  39.9903993  -2.1252999  72.2708547  45.5591354  -1.8229046  83.3163831
  45.1155208  -2.6092667  82.9984735  46.2208568  -1.6349896  82.6507721
  40.3178475  -0.2933244  77.8424509  40.8685900  -0.4216181  77.0701503
  39.4789951   0.0061645  77.4919402  47.6572592  -1.5426246  81.3445232
  47.6391067  -0.7217365  80.8525501  48.5792512  -1.6672171  81.5695373
  44.1145646  -4.0282117  82.1868740  44.6473983  -4.7893828  81.9568048
  43.5859727  -4.3208465  82.9292895  45.4798359  -4.8996124  69.6987552
  44.9519721  -5.6343365  69.3860790  44.9785862  -4.1221448  69.4527521
  50.4591205  -6.7047104  74.8154599  49.8014879  -6.0147842  74.9034727
  51.2631604  -6.3150672  75.1588585  43.6250959  -7.0815914  62.7022525
  42.7178021  -7.3126660  62.9013674  44.1221991  -7.8778295  62.8896507
  46.5319038   1.6281593  65.6219211  45.8580737   1.9313290  66.2304169
  46.9184860   2.4310674  65.2724669  44.8039193  -6.9803319  67.2246515
  43.8950412  -7.2644286  67.3218985  44.8334276  -6.5604240  66.3649822
  50.0358460  -3.3696730  70.9937683  49.5820787  -4.2105820  71.0502873
  49.4052427  -2.7335331  71.3312463  48.4791399  -1.5320233  71.9287501
  48.7714374  -0.9715176  71.2099867  48.9890020  -1.2391672  72.6840660
  44.5015280  -5.4394575  64.5634594  44.0634710  -6.1558716  64.1040231
  45.2425721  -5.2118461  64.0019685  43.4425024  -0.7539882  73.0180954
  43.4001203  -0.5279035  72.0889486  44.3587723  -0.9876507  73.1666755
  52.6457775  -5.0960851  75.6322184  53.0794281  -5.1885562  76.4805238
  53.3589355  -5.1203351  74.9942200  41.5590825  -3.8776853  72.8142917
  42.3531424  -4.3726533  72.6125492  40.8482518  -4.4058990  72.4510623
  46.3785670  -1.4958757  77.1655285  46.4322692  -0.9267821  77.9333001
  45.5100451  -1.3256872  76.8009322  53.5073324  -5.0537151  78.1655069
  53.7009214  -4.1491340  78.4114344  53.4073942  -5.5129732  78.9993654
  48.5688433  -4.9030408  83.7395950  48.4173939  -5.1319856  82.8226034
  48.5593112  -3.9459806  83.7527295  45.3373769  -7.3298495  78.7242216
  46.2665829  -7.1787336  78.5511184  44.9164799  -7.2414474  77.8690863
  44.1362101  -3.3047831  76.4940754  43.9973187  -3.6729046  77.3666692
  43.3476697  -2.7900191  76.3224712  44.7310253   1.7961266  67.8366291
  44.9062009   1.3249309  68.6511913  44.0443041   2.4227032  68.0647551
  45.6867316  -3.9266228  73.8829592  45.3517149  -3.9665458  74.7787242
  45.1871262  -4.5921512  73.4100002  39.6611560  -8.5198598  79.4082173
  39.5231358  -9.2518359  80.0093712  40.5716484  -8.6089698  79.1266361
  48.6226508  -6.5810194  64.1566652  48.0055679  -7.3063366  64.0599704
  48.1542996  -5.8200833  63.8133726  42.2893861  -8.8078639  78.8965853
  42.9993479  -9.4485447  78.8552471  42.2463169  -8.5565744  79.8192033
  50.2780640  -1.8711285  81.8172432  50.2193186  -2.5552065  81.1503015
  50.6800158  -1.1292295  81.3653058  39.2971338   4.9450628  74.6106151
  39.5367937   5.5769153  75.2885169  38.4540535   4.5938668  74.8971510
  50.2798047  -3.9071701  80.0486412  49.3924826  -4.2445780  80.1712810
  50.8496598  -4.6388670  80.2855177  43.8099200   0.7529751  77.0147655
  43.7369372   1.5584722  77.5266959  43.3676593   0.9521717  76.1895676
  43.5988980  -0.0098479  70.5250476  42.8156502   0.5323201  70.6188701
  44.2981725   0.5075501  70.9244718  46.2697884   0.6516585  79.1705813
  46.9825856   1.2864050  79.0981715  45.7787912   0.7480451  78.3545815
  47.9915411  -5.4432162  70.7423105  47.0571689  -5.3230700  70.5727809
  48.1692079  -6.3459696  70.4783115  41.3209797  -1.5988972  79.9911384
  42.0219257  -0.9652489  80.1440779  40.8504912  -1.2574240  79.2307024
  49.4464193  -3.2571022  68.2759291  49.7224037  -3.3714427  69.1853165
  48.5768692  -3.6553537  68.2371464  46.0818257   0.9915329  71.9192105
  46.2640652   0.1736985  72.3819857  46.9051243   1.2083021  71.4816995
  46.4160423  -0.0816486  69.1807153  46.9448189  -0.5924031  68.5677316
  46.6788642  -0.3973956  70.0452686  45.1698656  -8.3024553  84.3029972
  44.4939293  -8.4030424  84.9732347  45.9926290  -8.4585339  84.7665969
  36.9177515  -2.0652617  76.9242487  37.5030952  -2.8108929  77.0570391
  36.7202354  -1.7548660  77.8079151  39.7716171   0.9698631  71.9404929
  39.1026546   1.4544758  71.4568969  39.6329040   1.2167851  72.8548308
  43.9121439   3.0042374  78.5387588  44.4639747   3.1673996  79.3036673
  44.2527633   3.5946812  77.8667613  48.7632314  -2.1696368  84.3936242
  49.3072218  -1.5566410  83.8991197  48.1819158  -1.6116790  84.9103255
  47.0489827   0.9524350  75.5251270  46.9240966   0.1514090  75.0162215
  47.7068918   1.4470543  75.0365240  49.1124735  -1.2466630  77.1530820
  48.1655070  -1.3661279  77.0809147  49.4607508  -2.1344132  77.2357081
  46.1171168  -1.4513914  73.3535172  45.9696131  -2.3797206  73.5342742
  46.9424662  -1.4293823  72.8692247  49.7205290  -0.6285355  74.4400045
  50.6451838  -0.8342494  74.3024496  49.5520593  -0.8768954  75.3489386
  49.5100606  -0.1099688  69.7962136  49.6837484  -0.6753265  69.0435989
  50.0029497   0.6901207  69.6141626  50.4975779  -0.7932923  66.8959035
  51.1926683  -0.1726231  67.1146349  50.8398929  -1.6437572  67.1711413
  52.3967202  -3.3433218  68.4246365  52.9218526  -3.0045945  67.6995685
  52.3089554  -4.2786202  68.2409500  44.0587251   0.5700856  80.5536242
  44.3674377   0.3250003  81.4258942  44.8562733   0.7747494  80.0655112
  44.0807863   2.7238766  72.7841619  43.6412853   2.2315144  73.4774475
  44.8315980   2.1811733  72.5433694  36.5600202  -1.0849694  72.7866247
  37.3858222  -1.3845922  72.4064890  36.2094254  -1.8542071  73.2356035
  41.5281735  -1.7323225  74.8563920  40.9061744  -2.3952520  74.5566148
  42.1986602  -1.7062093  74.1737568  34.7608807  -3.1663367  73.7455180
  33.9240715  -3.5941193  73.5639182  34.7332452  -2.9730924  74.6825971
  52.0861108  -2.7100314  83.7297563  51.2956652  -2.7276175  83.1902063
  51.8494462  -2.1712020  84.4846600  41.0895242  -3.1819302  68.3322381
  41.2383362  -2.4983838  67.6789054  41.8961685  -3.2014212  68.8471837
  53.7077180  -3.4410906  81.2872313  53.4161988  -3.0780926  82.1235774
  53.0949311  -4.1543898  81.1085646  38.8447875  -7.1554124  69.3383450
  38.5993917  -8.0591794  69.5363660  39.0143789  -7.1536974  68.3962928
  44.5890647  -0.6871172  65.8034128  44.0164614  -0.0680984  65.3504600
  45.1623441  -0.1371810  66.3374050  47.8087907  -0.4034021  66.9342711
  48.7418580  -0.4688460  67.1375586  47.7211120   0.4322245  66.4757243
  50.4375924  -1.0868151  63.8946658  50.3589555  -1.4208287  64.7882416
  51.2585590  -0.5946383  63.8938130  44.8576138  -5.2992613  84.6050838
  45.7779148  -5.1214014  84.7990884  44.8225721  -6.2436567  84.4530537
  37.8538211  -7.3891578  77.2473619  38.0724221  -6.4574470  77.2661653
  38.2663985  -7.7483604  78.0328423  42.5897346  -8.3861233  85.4541429
  42.1064428  -7.5860873  85.6605319  42.6758285  -8.3753289  84.5008873
  35.8583306  -6.5532854  73.3763249  35.8353994  -6.4545166  72.4245132
  36.1683942  -5.7067703  73.6980415  38.5170684  -4.4956699  77.4909863
  39.4713937  -4.5272756  77.4239795  38.3183207  -4.9566075  78.3060089
  39.1070066  -5.9255583  80.0580661  39.9262955  -5.4311504  80.0815498
  39.3806873  -6.8423614  80.0298228  36.8720912   1.0462921  74.5080061
  36.7375380   0.2863322  73.9418059  36.4552975   1.7703821  74.0408850
  48.0079875  -3.7700156  63.5156636  48.7115726  -3.5650153  64.1314292
  47.2842524  -3.2023394  63.7805720  40.0290038   1.9432238  74.7198504
  39.9122422   2.8877670  74.6177194  39.2082485   1.6405799  75.1084303
  49.9166573  -3.3317626  65.5655096  50.7512177  -3.7636428  65.3832571
  49.7550916  -3.5035613  66.4931991  49.5712465  -6.8285513  66.9311436
  49.5161269  -6.9941242  65.9899880  48.9458520  -6.1209480  67.0873625
  46.8858372  -4.5236601  86.2564999  47.7549532  -4.3495949  85.8951633
  46.4065124  -3.7042184  86.1340728  41.0544552   2.5960500  77.9354432
  41.9571799   2.6284110  78.2520927  40.8281922   1.6660951  77.9500768
  42.8098154   1.3491486  74.5964511  41.8593785   1.3493348  74.4828883
  43.1130641   0.6024221  74.0800545  58.5450848   7.1852025  75.6610273
  59.1829258   7.0658772  74.9573613  58.4271691   8.1332869  75.7198225
  55.3540554   7.1379453  75.5971798  55.0159066   7.0220517  74.7092333
  56.2230322   6.7370618  75.5772804  51.2127370   8.9914929  71.5868689
  50.6492235   8.9004866  70.8184977  51.0979765   8.1714834  72.0671181
  55.8360337   8.2914304  81.5558003  55.8248978   7.8967103  80.6838507
  55.9980977   7.5580377  82.1491775  48.7591802  10.4866121  74.4252909
  49.5513094  10.1456945  74.0099209  48.9988452  10.5961096  75.3455063
  56.7926929  12.6585897  66.8983154  56.1414908  13.2439977  66.5117168
  57.5871291  13.1892092  66.9578191  50.7182556   9.7475034  67.2970288
  51.4913432   9.2004021  67.1583164  51.0707955  10.6119283  67.5084750
  52.5567598  11.0751416  80.5037187  52.2657464  11.9797047  80.3883854
  53.1924583  11.1167944  81.2181257  53.4823805   8.4528265  77.0938547
  54.0787377   8.2284287  76.3795510  53.5398777   7.7113010  77.6963995
  53.0548834   5.9067700  64.9288738  53.3074354   5.3849221  64.1672201
  52.1173393   5.7433846  65.0315422  58.0992116   4.9103479  72.7363481
  58.8855206   4.4922902  72.3853898  58.3630821   5.8149571  72.9045130
  58.2702194  10.3476329  67.4352138  57.6348027  10.4210955  68.1473043
  57.9399600  10.9369928  66.7571217  63.5000544   4.8478712  73.6396460
  64.2325715   4.2777929  73.8734289  62.7439899   4.4600312  74.0802965
  52.7745122   7.8095806  67.1313113  52.6581380   7.1340709  67.7994197
  52.8847382   7.3228180  66.3145266  55.1176663   7.2705953  70.8359802
  54.7534870   6.7436574  71.5472724  55.9743779   6.8804422  70.6626288
  61.0225964  -1.4399714  78.0991068  60.6909289  -0.5704303  77.8752283
  60.4271577  -1.7563430  78.7785099  54.7582150   2.2995853  65.8321151
  54.9256553   3.1676089  66.1991622  54.5679319   2.4623135  64.9082440
  57.5157483  10.7612832  77.4986981  57.2158207  11.6637871  77.3902788
  57.1708543  10.4945015  78.3508134  50.9669965   7.2126629  73.5323686
  50.0420461   7.0802843  73.7401377  51.2154378   7.9920848  74.0293628
  60.9154627   3.2795372  75.1784418  60.0071505   3.2110780  74.8843179
  60.8642223   3.7567317  76.0066244  54.7371371   4.7553510  66.8167818
  54.6170996   5.2010561  67.6553298  54.0423959   5.1038828  66.2581356
  48.3278776   6.8559902  74.3667475  48.4571157   7.1094381  75.2806886
  47.6476227   7.4487610  74.0472130  52.4978263  17.5257152  70.4657949
  52.4202293  18.4764977  70.5446429  51.8939907  17.1803025  71.1232875
  54.9895493   4.6985018  83.1219316  54.2128827   5.2578938  83.1122180
  55.6286056   5.1841801  83.6434186  62.7816274   1.4811810  76.9562292
  62.1390654   1.7744344  76.3102087  62.2771202   1.3664731  77.7615489
  60.4356437   5.2274984  67.6448152  61.3474293   5.4602370  67.4695849
  59.9266084   5.8112028  67.0823230  53.2441865   7.5070471  82.6837283
  53.9856550   8.0455515  82.4072106  52.5378851   8.1336760  82.8408835
  58.7197205   9.6499611  81.2809444  59.1280561   9.2082022  80.5364077
  57.9974466   9.0752239  81.5343637  55.0728275   4.5872218  78.6543001
  55.9189470   5.0111632  78.7977650  55.0126913   3.9305842  79.3481564
  59.0426020  10.2100802  75.0361733  58.4134882  10.3746516  74.3337801
  58.6551682  10.6242412  75.8072697  62.9215251  11.1455240  72.3906097
  62.2366290  11.5254141  71.8403130  63.0059101  11.7550567  73.1238045
  58.2227720   2.2476587  80.3124175  57.9788652   3.0018647  79.7758450
  58.4987651   2.6261934  81.1471422  60.1766183   8.7915199  78.9901440
  60.3883078   9.4346959  78.3135821  60.1295931   7.9577515  78.5223370
  57.7792412   1.4033020  75.8938013  56.9176891   1.7014273  76.1854750
  57.8054847   1.6203418  74.9619045  54.5953981   9.9475210  72.3011818
  55.0592327  10.2262913  71.5116441  54.3310780   9.0458655  72.1184909
  51.4878063   9.4946692  75.2391581  52.0579420   9.9233960  74.6009066
  52.0786174   9.2129276  75.9375767  53.5322868   6.0698362  69.1101383
  54.2346911   6.5219406  69.5775310  53.2003496   5.4282181  69.7381276
  51.9803229   4.6610119  83.4852593  51.3501890   5.3426400  83.7187990
  51.8739317   4.5493201  82.5405731  47.2748201   4.3281915  74.4118517
  46.4847255   4.5839444  73.9358627  47.7659449   5.1430253  74.5170557
  61.2912011  11.6687154  77.1623798  62.1129455  11.2667342  76.8806479
  61.2874414  11.5655388  78.1139914  49.2262947   4.6926494  71.3701994
  48.4294110   4.8045189  71.8885489  48.9988539   5.0313147  70.5042884
  55.0568614  11.2171198  79.3184508  55.1213047  11.6791605  80.1542680
  54.3479538  10.5868563  79.4466818  45.5585904   4.5812406  76.8433508
  45.8093943   5.4659416  77.1091084  46.0945453   4.4017007  76.0708600
  69.3818004   8.0125903  73.5108769  68.6281712   7.4433301  73.3552774
  69.5165545   7.9788567  74.4579404  54.7716632  12.8839305  69.1863489
  54.6362307  13.7290841  69.6148336  55.3126445  13.0858583  68.4229422
  51.2583972  -1.0369115  85.8477844  50.8650917  -1.5902916  86.5225488
  52.0750112  -0.7258537  86.2384361  48.2246030  10.4014743  69.7591414
  48.7370550  11.1957993  69.9096978  48.8768742   9.7041034  69.6925015
  50.0340914  13.5180499  71.8414167  50.2107543  14.4398464  71.6535151
  50.8297748  13.2038919  72.2708547  54.1751933   0.3788764  83.4398100
  54.9161646   0.9795917  83.3602563  54.4069856  -0.3633598  82.8816143
  49.3193271   5.5645131  81.7176330  49.2046786   4.6630389  82.0183429
  48.4637789   5.8108828  81.3661147  56.3985109  13.5062872  83.3163831
  55.9548963  12.7199250  82.9984735  57.0602322  13.6942022  82.6507721
  51.1572230  15.0358673  77.8424509  51.7079655  14.9075737  77.0701503
  50.3183706  15.3353562  77.4919402  58.4966347  13.7865672  81.3445232
  58.4784822  14.6074553  80.8525501  59.4186267  13.6619747  81.5695373
  54.9539401  11.3009801  82.1868740  55.4867738  10.5398089  81.9568048
  54.4253482  11.0083453  82.9292895  58.1209096  -3.5930133  77.7162382
  57.7773365  -2.7028491  77.6401493  58.4888058  -3.7828475  76.8531967
  46.1894946   8.7303397  70.5350984  47.0270168   9.1400406  70.3184692
  46.3673214   7.7902840  70.5051178  58.0859378   6.3978478  66.2234817
  57.5706002   7.1683083  66.4623205  57.8136687   5.7243614  66.8467879
  55.6706489   1.2428179  71.2820055  54.8148086   0.8535029  71.1025694
  56.0833441   1.3220140  70.4219841  57.2005636  -1.2225478  75.6811615
  56.6970432  -1.2595343  74.8679421  57.4936243  -0.3132735  75.7408272
  53.4448522  -1.1386748  74.6877797  54.3101519  -1.3343939  74.3283686
  53.5126031  -1.3676396  75.6147154  63.0593653   9.1510833  68.1587991
  62.2823095   8.8121992  67.7143153  63.7385134   9.1563456  67.4842956
  57.8745682   4.2705570  68.0494598  57.5695817   4.5851719  68.9004741
  58.8276124   4.3486990  68.0921931  56.3192113  10.4295794  69.6987552
  55.7913475   9.6948553  69.3860790  55.8179616  11.2070470  69.4527521
  61.2984959   8.6244814  74.8154599  60.6408634   9.3144075  74.9034727
  62.1025359   9.0141246  75.1588585  51.0510841   1.0915460  72.0594164
  51.6254593   0.8690641  71.3267357  51.6381823   1.1604154  72.8122765
  60.1090418   6.9789187  72.8658540  60.6222300   7.6119179  73.3680250
  60.7591642   6.3790382  72.5001900  51.3780428   3.1219921  66.0790049
  50.5417740   3.4594607  66.3999324  51.2385198   2.9868901  65.1417186
  53.3533509  -2.0343291  70.7869233  52.6997921  -2.3494274  70.1625848
  53.3113983  -2.6567551  71.5129056  54.4644714   8.2476004  62.7022525
  53.5571775   8.0165257  62.9013674  54.9615746   7.4513623  62.8896507
  57.3712793  16.9573511  65.6219211  56.6974491  17.2605208  66.2304169
  57.7578614  17.7602591  65.2724669  56.5871249   4.4538642  75.1116881
  55.6693811   4.6753589  74.9538569  57.0031393   4.5284953  74.2528588
  57.3706297   5.8530058  70.2419561  58.1178116   6.3651455  69.9326683
  57.6397886   5.5314111  71.1023955  55.6432947   8.3488599  67.2246515
  54.7344166   8.0647631  67.3218985  55.6728031   8.7687677  66.3649822
  60.8752214  11.9595188  70.9937683  60.4214542  11.1186098  71.0502873
  60.2446181  12.5956587  71.3312463  59.8185134   2.8887174  72.2238350
  59.0807891   2.3764560  72.5548593  60.0711908   2.4487556  71.4121627
  59.3185154  13.7971685  71.9287501  59.6108128  14.3576742  71.2099867
  59.8283774  14.0900246  72.6840660  46.2121117   6.0694113  71.2061718
  46.0145517   5.4763473  70.4812784  45.6567781   5.7646323  71.9237656
  54.1917841   5.9617219  73.3256311  54.2466451   5.0091056  73.2498787
  53.3809043   6.1176658  73.8097609  55.3409035   9.8897342  64.5634594
  54.9028465   9.1733201  64.1040231  56.0819476  10.1173457  64.0019685
  52.1310201   4.5794279  71.0846690  51.3178067   4.8788450  71.4911882
  52.6269195   4.1849968  71.8021172  54.2818779  14.5752036  73.0180954
  54.2394958  14.8012882  72.0889486  55.1981478  14.3415411  73.1666755
  57.7284413   5.0436103  79.9161584  58.0833800   5.2707577  80.7756049
  58.3756544   5.3754480  79.2938839  63.4582150   8.1654539  70.6210913
  63.3200048   8.3556135  69.6932102  63.1018368   8.9273922  71.0778964
  51.6224276   2.1512635  76.7007925  52.2623655   2.0101394  76.0030888
  50.7901806   1.8647148  76.3246527  63.4851529  10.2331066  75.6322184
  63.9188036  10.1406355  76.4805238  64.1983110  10.2088567  74.9942200
  52.3984580  11.4515065  72.8142917  53.1925178  10.9565385  72.6125492
  51.6876272  10.9232928  72.4510623  57.2179424  13.8333160  77.1655285
  57.2716446  14.4024097  77.9333001  56.3494206  14.0035046  76.8009322
  48.7067343   5.5958147  68.8902670  47.7764931   5.5342602  69.1072632
  48.8024815   5.0734099  68.0939311  48.6252892   2.1212960  71.4780911
  48.8859710   3.0358293  71.3690072  49.4470065   1.6537402  71.6277524
  50.0977818   3.5350717  78.6479736  50.7700871   3.3268079  77.9992385
  49.2707604   3.3372803  78.2084968  64.3467079  10.2754767  78.1655069
  64.5402969  11.1800578  78.4114344  64.2467697   9.8162186  78.9993654
  56.0003390   0.1612658  80.6645397  55.3531305   0.8602607  80.5709873
  56.7704405   0.5948802  81.0321645  59.4082187  10.4261510  83.7395950
  59.2567694  10.1972061  82.8226034  59.3986867  11.3832111  83.7527295
  56.1767524   7.9993423  78.7242216  57.1059584   8.1504582  78.5511184
  55.7558554   8.0877443  77.8690863  54.9755856  12.0244087  76.4940754
  54.8366941  11.6562871  77.3666692  54.1870452  12.5391726  76.3224712
  55.5704008  17.1253183  67.8366291  55.7455763  16.6541227  68.6511913
  54.8836796  17.7518950  68.0647551  56.5261071  11.4025690  73.8829592
  56.1910903  11.3626460  74.7787242  56.0265017  10.7370406  73.4100002
  50.5005315   6.8093320  79.4082173  50.3625113   6.0773558  80.0093712
  51.4110238   6.7202220  79.1266361  59.4620262   8.7481724  64.1566652
  58.8449433   8.0228552  64.0599704  58.9936751   9.5091084  63.8133726
  53.1287615   6.5213279  78.8965853  53.8387234   5.8806471  78.8552471
  53.0856924   6.7726174  79.8192033  61.1174394  13.4580632  81.8172432
  61.0586940  12.7739852  81.1503015  61.5193913  14.1999622  81.3653058
  51.8416549   3.5078497  80.7161492  51.3053906   3.0569235  81.3683089
  51.2533258   3.6424406  79.9731957  50.1365093  20.2742546  74.6106151
  50.3761691  20.9061070  75.2885169  49.2934289  19.9230586  74.8971510
  51.2518808   2.9667148  63.2787956  50.3748275   2.8455949  62.9150203
  51.7276561   2.1753227  63.0266844  61.1191801  11.4220216  80.0486412
  60.2318580  11.0846138  80.1712810  61.6890352  10.6903247  80.2855177
  42.7720949   7.7544308  73.3729463  43.4591988   7.4406038  72.7850478
  42.6169077   8.6585673  73.0996714  47.5755671   2.6434505  77.8014487
  47.4913859   2.0360174  77.0664897  46.7538377   3.1343523  77.8023983
  54.6492955  16.0821669  77.0147655  54.5763126  16.8876640  77.5266959
  54.2070348  16.2813634  76.1895676  54.4382734  15.3193439  70.5250476
  53.6550256  15.8615119  70.6188701  55.1375480  15.8367418  70.9244718
  57.7479385   1.1288068  73.1684682  58.2448084   0.3758030  72.8485752
  56.9766366   1.1652385  72.6027891  65.6009142   6.8328434  74.8102973
  65.5899018   7.7153149  74.4396906  64.7326521   6.4799984  74.6157510
  57.1091638  15.9808503  79.1705813  57.8219611  16.6155967  79.0981715
  56.6181667  16.0772369  78.3545815  58.8309165   9.8859755  70.7423105
  57.8965444  10.0061218  70.5727809  59.0085834   8.9832222  70.4783115
  54.3314353   3.2705451  72.8956366  53.9612141   2.7176491  73.5837272
  54.8273446   2.6663585  72.3431366  62.2181717   5.7277075  71.2773139
  62.6842169   6.5605066  71.2033442  62.6689217   5.2622056  71.9818398
  52.1603552  13.7302946  79.9911384  52.8613011  14.3639429  80.1440779
  51.6898667  14.0717678  79.2307024  60.2857948  12.0720896  68.2759291
  60.5617792  11.9577490  69.1853165  59.4162446  11.6738381  68.2371464
  60.1898379  -1.9042338  75.3164041  59.2761459  -1.6738112  75.4846248
  60.6191481  -1.8203894  76.1678073  59.9604838   6.2847554  77.8163935
  59.3076288   6.5323461  77.1616387  60.3385218   5.4711692  77.4826412
  56.9212012  16.3207247  71.9192105  57.1034406  15.5028903  72.3819857
  57.7444998  16.5374939  71.4816995  57.2554177  15.2475432  69.1807153
  57.7841944  14.7367886  68.5677316  57.5182397  14.9317962  70.0452686
  56.0092411   7.0267365  84.3029972  55.3333048   6.9261494  84.9732347
  56.8320045   6.8706578  84.7665969  47.7571270  13.2639301  76.9242487
  48.3424707  12.5182989  77.0570391  47.5596108  13.5743258  77.8079151
  50.6109925  16.2990549  71.9404929  49.9420300  16.7836676  71.4568969
  50.4722795  16.5459769  72.8548308  42.3488925   5.8344901  75.6446930
  42.3873024   5.3008492  76.4384048  41.8429217   5.3080107  75.0257907
  54.7515194  18.3334292  78.5387588  55.3033502  18.4965914  79.3036673
  55.0921387  18.9238730  77.8667613  49.7279687   0.6809442  79.1409472
  49.7921013   1.5424273  78.7286870  49.6646807   0.0683444  78.4081831
  49.2031959   2.7532574  82.7882507  49.8303998   2.3709652  83.4020031
  48.3459878   2.5346776  83.1538199  59.6026068  13.1595550  84.3936242
  60.1465972  13.7725508  83.8991197  59.0212913  13.7175128  84.9103255
  45.9797502   4.5609004  68.7200861  46.2750943   3.6519682  68.6667915
  45.0785538   4.5396743  68.3981864  57.8883581  16.2816268  75.5251270
  57.7634720  15.4806007  75.0162215  58.5462672  16.7762461  75.0365240
  49.5091749   2.6365000  74.7028410  48.7878335   3.2500968  74.5635883
  50.2985005   3.1722765  74.6245056  59.9518489  14.0825288  77.1530820
  59.0048825  13.9630639  77.0809147  60.3001262  13.1947786  77.2357081
  52.3118063  -0.0280573  80.9769062  52.8352465   0.2181723  81.7395371
  52.0930396   0.8039461  80.5572199  47.7085344   2.2423101  68.8440187
  47.3798050   1.3620480  68.6615293  48.0624715   2.1870770  69.7316576
  56.9564923  13.8778004  73.3535172  56.8089885  12.9494711  73.5342742
  57.7818416  13.8998095  72.8692247  50.8227167   2.5296071  69.2115664
  51.1623239   3.0581992  68.4894273  51.2699287   2.8676477  69.9874231
  60.5599045  14.7006563  74.4400045  61.4845592  14.4949424  74.3024496
  60.3914348  14.4522964  75.3489386  53.5170608   0.9133122  78.6618732
  53.1767428   0.1140935  79.0639412  52.8109614   1.2134833  78.0895566
  54.1687080  -2.0017566  77.1146055  54.9913149  -2.4757088  76.9924946
  54.4125143  -1.2227082  77.6144742  52.8095314   1.0270693  67.4108957
  53.5303677   1.4051945  66.9072674  52.1860618   1.7459569  67.5143935
  56.9526437   1.7315842  68.3467289  57.1690051   2.6140479  68.0456118
  56.4720504   1.3402055  67.6172931  51.6925658   4.6901555  74.9238034
  51.5470239   5.0041858  75.8162316  51.2150862   5.3086455  74.3708933
  53.5522041   1.6804103  74.9718924  53.5383610   0.7845196  74.6351222
  54.2694469   1.6874766  75.6057210  55.4048172   2.1141443  77.0172051
  55.1465950   3.0358514  77.0156381  54.8733212   1.7171877  77.7072515
  60.3494361  15.2192230  69.7962136  60.5231238  14.6538653  69.0435989
  60.8423252  16.0193125  69.6141626  46.1671321   7.2306899  77.8625695
  45.6224789   8.0066707  77.9945970  47.0450670   7.5777704  77.7044817
  52.9558937   0.5618483  70.2406494  53.0774848  -0.3664871  70.4397381
  52.6660980   0.5757169  69.3284809  55.8250128  -1.7526607  73.3773214
  55.8471824  -1.6887273  72.4225193  56.2418187  -2.5922098  73.5713720
  66.2033752   7.9828653  71.4152436  66.6464898   7.2335978  71.0171559
  65.3260262   7.9738789  71.0326168  61.3369533  14.5358994  66.8959035
  62.0320438  15.1565687  67.1146349  61.6792683  13.6854346  67.1711413
  46.9537342   6.3576795  80.7555852  46.2119078   6.5059431  81.3420482
  46.6330087   6.6185061  79.8922601  63.2360956  11.9858700  68.4246365
  63.7612280  12.3245973  67.6995685  63.1483309  11.0505715  68.2409500
  54.8981005  15.8992774  80.5536242  55.2068131  15.6541920  81.4258942
  55.6956487  16.1039412  80.0655112  54.9201617  18.0530683  72.7841619
  54.4806607  17.5607062  73.4774475  55.6709734  17.5103651  72.5433694
  47.3993956  14.2442224  72.7866247  48.2251976  13.9445996  72.4064890
  47.0488008  13.4749847  73.2356035  52.3675489  13.5968692  74.8563920
  51.7455499  12.9339397  74.5566148  53.0380356  13.6229824  74.1737568
  45.6002561  12.1628551  73.7455180  44.7634469  11.7350725  73.5639182
  45.5726207  12.3560994  74.6825971  52.4400017   2.0750480  84.4496426
  52.4888172   2.9512603  84.0674196  52.9822531   1.5327873  83.8768070
  62.9254862  12.6191604  83.7297563  62.1350406  12.6015742  83.1902063
  62.6888217  13.1579897  84.4846600  63.0452737   9.4684070  81.0430292
  63.0950742   9.3034077  81.9845815  62.9366661   8.6011329  80.6528173
  51.9288996  12.1472616  68.3322381  52.0777117  12.8308080  67.6789054
  52.7355440  12.1277706  68.8471837  60.3356500   5.4514998  82.3589599
  61.2366363   5.3121463  82.0673596  60.4104474   5.6169453  83.2987776
  54.6699305   2.8281853  81.2042785  53.8002615   3.1215419  80.9325374
  54.9058786   3.4122298  81.9250049  64.5470934  11.8881012  81.2872313
  64.2555743  12.2510992  82.1235774  63.9343066  11.1748020  81.1085646
  65.7466617   9.4533891  73.8074884  66.5813508   9.8923695  73.9712444
  65.8825745   8.9772545  72.9883129  62.7958123   7.0113626  79.7552371
  63.2712244   7.2041272  78.9471223  61.8723688   7.0672812  79.5095755
  49.6841629   8.1737793  69.3383450  49.4387671   7.2700123  69.5363660
  49.8537544   8.1754944  68.3962928  57.3738339  -0.9538530  78.7208205
  57.8920283  -0.2177503  78.3954694  57.0193472  -0.6474537  79.5554964
  48.9537277   3.9066151  66.8369611  48.2606522   3.9810506  66.1809647
  48.7089029   3.1426495  67.3591128  55.4284402  14.6420746  65.8034128
  54.8558369  15.2610933  65.3504600  56.0017195  15.1920108  66.3374050
  61.4959792   3.8879386  77.9880677  62.4477214   3.9877484  78.0092901
  61.3263242   3.0957655  78.4978761  59.5174171   0.9734969  78.1740078
  58.9224103   1.2539982  77.4786567  59.2323868   1.4628870  78.9456819
  58.6481661  14.9257896  66.9342711  59.5812335  14.8603458  67.1375586
  58.5604874  15.7614163  66.4757243  61.2769678  14.2423767  63.8946658
  61.1983310  13.9083630  64.7882416  62.0979345  14.7345535  63.8938130
  63.9747869   7.1085506  77.1022977  63.9424189   6.1701507  77.2882661
  64.5848493   7.1869543  76.3688802  55.8131200   5.9781559  63.1450181
  56.7590305   5.8487767  63.2138599  55.4345445   5.2396221  63.6219609
  64.1242358   3.8996549  77.1481260  63.6081406   3.1155006  76.9611189
  65.0082306   3.5715266  77.3127779  61.7853085  -2.3562435  73.1077073
  61.5877906  -2.6647347  73.9920405  62.3952790  -1.6300796  73.2375002
  69.7924419   8.1701513  76.2429014  70.5227808   7.9086801  76.8036717
  69.1831365   7.4330235  76.2831081  67.8739716   6.3109375  76.8403465
  67.1472880   6.1765340  76.2319956  67.4587003   6.6186204  77.6460183
  55.6969893  10.0299305  84.6050838  56.6172902  10.2077904  84.7990884
  55.6619476   9.0855350  84.4530537  53.9974117   3.9031535  63.0805066
  53.0905573   3.6064648  63.1567780  54.2750098   3.6061353  62.2139352
  44.9152058   5.2237899  73.5304112  44.5954842   4.3703207  73.2378486
  44.3685486   5.4386477  74.2862080  48.6931965   7.9400340  77.2473619
  48.9117975   8.8717448  77.2661653  49.1057739   7.5808314  78.0328423
  55.6136183  -1.5531575  69.2349307  54.8036911  -1.8984490  69.6104553
  56.3020600  -1.8624031  69.8236919  57.5426731  -2.4753528  70.8573604
  58.0957770  -2.0558075  71.5163627  57.7796818  -3.4017780  70.8996560
  53.5659831   3.5133545  86.6376368  53.4656557   4.4627902  86.5688459
  53.3481373   3.1851784  85.7652438  52.7672902   0.7618471  63.2217045
  53.6292066   1.0873369  63.4812863  52.9523246  -0.0250034  62.7090111
  44.7840318   8.8440810  75.4997234  44.0903789   8.4294763  74.9867188
  45.5313309   8.8861347  74.9030653  60.9205538  -0.3653003  70.3652268
  60.3404207   0.2931801  69.9830321  60.6541471  -1.1875658  69.9539686
  59.3709105  -0.9647945  72.5673589  59.8708883  -0.8531411  71.7587907
  60.0144713  -1.2686892  73.2074397  53.4291101   6.9430684  85.4541429
  52.9458182   7.7431044  85.6605319  53.5152040   6.9538629  84.5008873
  46.6977060   8.7759064  73.3763249  46.6747748   8.8746751  72.4245132
  47.0077697   9.6224215  73.6980415  49.3564438  10.8335219  77.4909863
  50.3107692  10.8019161  77.4239795  49.1576962  10.3725843  78.3060089
  49.9463820   9.4036335  80.0580661  50.7656709   9.8980414  80.0815498
  50.2200628   8.4868303  80.0298228  59.7030416   1.7947087  69.4208616
  58.8156271   2.0796738  69.2028811  60.1184406   1.6340851  68.5735893
  63.0544953   1.8193608  73.1362956  63.8305343   2.3090061  73.4087573
  62.3293087   2.2451663  73.5934825  65.4917511   2.5321228  74.1936896
  66.0862002   2.2916964  73.4830205  65.5644095   1.8128358  74.8210433
  47.7114667  16.3754838  74.5080061  47.5769135  15.6155239  73.9418059
  47.2946729  17.0995738  74.0408850  58.8473630  11.5591762  63.5156636
  59.5509480  11.7641765  64.1314292  58.1236279  12.1268524  63.7805720
  59.6771440   7.3101623  69.6358907  59.6206642   7.7670175  68.7966539
  60.2299783   6.5492308  69.4581749  63.4876246   3.0991355  70.4609026
  63.2313180   2.6987991  71.2917234  62.8629114   3.8135149  70.3359165
  67.7988584   5.8387428  72.9680317  67.2388142   5.9080618  73.7411880
  67.1932087   5.6628413  72.2479814  50.8683793  17.2724156  74.7198504
  50.7516177  18.2169588  74.6177194  50.0476239  16.9697717  75.1084303
  60.7560327  11.9974291  65.5655096  61.5905931  11.5655490  65.3832571
  60.5944670  11.8256305  66.4931991  60.4106220   8.5006405  66.9311436
  60.3555023   8.3350676  65.9899880  59.7852275   9.2082437  67.0873625
  45.1998734   3.7374469  80.7572858  45.8457598   3.2273423  81.2460083
  44.9915886   4.4743151  81.3316283  57.7252127  10.8055316  86.2564999
  58.5943286  10.9795969  85.8951633  57.2458878  11.6249733  86.1340728
  53.7202345  -1.9985486  66.5096754  53.7081015  -1.0543647  66.6665025
  54.6125767  -2.1815341  66.2156215  51.8938307  17.9252417  77.9354432
  52.7965554  17.9576028  78.2520927  51.6675677  16.9952868  77.9500768
  53.6491909  16.6783404  74.5964511  52.6987540  16.6785266  74.4828883
  53.9524395  15.9316139  74.0800545  49.5396225   0.8842086  84.8547872
  50.4027687   0.5278891  85.0651197  48.9661636   0.5455981  85.5423276
  69.3844602  22.5143942  75.6610273  70.0223012  22.3950690  74.9573613
  69.2665445  23.4624786  75.7198225  66.1934309  22.4671370  75.5971798
  65.8552820  22.3512435  74.7092333  67.0624077  22.0662536  75.5772804
  62.0521124  24.3206847  71.5868689  61.4885990  24.2296784  70.8184977
  61.9373519  23.5006751  72.0671181  66.6754092  23.6206222  81.5558003
  66.6642732  23.2259020  80.6838507  66.8374731  22.8872295  82.1491775
  59.5985556  25.8158038  74.4252909  60.3906848  25.4748863  74.0099209
  59.8382206  25.9253014  75.3455063  67.6320683  27.9877815  66.8983154
  66.9808663  28.5731895  66.5117168  68.4265046  28.5184009  66.9578191
  61.5576310  25.0766952  67.2970288  62.3307186  24.5295939  67.1583164
  61.9101709  25.9411201  67.5084750  63.3961353  26.4043334  80.5037187
  63.1051219  27.3088965  80.3883854  64.0318337  26.4459862  81.2181257
  64.3217560  23.7820182  77.0938547  64.9181132  23.5576205  76.3795510
  64.3792531  23.0404928  77.6963995  63.8942588  21.2359618  64.9288738
  64.1468109  20.7141139  64.1672201  62.9567147  21.0725763  65.0315422
  68.9385871  20.2395396  72.7363481  69.7248960  19.8214819  72.3853898
  69.2024575  21.1441488  72.9045130  69.1095948  25.6768246  67.4352138
  68.4741781  25.7502873  68.1473043  68.7793355  26.2661845  66.7571217
  74.3394298  20.1770629  73.6396460  75.0719470  19.6069846  73.8734289
  73.5833654  19.7892230  74.0802965  63.6138877  23.1387724  67.1313113
  63.4975135  22.4632627  67.7994197  63.7241137  22.6520098  66.3145266
  65.9570418  22.5997871  70.8359802  65.5928625  22.0728492  71.5472724
  66.8137534  22.2096340  70.6626288  71.8619718  13.8892203  78.0991068
  71.5303043  14.7587614  77.8752283  71.2665332  13.5728487  78.7785099
  65.5975905  17.6287771  65.8321151  65.7650307  18.4968007  66.1991622
  65.4073074  17.7915052  64.9082440  68.3551238  26.0904749  77.4986981
  68.0551961  26.9929788  77.3902788  68.0102297  25.8236933  78.3508134
  61.8063719  22.5418546  73.5323686  60.8814216  22.4094760  73.7401377
  62.0548133  23.3212766  74.0293628  71.7548382  18.6087290  75.1784418
  70.8465259  18.5402698  74.8843179  71.7035977  19.0859235  76.0066244
  65.5765126  20.0845428  66.8167818  65.4564751  20.5302479  67.6553298
  64.8817714  20.4330746  66.2581356  59.1672530  22.1851820  74.3667475
  59.2964912  22.4386299  75.2806886  58.4869982  22.7779528  74.0472130
  63.3372018  32.8549070  70.4657949  63.2596047  33.8056895  70.5446429
  62.7333661  32.5094942  71.1232875  65.8289247  20.0276935  83.1219316
  65.0522582  20.5870855  83.1122180  66.4679811  20.5133718  83.6434186
  73.6210028  16.8103728  76.9562292  72.9784408  17.1036261  76.3102087
  73.1164957  16.6956648  77.7615489  71.2750192  20.5566901  67.6448152
  72.1868048  20.7894288  67.4695849  70.7659839  21.1403945  67.0823230
  64.0835620  22.8362389  82.6837283  64.8250304  23.3747433  82.4072106
  63.3772605  23.4628677  82.8408835  69.5590959  24.9791529  81.2809444
  69.9674315  24.5373940  80.5364077  68.8368221  24.4044157  81.5343637
  65.9122029  19.9164136  78.6543001  66.7583225  20.3403549  78.7977650
  65.8520667  19.2597760  79.3481564  69.8819774  25.5392720  75.0361733
  69.2528637  25.7038434  74.3337801  69.4945436  25.9534329  75.8072697
  73.7609006  26.4747158  72.3906097  73.0760044  26.8546059  71.8403130
  73.8452855  27.0842484  73.1238045  69.0621475  17.5768504  80.3124175
  68.8182407  18.3310565  79.7758450  69.3381405  17.9553852  81.1471422
  71.0159938  24.1207117  78.9901440  71.2276833  24.7638876  78.3135821
  70.9689686  23.2869433  78.5223370  68.6186167  16.7324937  75.8938013
  67.7570646  17.0306191  76.1854750  68.6448601  16.9495336  74.9619045
  65.4347736  25.2767128  72.3011818  65.8986081  25.5554831  71.5116441
  65.1704534  24.3750572  72.1184909  62.3271817  24.8238609  75.2391581
  62.8973174  25.2525878  74.6009066  62.9179929  24.5421194  75.9375767
  64.3716622  21.3990280  69.1101383  65.0740665  21.8511324  69.5775310
  64.0397251  20.7574099  69.7381276  62.8196984  19.9902037  83.4852593
  62.1895644  20.6718318  83.7187990  62.7133071  19.8785118  82.5405731
  58.1141956  19.6573833  74.4118517  57.3241010  19.9131361  73.9358627
  58.6053203  20.4722171  74.5170557  72.1305766  26.9979072  77.1623798
  72.9523209  26.5959259  76.8806479  72.1268168  26.8947306  78.1139914
  60.0656701  20.0218412  71.3701994  59.2687865  20.1337106  71.8885489
  59.8382294  20.3605064  70.5042884  65.8962369  26.5463115  79.3184508
  65.9606801  27.0083523  80.1542680  65.1873293  25.9160480  79.4466818
  56.3979659  19.9104323  76.8433508  56.6487697  20.7951333  77.1091084
  56.9339207  19.7308925  76.0708600  80.2211759  23.3417820  73.5108769
  79.4675467  22.7725219  73.3552774  80.3559300  23.3080485  74.4579404
  65.6110387  28.2131223  69.1863489  65.4756061  29.0582759  69.6148336
  66.1520199  28.4150500  68.4229422  62.0977726  14.2922803  85.8477844
  61.7044672  13.7389001  86.5225488  62.9143867  14.6033381  86.2384361
  59.0639784  25.7306661  69.7591414  59.5764305  26.5249911  69.9096978
  59.7162497  25.0332951  69.6925015  60.8734669  28.8472417  71.8414167
  61.0501297  29.7690382  71.6535151  61.6691502  28.5330836  72.2708547
  65.0145687  15.7080682  83.4398100  65.7555401  16.3087835  83.3602563
  65.2463610  14.9658320  82.8816143  60.1587025  20.8937049  81.7176330
  60.0440540  19.9922306  82.0183429  59.3031543  21.1400746  81.3661147
  67.2378863  28.8354789  83.3163831  66.7942717  28.0491168  82.9984735
  67.8996077  29.0233940  82.6507721  61.9965984  30.3650591  77.8424509
  62.5473409  30.2367654  77.0701503  61.1577460  30.6645480  77.4919402
  69.3360101  29.1157589  81.3445232  69.3178576  29.9366470  80.8525501
  70.2580021  28.9911664  81.5695373  65.7933155  26.6301719  82.1868740
  66.3261492  25.8690007  81.9568048  65.2647236  26.3375371  82.9292895
  68.9602850  11.7361785  77.7162382  68.6167120  12.6263426  77.6401493
  69.3281813  11.5463442  76.8531967  57.0288701  24.0595315  70.5350984
  57.8663923  24.4692323  70.3184692  57.2066969  23.1194757  70.5051178
  68.9253133  21.7270396  66.2234817  68.4099756  22.4975000  66.4623205
  68.6530441  21.0535532  66.8467879  66.5100244  16.5720097  71.2820055
  65.6541840  16.1826947  71.1025694  66.9227196  16.6512057  70.4219841
  68.0399391  14.1066440  75.6811615  67.5364186  14.0696575  74.8679421
  68.3329997  15.0159183  75.7408272  64.2842276  14.1905170  74.6877797
  65.1495273  13.9947978  74.3283686  64.3519785  13.9615521  75.6147154
  73.8987407  24.4802750  68.1587991  73.1216850  24.1413910  67.7143153
  74.5778888  24.4855374  67.4842956  68.7139436  19.5997488  68.0494598
  68.4089572  19.9143637  68.9004741  69.6669878  19.6778908  68.0921931
  67.1585868  25.7587711  69.6987552  66.6307230  25.0240471  69.3860790
  66.6573371  26.5362388  69.4527521  72.1378714  23.9536732  74.8154599
  71.4802388  24.6435993  74.9034727  72.9419113  24.3433164  75.1588585
  61.8904596  16.4207377  72.0594164  62.4648347  16.1982559  71.3267357
  62.4775578  16.4896072  72.8122765  70.9484173  22.3081104  72.8658540
  71.4616055  22.9411096  73.3680250  71.5985397  21.7082300  72.5001900
  62.2174183  18.4511839  66.0790049  61.3811495  18.7886525  66.3999324
  62.0778952  18.3160818  65.1417186  64.1927263  13.2948626  70.7869233
  63.5391676  12.9797644  70.1625848  64.1507737  12.6724367  71.5129056
  65.3038468  23.5767921  62.7022525  64.3965530  23.3457175  62.9013674
  65.8009500  22.7805541  62.8896507  68.2106547  32.2865429  65.6219211
  67.5368246  32.5897125  66.2304169  68.5972369  33.0894509  65.2724669
  67.4265004  19.7830560  75.1116881  66.5087565  20.0045507  74.9538569
  67.8425147  19.8576870  74.2528588  68.2100051  21.1821976  70.2419561
  68.9571870  21.6943373  69.9326683  68.4791641  20.8606028  71.1023955
  66.4826702  23.6780516  67.2246515  65.5737921  23.3939549  67.3218985
  66.5121785  24.0979595  66.3649822  71.7145969  27.2887106  70.9937683
  71.2608296  26.4478016  71.0502873  71.0839936  27.9248504  71.3312463
  70.6578889  18.2179092  72.2238350  69.9201645  17.7056478  72.5548593
  70.9105662  17.7779473  71.4121627  70.1578908  29.1263603  71.9287501
  70.4501883  29.6868660  71.2099867  70.6677529  29.4192164  72.6840660
  70.7590516  10.9955344  72.8180120  71.0649393  10.1352707  72.5306035
  71.4843121  11.5872964  72.6179114  57.0514872  21.3986030  71.2061718
  56.8539272  20.8055391  70.4812784  56.4961536  21.0938241  71.9237656
  65.0311596  21.2909137  73.3256311  65.0860205  20.3382973  73.2498787
  64.2202798  21.4468576  73.8097609  66.1802789  25.2189260  64.5634594
  65.7422219  24.5025119  64.1040231  66.9213230  25.4465375  64.0019685
  62.9703956  19.9086197  71.0846690  62.1571821  20.2080367  71.4911882
  63.4662950  19.5141885  71.8021172  65.1212533  29.9043954  73.0180954
  65.0788712  30.1304800  72.0889486  66.0375232  29.6707328  73.1666755
  68.5678167  20.3728021  79.9161584  68.9227555  20.5999494  80.7756049
  69.2150298  20.7046398  79.2938839  74.2975904  23.4946457  70.6210913
  74.1593803  23.6848053  69.6932102  73.9412123  24.2565840  71.0778964
  62.4618030  17.4804552  76.7007925  63.1017410  17.3393311  76.0030888
  61.6295561  17.1939066  76.3246527  74.3245284  25.5622984  75.6322184
  74.7581790  25.4698273  76.4805238  75.0376864  25.5380485  74.9942200
  63.2378334  26.7806983  72.8142917  64.0318933  26.2857303  72.6125492
  62.5270027  26.2524846  72.4510623  68.0573179  29.1625078  77.1655285
  68.1110201  29.7316014  77.9333001  67.1887960  29.3326963  76.8009322
  59.5461098  20.9250064  68.8902670  58.6158686  20.8634520  69.1072632
  59.6418570  20.4026017  68.0939311  59.4646647  17.4504877  71.4780911
  59.7253464  18.3650210  71.3690072  60.2863819  16.9829320  71.6277524
  60.9371572  18.8642634  78.6479736  61.6094625  18.6559996  77.9992385
  60.1101359  18.6664720  78.2084968  75.1860833  25.6046685  78.1655069
  75.3796723  26.5092495  78.4114344  75.0861451  25.1454104  78.9993654
  66.8397144  15.4904575  80.6645397  66.1925059  16.1894525  80.5709873
  67.6098159  15.9240719  81.0321645  70.2475942  25.7553427  83.7395950
  70.0961448  25.5263979  82.8226034  70.2380621  26.7124029  83.7527295
  67.0161278  23.3285340  78.7242216  67.9453338  23.4796500  78.5511184
  66.5952308  23.4169361  77.8690863  65.8149610  27.3536005  76.4940754
  65.6760696  26.9854789  77.3666692  65.0264206  27.8683644  76.3224712
  66.4097762  32.4545101  67.8366291  66.5849518  31.9833144  68.6511913
  65.7230550  33.0810867  68.0647551  67.3654825  26.7317607  73.8829592
  67.0304658  26.6918377  74.7787242  66.8658771  26.0662323  73.4100002
  61.3399069  22.1385237  79.4082173  61.2018867  21.4065476  80.0093712
  62.2503993  22.0494137  79.1266361  70.3014017  24.0773642  64.1566652
  69.6843188  23.3520470  64.0599704  69.8330505  24.8383002  63.8133726
  63.9681370  21.8505197  78.8965853  64.6780988  21.2098389  78.8552471
  63.9250678  22.1018091  79.8192033  71.9568149  28.7872550  81.8172432
  71.8980695  28.1031770  81.1503015  72.3587667  29.5291540  81.3653058
  62.6810304  18.8370415  80.7161492  62.1447661  18.3861153  81.3683089
  62.0927012  18.9716323  79.9731957  60.9758847  35.6034464  74.6106151
  61.2155446  36.2352988  75.2885169  60.1328044  35.2522504  74.8971510
  62.0912563  18.2959066  63.2787956  61.2142029  18.1747867  62.9150203
  62.5670316  17.5045144  63.0266844  71.9585556  26.7512134  80.0486412
  71.0712335  26.4138056  80.1712810  72.5284107  26.0195165  80.2855177
  53.6114703  23.0836226  73.3729463  54.2985743  22.7697956  72.7850478
  53.4562832  23.9877590  73.0996714  58.4149425  17.9726422  77.8014487
  58.3307614  17.3652092  77.0664897  57.5932132  18.4635441  77.8023983
  65.4886709  31.4113586  77.0147655  65.4156881  32.2168558  77.5266959
  65.0464102  31.6105552  76.1895676  65.2776489  30.6485356  70.5250476
  64.4944011  31.1907036  70.6188701  65.9769234  31.1659336  70.9244718
  68.5873139  16.4579986  73.1684682  69.0841839  15.7049948  72.8485752
  67.8160121  16.4944302  72.6027891  76.4402896  22.1620351  74.8102973
  76.4292773  23.0445067  74.4396906  75.5720276  21.8091902  74.6157510
  67.9485393  31.3100420  79.1705813  68.6613365  31.9447885  79.0981715
  67.4575421  31.4064286  78.3545815  69.6702920  25.2151673  70.7423105
  68.7359198  25.3353135  70.5727809  69.8479588  24.3124140  70.4783115
  65.1708108  18.5997369  72.8956366  64.8005895  18.0468409  73.5837272
  65.6667200  17.9955502  72.3431366  73.0575471  21.0568992  71.2773139
  73.5235923  21.8896984  71.2033442  73.5082972  20.5913974  71.9818398
  62.9997306  29.0594864  79.9911384  63.7006766  29.6931347  80.1440779
  62.5292421  29.4009595  79.2307024  71.1251702  27.4012814  68.2759291
  71.4011546  27.2869408  69.1853165  70.2556201  27.0030298  68.2371464
  71.0292134  13.4249579  75.3164041  70.1155214  13.6553806  75.4846248
  71.4585235  13.5088023  76.1678073  70.7998592  21.6139471  77.8163935
  70.1470043  21.8615379  77.1616387  71.1778972  20.8003609  77.4826412
  67.7605766  31.6499164  71.9192105  67.9428161  30.8320820  72.3819857
  68.5838752  31.8666857  71.4816995  68.0947932  30.5767350  69.1807153
  68.6235698  30.0659804  68.5677316  68.3576151  30.2609880  70.0452686
  66.8486165  22.3559282  84.3029972  66.1726802  22.2553412  84.9732347
  67.6713799  22.1998496  84.7665969  58.5965024  28.5931219  76.9242487
  59.1818461  27.8474907  77.0570391  58.3989863  28.9035176  77.8079151
  61.4503680  31.6282466  71.9404929  60.7814055  32.1128594  71.4568969
  61.3116549  31.8751687  72.8548308  53.1882679  21.1636819  75.6446930
  53.2266779  20.6300410  76.4384048  52.6822972  20.6372025  75.0257907
  65.5908948  33.6626210  78.5387588  66.1427256  33.8257831  79.3036673
  65.9315142  34.2530648  77.8667613  60.5673441  16.0101360  79.1409472
  60.6314768  16.8716190  78.7286870  60.5040562  15.3975361  78.4081831
  60.0425714  18.0824492  82.7882507  60.6697753  17.7001569  83.4020031
  59.1853633  17.8638694  83.1538199  70.4419823  28.4887467  84.3936242
  70.9859727  29.1017426  83.8991197  69.8606667  29.0467046  84.9103255
  56.8191257  19.8900921  68.7200861  57.1144698  18.9811600  68.6667915
  55.9179292  19.8688661  68.3981864  68.7277335  31.6108185  75.5251270
  68.6028475  30.8097925  75.0162215  69.3856427  32.1054379  75.0365240
  60.3485504  17.9656918  74.7028410  59.6272089  18.5792885  74.5635883
  61.1378759  18.5014683  74.6245056  70.7912244  29.4117205  77.1530820
  69.8442579  29.2922557  77.0809147  71.1395017  28.5239703  77.2357081
  63.1511817  15.3011344  80.9769062  63.6746219  15.5473641  81.7395371
  62.9324151  16.1331379  80.5572199  58.5479098  17.5715019  68.8440187
  58.2191804  16.6912398  68.6615293  58.9018469  17.5162688  69.7316576
  67.7958677  29.2069922  73.3535172  67.6483640  28.2786629  73.5342742
  68.6212171  29.2290012  72.8692247  61.6620921  17.8587989  69.2115664
  62.0016994  18.3873910  68.4894273  62.1093042  18.1968395  69.9874231
  71.3992799  30.0298480  74.4400045  72.3239346  29.8241342  74.3024496
  71.2308102  29.7814881  75.3489386  64.3564362  16.2425039  78.6618732
  64.0161183  15.4432852  79.0639412  63.6503369  16.5426750  78.0895566
  65.0080834  13.3274352  77.1146055  65.8306903  12.8534830  76.9924946
  65.2518898  14.1064836  77.6144742  63.6489069  16.3562610  67.4108957
  64.3697431  16.7343863  66.9072674  63.0254373  17.0751487  67.5143935
  67.7920191  17.0607759  68.3467289  68.0083806  17.9432397  68.0456118
  67.3114259  16.6693973  67.6172931  62.5319413  20.0193472  74.9238034
  62.3863994  20.3333775  75.8162316  62.0544617  20.6378373  74.3708933
  64.3915796  17.0096020  74.9718924  64.3777365  16.1137114  74.6351222
  65.1088224  17.0166684  75.6057210  66.2441926  17.4433361  77.0172051
  65.9859704  18.3650431  77.0156381  65.7126967  17.0463795  77.7072515
  71.1888115  30.5484148  69.7962136  71.3624993  29.9830570  69.0435989
  71.6817006  31.3485043  69.6141626  57.0065075  22.5598817  77.8625695
  56.4618543  23.3358625  77.9945970  57.8844425  22.9069621  77.7044817
  63.7952692  15.8910401  70.2406494  63.9168603  14.9627047  70.4397381
  63.5054734  15.9049087  69.3284809  66.6643882  13.5765311  73.3773214
  66.6865579  13.6404644  72.4225193  67.0811941  12.7369820  73.5713720
  77.0427506  23.3120571  71.4152436  77.4858652  22.5627896  71.0171559
  76.1654017  23.3030707  71.0326168  72.1763288  29.8650912  66.8959035
  72.8714192  30.4857605  67.1146349  72.5186438  29.0146263  67.1711413
  57.7931097  21.6868713  80.7555852  57.0512833  21.8351348  81.3420482
  57.4723841  21.9476979  79.8922601  74.0754711  27.3150618  68.4246365
  74.6006035  27.6537890  67.6995685  73.9877063  26.3797633  68.2409500
  65.7374760  31.2284691  80.5536242  66.0461886  30.9833838  81.4258942
  66.5350242  31.4331330  80.0655112  65.7595372  33.3822601  72.7841619
  65.3200362  32.8898980  73.4774475  66.5103489  32.8395569  72.5433694
  58.2387711  29.5734142  72.7866247  59.0645730  29.2737914  72.4064890
  57.8881763  28.8041764  73.2356035  63.2069244  28.9260610  74.8563920
  62.5849253  28.2631315  74.5566148  63.8774111  28.9521742  74.1737568
  56.4396316  27.4920468  73.7455180  55.6028224  27.0642643  73.5639182
  56.4119961  27.6852912  74.6825971  63.2793771  17.4042398  84.4496426
  63.3281927  18.2804521  84.0674196  63.8216285  16.8619791  83.8768070
  73.7648617  27.9483521  83.7297563  72.9744161  27.9307660  83.1902063
  73.5281971  28.4871815  84.4846600  73.8846492  24.7975988  81.0430292
  73.9344497  24.6325995  81.9845815  73.7760415  23.9303247  80.6528173
  62.7682751  27.4764533  68.3322381  62.9170871  28.1599998  67.6789054
  63.5749194  27.4569623  68.8471837  71.1750254  20.7806916  82.3589599
  72.0760117  20.6413381  82.0673596  71.2498229  20.9461371  83.2987776
  65.5093060  18.1573770  81.2042785  64.6396369  18.4507337  80.9325374
  65.7452540  18.7414215  81.9250049  75.3864689  27.2172929  81.2872313
  75.0949497  27.5802910  82.1235774  74.7736820  26.5039937  81.1085646
  76.5860371  24.7825809  73.8074884  77.4207262  25.2215613  73.9712444
  76.7219500  24.3064462  72.9883129  73.6351877  22.3405544  79.7552371
  74.1105999  22.5333190  78.9471223  72.7117442  22.3964730  79.5095755
  60.5235384  23.5029711  69.3383450  60.2781426  22.5992041  69.5363660
  60.6931298  23.5046861  68.3962928  68.2132094  14.3753387  78.7208205
  68.7314037  15.1114414  78.3954694  67.8587226  14.6817381  79.5554964
  59.7931031  19.2358069  66.8369611  59.1000276  19.3102424  66.1809647
  59.5482783  18.4718412  67.3591128  68.4644688  10.7953670  74.2409102
  68.7446441  10.1276859  74.8669528  69.2495295  10.9882766  73.7283766
  66.2678156  29.9712664  65.8034128  65.6952123  30.5902851  65.3504600
  66.8410950  30.5212026  66.3374050  72.3353546  19.2171304  77.9880677
  73.2870969  19.3169402  78.0092901  72.1656996  18.4249572  78.4978761
  70.3567925  16.3026887  78.1740078  69.7617858  16.5831900  77.4786567
  70.0717622  16.7920788  78.9456819  69.4875416  30.2549814  66.9342711
  70.4206089  30.1895376  67.1375586  69.3998629  31.0906081  66.4757243
  72.1163433  29.5715684  63.8946658  72.0377064  29.2375548  64.7882416
  72.9373099  30.0637452  63.8938130  74.8141624  22.4377424  77.1022977
  74.7817944  21.4993424  77.2882661  75.4242247  22.5161460  76.3688802
  66.6524955  21.3073477  63.1450181  67.5984059  21.1779685  63.2138599
  66.2739200  20.5688138  63.6219609  74.9636112  19.2288467  77.1481260
  74.4475161  18.4446924  76.9611189  75.8476061  18.9007184  77.3127779
  72.6246839  12.9729483  73.1077073  72.4271660  12.6644571  73.9920405
  73.2346545  13.6991122  73.2375002  80.6318174  23.4993430  76.2429014
  81.3621562  23.2378719  76.8036717  80.0225119  22.7622152  76.2831081
  78.7133471  21.6401293  76.8403465  77.9866634  21.5057258  76.2319956
  78.2980758  21.9478122  77.6460183  66.5363647  25.3591223  84.6050838
  67.4566657  25.5369822  84.7990884  66.5013230  24.4147268  84.4530537
  64.8367872  19.2323453  63.0805066  63.9299327  18.9356566  63.1567780
  65.1143853  18.9353271  62.2139352  55.7545812  20.5529816  73.5304112
  55.4348597  19.6995125  73.2378486  55.2079240  20.7678395  74.2862080
  59.5325720  23.2692257  77.2473619  59.7511730  24.2009365  77.2661653
  59.9451494  22.9100232  78.0328423  66.4529938  13.7760343  69.2349307
  65.6430666  13.4307428  69.6104553  67.1414354  13.4667886  69.8236919
  68.3820486  12.8538389  70.8573604  68.9351524  13.2733843  71.5163627
  68.6190572  11.9274138  70.8996560  64.4053585  18.8425463  86.6376368
  64.3050312  19.7919820  86.5688459  64.1875127  18.5143702  85.7652438
  63.6066656  16.0910388  63.2217045  64.4685820  16.4165287  63.4812863
  63.7917001  15.3041884  62.7090111  55.6234072  24.1732728  75.4997234
  54.9297544  23.7586681  74.9867188  56.3707063  24.2153264  74.9030653
  71.7599293  14.9638915  70.3652268  71.1797962  15.6223719  69.9830321
  71.4935226  14.1416259  69.9539686  70.2102859  14.3643972  72.5673589
  70.7102638  14.4760507  71.7587907  70.8538467  14.0605025  73.2074397
  64.2684855  22.2722602  85.4541429  63.7851937  23.0722962  85.6605319
  64.3545794  22.2830547  84.5008873  57.5370815  24.1050982  73.3763249
  57.5141503  24.2038669  72.4245132  57.8471451  24.9516132  73.6980415
  60.1958193  26.1627137  77.4909863  61.1501446  26.1311079  77.4239795
  59.9970716  25.7017760  78.3060089  60.7857575  24.7328253  80.0580661
  61.6050464  25.2272331  80.0815498  61.0594382  23.8160221  80.0298228
  70.5424171  17.1239005  69.4208616  69.6550026  17.4088656  69.2028811
  70.9578160  16.9632768  68.5735893  73.8938707  17.1485526  73.1362956
  74.6699097  17.6381978  73.4087573  73.1686841  17.5743580  73.5934825
  76.3311266  17.8613145  74.1936896  76.9255757  17.6208881  73.4830205
  76.4037849  17.1420276  74.8210433  58.5508421  31.7046756  74.5080061
  58.4162889  30.9447157  73.9418059  58.1340484  32.4287656  74.0408850
  69.6867384  26.8883680  63.5156636  70.3903235  27.0933682  64.1314292
  68.9630033  27.4560442  63.7805720  70.5165195  22.6393541  69.6358907
  70.4600396  23.0962092  68.7966539  71.0693537  21.8784226  69.4581749
  74.3270001  18.4283273  70.4609026  74.0706935  18.0279908  71.2917234
  73.7022869  19.1427067  70.3359165  78.6382338  21.1679346  72.9680317
  78.0781896  21.2372535  73.7411880  78.0325842  20.9920331  72.2479814
  61.7077547  32.6016073  74.7198504  61.5909931  33.5461506  74.6177194
  60.8869994  32.2989635  75.1084303  71.5954082  27.3266209  65.5655096
  72.4299686  26.8947407  65.3832571  71.4338425  27.1548223  66.4931991
  71.2499974  23.8298322  66.9311436  71.1948778  23.6642594  65.9899880
  70.6246029  24.5374355  67.0873625  56.0392489  19.0666387  80.7572858
  56.6851353  18.5565341  81.2460083  55.8309640  19.8035068  81.3316283
  68.5645881  26.1347234  86.2564999  69.4337041  26.3087886  85.8951633
  68.0852633  26.9541651  86.1340728  64.5596099  13.3306431  66.5096754
  64.5474769  14.2748271  66.6665025  65.4519521  13.1476577  66.2156215
  62.7332061  33.2544335  77.9354432  63.6359308  33.2867945  78.2520927
  62.5069431  32.3244786  77.9500768  64.4885663  32.0075322  74.5964511
  63.5381294  32.0077183  74.4828883  64.7918150  31.2608056  74.0800545
  68.3748219   9.9249208  70.7642691  67.6080615   9.3707695  70.9099373
  68.7858924   9.9971077  71.6256843  60.3789980  16.2134004  84.8547872
  61.2421442  15.8570809  85.0651197  59.8055391  15.8747898  85.5423276
  80.2238357  37.8435860  75.6610273  80.8616767  37.7242607  74.9573613
  80.1059200  38.7916704  75.7198225  72.8914879  39.6498765  71.5868689
  72.3279744  39.5588701  70.8184977  72.7767274  38.8298669  72.0671181
  77.5147846  38.9498140  81.5558003  77.5036487  38.5550938  80.6838507
  77.6768486  38.2164212  82.1491775  70.4379311  41.1449956  74.4252909
  71.2300603  40.8040781  74.0099209  70.6775961  41.2544931  75.3455063
  78.4714438  43.3169732  66.8983154  77.8202417  43.9023813  66.5117168
  79.2658800  43.8475927  66.9578191  72.3970065  40.4058869  67.2970288
  73.1700941  39.8587856  67.1583164  72.7495464  41.2703119  67.5084750
  74.2355107  41.7335252  80.5037187  73.9444973  42.6380882  80.3883854
  74.8712092  41.7751779  81.2181257  75.1611314  39.1112100  77.0938547
  75.7574886  38.8868123  76.3795510  75.2186286  38.3696846  77.6963995
  74.7336343  36.5651536  64.9288738  74.9861863  36.0433057  64.1672201
  73.7960902  36.4017681  65.0315422  79.7779625  35.5687314  72.7363481
  80.5642715  35.1506737  72.3853898  80.0418330  36.4733406  72.9045130
  79.9489703  41.0060164  67.4352138  79.3135536  41.0794791  68.1473043
  79.6187109  41.5953763  66.7571217  85.1788053  35.5062547  73.6396460
  85.9113224  34.9361764  73.8734289  84.4227408  35.1184148  74.0802965
  74.4532631  38.4679641  67.1313113  74.3368889  37.7924545  67.7994197
  74.5634891  37.9812015  66.3145266  82.7013473  29.2184121  78.0991068
  82.3696798  30.0879532  77.8752283  82.1059086  28.9020405  78.7785099
  76.4369659  32.9579688  65.8321151  76.6044062  33.8259925  66.1991622
  76.2466828  33.1206970  64.9082440  79.1944992  41.4196667  77.4986981
  78.8945715  42.3221706  77.3902788  78.8496052  41.1528850  78.3508134
  72.6457474  37.8710464  73.5323686  71.7207970  37.7386678  73.7401377
  72.8941887  38.6504683  74.0293628  82.5942136  33.9379207  75.1784418
  81.6859014  33.8694616  74.8843179  82.5429732  34.4151152  76.0066244
  76.4158880  35.4137346  66.8167818  76.2958505  35.8594397  67.6553298
  75.7211468  35.7622663  66.2581356  70.0066285  37.5143738  74.3667475
  70.1358666  37.7678216  75.2806886  69.3263736  38.1071446  74.0472130
  76.6683002  35.3568853  83.1219316  75.8916336  35.9162773  83.1122180
  77.3073565  35.8425636  83.6434186  84.4603783  32.1395646  76.9562292
  83.8178163  32.4328179  76.3102087  83.9558711  32.0248566  77.7615489
  82.1143946  35.8858819  67.6448152  83.0261802  36.1186206  67.4695849
  81.6053593  36.4695863  67.0823230  74.9229374  38.1654306  82.6837283
  75.6644059  38.7039350  82.4072106  74.2166360  38.7920595  82.8408835
  76.7515784  35.2456054  78.6543001  77.5976979  35.6695467  78.7977650
  76.6914422  34.5889678  79.3481564  79.9015229  32.9060422  80.3124175
  79.6576161  33.6602482  79.7758450  80.1775160  33.2845769  81.1471422
  79.4579921  32.0616855  75.8938013  78.5964400  32.3598108  76.1854750
  79.4842356  32.2787254  74.9619045  76.2741490  40.6059045  72.3011818
  76.7379836  40.8846748  71.5116441  76.0098289  39.7042490  72.1184909
  73.1665572  40.1530527  75.2391581  73.7366929  40.5817795  74.6009066
  73.7573683  39.8713112  75.9375767  75.2110377  36.7282198  69.1101383
  75.9134420  37.1803242  69.5775310  74.8791005  36.0866017  69.7381276
  73.6590738  35.3193954  83.4852593  73.0289399  36.0010235  83.7187990
  73.5526826  35.2077036  82.5405731  68.9535710  34.9865751  74.4118517
  68.1634764  35.2423279  73.9358627  69.4446958  35.8014088  74.5170557
  82.9699520  42.3270990  77.1623798  83.7916964  41.9251177  76.8806479
  82.9661923  42.2239224  78.1139914  70.9050456  35.3510330  71.3701994
  70.1081619  35.4629024  71.8885489  70.6776048  35.6896982  70.5042884
  67.2373413  35.2396241  76.8433508  67.4881452  36.1243251  77.1091084
  67.7732962  35.0600842  76.0708600  91.0605513  38.6709738  73.5108769
  90.3069221  38.1017136  73.3552774  91.1953054  38.6372403  74.4579404
  76.4504141  43.5423140  69.1863489  76.3149816  44.3874676  69.6148336
  76.9913954  43.7442418  68.4229422  72.9371481  29.6214720  85.8477844
  72.5438426  29.0680919  86.5225488  73.7537621  29.9325299  86.2384361
  69.9033539  41.0598579  69.7591414  70.4158059  41.8541829  69.9096978
  70.5556251  40.3624869  69.6925015  71.7128423  44.1764335  71.8414167
  71.8895052  45.0982299  71.6535151  72.5085257  43.8622754  72.2708547
  75.8539442  31.0372599  83.4398100  76.5949155  31.6379753  83.3602563
  76.0857365  30.2950237  82.8816143  70.9980780  36.2228967  81.7176330
  70.8834295  35.3214224  82.0183429  70.1425298  36.4692663  81.3661147
  72.8359739  45.6942509  77.8424509  73.3867164  45.5659572  77.0701503
  71.9971215  45.9937398  77.4919402  80.1753856  44.4449507  81.3445232
  80.1572331  45.2658388  80.8525501  81.0973776  44.3203582  81.5695373
  76.6326910  41.9593636  82.1868740  77.1655247  41.1981925  81.9568048
  76.1040991  41.6667288  82.9292895  79.7996605  27.0653702  77.7162382
  79.4560874  27.9555344  77.6401493  80.1675567  26.8755360  76.8531967
  67.8682455  39.3887233  70.5350984  68.7057677  39.7984241  70.3184692
  68.0460723  38.4486675  70.5051178  79.7646887  37.0562313  66.2234817
  79.2493511  37.8266918  66.4623205  79.4924196  36.3827450  66.8467879
  77.3493998  31.9012014  71.2820055  76.4935595  31.5118865  71.1025694
  77.7620950  31.9803975  70.4219841  78.8793145  29.4358358  75.6811615
  78.3757941  29.3988493  74.8679421  79.1723752  30.3451100  75.7408272
  75.1236031  29.5197087  74.6877797  75.9889028  29.3239896  74.3283686
  75.1913540  29.2907439  75.6147154  84.7381162  39.8094668  68.1587991
  83.9610604  39.4705828  67.7143153  85.4172643  39.8147291  67.4842956
  79.5533191  34.9289406  68.0494598  79.2483326  35.2435555  68.9004741
  80.5063633  35.0070825  68.0921931  77.9979622  41.0879629  69.6987552
  77.4700984  40.3532388  69.3860790  77.4967125  41.8654305  69.4527521
  82.9772468  39.2828649  74.8154599  82.3196143  39.9727911  74.9034727
  83.7812868  39.6725081  75.1588585  72.7298350  31.7499295  72.0594164
  73.3042102  31.5274477  71.3267357  73.3169332  31.8187990  72.8122765
  81.7877927  37.6373022  72.8658540  82.3009809  38.2703014  73.3680250
  82.4379151  37.0374218  72.5001900  73.0567937  33.7803756  66.0790049
  72.2205249  34.1178443  66.3999324  72.9172707  33.6452736  65.1417186
  75.0321018  28.6240544  70.7869233  74.3785430  28.3089561  70.1625848
  74.9901492  28.0016285  71.5129056  76.1432223  38.9059839  62.7022525
  75.2359284  38.6749093  62.9013674  76.6403255  38.1097458  62.8896507
  79.0500301  47.6157346  65.6219211  78.3762000  47.9189043  66.2304169
  79.4366123  48.4186427  65.2724669  78.2658758  35.1122478  75.1116881
  77.3481319  35.3337425  74.9538569  78.6818902  35.1868788  74.2528588
  79.0493806  36.5113893  70.2419561  79.7965625  37.0235290  69.9326683
  79.3185395  36.1897946  71.1023955  77.3220456  39.0072434  67.2246515
  76.4131675  38.7231467  67.3218985  77.3515540  39.4271513  66.3649822
  82.5539723  42.6179023  70.9937683  82.1002051  41.7769933  71.0502873
  81.9233690  43.2540422  71.3312463  81.4972643  33.5471010  72.2238350
  80.7595400  33.0348396  72.5548593  81.7499417  33.1071391  71.4121627
  80.9972663  44.4555520  71.9287501  81.2895637  45.0160577  71.2099867
  81.5071283  44.7484081  72.6840660  81.5984270  26.3247262  72.8180120
  81.9043147  25.4644625  72.5306035  82.3236875  26.9164882  72.6179114
  67.8908626  36.7277948  71.2061718  67.6933026  36.1347309  70.4812784
  67.3355290  36.4230158  71.9237656  75.8705350  36.6201055  73.3256311
  75.9253960  35.6674891  73.2498787  75.0596552  36.7760494  73.8097609
  77.0196544  40.5481178  64.5634594  76.5815974  39.8317037  64.1040231
  77.7606985  40.7757292  64.0019685  75.9606288  45.2335871  73.0180954
  75.9182467  45.4596718  72.0889486  76.8768987  44.9999246  73.1666755
  79.4071922  35.7019939  79.9161584  79.7621309  35.9291412  80.7756049
  80.0544053  36.0338316  79.2938839  85.1369659  38.8238375  70.6210913
  84.9987557  39.0139971  69.6932102  84.7805877  39.5857758  71.0778964
  73.3011785  32.8096470  76.7007925  73.9411164  32.6685229  76.0030888
  72.4689315  32.5230983  76.3246527  85.1639038  40.8914902  75.6322184
  85.5975545  40.7990191  76.4805238  85.8770619  40.8672402  74.9942200
  74.0772089  42.1098900  72.8142917  74.8712687  41.6149220  72.6125492
  73.3663781  41.5816763  72.4510623  78.8966933  44.4916996  77.1655285
  78.9503955  45.0607932  77.9333001  78.0281715  44.6618881  76.8009322
  70.3854852  36.2541982  68.8902670  69.4552440  36.1926438  69.1072632
  70.4812324  35.7317935  68.0939311  70.3040401  32.7796795  71.4780911
  70.5647218  33.6942128  71.3690072  71.1257574  32.3121237  71.6277524
  71.7765327  34.1934552  78.6479736  72.4488380  33.9851914  77.9992385
  70.9495113  33.9956638  78.2084968  77.6790899  30.8196493  80.6645397
  77.0318814  31.5186443  80.5709873  78.4491914  31.2532637  81.0321645
  81.0869696  41.0845345  83.7395950  80.9355203  40.8555897  82.8226034
  81.0774376  42.0415947  83.7527295  77.8555033  38.6577258  78.7242216
  78.7847093  38.8088417  78.5511184  77.4346063  38.7461279  77.8690863
  76.6543365  42.6827922  76.4940754  76.5154450  42.3146707  77.3666692
  75.8657961  43.1975562  76.3224712  77.2491517  47.7837019  67.8366291
  77.4243272  47.3125062  68.6511913  76.5624305  48.4102785  68.0647551
  78.2048580  42.0609525  73.8829592  77.8698412  42.0210295  74.7787242
  77.7052525  41.3954241  73.4100002  72.1792824  37.4677155  79.4082173
  72.0412622  36.7357394  80.0093712  73.0897747  37.3786055  79.1266361
  81.1407771  39.4065559  64.1566652  80.5236942  38.6812387  64.0599704
  80.6724260  40.1674920  63.8133726  82.7961903  44.1164468  81.8172432
  82.7374449  43.4323688  81.1503015  83.1981422  44.8583458  81.3653058
  73.5204058  34.1662332  80.7161492  72.9841415  33.7153071  81.3683089
  72.9320767  34.3008241  79.9731957  71.8152602  50.9326382  74.6106151
  72.0549200  51.5644906  75.2885169  70.9721798  50.5814422  74.8971510
  72.9306317  33.6250984  63.2787956  72.0535784  33.5039784  62.9150203
  73.4064070  32.8337062  63.0266844  82.7979310  42.0804052  80.0486412
  81.9106089  41.7429973  80.1712810  83.3677861  41.3487083  80.2855177
  64.4508458  38.4128143  73.3729463  65.1379497  38.0989873  72.7850478
  64.2956586  39.3169508  73.0996714  69.2543180  33.3018340  77.8014487
  69.1701368  32.6944009  77.0664897  68.4325886  33.7927358  77.8023983
  76.3280464  46.7405504  77.0147655  76.2550635  47.5460475  77.5266959
  75.8857857  46.9397470  76.1895676  76.1170243  45.9777274  70.5250476
  75.3337765  46.5198954  70.6188701  76.8162989  46.4951254  70.9244718
  79.4266894  31.7871903  73.1684682  79.9235593  31.0341866  72.8485752
  78.6553875  31.8236220  72.6027891  87.2796651  37.4912269  74.8102973
  87.2686527  38.3736984  74.4396906  86.4114030  37.1383820  74.6157510
  78.7879147  46.6392338  79.1705813  79.5007120  47.2739803  79.0981715
  78.2969176  46.7356204  78.3545815  76.0101862  33.9289286  72.8956366
  75.6399650  33.3760327  73.5837272  76.5060955  33.3247420  72.3431366
  83.8969226  36.3860910  71.2773139  84.3629678  37.2188902  71.2033442
  84.3476726  35.9205892  71.9818398  73.8391061  44.3886781  79.9911384
  74.5400520  45.0223264  80.1440779  73.3686176  44.7301513  79.2307024
  81.9645457  42.7304731  68.2759291  82.2405301  42.6161326  69.1853165
  81.0949955  42.3322216  68.2371464  81.8685888  28.7541497  75.3164041
  80.9548968  28.9845724  75.4846248  82.2978990  28.8379941  76.1678073
  81.6392347  36.9431389  77.8163935  80.9863797  37.1907296  77.1616387
  82.0172727  36.1295527  77.4826412  78.5999521  46.9791082  71.9192105
  78.7821915  46.1612738  72.3819857  79.4232507  47.1958774  71.4816995
  78.9341686  45.9059267  69.1807153  79.4629453  45.3951722  68.5677316
  79.1969906  45.5901797  70.0452686  77.6879920  37.6851200  84.3029972
  77.0120557  37.5845329  84.9732347  78.5107554  37.5290414  84.7665969
  69.4358779  43.9223136  76.9242487  70.0212216  43.1766824  77.0570391
  69.2383617  44.2327093  77.8079151  72.2897434  46.9574384  71.9404929
  71.6207809  47.4420512  71.4568969  72.1510304  47.2043604  72.8548308
  64.0276434  36.4928737  75.6446930  64.0660533  35.9592327  76.4384048
  63.5216726  35.9663942  75.0257907  76.4302703  48.9918127  78.5387588
  76.9821011  49.1549749  79.3036673  76.7708896  49.5822565  77.8667613
  71.4067196  31.3393277  79.1409472  71.4708522  32.2008108  78.7286870
  71.3434316  30.7267279  78.4081831  70.8819468  33.4116410  82.7882507
  71.5091507  33.0293487  83.4020031  70.0247387  33.1930612  83.1538199
  81.2813577  43.8179385  84.3936242  81.8253481  44.4309343  83.8991197
  80.7000422  44.3758963  84.9103255  67.6585011  35.2192839  68.7200861
  67.9538452  34.3103517  68.6667915  66.7573047  35.1980578  68.3981864
  79.5671090  46.9400103  75.5251270  79.4422229  46.1389843  75.0162215
  80.2250181  47.4346296  75.0365240  71.1879258  33.2948835  74.7028410
  70.4665844  33.9084803  74.5635883  71.9772514  33.8306600  74.6245056
  73.9905572  30.6303262  80.9769062  74.5139974  30.8765558  81.7395371
  73.7717905  31.4623297  80.5572199  69.3872853  32.9006937  68.8440187
  69.0585559  32.0204315  68.6615293  69.7412223  32.8454605  69.7316576
  78.6352432  44.5361839  73.3535172  78.4877394  43.6078547  73.5342742
  79.4605925  44.5581930  72.8692247  72.5014676  33.1879906  69.2115664
  72.8410748  33.7165828  68.4894273  72.9486796  33.5260312  69.9874231
  82.2386554  45.3590398  74.4400045  83.1633101  45.1533259  74.3024496
  82.0701857  45.1106799  75.3489386  75.1958117  31.5716957  78.6618732
  74.8554937  30.7724770  79.0639412  74.4897123  31.8718668  78.0895566
  75.8474589  28.6566269  77.1146055  76.6700658  28.1826748  76.9924946
  76.0912652  29.4356753  77.6144742  74.4882823  31.6854528  67.4108957
  75.2091186  32.0635781  66.9072674  73.8648127  32.4043405  67.5143935
  78.6313946  32.3899677  68.3467289  78.8477560  33.2724315  68.0456118
  78.1508013  31.9985890  67.6172931  75.2309550  32.3387938  74.9718924
  75.2171119  31.4429031  74.6351222  75.9481978  32.3458602  75.6057210
  77.0835681  32.7725278  77.0172051  76.8253459  33.6942349  77.0156381
  76.5520721  32.3755713  77.7072515  82.0281870  45.8776065  69.7962136
  82.2018747  45.3122488  69.0435989  82.5210761  46.6776960  69.6141626
  67.8458830  37.8890734  77.8625695  67.3012298  38.6650542  77.9945970
  68.7238179  38.2361539  77.7044817  74.6346446  31.2202318  70.2406494
  74.7562357  30.2918965  70.4397381  74.3448489  31.2341004  69.3284809
  77.5037637  28.9057229  73.3773214  77.5259333  28.9696562  72.4225193
  77.9205696  28.0661737  73.5713720  87.8821261  38.6412488  71.4152436
  88.3252407  37.8919814  71.0171559  87.0047771  38.6322625  71.0326168
  83.0157042  45.1942830  66.8959035  83.7107947  45.8149522  67.1146349
  83.3580192  44.3438181  67.1711413  68.6324851  37.0160631  80.7555852
  67.8906587  37.1643266  81.3420482  68.3117596  37.2768896  79.8922601
  84.9148465  42.6442535  68.4246365  85.4399789  42.9829808  67.6995685
  84.8270818  41.7089551  68.2409500  76.5768514  46.5576609  80.5536242
  76.8855640  46.3125756  81.4258942  77.3743996  46.7623247  80.0655112
  76.5989126  48.7114519  72.7841619  76.1594116  48.2190897  73.4774475
  77.3497243  48.1687486  72.5433694  69.0781465  44.9026059  72.7866247
  69.9039485  44.6029831  72.4064890  68.7275517  44.1333682  73.2356035
  74.0462998  44.2552528  74.8563920  73.4243008  43.5923233  74.5566148
  74.7167865  44.2813660  74.1737568  67.2790070  42.8212386  73.7455180
  66.4421978  42.3934560  73.5639182  67.2513716  43.0144829  74.6825971
  74.1187526  32.7334316  84.4496426  74.1675681  33.6096439  84.0674196
  74.6610040  32.1911709  83.8768070  84.6042371  43.2775439  83.7297563
  83.8137915  43.2599578  83.1902063  84.3675726  43.8163733  84.4846600
  84.7240246  40.1267905  81.0430292  84.7738251  39.9617913  81.9845815
  84.6154170  39.2595164  80.6528173  73.6076505  42.8056451  68.3322381
  73.7564626  43.4891915  67.6789054  74.4142949  42.7861541  68.8471837
  82.0144009  36.1098833  82.3589599  82.9153872  35.9705298  82.0673596
  82.0891983  36.2753288  83.2987776  76.3486814  33.4865688  81.2042785
  75.4790124  33.7799254  80.9325374  76.5846295  34.0706133  81.9250049
  86.2258443  42.5464847  81.2872313  85.9343252  42.9094827  82.1235774
  85.6130575  41.8331855  81.1085646  84.4745632  37.6697462  79.7552371
  84.9499753  37.8625108  78.9471223  83.5511197  37.7256647  79.5095755
  71.3629138  38.8321629  69.3383450  71.1175180  37.9283959  69.5363660
  71.5325053  38.8338779  68.3962928  79.0525848  29.7045305  78.7208205
  79.5707792  30.4406332  78.3954694  78.6980981  30.0109298  79.5554964
  70.6324786  34.5649986  66.8369611  69.9394031  34.6394341  66.1809647
  70.3876538  33.8010330  67.3591128  79.3038442  26.1245588  74.2409102
  79.5840196  25.4568777  74.8669528  80.0889049  26.3174683  73.7283766
  77.1071911  45.3004581  65.8034128  76.5345878  45.9194769  65.3504600
  77.6804704  45.8503943  66.3374050  83.1747301  34.5463222  77.9880677
  84.1264723  34.6461319  78.0092901  83.0050751  33.7541490  78.4978761
  81.1961680  31.6318805  78.1740078  80.6011612  31.9123818  77.4786567
  80.9111377  32.1212706  78.9456819  80.3269170  45.5841732  66.9342711
  81.2599844  45.5187293  67.1375586  80.2392383  46.4197998  66.4757243
  82.9557187  44.9007602  63.8946658  82.8770819  44.5667466  64.7882416
  83.7766854  45.3929370  63.8938130  85.6535378  37.7669341  77.1022977
  85.6211698  36.8285342  77.2882661  86.2636002  37.8453378  76.3688802
  77.4918709  36.6365394  63.1450181  78.4377814  36.5071602  63.2138599
  77.1132954  35.8980056  63.6219609  85.8029867  34.5580385  77.1481260
  85.2868915  33.7738841  76.9611189  86.6869815  34.2299101  77.3127779
  83.4640594  28.3021400  73.1077073  83.2665415  27.9936488  73.9920405
  84.0740299  29.0283039  73.2375002  91.4711928  38.8285348  76.2429014
  92.2015317  38.5670636  76.8036717  90.8618874  38.0914070  76.2831081
  89.5527225  36.9693211  76.8403465  88.8260389  36.8349176  76.2319956
  89.1374512  37.2770039  77.6460183  77.3757402  40.6883140  84.6050838
  78.2960411  40.8661739  84.7990884  77.3406985  39.7439186  84.4530537
  75.6761626  34.5615371  63.0805066  74.7693082  34.2648483  63.1567780
  75.9537607  34.2645189  62.2139352  66.5939567  35.8821734  73.5304112
  66.2742351  35.0287042  73.2378486  66.0472995  36.0970312  74.2862080
  77.2923692  29.1052260  69.2349307  76.4824420  28.7599345  69.6104553
  77.9808109  28.7959804  69.8236919  79.2214240  28.1830307  70.8573604
  79.7745279  28.6025761  71.5163627  79.4584327  27.2566055  70.8996560
  75.2447340  34.1717381  86.6376368  75.1444066  35.1211738  86.5688459
  75.0268882  33.8435620  85.7652438  74.4460411  31.4202306  63.2217045
  75.3079575  31.7457204  63.4812863  74.6310755  30.6333802  62.7090111
  66.4627827  39.5024646  75.4997234  65.7691298  39.0878598  74.9867188
  67.2100818  39.5445182  74.9030653  82.5993047  30.2930832  70.3652268
  82.0191716  30.9515636  69.9830321  82.3328980  29.4708177  69.9539686
  81.0496614  29.6935890  72.5673589  81.5496392  29.8052425  71.7587907
  81.6932222  29.3896943  73.2074397  75.1078610  37.6014520  85.4541429
  74.6245691  38.4014880  85.6605319  75.1939549  37.6122465  84.5008873
  68.3764569  39.4342899  73.3763249  68.3535257  39.5330587  72.4245132
  68.6865206  40.2808050  73.6980415  71.0351947  41.4919054  77.4909863
  71.9895201  41.4602997  77.4239795  70.8364471  41.0309678  78.3060089
  81.3817925  32.4530923  69.4208616  80.4943780  32.7380573  69.2028811
  81.7971915  32.2924686  68.5735893  84.7332462  32.4777444  73.1362956
  85.5092852  32.9673896  73.4087573  84.0080596  32.9035498  73.5934825
  87.1705020  33.1905063  74.1936896  87.7649511  32.9500799  73.4830205
  87.2431604  32.4712193  74.8210433  69.3902176  47.0338674  74.5080061
  69.2556644  46.2739075  73.9418059  68.9734238  47.7579574  74.0408850
  80.5261139  42.2175597  63.5156636  81.2296989  42.4225600  64.1314292
  79.8023788  42.7852359  63.7805720  81.3558949  37.9685459  69.6358907
  81.2994151  38.4254010  68.7966539  81.9087292  37.2076143  69.4581749
  85.1663755  33.7575191  70.4609026  84.9100689  33.3571826  71.2917234
  84.5416623  34.4718984  70.3359165  72.5471302  47.9307991  74.7198504
  72.4303686  48.8753423  74.6177194  71.7263748  47.6281552  75.1084303
  82.4347836  42.6558127  65.5655096  83.2693440  42.2239325  65.3832571
  82.2732179  42.4840140  66.4931991  82.0893728  39.1590240  66.9311436
  82.0342532  38.9934511  65.9899880  81.4639784  39.8666273  67.0873625
  66.8786243  34.3958304  80.7572858  67.5245107  33.8857258  81.2460083
  66.6703395  35.1326986  81.3316283  75.3989854  28.6598349  66.5096754
  75.3868524  29.6040189  66.6665025  76.2913276  28.4768494  66.2156215
  73.5725816  48.5836253  77.9354432  74.4753063  48.6159863  78.2520927
  73.3463186  47.6536704  77.9500768  75.3279418  47.3367239  74.5964511
  74.3775049  47.3369101  74.4828883  75.6311904  46.5899974  74.0800545
  79.2141973  25.2541126  70.7642691  78.4474369  24.6999612  70.9099373
  79.6252678  25.3262994  71.6256843  71.2183734  31.5425921  84.8547872
  72.0815196  31.1862726  85.0651197  70.6449145  31.2039816  85.5423276
  91.0632111  53.1727778  75.6610273  91.7010521  53.0534525  74.9573613
  90.9452954  54.1208622  75.7198225  87.8721818  53.1255206  75.5971798
  87.5340329  53.0096270  74.7092333  88.7411586  52.7246371  75.5772804
  83.7308633  54.9790682  71.5868689  83.1673499  54.8880619  70.8184977
  83.6161028  54.1590587  72.0671181  88.3541601  54.2790058  81.5558003
  88.3430241  53.8842856  80.6838507  88.5162240  53.5456130  82.1491775
  81.2773065  56.4741874  74.4252909  82.0694357  56.1332698  74.0099209
  81.5169715  56.5836849  75.3455063  89.3108192  58.6461650  66.8983154
  88.6596172  59.2315730  66.5117168  90.1052555  59.1767845  66.9578191
  83.2363819  55.7350787  67.2970288  84.0094695  55.1879774  67.1583164
  83.5889218  56.5995036  67.5084750  85.0748862  57.0627169  80.5037187
  84.7838728  57.9672800  80.3883854  85.7105846  57.1043697  81.2181257
  86.0005069  54.4404018  77.0938547  86.5968641  54.2160040  76.3795510
  86.0580040  53.6988763  77.6963995  85.5730097  51.8943453  64.9288738
  85.8255618  51.3724974  64.1672201  84.6354656  51.7309599  65.0315422
  90.6173380  50.8979232  72.7363481  91.4036469  50.4798655  72.3853898
  90.8812084  51.8025324  72.9045130  90.7883457  56.3352082  67.4352138
  90.1529290  56.4086708  68.1473043  90.4580864  56.9245681  66.7571217
  96.0181807  50.8354465  73.6396460  96.7506979  50.2653682  73.8734289
  95.2621163  50.4476065  74.0802965  85.2926386  53.7971559  67.1313113
  85.1762644  53.1216463  67.7994197  85.4028646  53.3103933  66.3145266
  87.6357927  53.2581706  70.8359802  87.2716134  52.7312327  71.5472724
  88.4925043  52.8680175  70.6626288  93.5407227  44.5476039  78.0991068
  93.2090552  45.4171450  77.8752283  92.9452841  44.2312323  78.7785099
  87.2763414  48.2871606  65.8321151  87.4437816  49.1551842  66.1991622
  87.0860583  48.4498888  64.9082440  90.0338747  56.7488585  77.4986981
  89.7339470  57.6513624  77.3902788  89.6889806  56.4820768  78.3508134
  83.4851228  53.2002382  73.5323686  82.5601725  53.0678596  73.7401377
  83.7335642  53.9796601  74.0293628  87.2552635  50.7429263  66.8167818
  87.1352260  51.1886314  67.6553298  86.5605223  51.0914581  66.2581356
  80.8460039  52.8435655  74.3667475  80.9752421  53.0970134  75.2806886
  80.1657491  53.4363363  74.0472130  85.0159527  63.5132905  70.4657949
  84.9383556  64.4640730  70.5446429  84.4121170  63.1678778  71.1232875
  87.5076756  50.6860771  83.1219316  86.7310091  51.2454691  83.1122180
  88.1467320  51.1717554  83.6434186  95.2997537  47.4687563  76.9562292
  94.6571917  47.7620097  76.3102087  94.7952466  47.3540484  77.7615489
  92.9537701  51.2150737  67.6448152  93.8655557  51.4478123  67.4695849
  92.4447348  51.7987781  67.0823230  85.7623129  53.4946224  82.6837283
  86.5037813  54.0331268  82.4072106  85.0560114  54.1212513  82.8408835
  87.5909538  50.5747971  78.6543001  88.4370734  50.9987385  78.7977650
  87.5308176  49.9181596  79.3481564  90.7408984  48.2352340  80.3124175
  90.4969916  48.9894400  79.7758450  91.0168914  48.6137687  81.1471422
  92.6947447  54.7790952  78.9901440  92.9064342  55.4222712  78.3135821
  92.6477195  53.9453268  78.5223370  87.1135245  55.9350963  72.3011818
  87.5773590  56.2138666  71.5116441  86.8492043  55.0334408  72.1184909
  84.0059326  55.4822445  75.2391581  84.5760683  55.9109713  74.6009066
  84.5967438  55.2005029  75.9375767  86.0504131  52.0574116  69.1101383
  86.7528174  52.5095159  69.5775310  85.7184759  51.4157934  69.7381276
  84.4984493  50.6485872  83.4852593  83.8683153  51.3302153  83.7187990
  84.3920580  50.5368954  82.5405731  79.7929465  50.3157668  74.4118517
  79.0028519  50.5715197  73.9358627  80.2840712  51.1306006  74.5170557
  81.7444210  50.6802247  71.3701994  80.9475374  50.7920942  71.8885489
  81.5169803  51.0188900  70.5042884  87.5749878  57.2046951  79.3184508
  87.6394310  57.6667358  80.1542680  86.8660802  56.5744316  79.4466818
  78.0767168  50.5688159  76.8433508  78.3275206  51.4535169  77.1091084
  78.6126716  50.3892760  76.0708600 101.8999268  54.0001656  73.5108769
 101.1462976  53.4309054  73.3552774 102.0346809  53.9664320  74.4579404
  87.2897896  58.8715058  69.1863489  87.1543570  59.7166594  69.6148336
  87.8307708  59.0734336  68.4229422  83.7765235  44.9506638  85.8477844
  83.3832181  44.3972837  86.5225488  84.5931376  45.2617216  86.2384361
  82.5522178  59.5056252  71.8414167  82.7288806  60.4274217  71.6535151
  83.3479011  59.1914672  72.2708547  86.6933196  46.3664517  83.4398100
  87.4342910  46.9671670  83.3602563  86.9251119  45.6242155  82.8816143
  81.8374534  51.5520884  81.7176330  81.7228049  50.6506142  82.0183429
  80.9819052  51.7984581  81.3661147  88.9166372  59.4938625  83.3163831
  88.4730226  58.7075003  82.9984735  89.5783586  59.6817775  82.6507721
  83.6753493  61.0234426  77.8424509  84.2260918  60.8951490  77.0701503
  82.8364969  61.3229315  77.4919402  91.0147610  59.7741425  81.3445232
  90.9966085  60.5950306  80.8525501  91.9367530  59.6495500  81.5695373
  87.4720664  57.2885554  82.1868740  88.0049001  56.5273842  81.9568048
  86.9434745  56.9959206  82.9292895  90.6390359  42.3945620  77.7162382
  90.2954629  43.2847262  77.6401493  91.0069322  42.2047278  76.8531967
  89.7186900  44.7650275  75.6811615  89.2151695  44.7280410  74.8679421
  90.0117506  45.6743018  75.7408272  90.3926945  50.2581323  68.0494598
  90.0877081  50.5727472  68.9004741  91.3457387  50.3362743  68.0921931
  88.8373377  56.4171547  69.6987552  88.3094738  55.6824306  69.3860790
  88.3360880  57.1946223  69.4527521  93.8166223  54.6120567  74.8154599
  93.1589897  55.3019828  74.9034727  94.6206622  55.0016999  75.1588585
  83.5692105  47.0791213  72.0594164  84.1435856  46.8566394  71.3267357
  84.1563087  47.1479907  72.8122765  92.6271682  52.9664940  72.8658540
  93.1403563  53.5994932  73.3680250  93.2772906  52.3666135  72.5001900
  83.8961692  49.1095674  66.0790049  83.0599004  49.4470360  66.3999324
  83.7566461  48.9744654  65.1417186  85.8714772  43.9532462  70.7869233
  85.2179185  43.6381479  70.1625848  85.8295246  43.3308202  71.5129056
  86.9825977  54.2351757  62.7022525  86.0753039  54.0041010  62.9013674
  87.4797009  53.4389376  62.8896507  89.8894056  62.9449264  65.6219211
  89.2155755  63.2480961  66.2304169  90.2759878  63.7478344  65.2724669
  89.8887560  51.8405811  70.2419561  90.6359379  52.3527208  69.9326683
  90.1579150  51.5189864  71.1023955  88.1614211  54.3364352  67.2246515
  87.2525430  54.0523384  67.3218985  88.1909294  54.7563430  66.3649822
  93.3933478  57.9470941  70.9937683  92.9395805  57.1061851  71.0502873
  92.7627445  58.5832340  71.3312463  92.3366398  48.8762927  72.2238350
  91.5989154  48.3640313  72.5548593  92.5893171  48.4363309  71.4121627
  91.8366417  59.7847438  71.9287501  92.1289392  60.3452495  71.2099867
  92.3465038  60.0775999  72.6840660  92.4378025  41.6539179  72.8180120
  92.7436902  40.7936543  72.5306035  93.1630630  42.2456799  72.6179114
  78.7302381  52.0569866  71.2061718  78.5326781  51.4639227  70.4812784
  78.1749045  51.7522076  71.9237656  86.7099105  51.9492972  73.3256311
  86.7647714  50.9966809  73.2498787  85.8990307  52.1052411  73.8097609
  87.8590298  55.8773095  64.5634594  87.4209728  55.1608954  64.1040231
  88.6000739  56.1049210  64.0019685  84.6491464  50.5670032  71.0846690
  83.8359330  50.8664203  71.4911882  85.1450459  50.1725721  71.8021172
  86.8000042  60.5627789  73.0180954  86.7576221  60.7888635  72.0889486
  87.7162741  60.3291164  73.1666755  90.2465676  51.0311856  79.9161584
  90.6015064  51.2583330  80.7756049  90.8937807  51.3630233  79.2938839
  95.9763413  54.1530292  70.6210913  95.8381312  54.3431888  69.6932102
  95.6199632  54.9149675  71.0778964  84.1405539  48.1388388  76.7007925
  84.7804919  47.9977147  76.0030888  83.3083070  47.8522901  76.3246527
  96.0032793  56.2206819  75.6322184  96.4369299  56.1282108  76.4805238
  96.7164373  56.1964320  74.9942200  84.9165843  57.4390818  72.8142917
  85.7106442  56.9441138  72.6125492  84.2057536  56.9108681  72.4510623
  89.7360688  59.8208913  77.1655285  89.7897710  60.3899850  77.9333001
  88.8675469  59.9910799  76.8009322  81.2248607  51.5833900  68.8902670
  80.2946195  51.5218355  69.1072632  81.3206079  51.0609852  68.0939311
  81.1434156  48.1088713  71.4780911  81.4040973  49.0234046  71.3690072
  81.9651328  47.6413155  71.6277524  82.6159081  49.5226470  78.6479736
  83.2882134  49.3143832  77.9992385  81.7888868  49.3248556  78.2084968
  96.8648342  56.2630520  78.1655069  97.0584232  57.1676331  78.4114344
  96.7648960  55.8037939  78.9993654  88.5184653  46.1488411  80.6645397
  87.8712568  46.8478360  80.5709873  89.2885668  46.5824555  81.0321645
  91.9263451  56.4137263  83.7395950  91.7748957  56.1847814  82.8226034
  91.9168130  57.3707864  83.7527295  87.4937119  58.0119840  76.4940754
  87.3548205  57.6438624  77.3666692  86.7051715  58.5267479  76.3224712
  88.0885271  63.1128936  67.8366291  88.2637027  62.6416980  68.6511913
  87.4018059  63.7394703  68.0647551  89.0442334  57.3901443  73.8829592
  88.7092167  57.3502213  74.7787242  88.5446280  56.7246159  73.4100002
  83.0186578  52.7969073  79.4082173  82.8806376  52.0649312  80.0093712
  83.9291502  52.7077973  79.1266361  93.6355658  59.4456385  81.8172432
  93.5768204  58.7615605  81.1503015  94.0375176  60.1875375  81.3653058
  84.3597813  49.4954250  80.7161492  83.8235170  49.0444988  81.3683089
  83.7714521  49.6300159  79.9731957  83.7700072  48.9542901  63.2787956
  82.8929538  48.8331702  62.9150203  84.2457825  48.1628980  63.0266844
  93.6373065  57.4095969  80.0486412  92.7499844  57.0721891  80.1712810
  94.2071616  56.6779001  80.2855177  80.0936934  48.6310258  77.8014487
  80.0095123  48.0235927  77.0664897  79.2719641  49.1219276  77.8023983
  87.1674218  62.0697422  77.0147655  87.0944390  62.8752393  77.5266959
  86.7251611  62.2689387  76.1895676  86.9563998  61.3069192  70.5250476
  86.1731520  61.8490872  70.6188701  87.6556743  61.8243171  70.9244718
  90.2660648  47.1163821  73.1684682  90.7629348  46.3633783  72.8485752
  89.4947630  47.1528138  72.6027891  98.1190405  52.8204187  74.8102973
  98.1080282  53.7028902  74.4396906  97.2507785  52.4675737  74.6157510
  89.6272902  61.9684256  79.1705813  90.3400874  62.6031720  79.0981715
  89.1362930  62.0648122  78.3545815  91.3490429  55.8735508  70.7423105
  90.4146707  55.9936971  70.5727809  91.5267097  54.9707975  70.4783115
  86.8495617  49.2581204  72.8956366  86.4793404  48.7052244  73.5837272
  87.3454709  48.6539338  72.3431366  84.6784815  59.7178699  79.9911384
  85.3794275  60.3515182  80.1440779  84.2079930  60.0593431  79.2307024
  92.8039211  58.0596649  68.2759291  93.0799055  57.9453243  69.1853165
  91.9343710  57.6614134  68.2371464  92.7079643  44.0833415  75.3164041
  91.7942723  44.3137641  75.4846248  93.1372744  44.1671859  76.1678073
  89.4393275  62.3083000  71.9192105  89.6215670  61.4904656  72.3819857
  90.2626261  62.5250692  71.4816995  89.7735441  61.2351185  69.1807153
  90.3023207  60.7243639  68.5677316  90.0363660  60.9193715  70.0452686
  88.5273674  53.0143118  84.3029972  87.8514311  52.9137247  84.9732347
  89.3501308  52.8582331  84.7665969  80.2752533  59.2515054  76.9242487
  80.8605970  58.5058742  77.0570391  80.0777372  59.5619011  77.8079151
  83.1291189  62.2866302  71.9404929  82.4601564  62.7712429  71.4568969
  82.9904058  62.5335522  72.8548308  74.8670188  51.8220654  75.6446930
  74.9054288  51.2884245  76.4384048  74.3610481  51.2955860  75.0257907
  87.2696457  64.3210045  78.5387588  87.8214765  64.4841667  79.3036673
  87.6102651  64.9114483  77.8667613  81.7213223  48.7408327  82.7882507
  82.3485262  48.3585405  83.4020031  80.8641142  48.5222529  83.1538199
  92.1207332  59.1471303  84.3936242  92.6647236  59.7601261  83.8991197
  91.5394176  59.7050881  84.9103255  78.4978766  50.5484757  68.7200861
  78.7932207  49.6395435  68.6667915  77.5966801  50.5272496  68.3981864
  90.4064844  62.2692021  75.5251270  90.2815984  61.4681760  75.0162215
  91.0643936  62.7638214  75.0365240  82.0273013  48.6240753  74.7028410
  81.3059598  49.2376721  74.5635883  82.8166268  49.1598518  74.6245056
  92.4699753  60.0701041  77.1530820  91.5230088  59.9506392  77.0809147
  92.8182526  59.1823539  77.2357081  80.2266607  48.2298854  68.8440187
  79.8979313  47.3496233  68.6615293  80.5805978  48.1746523  69.7316576
  89.4746186  59.8653757  73.3535172  89.3271149  58.9370464  73.5342742
  90.2999680  59.8873848  72.8692247  83.3408430  48.5171824  69.2115664
  83.6804503  49.0457745  68.4894273  83.7880551  48.8552230  69.9874231
  93.0780308  60.6882316  74.4400045  94.0026855  60.4825177  74.3024496
  92.9095611  60.4398717  75.3489386  86.6868343  43.9858187  77.1146055
  87.5094412  43.5118665  76.9924946  86.9306407  44.7648671  77.6144742
  85.3276578  47.0146446  67.4108957  86.0484940  47.3927698  66.9072674
  84.7041882  47.7335322  67.5143935  89.4707700  47.7191595  68.3467289
  89.6871315  48.6016232  68.0456118  88.9901768  47.3277808  67.6172931
  84.2106922  50.6777308  74.9238034  84.0651503  50.9917611  75.8162316
  83.7332125  51.2962208  74.3708933  86.0703305  47.6679856  74.9718924
  86.0564873  46.7720949  74.6351222  86.7875733  47.6750520  75.6057210
  87.9229435  48.1017196  77.0172051  87.6647213  49.0234267  77.0156381
  87.3914476  47.7047631  77.7072515  92.8675624  61.2067983  69.7962136
  93.0412502  60.6414406  69.0435989  93.3604515  62.0068878  69.6141626
  78.6852584  53.2182652  77.8625695  78.1406052  53.9942460  77.9945970
  79.5631934  53.5653457  77.7044817  98.7215015  53.9704406  71.4152436
  99.1646161  53.2211731  71.0171559  97.8441526  53.9614542  71.0326168
  93.8550797  60.5234747  66.8959035  94.5501701  61.1441440  67.1146349
  94.1973947  59.6730099  67.1711413  79.4718606  52.3452548  80.7555852
  78.7300342  52.4935184  81.3420482  79.1511350  52.6060814  79.8922601
  87.4162269  61.8868527  80.5536242  87.7249395  61.6417673  81.4258942
  88.2137751  62.0915165  80.0655112  87.4382881  64.0406436  72.7841619
  86.9987871  63.5482815  73.4774475  88.1890998  63.4979404  72.5433694
  79.9175220  60.2317977  72.7866247  80.7433239  59.9321749  72.4064890
  79.5669272  59.4625600  73.2356035  84.8856753  59.5844445  74.8563920
  84.2636762  58.9215150  74.5566148  85.5561620  59.6105577  74.1737568
  78.1183825  58.1504304  73.7455180  77.2815733  57.7226478  73.5639182
  78.0907470  58.3436747  74.6825971  84.9581280  48.0626233  84.4496426
  85.0069436  48.9388356  84.0674196  85.5003794  47.5203626  83.8768070
  95.4436126  58.6067357  83.7297563  94.6531670  58.5891496  83.1902063
  95.2069480  59.1455650  84.4846600  95.5634001  55.4559823  81.0430292
  95.6132006  55.2909830  81.9845815  95.4547924  54.5887082  80.6528173
  84.4470260  58.1348369  68.3322381  84.5958380  58.8183833  67.6789054
  85.2536703  58.1153459  68.8471837  92.8537763  51.4390751  82.3589599
  93.7547626  51.2997216  82.0673596  92.9285738  51.6045206  83.2987776
  87.1880569  48.8157606  81.2042785  86.3183878  49.1091172  80.9325374
  87.4240049  49.3998051  81.9250049  97.0652198  57.8756765  81.2872313
  96.7737006  58.2386745  82.1235774  96.4524329  57.1623773  81.1085646
  98.2647880  55.4409644  73.8074884  99.0994771  55.8799448  73.9712444
  98.4007009  54.9648298  72.9883129  95.3139386  52.9989379  79.7552371
  95.7893508  53.1917025  78.9471223  94.3904951  53.0548565  79.5095755
  82.2022893  54.1613546  69.3383450  81.9568935  53.2575876  69.5363660
  82.3718807  54.1630697  68.3962928  89.8919602  45.0337223  78.7208205
  90.4101546  45.7698250  78.3954694  89.5374735  45.3401216  79.5554964
  81.4718540  49.8941904  66.8369611  80.7787785  49.9686259  66.1809647
  81.2270292  49.1302248  67.3591128  90.1432197  41.4537505  74.2409102
  90.4233950  40.7860694  74.8669528  90.9282804  41.6466601  73.7283766
  87.9465665  60.6296499  65.8034128  87.3739632  61.2486686  65.3504600
  88.5198459  61.1795861  66.3374050  94.0141055  49.8755139  77.9880677
  94.9658478  49.9753237  78.0092901  93.8444505  49.0833408  78.4978761
  92.0355434  46.9610722  78.1740078  91.4405367  47.2415735  77.4786567
  91.7505131  47.4504623  78.9456819  91.1662925  60.9133649  66.9342711
  92.0993598  60.8479211  67.1375586  91.0786138  61.7489916  66.4757243
  93.7950942  60.2299520  63.8946658  93.7164573  59.8959383  64.7882416
  94.6160608  60.7221288  63.8938130  96.4929133  53.0961259  77.1022977
  96.4605453  52.1577260  77.2882661  97.1029756  53.1745296  76.3688802
  88.3312464  51.9657312  63.1450181  89.2771568  51.8363520  63.2138599
  87.9526709  51.2271974  63.6219609  96.6423621  49.8872302  77.1481260
  96.1262670  49.1030759  76.9611189  97.5263570  49.5591019  77.3127779
  94.3034348  43.6313318  73.1077073  94.1059169  43.3228406  73.9920405
  94.9134054  44.3574957  73.2375002 102.3105683  54.1577266  76.2429014
 103.0409071  53.8962554  76.8036717 101.7012628  53.4205988  76.2831081
 100.3920980  52.2985128  76.8403465  99.6654143  52.1641093  76.2319956
  99.9768267  52.6061957  77.6460183  88.2151156  56.0175058  84.6050838
  89.1354166  56.1953657  84.7990884  88.1800739  55.0731103  84.4530537
  86.5155381  49.8907288  63.0805066  85.6086836  49.5940401  63.1567780
  86.7931362  49.5937106  62.2139352  77.4333321  51.2113652  73.5304112
  77.1136106  50.3578960  73.2378486  76.8866749  51.4262230  74.2862080
  81.2113229  53.9276093  77.2473619  81.4299239  54.8593201  77.2661653
  81.6239003  53.5684067  78.0328423  90.0607995  43.5122225  70.8573604
  90.6139033  43.9317678  71.5163627  90.2978081  42.5857973  70.8996560
  86.0841094  49.5009298  86.6376368  85.9837821  50.4503655  86.5688459
  85.8662636  49.1727537  85.7652438  85.2854165  46.7494224  63.2217045
  86.1473329  47.0749122  63.4812863  85.4704510  45.9625719  62.7090111
  77.3021581  54.8316563  75.4997234  76.6085053  54.4170516  74.9867188
  78.0494572  54.8737100  74.9030653  91.8890368  45.0227808  72.5673589
  92.3890147  45.1344342  71.7587907  92.5325976  44.7188861  73.2074397
  85.9472364  52.9306437  85.4541429  85.4639446  53.7306797  85.6605319
  86.0333303  52.9414382  84.5008873  79.2158324  54.7634817  73.3763249
  79.1929012  54.8622504  72.4245132  79.5258960  55.6099968  73.6980415
  81.8745702  56.8210972  77.4909863  82.8288955  56.7894914  77.4239795
  81.6758225  56.3601596  78.3060089  82.4645084  55.3912088  80.0580661
  83.2837973  55.8856167  80.0815498  82.7381891  54.4744056  80.0298228
  92.2211680  47.7822840  69.4208616  91.3337535  48.0672491  69.2028811
  92.6365669  47.6216604  68.5735893  98.0098775  48.5196981  74.1936896
  98.6043265  48.2792717  73.4830205  98.0825358  47.8004111  74.8210433
  80.2295930  62.3630592  74.5080061  80.0950398  61.6030992  73.9418059
  79.8127993  63.0871491  74.0408850  91.3654893  57.5467515  63.5156636
  92.0690744  57.7517518  64.1314292  90.6417542  58.1144277  63.7805720
  92.1952704  53.2977376  69.6358907  92.1387905  53.7545928  68.7966539
  92.7481046  52.5368061  69.4581749  96.0057510  49.0867108  70.4609026
  95.7494444  48.6863744  71.2917234  95.3810378  49.8010902  70.3359165
 100.3169847  51.8263181  72.9680317  99.7569405  51.8956371  73.7411880
  99.7113351  51.6504166  72.2479814  83.3865056  63.2599909  74.7198504
  83.2697440  64.2045341  74.6177194  82.5657503  62.9573470  75.1084303
  93.2741591  57.9850044  65.5655096  94.1087195  57.5531243  65.3832571
  93.1125934  57.8132058  66.4931991  92.9287483  54.4882158  66.9311436
  92.8736287  54.3226429  65.9899880  92.3033538  55.1958190  67.0873625
  77.7179998  49.7250222  80.7572858  78.3638862  49.2149176  81.2460083
  77.5097149  50.4618904  81.3316283  86.2383608  43.9890267  66.5096754
  86.2262278  44.9332106  66.6665025  87.1307030  43.8060412  66.2156215
  84.4119570  63.9128170  77.9354432  85.3146817  63.9451781  78.2520927
  84.1856940  62.9828621  77.9500768  86.1673172  62.6659157  74.5964511
  85.2168803  62.6661019  74.4828883  86.4705659  61.9191892  74.0800545
  90.0535728  40.5833043  70.7642691  89.2868124  40.0291530  70.9099373
  90.4646433  40.6554912  71.6256843  82.0577489  46.8717839  84.8547872
  82.9208951  46.5154644  85.0651197  81.4842900  46.5331734  85.5423276
 101.9025866  68.5019695  75.6610273 102.5404276  68.3826443  74.9573613
 101.7846709  69.4500539  75.7198225  98.7115572  68.4547123  75.5971798
  98.3734084  68.3388188  74.7092333  99.5805340  68.0538289  75.5772804
  94.5702388  70.3082600  71.5868689  94.0067253  70.2172537  70.8184977
  94.4554783  69.4882504  72.0671181  99.1935355  69.6081975  81.5558003
  99.1823996  69.2134773  80.6838507  99.3555995  68.8748048  82.1491775
  92.1166820  71.8033791  74.4252909  92.9088112  71.4624616  74.0099209
  92.3563470  71.9128767  75.3455063 100.1501947  73.9753568  66.8983154
  99.4989926  74.5607648  66.5117168 100.9446309  74.5059762  66.9578191
  94.0757574  71.0642705  67.2970288  94.8488450  70.5171692  67.1583164
  94.4282973  71.9286954  67.5084750  95.9142616  72.3919087  80.5037187
  95.6232482  73.2964718  80.3883854  96.5499601  72.4335615  81.2181257
  96.8398823  69.7695936  77.0938547  97.4362395  69.5451958  76.3795510
  96.8973795  69.0280681  77.6963995  96.4123852  67.2235371  64.9288738
  96.6649372  66.7016892  64.1672201  95.4748411  67.0601516  65.0315422
 101.4567134  66.2271149  72.7363481 102.2430224  65.8090572  72.3853898
 101.7205839  67.1317241  72.9045130 101.6277212  71.6644000  67.4352138
 100.9923045  71.7378626  68.1473043 101.2974618  72.2537598  66.7571217
 106.8575562  66.1646382  73.6396460 107.5900733  65.5945599  73.8734289
 106.1014917  65.7767983  74.0802965  98.4751681  68.5873624  70.8359802
  98.1109888  68.0604245  71.5472724  99.3318797  68.1972093  70.6626288
 104.3800982  59.8767957  78.0991068 104.0484307  60.7463367  77.8752283
 103.7846595  59.5604241  78.7785099  98.1157168  63.6163524  65.8321151
  98.2831571  64.4843760  66.1991622  97.9254337  63.7790805  64.9082440
 100.8732501  72.0780503  77.4986981 100.5733224  72.9805541  77.3902788
 100.5283561  71.8112686  78.3508134  94.3244983  68.5294299  73.5323686
  93.3995479  68.3970513  73.7401377  94.5729396  69.3088519  74.0293628
 104.2729645  64.5963043  75.1784418 103.3646523  64.5278451  74.8843179
 104.2217241  65.0734988  76.0066244  91.6853794  68.1727573  74.3667475
  91.8146175  68.4262052  75.2806886  91.0051245  68.7655281  74.0472130
  98.3470511  66.0152688  83.1219316  97.5703845  66.5746608  83.1122180
  98.9861074  66.5009471  83.6434186 106.1391292  62.7979481  76.9562292
 105.4965672  63.0912014  76.3102087 105.6346220  62.6832401  77.7615489
 103.7931455  66.5442654  67.6448152 104.7049311  66.7770041  67.4695849
 103.2841102  67.1279698  67.0823230  96.6016883  68.8238142  82.6837283
  97.3431568  69.3623186  82.4072106  95.8953869  69.4504430  82.8408835
 102.0772223  70.9667282  81.2809444 102.4855579  70.5249693  80.5364077
 101.3549484  70.3919910  81.5343637  98.4303293  65.9039889  78.6543001
  99.2764488  66.3279302  78.7977650  98.3701931  65.2473513  79.3481564
 102.4001038  71.5268473  75.0361733 101.7709900  71.6914187  74.3337801
 102.0126700  71.9410082  75.8072697 106.2790269  72.4622911  72.3906097
 105.5941308  72.8421812  71.8403130 106.3634119  73.0718237  73.1238045
 101.5802738  63.5644257  80.3124175 101.3363670  64.3186318  79.7758450
 101.8562669  63.9429605  81.1471422 103.5341201  70.1082870  78.9901440
 103.7458096  70.7514630  78.3135821 103.4870949  69.2745186  78.5223370
 101.1367430  62.7200690  75.8938013 100.2751909  63.0181944  76.1854750
 101.1629865  62.9371089  74.9619045  97.9528999  71.2642881  72.3011818
  98.4167345  71.5430584  71.5116441  97.6885798  70.3626325  72.1184909
  94.8453080  70.8114362  75.2391581  95.4154438  71.2401631  74.6009066
  95.4361192  70.5296947  75.9375767  96.8897885  67.3866033  69.1101383
  97.5921929  67.8387077  69.5775310  96.5578514  66.7449852  69.7381276
  95.3378247  65.9777790  83.4852593  94.7076908  66.6594071  83.7187990
  95.2314335  65.8660871  82.5405731  90.6323219  65.6449586  74.4118517
  89.8422273  65.9007114  73.9358627  91.1234467  66.4597924  74.5170557
 104.6487029  72.9854825  77.1623798 105.4704473  72.5835012  76.8806479
 104.6449432  72.8823059  78.1139914  92.5837965  66.0094165  71.3701994
  91.7869128  66.1212859  71.8885489  92.3563557  66.3480817  70.5042884
  98.4143632  72.5338868  79.3184508  98.4788065  72.9959276  80.1542680
  97.7054556  71.9036233  79.4466818  88.9160922  65.8980076  76.8433508
  89.1668961  66.7827086  77.1091084  89.4520471  65.7184678  76.0708600
 112.7393022  69.3293574  73.5108769 111.9856730  68.7600972  73.3552774
 112.8740563  69.2956238  74.4579404  98.1291650  74.2006976  69.1863489
  97.9937325  75.0458512  69.6148336  98.6701463  74.4026253  68.4229422
  94.6158990  60.2798556  85.8477844  94.2225935  59.7264754  86.5225488
  95.4325130  60.5909134  86.2384361  91.5821047  71.7182414  69.7591414
  92.0945568  72.5125664  69.9096978  92.2343760  71.0208704  69.6925015
  93.3915932  74.8348170  71.8414167  93.5682561  75.7566135  71.6535151
  94.1872766  74.5206589  72.2708547  97.5326951  61.6956435  83.4398100
  98.2736664  62.2963588  83.3602563  97.7644874  60.9534073  82.8816143
  92.6768289  66.8812802  81.7176330  92.5621804  65.9798059  82.0183429
  91.8212806  67.1276499  81.3661147  99.7560126  74.8230542  83.3163831
  99.3123981  74.0366921  82.9984735 100.4177340  75.0109693  82.6507721
  94.5147248  76.3526344  77.8424509  95.0654673  76.2243407  77.0701503
  93.6758724  76.6521233  77.4919402 101.8541365  75.1033342  81.3445232
 101.8359840  75.9242223  80.8525501 102.7761285  74.9787417  81.5695373
  98.3114419  72.6177472  82.1868740  98.8442755  71.8565760  81.9568048
  97.7828500  72.3251124  82.9292895 101.4784114  57.7237538  77.7162382
 101.1348383  58.6139179  77.6401493 101.8463076  57.5339195  76.8531967
  89.5469964  70.0471068  70.5350984  90.3845186  70.4568077  70.3184692
  89.7248232  69.1070510  70.5051178 101.4434396  67.7146149  66.2234817
 100.9281020  68.4850753  66.4623205 101.1711705  67.0411285  66.8467879
  99.0281507  62.5595850  71.2820055  98.1723104  62.1702700  71.1025694
  99.4408459  62.6387810  70.4219841 100.5580654  60.0942193  75.6811615
 100.0545450  60.0572328  74.8679421 100.8511261  61.0034936  75.7408272
 106.4168671  70.4678503  68.1587991 105.6398113  70.1289663  67.7143153
 107.0960151  70.4731127  67.4842956 101.2320700  65.5873241  68.0494598
 100.9270835  65.9019390  68.9004741 102.1851142  65.6654661  68.0921931
  99.6767131  71.7463464  69.6987552  99.1488493  71.0116224  69.3860790
  99.1754634  72.5238141  69.4527521 104.6559977  69.9412485  74.8154599
 103.9983652  70.6311746  74.9034727 105.4600377  70.3308917  75.1588585
  94.4085859  62.4083131  72.0594164  94.9829611  62.1858312  71.3267357
  94.9956841  62.4771825  72.8122765 103.4665436  68.2956857  72.8658540
 103.9797318  68.9286849  73.3680250 104.1166660  67.6958053  72.5001900
  94.7355446  64.4387592  66.0790049  93.8992758  64.7762278  66.3999324
  94.5960216  64.3036571  65.1417186  96.7108527  59.2824379  70.7869233
  96.0572939  58.9673397  70.1625848  96.6689001  58.6600120  71.5129056
  97.8219732  69.5643674  62.7022525  96.9146793  69.3332928  62.9013674
  98.3190764  68.7681294  62.8896507 100.7287810  78.2741182  65.6219211
 100.0549509  78.5772878  66.2304169 101.1153632  79.0770262  65.2724669
  99.9446267  65.7706313  75.1116881  99.0268828  65.9921260  74.9538569
 100.3606411  65.8452623  74.2528588 100.7281315  67.1697729  70.2419561
 101.4753134  67.6819126  69.9326683 100.9972904  66.8481781  71.1023955
  99.0007965  69.6656269  67.2246515  98.0919184  69.3815302  67.3218985
  99.0303049  70.0855348  66.3649822 104.2327232  73.2762859  70.9937683
 103.7789560  72.4353769  71.0502873 103.6021199  73.9124257  71.3312463
 103.1760152  64.2054845  72.2238350 102.4382909  63.6932231  72.5548593
 103.4286926  63.7655226  71.4121627 102.6760172  75.1139356  71.9287501
 102.9683146  75.6744413  71.2099867 103.1858792  75.4067917  72.6840660
 103.2771779  56.9831097  72.8180120 103.5830656  56.1228460  72.5306035
 104.0024384  57.5748717  72.6179114  89.5696135  67.3861783  71.2061718
  89.3720535  66.7931144  70.4812784  89.0142799  67.0813994  71.9237656
  97.5492859  67.2784890  73.3256311  97.6041469  66.3258726  73.2498787
  96.7384061  67.4344329  73.8097609  95.4885219  65.8961950  71.0846690
  94.6753085  66.1956120  71.4911882  95.9844213  65.5017638  71.8021172
  97.6393797  75.8919707  73.0180954  97.5969976  76.1180553  72.0889486
  98.5556496  75.6583081  73.1666755 101.0859431  66.3603774  79.9161584
 101.4408818  66.5875247  80.7756049 101.7331562  66.6922151  79.2938839
 106.8157168  69.4822210  70.6210913 106.6775066  69.6723806  69.6932102
 106.4593386  70.2441593  71.0778964  94.9799294  63.4680305  76.7007925
  95.6198673  63.3269064  76.0030888  94.1476824  63.1814819  76.3246527
 106.8426547  71.5498737  75.6322184 107.2763054  71.4574026  76.4805238
 107.5558128  71.5256238  74.9942200  95.7559598  72.7682736  72.8142917
  96.5500196  72.2733056  72.6125492  95.0451290  72.2400599  72.4510623
 100.5754442  75.1500831  77.1655285 100.6291464  75.7191767  77.9333001
  99.7069223  75.3202716  76.8009322  92.0642361  66.9125817  68.8902670
  91.1339949  66.8510273  69.1072632  92.1599833  66.3901770  68.0939311
  91.9827910  63.4380630  71.4780911  92.2434727  64.3525963  71.3690072
  92.8045082  62.9705073  71.6277524  93.4552835  64.8518387  78.6479736
  94.1275889  64.6435750  77.9992385  92.6282622  64.6540473  78.2084968
 107.7042097  71.5922438  78.1655069 107.8977987  72.4968248  78.4114344
 107.6042715  71.1329857  78.9993654  99.3578408  61.4780328  80.6645397
  98.7106323  62.1770278  80.5709873 100.1279423  61.9116472  81.0321645
 102.7657205  71.7429180  83.7395950 102.6142712  71.5139732  82.8226034
 102.7561885  72.6999782  83.7527295  99.5342542  69.3161093  78.7242216
 100.4634602  69.4672253  78.5511184  99.1133572  69.4045114  77.8690863
  98.3330874  73.3411758  76.4940754  98.1941959  72.9730542  77.3666692
  97.5445470  73.8559397  76.3224712  98.9279026  78.4420854  67.8366291
  99.1030781  77.9708897  68.6511913  98.2411814  79.0686620  68.0647551
  99.8836089  72.7193360  73.8829592  99.5485921  72.6794130  74.7787242
  99.3840034  72.0538076  73.4100002  93.8580333  68.1260990  79.4082173
  93.7200131  67.3941229  80.0093712  94.7685256  68.0369890  79.1266361
 102.8195280  70.0649395  64.1566652 102.2024451  69.3396223  64.0599704
 102.3511769  70.8258755  63.8133726  96.4862633  67.8380950  78.8965853
  97.1962252  67.1974142  78.8552471  96.4431942  68.0893845  79.8192033
 104.4749412  74.7748303  81.8172432 104.4161958  74.0907523  81.1503015
 104.8768930  75.5167293  81.3653058  95.1991567  64.8246168  80.7161492
  94.6628924  64.3736906  81.3683089  94.6108276  64.9592076  79.9731957
  93.4940111  81.5910217  74.6106151  93.7336709  82.2228741  75.2885169
  92.6509307  81.2398257  74.8971510  94.6093826  64.2834819  63.2787956
  93.7323293  64.1623620  62.9150203  95.0851579  63.4920897  63.0266844
 104.4766819  72.7387887  80.0486412 103.5893598  72.4013809  80.1712810
 105.0465370  72.0070918  80.2855177  86.1295966  69.0711979  73.3729463
  86.8167006  68.7573709  72.7850478  85.9744095  69.9753343  73.0996714
  90.9330689  63.9602175  77.8014487  90.8488877  63.3527845  77.0664897
  90.1113395  64.4511194  77.8023983  98.0067973  77.3989339  77.0147655
  97.9338144  78.2044311  77.5266959  97.5645366  77.5981305  76.1895676
  97.7957752  76.6361109  70.5250476  97.0125274  77.1782790  70.6188701
  98.4950498  77.1535089  70.9244718 101.1054402  62.4455739  73.1684682
 101.6023102  61.6925701  72.8485752 100.3341384  62.4820055  72.6027891
 108.9584160  68.1496104  74.8102973 108.9474036  69.0320820  74.4396906
 108.0901539  67.7967655  74.6157510 100.4666656  77.2976173  79.1705813
 101.1794628  77.9323638  79.0981715  99.9756685  77.3940039  78.3545815
 102.1884183  71.2027426  70.7423105 101.2540462  71.3228888  70.5727809
 102.3660852  70.2999893  70.4783115  97.6889371  64.5873122  72.8956366
  97.3187159  64.0344162  73.5837272  98.1848464  63.9831255  72.3431366
 105.5756735  67.0444745  71.2773139 106.0417187  67.8772737  71.2033442
 106.0264235  66.5789727  71.9818398  95.5178570  75.0470617  79.9911384
  96.2188029  75.6807100  80.1440779  95.0473685  75.3885348  79.2307024
 103.6432966  73.3888567  68.2759291 103.9192810  73.2745161  69.1853165
 102.7737464  72.9906051  68.2371464 103.5473397  59.4125332  75.3164041
 102.6336477  59.6429559  75.4846248 103.9766499  59.4963776  76.1678073
 103.3179856  67.6015224  77.8163935 102.6651306  67.8491132  77.1616387
 103.6960236  66.7879362  77.4826412 100.2787030  77.6374917  71.9192105
 100.4609424  76.8196573  72.3819857 101.1020016  77.8542610  71.4816995
 100.6129195  76.5643103  69.1807153 101.1416962  76.0535557  68.5677316
 100.8757415  76.2485633  70.0452686  99.3667429  68.3435035  84.3029972
  98.6908066  68.2429165  84.9732347 100.1895063  68.1874249  84.7665969
  91.1146288  74.5806972  76.9242487  91.6999725  73.8350660  77.0570391
  90.9171126  74.8910929  77.8079151  93.9684943  77.6158219  71.9404929
  93.2995318  78.1004347  71.4568969  93.8297813  77.8627440  72.8548308
  85.7063943  67.1512572  75.6446930  85.7448042  66.6176163  76.4384048
  85.2004235  66.6247778  75.0257907  98.1090212  79.6501963  78.5387588
  98.6608520  79.8133584  79.3036673  98.4496405  80.2406401  77.8667613
  93.0854705  61.9977113  79.1409472  93.1496031  62.8591943  78.7286870
  93.0221825  61.3851114  78.4081831  92.5606977  64.0700245  82.7882507
  93.1879016  63.6877322  83.4020031  91.7034896  63.8514447  83.1538199
 102.9601086  74.4763220  84.3936242 103.5040990  75.0893179  83.8991197
 102.3787931  75.0342799  84.9103255  89.3372520  65.8776674  68.7200861
  89.6325961  64.9687353  68.6667915  88.4360556  65.8564414  68.3981864
 101.2458599  77.5983938  75.5251270 101.1209738  76.7973678  75.0162215
 101.9037690  78.0930132  75.0365240  92.8666767  63.9532671  74.7028410
  92.1453353  64.5668638  74.5635883  93.6560023  64.4890436  74.6245056
 103.3093507  75.3992958  77.1530820 102.3623843  75.2798310  77.0809147
 103.6576280  74.5115456  77.2357081  95.6693081  61.2887097  80.9769062
  96.1927483  61.5349394  81.7395371  95.4505414  62.1207132  80.5572199
  91.0660362  63.5590772  68.8440187  90.7373068  62.6788151  68.6615293
  91.4199732  63.5038441  69.7316576 100.3139941  75.1945675  73.3535172
 100.1664903  74.2662382  73.5342742 101.1393434  75.2165765  72.8692247
  94.1802185  63.8463742  69.2115664  94.5198257  64.3749663  68.4894273
  94.6274305  64.1844148  69.9874231 103.9174062  76.0174233  74.4400045
 104.8420610  75.8117095  74.3024496 103.7489366  75.7690634  75.3489386
  96.8745626  62.2300792  78.6618732  96.5342446  61.4308605  79.0639412
  96.1684632  62.5302503  78.0895566  97.5262098  59.3150105  77.1146055
  98.3488167  58.8410583  76.9924946  97.7700161  60.0940589  77.6144742
  96.1670332  62.3438363  67.4108957  96.8878695  62.7219616  66.9072674
  95.5435636  63.0627240  67.5143935 100.3101455  63.0483512  68.3467289
 100.5265069  63.9308150  68.0456118  99.8295522  62.6569726  67.6172931
  95.0500676  66.0069225  74.9238034  94.9045257  66.3209529  75.8162316
  94.5725880  66.6254126  74.3708933  96.9097059  62.9971773  74.9718924
  96.8958628  62.1012867  74.6351222  97.6269487  63.0042437  75.6057210
  98.7623190  63.4309114  77.0172051  98.5040968  64.3526184  77.0156381
  98.2308230  63.0339548  77.7072515 103.7069379  76.5359901  69.7962136
 103.8806256  75.9706323  69.0435989 104.1998270  77.3360796  69.6141626
  89.5246338  68.5474570  77.8625695  88.9799807  69.3234378  77.9945970
  90.4025688  68.8945374  77.7044817  99.1825146  59.5641064  73.3773214
  99.2046842  59.6280397  72.4225193  99.5993205  58.7245573  73.5713720
 109.5608770  69.2996324  71.4152436 110.0039916  68.5503649  71.0171559
 108.6835280  69.2906460  71.0326168 104.6944551  75.8526665  66.8959035
 105.3895456  76.4733358  67.1146349 105.0367701  75.0022016  67.1711413
  90.3112360  67.6744466  80.7555852  89.5694096  67.8227101  81.3420482
  89.9905105  67.9352732  79.8922601 106.5935974  73.3026371  68.4246365
 107.1187298  73.6413643  67.6995685 106.5058327  72.3673386  68.2409500
  98.2556023  77.2160444  80.5536242  98.5643149  76.9709591  81.4258942
  99.0531505  77.4207083  80.0655112  98.2776635  79.3698354  72.7841619
  97.8381625  78.8774733  73.4774475  99.0284752  78.8271322  72.5433694
  90.7568974  75.5609895  72.7866247  91.5826994  75.2613667  72.4064890
  90.4063026  74.7917517  73.2356035  95.7250507  74.9136363  74.8563920
  95.1030516  74.2507068  74.5566148  96.3955374  74.9397495  74.1737568
  88.9577579  73.4796221  73.7455180  88.1209487  73.0518396  73.5639182
  88.9301225  73.6728665  74.6825971  95.7975035  63.3918151  84.4496426
  95.8463190  64.2680274  84.0674196  96.3397549  62.8495544  83.8768070
 106.2829880  73.9359274  83.7297563 105.4925424  73.9183413  83.1902063
 106.0463235  74.4747568  84.4846600 106.4027755  70.7851741  81.0430292
 106.4525760  70.6201748  81.9845815 106.2941679  69.9179000  80.6528173
 103.6931518  66.7682669  82.3589599 104.5941381  66.6289134  82.0673596
 103.7679492  66.9337124  83.2987776  98.0274323  64.1449523  81.2042785
  97.1577633  64.4383090  80.9325374  98.2633804  64.7289968  81.9250049
 107.9045952  73.2048682  81.2872313 107.6130761  73.5678663  82.1235774
 107.2918084  72.4915691  81.1085646 109.1041635  70.7701562  73.8074884
 109.9388526  71.2091366  73.9712444 109.2400763  70.2940215  72.9883129
 106.1533140  68.3281297  79.7552371 106.6287262  68.5208943  78.9471223
 105.2298706  68.3840483  79.5095755  93.0416647  69.4905464  69.3383450
  92.7962689  68.5867794  69.5363660  93.2112562  69.4922614  68.3962928
 100.7313357  60.3629140  78.7208205 101.2495301  61.0990167  78.3954694
 100.3768490  60.6693134  79.5554964  92.3112295  65.2233822  66.8369611
  91.6181540  65.2978177  66.1809647  92.0664047  64.4594165  67.3591128
 100.9825951  56.7829423  74.2409102 101.2627705  56.1152612  74.8669528
 101.7676558  56.9758519  73.7283766  98.7859420  75.9588417  65.8034128
  98.2133387  76.5778604  65.3504600  99.3592213  76.5087779  66.3374050
 104.8534809  65.2047057  77.9880677 105.8052232  65.3045155  78.0092901
 104.6838260  64.4125325  78.4978761 102.8749189  62.2902640  78.1740078
 102.2799121  62.5707653  77.4786567 102.5898886  62.7796541  78.9456819
 102.0056679  76.2425567  66.9342711 102.9387353  76.1771129  67.1375586
 101.9179892  77.0781834  66.4757243 104.6344696  75.5591437  63.8946658
 104.5558328  75.2251301  64.7882416 105.4554363  76.0513205  63.8938130
 107.3322887  68.4253177  77.1022977 107.2999207  67.4869177  77.2882661
 107.9423511  68.5037213  76.3688802  99.1706218  67.2949230  63.1450181
 100.1165323  67.1655438  63.2138599  98.7920463  66.5563892  63.6219609
 107.4817376  65.2164220  77.1481260 106.9656424  64.4322677  76.9611189
 108.3657324  64.8882937  77.3127779 105.1428103  58.9605236  73.1077073
 104.9452924  58.6520324  73.9920405 105.7527808  59.6866875  73.2375002
 113.1499437  69.4869183  76.2429014 113.8802826  69.2254472  76.8036717
 112.5406383  68.7497905  76.2831081 111.2314734  67.6277046  76.8403465
 110.5047898  67.4933011  76.2319956 110.8162021  67.9353875  77.6460183
  99.0544911  71.3466976  84.6050838  99.9747920  71.5245575  84.7990884
  99.0194494  70.4023021  84.4530537  97.3549135  65.2199206  63.0805066
  96.4480591  64.9232319  63.1567780  97.6325116  64.9229024  62.2139352
  88.2727076  66.5405569  73.5304112  87.9529860  65.6870878  73.2378486
  87.7260504  66.7554148  74.2862080  92.0506983  69.2568010  77.2473619
  92.2692993  70.1885118  77.2661653  92.4632757  68.8975985  78.0328423
  98.9711201  59.7636096  69.2349307  98.1611929  59.4183181  69.6104553
  99.6595618  59.4543639  69.8236919 100.9001749  58.8414143  70.8573604
 101.4532788  59.2609596  71.5163627 101.1371836  57.9149891  70.8996560
  96.9234849  64.8301216  86.6376368  96.8231575  65.7795573  86.5688459
  96.7056391  64.5019455  85.7652438  96.1247920  62.0786141  63.2217045
  96.9867084  62.4041040  63.4812863  96.3098264  61.2917637  62.7090111
  88.1415336  70.1608481  75.4997234  87.4478807  69.7462434  74.9867188
  88.8888327  70.2029017  74.9030653 104.2780556  60.9514668  70.3652268
 103.6979225  61.6099472  69.9830321 104.0116489  60.1292012  69.9539686
 102.7284123  60.3519725  72.5673589 103.2283901  60.4636260  71.7587907
 103.3719731  60.0480778  73.2074397  96.7866119  68.2598355  85.4541429
  96.3033200  69.0598715  85.6605319  96.8727058  68.2706300  84.5008873
  90.0552078  70.0926735  73.3763249  90.0322766  70.1914422  72.4245132
  90.3652715  70.9391885  73.6980415  92.7139456  72.1502890  77.4909863
  93.6682710  72.1186832  77.4239795  92.5151980  71.6893513  78.3060089
  93.3038838  70.7204006  80.0580661  94.1231727  71.2148084  80.0815498
  93.5775646  69.8035974  80.0298228 103.0605434  63.1114758  69.4208616
 102.1731289  63.3964409  69.2028811 103.4759423  62.9508521  68.5735893
 106.4119971  63.1361279  73.1362956 107.1880361  63.6257731  73.4087573
 105.6868105  63.5619333  73.5934825 108.8492529  63.8488898  74.1936896
 109.4437020  63.6084634  73.4830205 108.9219113  63.1296029  74.8210433
 102.2048648  72.8759433  63.5156636 102.9084498  73.0809435  64.1314292
 101.4811297  73.4436195  63.7805720 103.0346458  68.6269294  69.6358907
 102.9781660  69.0837845  68.7966539 103.5874801  67.8659979  69.4581749
 106.8451264  64.4159026  70.4609026 106.5888198  64.0155662  71.2917234
 106.2204132  65.1302820  70.3359165 111.1563602  67.1555099  72.9680317
 110.5963160  67.2248288  73.7411880 110.5507105  66.9796084  72.2479814
 104.1135345  73.3141962  65.5655096 104.9480949  72.8823160  65.3832571
 103.9519688  73.1423976  66.4931991 103.7681237  69.8174075  66.9311436
 103.7130041  69.6518347  65.9899880 103.1427293  70.5250108  67.0873625
  88.5573752  65.0542140  80.7572858  89.2032616  64.5441094  81.2460083
  88.3490904  65.7910821  81.3316283 101.0827145  72.1222987  86.2564999
 101.9518304  72.2963639  85.8951633 100.6033896  72.9417404  86.1340728
  97.0777363  59.3182184  66.5096754  97.0656033  60.2624024  66.6665025
  97.9700785  59.1352330  66.2156215  95.2513325  79.2420088  77.9354432
  96.1540572  79.2743698  78.2520927  95.0250695  78.3120539  77.9500768
  97.0066927  77.9951075  74.5964511  96.0562558  77.9952936  74.4828883
  97.3099413  77.2483809  74.0800545 100.8929482  55.9124961  70.7642691
 100.1261878  55.3583448  70.9099373 101.3040187  55.9846830  71.6256843
  92.8971243  62.2009757  84.8547872  93.7602705  61.8446562  85.0651197
  92.3236654  61.8623652  85.5423276 112.7419620  83.8311613  75.6610273
 113.3798030  83.7118360  74.9573613 112.6240463  84.7792457  75.7198225
 109.5509327  83.7839041  75.5971798 109.2127838  83.6680106  74.7092333
 110.4199095  83.3830206  75.5772804 105.4096142  85.6374518  71.5868689
 104.8461007  85.5464455  70.8184977 105.2948537  84.8174422  72.0671181
 110.0329110  84.9373893  81.5558003 110.0217750  84.5426691  80.6838507
 110.1949749  84.2039965  82.1491775 102.9560574  87.1325709  74.4252909
 103.7481866  86.7916534  74.0099209 103.1957224  87.2420684  75.3455063
 110.9895701  89.3045485  66.8983154 110.3383681  89.8899566  66.5117168
 111.7840064  89.8351680  66.9578191 104.9151328  86.3934622  67.2970288
 105.6882204  85.8463609  67.1583164 105.2676727  87.2578872  67.5084750
 106.7536371  87.7211005  80.5037187 106.4626237  88.6256636  80.3883854
 107.3893355  87.7627532  81.2181257 107.6792578  85.0987853  77.0938547
 108.2756150  84.8743876  76.3795510 107.7367549  84.3572599  77.6963995
 107.2517606  82.5527289  64.9288738 107.5043127  82.0308810  64.1672201
 106.3142165  82.3893434  65.0315422 112.2960889  81.5563067  72.7363481
 113.0823978  81.1382490  72.3853898 112.5599593  82.4609159  72.9045130
 112.4670966  86.9935917  67.4352138 111.8316799  87.0670544  68.1473043
 112.1368373  87.5829516  66.7571217 117.6969316  81.4938300  73.6396460
 118.4294488  80.9237517  73.8734289 116.9408672  81.1059901  74.0802965
 106.9713895  84.4555394  67.1313113 106.8550153  83.7800298  67.7994197
 107.0816155  83.9687768  66.3145266 109.3145436  83.9165542  70.8359802
 108.9503643  83.3896163  71.5472724 110.1712552  83.5264011  70.6626288
 115.2194736  75.2059874  78.0991068 114.8878061  76.0755285  77.8752283
 114.6240350  74.8896158  78.7785099 108.9550923  78.9455441  65.8321151
 109.1225325  79.8135678  66.1991622 108.7648092  79.1082723  64.9082440
 111.7126256  87.4072420  77.4986981 111.4126979  88.3097459  77.3902788
 111.3677315  87.1404603  78.3508134 105.1638737  83.8586217  73.5323686
 104.2389234  83.7262431  73.7401377 105.4123151  84.6380436  74.0293628
 115.1123400  79.9254960  75.1784418 114.2040277  79.8570369  74.8843179
 115.0610995  80.4026905  76.0066244 108.9340144  81.4013099  66.8167818
 108.8139769  81.8470150  67.6553298 108.2392732  81.7498416  66.2581356
 102.5247548  83.5019491  74.3667475 102.6539930  83.7553970  75.2806886
 101.8445000  84.0947199  74.0472130 106.6947036  94.1716741  70.4657949
 106.6171065  95.1224566  70.5446429 106.0908679  93.8262613  71.1232875
 109.1864265  81.3444606  83.1219316 108.4097600  81.9038526  83.1122180
 109.8254829  81.8301389  83.6434186 116.9785046  78.1271399  76.9562292
 116.3359426  78.4203932  76.3102087 116.4739975  78.0124319  77.7615489
 114.6325210  81.8734572  67.6448152 115.5443066  82.1061959  67.4695849
 114.1234857  82.4571616  67.0823230 107.4410638  84.1530059  82.6837283
 108.1825322  84.6915103  82.4072106 106.7347623  84.7796348  82.8408835
 112.9165977  86.2959200  81.2809444 113.3249333  85.8541610  80.5364077
 112.1943239  85.7211827  81.5343637 109.2697047  81.2331807  78.6543001
 110.1158243  81.6571220  78.7977650 109.2095685  80.5765431  79.3481564
 113.2394792  86.8560390  75.0361733 112.6103654  87.0206105  74.3337801
 112.8520454  87.2702000  75.8072697 117.1184024  87.7914828  72.3906097
 116.4335062  88.1713730  71.8403130 117.2027873  88.4010155  73.1238045
 112.4196493  78.8936175  80.3124175 112.1757425  79.6478235  79.7758450
 112.6956423  79.2721523  81.1471422 114.3734956  85.4374787  78.9901440
 114.5851851  86.0806547  78.3135821 114.3264704  84.6037104  78.5223370
 111.9761184  78.0492608  75.8938013 111.1145664  78.3473862  76.1854750
 112.0023619  78.2663007  74.9619045 108.7922754  86.5934799  72.3011818
 109.2561099  86.8722501  71.5116441 108.5279552  85.6918243  72.1184909
 105.6846835  86.1406280  75.2391581 106.2548192  86.5693548  74.6009066
 106.2754947  85.8588865  75.9375767 107.7291640  82.7157951  69.1101383
 108.4315683  83.1678995  69.5775310 107.3972268  82.0741770  69.7381276
 106.1772001  81.3069708  83.4852593 105.5470662  81.9885988  83.7187990
 106.0708089  81.1952789  82.5405731 101.4716974  80.9741504  74.4118517
 100.6816028  81.2299032  73.9358627 101.9628221  81.7889841  74.5170557
 115.4880783  88.3146743  77.1623798 116.3098227  87.9126930  76.8806479
 115.4843186  88.2114977  78.1139914 103.4231719  81.3386083  71.3701994
 102.6262883  81.4504777  71.8885489 103.1957312  81.6772735  70.5042884
 109.2537387  87.8630786  79.3184508 109.3181819  88.3251193  80.1542680
 108.5448311  87.2328151  79.4466818  99.7554677  81.2271994  76.8433508
 100.0062715  82.1119004  77.1091084 100.2914225  81.0476596  76.0708600
 108.9685405  89.5298893  69.1863489 108.8331079  90.3750429  69.6148336
 109.5095217  89.7318171  68.4229422 105.4552744  75.6090473  85.8477844
 105.0619690  75.0556672  86.5225488 106.2718885  75.9201052  86.2384361
 102.4214802  87.0474332  69.7591414 102.9339323  87.8417582  69.9096978
 103.0737515  86.3500622  69.6925015 104.2309687  90.1640088  71.8414167
 104.4076315  91.0858053  71.6535151 105.0266520  89.8498507  72.2708547
 108.3720705  77.0248352  83.4398100 109.1130419  77.6255506  83.3602563
 108.6038628  76.2825990  82.8816143 103.5162043  82.2104720  81.7176330
 103.4015558  81.3089977  82.0183429 102.6606561  82.4568416  81.3661147
 110.5953881  90.1522460  83.3163831 110.1517735  89.3658839  82.9984735
 111.2571095  90.3401611  82.6507721 105.3541002  91.6818262  77.8424509
 105.9048427  91.5535325  77.0701503 104.5152478  91.9813151  77.4919402
 112.6935119  90.4325260  81.3445232 112.6753594  91.2534141  80.8525501
 113.6155039  90.3079335  81.5695373 109.1508173  87.9469389  82.1868740
 109.6836510  87.1857678  81.9568048 108.6222254  87.6543041  82.9292895
 112.3177868  73.0529455  77.7162382 111.9742138  73.9431097  77.6401493
 112.6856831  72.8631113  76.8531967 100.3863719  85.3762986  70.5350984
 101.2238941  85.7859994  70.3184692 100.5641986  84.4362428  70.5051178
 112.2828151  83.0438066  66.2234817 111.7674774  83.8142671  66.4623205
 112.0105459  82.3703203  66.8467879 109.8675262  77.8887767  71.2820055
 109.0116858  77.4994618  71.1025694 110.2802214  77.9679728  70.4219841
 111.3974409  75.4234111  75.6811615 110.8939204  75.3864246  74.8679421
 111.6905015  76.3326853  75.7408272 107.6417294  75.5072840  74.6877797
 108.5070291  75.3115649  74.3283686 107.7094803  75.2783192  75.6147154
 117.2562425  85.7970421  68.1587991 116.4791868  85.4581581  67.7143153
 117.9353906  85.8023044  67.4842956 112.0714454  80.9165159  68.0494598
 111.7664590  81.2311308  68.9004741 113.0244896  80.9946578  68.0921931
 110.5160886  87.0755382  69.6987552 109.9882247  86.3408141  69.3860790
 110.0148389  87.8530058  69.4527521 115.4953732  85.2704402  74.8154599
 114.8377406  85.9603664  74.9034727 116.2994131  85.6600834  75.1588585
 105.2479614  77.7375048  72.0594164 105.8223365  77.5150230  71.3267357
 105.8350596  77.8063743  72.8122765 114.3059191  83.6248775  72.8658540
 114.8191072  84.2578767  73.3680250 114.9560415  83.0249971  72.5001900
 105.5749201  79.7679509  66.0790049 104.7386513  80.1054196  66.3999324
 105.4353970  79.6328489  65.1417186 107.5502281  74.6116297  70.7869233
 106.8966694  74.2965314  70.1625848 107.5082755  73.9892038  71.5129056
 108.6613486  84.8935592  62.7022525 107.7540548  84.6624846  62.9013674
 109.1584518  84.0973211  62.8896507 111.5681565  93.6033099  65.6219211
 110.8943264  93.9064796  66.2304169 111.9547387  94.4062180  65.2724669
 110.7840022  81.0998231  75.1116881 109.8662583  81.3213178  74.9538569
 111.2000165  81.1744541  74.2528588 111.5675069  82.4989646  70.2419561
 112.3146888  83.0111044  69.9326683 111.8366659  82.1773699  71.1023955
 109.8401720  84.9948187  67.2246515 108.9312939  84.7107220  67.3218985
 109.8696803  85.4147266  66.3649822 115.0720987  88.6054777  70.9937683
 114.6183314  87.7645686  71.0502873 114.4414954  89.2416175  71.3312463
 114.0153906  79.5346763  72.2238350 113.2776663  79.0224149  72.5548593
 114.2680680  79.0947144  71.4121627 113.5153926  90.4431273  71.9287501
 113.8076901  91.0036330  71.2099867 114.0252547  90.7359834  72.6840660
 114.1165534  72.3123015  72.8180120 114.4224411  71.4520378  72.5306035
 114.8418139  72.9040635  72.6179114 100.4089890  82.7153701  71.2061718
 100.2114290  82.1223062  70.4812784  99.8536554  82.4105911  71.9237656
 108.3886614  82.6076808  73.3256311 108.4435223  81.6550644  73.2498787
 107.5777816  82.7636247  73.8097609 109.5377807  86.5356931  64.5634594
 109.0997237  85.8192790  64.1040231 110.2788248  86.7633046  64.0019685
 106.3278973  81.2253867  71.0846690 105.5146839  81.5248038  71.4911882
 106.8237968  80.8309556  71.8021172 108.4787551  91.2211624  73.0180954
 108.4363730  91.4472471  72.0889486 109.3950250  90.9874999  73.1666755
 111.9253185  81.6895692  79.9161584 112.2802573  81.9167165  80.7756049
 112.5725316  82.0214069  79.2938839 117.6550922  84.8114128  70.6210913
 117.5168821  85.0015724  69.6932102 117.2987141  85.5733511  71.0778964
 105.8193048  78.7972223  76.7007925 106.4592428  78.6560982  76.0030888
 104.9870579  78.5106736  76.3246527 117.6820302  86.8790655  75.6322184
 118.1156808  86.7865944  76.4805238 118.3951882  86.8548155  74.9942200
 106.5953352  88.0974653  72.8142917 107.3893951  87.6024973  72.6125492
 105.8845045  87.5692516  72.4510623 111.4148197  90.4792749  77.1655285
 111.4685219  91.0483685  77.9333001 110.5462978  90.6494634  76.8009322
 102.9036116  82.2417735  68.8902670 101.9733704  82.1802191  69.1072632
 102.9993588  81.7193688  68.0939311 102.8221665  78.7672548  71.4780911
 103.0828482  79.6817881  71.3690072 103.6438837  78.2996990  71.6277524
 104.2946590  80.1810305  78.6479736 104.9669643  79.9727667  77.9992385
 103.4676377  79.9832391  78.2084968 118.5435851  86.9214355  78.1655069
 118.7371741  87.8260166  78.4114344 118.4436469  86.4621774  78.9993654
 110.1972162  76.8072246  80.6645397 109.5500077  77.5062196  80.5709873
 110.9673177  77.2408390  81.0321645 113.6050960  87.0721098  83.7395950
 113.4536466  86.8431650  82.8226034 113.5955639  88.0291700  83.7527295
 110.3736296  84.6453011  78.7242216 111.3028356  84.7964170  78.5511184
 109.9527326  84.7337032  77.8690863 109.1724628  88.6703675  76.4940754
 109.0335714  88.3022460  77.3666692 108.3839224  89.1851315  76.3224712
 109.7672780  93.7712772  67.8366291 109.9424536  93.3000815  68.6511913
 109.0805568  94.3978538  68.0647551 110.7229843  88.0485278  73.8829592
 110.3879676  88.0086048  74.7787242 110.2233789  87.3829994  73.4100002
 104.6974087  83.4552908  79.4082173 104.5593885  82.7233147  80.0093712
 105.6079011  83.3661808  79.1266361 113.6589035  85.3941312  64.1566652
 113.0418206  84.6688141  64.0599704 113.1905523  86.1550673  63.8133726
 107.3256388  83.1672867  78.8965853 108.0356006  82.5266060  78.8552471
 107.2825696  83.4185762  79.8192033 115.3143167  90.1040221  81.8172432
 115.2555713  89.4199441  81.1503015 115.7162685  90.8459211  81.3653058
 106.0385322  80.1538085  80.7161492 105.5022679  79.7028824  81.3683089
 105.4502030  80.2883994  79.9731957 104.3333865  96.9202135  74.6106151
 104.5730464  97.5520659  75.2885169 103.4903062  96.5690175  74.8971510
 105.4487581  79.6126737  63.2787956 104.5717047  79.4915537  62.9150203
 105.9245334  78.8212815  63.0266844 115.3160574  88.0679805  80.0486412
 114.4287353  87.7305726  80.1712810 115.8859125  87.3362836  80.2855177
  96.9689721  84.4003896  73.3729463  97.6560761  84.0865626  72.7850478
  96.8137850  85.3045261  73.0996714 101.7724443  79.2894093  77.8014487
 101.6882632  78.6819762  77.0664897 100.9507150  79.7803111  77.8023983
 108.8461727  92.7281257  77.0147655 108.7731899  93.5336228  77.5266959
 108.4039120  92.9273223  76.1895676 108.6351507  91.9653027  70.5250476
 107.8519029  92.5074707  70.6188701 109.3344252  92.4827007  70.9244718
 111.9448157  77.7747656  73.1684682 112.4416857  77.0217619  72.8485752
 111.1735138  77.8111973  72.6027891 119.7977914  83.4788022  74.8102973
 119.7867791  84.3612737  74.4396906 118.9295294  83.1259573  74.6157510
 111.3060411  92.6268091  79.1705813 112.0188383  93.2615556  79.0981715
 110.8150439  92.7231957  78.3545815 113.0277938  86.5319344  70.7423105
 112.0934216  86.6520806  70.5727809 113.2054606  85.6291810  70.4783115
 108.5283126  79.9165039  72.8956366 108.1580913  79.3636080  73.5837272
 109.0242218  79.3123173  72.3431366 116.4150489  82.3736663  71.2773139
 116.8810941  83.2064655  71.2033442 116.8657990  81.9081645  71.9818398
 106.3572324  90.3762534  79.9911384 107.0581784  91.0099017  80.1440779
 105.8867439  90.7177266  79.2307024 114.4826720  88.7180484  68.2759291
 114.7586564  88.6037079  69.1853165 113.6131219  88.3197969  68.2371464
 114.3867152  74.7417250  75.3164041 113.4730232  74.9721477  75.4846248
 114.8160253  74.8255694  76.1678073 114.1573610  82.9307142  77.8163935
 113.5045061  83.1783049  77.1616387 114.5353990  82.1171280  77.4826412
 111.1180784  92.9666835  71.9192105 111.3003179  92.1488491  72.3819857
 111.9413770  93.1834527  71.4816995 111.4522950  91.8935020  69.1807153
 111.9810716  91.3827475  68.5677316 111.7151169  91.5777550  70.0452686
 110.2061183  83.6726953  84.3029972 109.5301820  83.5721082  84.9732347
 111.0288817  83.5166167  84.7665969 101.9540042  89.9098890  76.9242487
 102.5393479  89.1642577  77.0570391 101.7564881  90.2202846  77.8079151
 104.8078698  92.9450137  71.9404929 104.1389073  93.4296265  71.4568969
 104.6691567  93.1919357  72.8548308  96.5457697  82.4804490  75.6446930
  96.5841797  81.9468080  76.4384048  96.0397990  81.9539695  75.0257907
 108.9483966  94.9793880  78.5387588 109.5002274  95.1425502  79.3036673
 109.2890160  95.5698318  77.8667613 103.9248459  77.3269030  79.1409472
 103.9889786  78.1883861  78.7286870 103.8615580  76.7143032  78.4081831
 103.4000732  79.3992163  82.7882507 104.0272771  79.0169240  83.4020031
 102.5428651  79.1806365  83.1538199 113.7994841  89.8055138  84.3936242
 114.3434744  90.4185096  83.8991197 113.2181685  90.3634716  84.9103255
 100.1766275  81.2068592  68.7200861 100.4719716  80.2979270  68.6667915
  99.2754310  81.1856331  68.3981864 112.0852353  92.9275856  75.5251270
 111.9603493  92.1265596  75.0162215 112.7431445  93.4222049  75.0365240
 103.7060522  79.2824588  74.7028410 102.9847107  79.8960556  74.5635883
 104.4953777  79.8182353  74.6245056 114.1487262  90.7284876  77.1530820
 113.2017597  90.6090227  77.0809147 114.4970035  89.8407374  77.2357081
 106.5086835  76.6179015  80.9769062 107.0321237  76.8641312  81.7395371
 106.2899168  77.4499050  80.5572199 101.9054116  78.8882690  68.8440187
 101.5766822  78.0080068  68.6615293 102.2593487  78.8330358  69.7316576
 111.1533695  90.5237592  73.3535172 111.0058658  89.5954300  73.5342742
 111.9787189  90.5457683  72.8692247 105.0195939  79.1755659  69.2115664
 105.3592012  79.7041581  68.4894273 105.4668060  79.5136065  69.9874231
 114.7567817  91.3466151  74.4400045 115.6814364  91.1409012  74.3024496
 114.5883120  91.0982552  75.3489386 107.7139380  77.5592710  78.6618732
 107.3736201  76.7600523  79.0639412 107.0078387  77.8594421  78.0895566
 108.3655852  74.6442022  77.1146055 109.1881921  74.1702501  76.9924946
 108.6093916  75.4232506  77.6144742 107.0064087  77.6730281  67.4108957
 107.7272449  78.0511534  66.9072674 106.3829391  78.3919158  67.5143935
 111.1495209  78.3775430  68.3467289 111.3658824  79.2600068  68.0456118
 110.6689277  77.9861643  67.6172931 105.8894431  81.3361143  74.9238034
 105.7439012  81.6501446  75.8162316 105.4119634  81.9546043  74.3708933
 107.7490814  78.3263691  74.9718924 107.7352382  77.4304784  74.6351222
 108.4663242  78.3334355  75.6057210 109.6016944  78.7601031  77.0172051
 109.3434722  79.6818102  77.0156381 109.0701985  78.3631466  77.7072515
 114.5463133  91.8651818  69.7962136 114.7200011  91.2998241  69.0435989
 115.0392024  92.6652713  69.6141626 100.3640093  83.8766488  77.8625695
  99.8193561  84.6526295  77.9945970 101.2419443  84.2237292  77.7044817
 107.1527710  77.2078071  70.2406494 107.2743621  76.2794718  70.4397381
 106.8629752  77.2216757  69.3284809 110.0218900  74.8932982  73.3773214
 110.0440597  74.9572315  72.4225193 110.4386959  74.0537490  73.5713720
 120.4002524  84.6288241  71.4152436 120.8433670  83.8795567  71.0171559
 119.5229035  84.6198378  71.0326168 115.5338306  91.1818583  66.8959035
 116.2289210  91.8025276  67.1146349 115.8761456  90.3313934  67.1711413
 101.1506115  83.0036384  80.7555852 100.4087851  83.1519019  81.3420482
 100.8298859  83.2644649  79.8922601 117.4329729  88.6318288  68.4246365
 117.9581053  88.9705561  67.6995685 117.3452081  87.6965304  68.2409500
 109.0949777  92.5452362  80.5536242 109.4036904  92.3001509  81.4258942
 109.8925260  92.7499000  80.0655112 109.1170390  94.6990272  72.7841619
 108.6775380  94.2066650  73.4774475 109.8678507  94.1563239  72.5433694
 101.5962729  90.8901813  72.7866247 102.4220748  90.5905584  72.4064890
 101.2456781  90.1209435  73.2356035 106.5644262  90.2428281  74.8563920
 105.9424271  89.5798986  74.5566148 107.2349129  90.2689413  74.1737568
  99.7971334  88.8088139  73.7455180  98.9603242  88.3810313  73.5639182
  99.7694979  89.0020582  74.6825971 106.6368789  78.7210069  84.4496426
 106.6856945  79.5972192  84.0674196 107.1791303  78.1787462  83.8768070
 117.1223635  89.2651192  83.7297563 116.3319179  89.2475331  83.1902063
 116.8856989  89.8039486  84.4846600 117.2421510  86.1143658  81.0430292
 117.2919515  85.9493666  81.9845815 117.1335433  85.2470917  80.6528173
 106.1257769  88.7932204  68.3322381 106.2745889  89.4767668  67.6789054
 106.9324212  88.7737294  68.8471837 114.5325272  82.0974586  82.3589599
 115.4335135  81.9581051  82.0673596 114.6073247  82.2629041  83.2987776
 108.8668078  79.4741441  81.2042785 107.9971387  79.7675007  80.9325374
 109.1027558  80.0581886  81.9250049 118.7439707  88.5340600  81.2872313
 118.4524515  88.8970580  82.1235774 118.1311838  87.8207608  81.1085646
 119.9435389  86.0993480  73.8074884 120.7782280  86.5383284  73.9712444
 120.0794518  85.6232133  72.9883129 116.9926895  83.6573215  79.7552371
 117.4681017  83.8500861  78.9471223 116.0692460  83.7132400  79.5095755
 103.8810402  84.8197382  69.3383450 103.6356444  83.9159712  69.5363660
 104.0506316  84.8214532  68.3962928 111.5707111  75.6921058  78.7208205
 112.0889055  76.4282085  78.3954694 111.2162244  75.9985051  79.5554964
 103.1506049  80.5525739  66.8369611 102.4575294  80.6270094  66.1809647
 102.9057801  79.7886083  67.3591128 111.8219706  72.1121341  74.2409102
 112.1021459  71.4444530  74.8669528 112.6070313  72.3050436  73.7283766
 109.6253174  91.2880335  65.8034128 109.0527141  91.9070522  65.3504600
 110.1985968  91.8379696  66.3374050 115.6928564  80.5338975  77.9880677
 116.6445987  80.6337072  78.0092901 115.5232014  79.7417243  78.4978761
 113.7142943  77.6194558  78.1740078 113.1192876  77.8999571  77.4786567
 113.4292640  78.1088459  78.9456819 112.8450434  91.5717485  66.9342711
 113.7781107  91.5063046  67.1375586 112.7573647  92.4073752  66.4757243
 115.4738451  90.8883355  63.8946658 115.3952082  90.5543219  64.7882416
 116.2948117  91.3805123  63.8938130 118.1716642  83.7545094  77.1022977
 118.1392962  82.8161095  77.2882661 118.7817265  83.8329131  76.3688802
 110.0099973  82.6241147  63.1450181 110.9559077  82.4947355  63.2138599
 109.6314218  81.8855809  63.6219609 118.3211130  80.5456138  77.1481260
 117.8050179  79.7614594  76.9611189 119.2051079  80.2174854  77.3127779
 115.9821857  74.2897153  73.1077073 115.7846678  73.9812241  73.9920405
 116.5921563  75.0158792  73.2375002 109.8938665  86.6758893  84.6050838
 110.8141675  86.8537492  84.7990884 109.8588248  85.7314939  84.4530537
 108.1942890  80.5491124  63.0805066 107.2874345  80.2524236  63.1567780
 108.4718871  80.2520942  62.2139352  99.1120830  81.8697487  73.5304112
  98.7923615  81.0162795  73.2378486  98.5654258  82.0846065  74.2862080
 102.8900738  84.5859928  77.2473619 103.1086747  85.5177036  77.2661653
 103.3026512  84.2267902  78.0328423 109.8104956  75.0928013  69.2349307
 109.0005684  74.7475098  69.6104553 110.4989372  74.7835557  69.8236919
 111.7395504  74.1706060  70.8573604 112.2926542  74.5901514  71.5163627
 111.9765590  73.2441808  70.8996560 107.7628603  80.1593134  86.6376368
 107.6625330  81.1087491  86.5688459 107.5450145  79.8311373  85.7652438
 106.9641674  77.4078059  63.2217045 107.8260838  77.7332957  63.4812863
 107.1492019  76.6209555  62.7090111  98.9809090  85.4900399  75.4997234
  98.2872562  85.0754351  74.9867188  99.7282081  85.5320935  74.9030653
 115.1174311  76.2806585  70.3652268 114.5372980  76.9391389  69.9830321
 114.8510244  75.4583930  69.9539686 113.5677877  75.6811643  72.5673589
 114.0677656  75.7928178  71.7587907 114.2113485  75.3772696  73.2074397
 107.6259873  83.5890273  85.4541429 107.1426955  84.3890633  85.6605319
 107.7120812  83.5998218  84.5008873 100.8945833  85.4218652  73.3763249
 100.8716521  85.5206340  72.4245132 101.2046469  86.2683803  73.6980415
 103.5533211  87.4794807  77.4909863 104.5076464  87.4478750  77.4239795
 103.3545734  87.0185431  78.3060089 104.1432593  86.0495923  80.0580661
 104.9625482  86.5440002  80.0815498 104.4169400  85.1327892  80.0298228
 113.8999189  78.4406676  69.4208616 113.0125044  78.7256326  69.2028811
 114.3153178  78.2800439  68.5735893 117.2513725  78.4653197  73.1362956
 118.0274115  78.9549649  73.4087573 116.5261859  78.8911251  73.5934825
 119.6886284  79.1780816  74.1936896 120.2830774  78.9376552  73.4830205
 119.7612867  78.4587947  74.8210433 101.9083439  93.0214427  74.5080061
 101.7737907  92.2614828  73.9418059 101.4915502  93.7455327  74.0408850
 113.0442402  88.2051350  63.5156636 113.7478252  88.4101353  64.1314292
 112.3205051  88.7728112  63.7805720 113.8740213  83.9561212  69.6358907
 113.8175414  84.4129763  68.7966539 114.4268555  83.1951896  69.4581749
 117.6845019  79.7450944  70.4609026 117.4281953  79.3447579  71.2917234
 117.0597887  80.4594737  70.3359165 105.0652565  93.9183744  74.7198504
 104.9484949  94.8629176  74.6177194 104.2445012  93.6157305  75.1084303
 114.9529100  88.6433880  65.5655096 115.7874704  88.2115078  65.3832571
 114.7913443  88.4715893  66.4931991 114.6074992  85.1465993  66.9311436
 114.5523796  84.9810264  65.9899880 113.9821047  85.8542026  67.0873625
  99.3967507  80.3834057  80.7572858 100.0426371  79.8733011  81.2460083
  99.1884658  81.1202739  81.3316283 111.9220899  87.4514905  86.2564999
 112.7912059  87.6255557  85.8951633 111.4427651  88.2709322  86.1340728
 107.9171117  74.6474102  66.5096754 107.9049787  75.5915942  66.6665025
 108.8094539  74.4644247  66.2156215 106.0907079  94.5712006  77.9354432
 106.9934326  94.6035616  78.2520927 105.8644449  93.6412457  77.9500768
 107.8460681  93.3242992  74.5964511 106.8956312  93.3244854  74.4828883
 108.1493168  92.5775727  74.0800545 111.7323237  71.2416879  70.7642691
 110.9655633  70.6875365  70.9099373 112.1433942  71.3138747  71.6256843
 103.7364998  77.5301674  84.8547872 104.5996459  77.1738479  85.0651197
 103.1630409  77.1915569  85.5423276 120.3903081  99.1130959  75.5971798
 120.0521593  98.9972024  74.7092333 121.2592849  98.7122124  75.5772804
 116.2489897 100.9666435  71.5868689 115.6854762 100.8756372  70.8184977
 116.1342292 100.1466340  72.0671181 120.8722864 100.2665811  81.5558003
 120.8611505  99.8718609  80.6838507 121.0343504  99.5331883  82.1491775
 113.7954329 102.4617627  74.4252909 114.5875621 102.1208451  74.0099209
 114.0350979 102.5712602  75.3455063 115.7545083 101.7226540  67.2970288
 116.5275959 101.1755527  67.1583164 116.1070482 102.5870789  67.5084750
 117.5930125 103.0502922  80.5037187 117.3019991 103.9548553  80.3883854
 118.2287110 103.0919450  81.2181257 118.5186332 100.4279771  77.0938547
 119.1149904 100.2035793  76.3795510 118.5761304  99.6864516  77.6963995
 118.0911361  97.8819206  64.9288738 118.3436881  97.3600727  64.1672201
 117.1535920  97.7185352  65.0315422 117.8107649  99.7847312  67.1313113
 117.6943907  99.1092216  67.7994197 117.9209909  99.2979686  66.3145266
 120.1539190  99.2457459  70.8359802 119.7897397  98.7188080  71.5472724
 121.0106306  98.8555928  70.6626288 119.7944677  94.2747359  65.8321151
 119.9619080  95.1427595  66.1991622 119.6041846  94.4374641  64.9082440
 116.0032492  99.1878135  73.5323686 115.0782988  99.0554349  73.7401377
 116.2516905  99.9672354  74.0293628 119.7733898  96.7305016  66.8167818
 119.6533523  97.1762067  67.6553298 119.0786486  97.0790334  66.2581356
 113.3641303  98.8311408  74.3667475 113.4933684  99.0845887  75.2806886
 112.6838754  99.4239116  74.0472130 120.0258020  96.6736524  83.1219316
 119.2491354  97.2330444  83.1122180 120.6648583  97.1593307  83.6434186
 118.2804392  99.4821977  82.6837283 119.0219077 100.0207021  82.4072106
 117.5741378 100.1088266  82.8408835 120.1090802  96.5623724  78.6543001
 120.9551997  96.9863138  78.7977650 120.0489440  95.9057349  79.3481564
 119.6316508 101.9226716  72.3011818 120.0954854 102.2014419  71.5116441
 119.3673307 101.0210161  72.1184909 116.5240589 101.4698198  75.2391581
 117.0941947 101.8985466  74.6009066 117.1148701 101.1880782  75.9375767
 118.5685394  98.0449869  69.1101383 119.2709438  98.4970912  69.5775310
 118.2366023  97.4033687  69.7381276 117.0165756  96.6361625  83.4852593
 116.3864417  97.3177906  83.7187990 116.9101844  96.5244707  82.5405731
 112.3110728  96.3033421  74.4118517 111.5209782  96.5590950  73.9358627
 112.8021976  97.1181759  74.5170557 114.2625474  96.6678000  71.3701994
 113.4656637  96.7796695  71.8885489 114.0351066  97.0064653  70.5042884
 120.0931141 103.1922704  79.3184508 120.1575574 103.6543111  80.1542680
 119.3842065 102.5620069  79.4466818 110.5948431  96.5563912  76.8433508
 110.8456470  97.4410922  77.1091084 111.1307980  96.3768513  76.0708600
 116.2946499  90.9382391  85.8477844 115.9013444  90.3848590  86.5225488
 117.1112639  91.2492969  86.2384361 113.2608556 102.3766249  69.7591414
 113.7733077 103.1709499  69.9096978 113.9131269 101.6792540  69.6925015
 115.0703441 105.4932005  71.8414167 115.2470070 106.4149970  71.6535151
 115.8660275 105.1790425  72.2708547 119.2114460  92.3540270  83.4398100
 119.9524173  92.9547423  83.3602563 119.4432383  91.6117908  82.8816143
 114.3555798  97.5396637  81.7176330 114.2409313  96.6381895  82.0183429
 113.5000315  97.7860334  81.3661147 116.1934757 107.0110179  77.8424509
 116.7442182 106.8827243  77.0701503 115.3546233 107.3105068  77.4919402
 119.9901928 103.2761307  82.1868740 120.5230264 102.5149595  81.9568048
 119.4616009 102.9834959  82.9292895 111.2257473 100.7054904  70.5350984
 112.0632695 101.1151912  70.3184692 111.4035741  99.7654346  70.5051178
 120.7069016  93.2179685  71.2820055 119.8510613  92.8286535  71.1025694
 121.1195968  93.2971646  70.4219841 118.4811049  90.8364758  74.6877797
 119.3464046  90.6407567  74.3283686 118.5488558  90.6075110  75.6147154
 121.3554640 102.4047300  69.6987552 120.8276002 101.6700059  69.3860790
 120.8542143 103.1821976  69.4527521 116.0873368  93.0666966  72.0594164
 116.6617120  92.8442147  71.3267357 116.6744350  93.1355660  72.8122765
 116.4142955  95.0971427  66.0790049 115.5780267  95.4346113  66.3999324
 116.2747725  94.9620407  65.1417186 118.3896036  89.9408215  70.7869233
 117.7360448  89.6257232  70.1625848 118.3476510  89.3183955  71.5129056
 119.5007241 100.2227510  62.7022525 118.5934302  99.9916763  62.9013674
 119.9978273  99.4265129  62.8896507 120.6795474 100.3240105  67.2246515
 119.7706693 100.0399138  67.3218985 120.7090558 100.7439183  66.3649822
 111.2483644  98.0445619  71.2061718 111.0508044  97.4514980  70.4812784
 110.6930308  97.7397829  71.9237656 119.2280368  97.9368725  73.3256311
 119.2828978  96.9842562  73.2498787 118.4171570  98.0928164  73.8097609
 120.3771562 101.8648848  64.5634594 119.9390992 101.1484707  64.1040231
 121.1182003 102.0924963  64.0019685 117.1672728  96.5545785  71.0846690
 116.3540594  96.8539956  71.4911882 117.6631722  96.1601474  71.8021172
 116.6586803  94.1264141  76.7007925 117.2986182  93.9852900  76.0030888
 115.8264333  93.8398654  76.3246527 117.4347107 103.4266571  72.8142917
 118.2287705 102.9316891  72.6125492 116.7238799 102.8984434  72.4510623
 113.7429870  97.5709653  68.8902670 112.8127458  97.5094108  69.1072632
 113.8387342  97.0485605  68.0939311 113.6615419  94.0964466  71.4780911
 113.9222236  95.0109799  71.3690072 114.4832591  93.6288908  71.6277524
 115.1340344  95.5102223  78.6479736 115.8063398  95.3019585  77.9992385
 114.3070131  95.3124309  78.2084968 120.0118383 103.9995593  76.4940754
 119.8729468 103.6314377  77.3666692 119.2232979 104.5143232  76.3224712
 121.5623598 103.3777196  73.8829592 121.2273430 103.3377966  74.7787242
 121.0627543 102.7121912  73.4100002 115.5367842  98.7844826  79.4082173
 115.3987640  98.0525065  80.0093712 116.4472765  98.6953726  79.1266361
 118.1650142  98.4964785  78.8965853 118.8749761  97.8557977  78.8552471
 118.1219451  98.7477680  79.8192033 116.8779076  95.4830003  80.7161492
 116.3416433  95.0320741  81.3683089 116.2895785  95.6175912  79.9731957
 116.2881335  94.9418654  63.2787956 115.4110802  94.8207455  62.9150203
 116.7639088  94.1504733  63.0266844 107.8083475  99.7295814  73.3729463
 108.4954515  99.4157544  72.7850478 107.6531604 100.6337179  73.0996714
 112.6118198  94.6186011  77.8014487 112.5276386  94.0111680  77.0664897
 111.7900904  95.1095029  77.8023983 119.3676880  95.2456957  72.8956366
 118.9974668  94.6927998  73.5837272 119.8635973  94.6415091  72.3431366
 117.1966079 105.7054452  79.9911384 117.8975538 106.3390935  80.1440779
 116.7261194 106.0469184  79.2307024 112.7933797 105.2390807  76.9242487
 113.3787234 104.4934495  77.0570391 112.5958635 105.5494764  77.8079151
 107.3851452  97.8096407  75.6446930 107.4235551  97.2759998  76.4384048
 106.8791744  97.2831613  75.0257907 114.7642214  92.6560948  79.1409472
 114.8283540  93.5175779  78.7286870 114.7009334  92.0434950  78.4081831
 114.2394486  94.7284080  82.7882507 114.8666525  94.3461158  83.4020031
 113.3822405  94.5098282  83.1538199 111.0160029  96.5360510  68.7200861
 111.3113470  95.6271188  68.6667915 110.1148065  96.5148249  68.3981864
 114.5454276  94.6116506  74.7028410 113.8240862  95.2252474  74.5635883
 115.3347532  95.1474271  74.6245056 117.3480590  91.9470933  80.9769062
 117.8714992  92.1933229  81.7395371 117.1292923  92.7790967  80.5572199
 112.7447871  94.2174607  68.8440187 112.4160577  93.3371986  68.6615293
 113.0987241  94.1622276  69.7316576 115.8589694  94.5047577  69.2115664
 116.1985766  95.0333498  68.4894273 116.3061814  94.8427983  69.9874231
 118.5533135  92.8884628  78.6618732 118.2129955  92.0892441  79.0639412
 117.8472141  93.1886339  78.0895566 119.2049607  89.9733940  77.1146055
 120.0275676  89.4994418  76.9924946 119.4487670  90.7524424  77.6144742
 117.8457841  93.0022199  67.4108957 118.5666204  93.3803451  66.9072674
 117.2223145  93.7211075  67.5143935 116.7288185  96.6653061  74.9238034
 116.5832766  96.9793364  75.8162316 116.2513389  97.2837961  74.3708933
 118.5884568  93.6555609  74.9718924 118.5746137  92.7596702  74.6351222
 119.3056996  93.6626273  75.6057210 120.4410699  94.0892949  77.0172051
 120.1828477  95.0110020  77.0156381 119.9095739  93.6923384  77.7072515
 111.2033847  99.2058405  77.8625695 110.6587316  99.9818213  77.9945970
 112.0813197  99.5529210  77.7044817 117.9921464  92.5369989  70.2406494
 118.1137375  91.6086635  70.4397381 117.7023507  92.5508675  69.3284809
 120.8612655  90.2224900  73.3773214 120.8834351  90.2864233  72.4225193
 121.2780714  89.3829408  73.5713720 111.9899869  98.3328301  80.7555852
 111.2481605  98.4810937  81.3420482 111.6692614  98.5936567  79.8922601
 112.4356483 106.2193730  72.7866247 113.2614503 105.9197502  72.4064890
 112.0850535 105.4501353  73.2356035 117.4038016 105.5720198  74.8563920
 116.7818025 104.9090903  74.5566148 118.0742883 105.5981330  74.1737568
 110.6365088 104.1380057  73.7455180 109.7996996 103.7102231  73.5639182
 110.6088733 104.3312500  74.6825971 117.4762544  94.0501986  84.4496426
 117.5250699  94.9264109  84.0674196 118.0185058  93.5079379  83.8768070
 116.9651523 104.1224122  68.3322381 117.1139643 104.8059586  67.6789054
 117.7717967 104.1029212  68.8471837 119.7061832  94.8033359  81.2042785
 118.8365142  95.0966925  80.9325374 119.9421312  95.3873804  81.9250049
 114.7204156 100.1489299  69.3383450 114.4750198  99.2451629  69.5363660
 114.8900071 100.1506450  68.3962928 113.9899804  95.8817657  66.8369611
 113.2969049  95.9562012  66.1809647 113.7451556  95.1178001  67.3591128
 119.0336644  95.8783041  63.0805066 118.1268100  95.5816154  63.1567780
 119.3112625  95.5812859  62.2139352 109.9514585  97.1989405  73.5304112
 109.6317369  96.3454713  73.2378486 109.4048013  97.4137983  74.2862080
 113.7294492  99.9151846  77.2473619 113.9480502 100.8468954  77.2661653
 114.1420266  99.5559820  78.0328423 120.6498710  90.4219931  69.2349307
 119.8399438  90.0767016  69.6104553 121.3383127  90.1127475  69.8236919
 118.6022358  95.4885052  86.6376368 118.5019084  96.4379408  86.5688459
 118.3843900  95.1603290  85.7652438 117.8035429  92.7369977  63.2217045
 118.6654593  93.0624875  63.4812863 117.9885773  91.9501472  62.7090111
 109.8202845 100.8192316  75.4997234 109.1266316 100.4046269  74.9867188
 110.5675836 100.8612853  74.9030653 118.4653628  98.9182190  85.4541429
 117.9820709  99.7182550  85.6605319 118.5514567  98.9290135  84.5008873
 111.7339587 100.7510570  73.3763249 111.7110275 100.8498257  72.4245132
 112.0440224 101.5975721  73.6980415 114.3926965 102.8086725  77.4909863
 115.3470219 102.7770667  77.4239795 114.1939489 102.3477349  78.3060089
 114.9826347 101.3787841  80.0580661 115.8019236 101.8731920  80.0815498
 115.2563155 100.4619809  80.0298228 112.7477194 108.3506345  74.5080061
 112.6131662 107.5906745  73.9418059 112.3309256 109.0747244  74.0408850
 110.2361261  95.7125975  80.7572858 110.8820125  95.2024929  81.2460083
 110.0278413  96.4494657  81.3316283 118.7564872  89.9766020  66.5096754
 118.7443542  90.9207860  66.6665025 119.6488294  89.7936165  66.2156215
 114.5758752  92.8593592  84.8547872 115.4390214  92.5030397  85.0651197
 114.0024163  92.5207487  85.5423276  52.4978264  -5.4680725  57.1903255
  52.4202294  -4.5172900  57.2691736  51.8939908  -5.8134853  57.8478182
  50.1365094  -2.7195331  61.3351457  50.3761692  -2.0876807  62.0130476
  49.2934291  -3.0707291  61.6216817  50.6109926  -6.6947329  58.6650236
  49.9420302  -6.2101201  58.1814276  50.4722796  -6.4478108  59.5793615
  54.7515195  -4.6603585  65.2632894  55.3033503  -4.4971964  66.0281980
  55.0921388  -4.0699148  64.5912919  47.7114668  -6.6183039  61.2325368
  47.5769136  -7.3782638  60.6663366  47.2946730  -5.8942139  60.7654157
  50.8683794  -5.7213722  61.4443810  50.7516178  -4.7768289  61.3422501
  50.0476240  -6.0240160  61.8329610  51.8938308  -5.0685460  64.6599739
  52.7965555  -5.0361850  64.9766234  51.6675678  -5.9985009  64.6746075
  66.1934310  -0.5266507  62.3217105  65.8552821  -0.6425442  61.4337639
  67.0624078  -0.9275342  62.3018111  62.0521126   1.3268969  58.3113996
  61.4885991   1.2358906  57.5430283  61.9373521   0.5068874  58.7916488
  66.6754093   0.6268345  68.2803310  66.6642734   0.2321143  67.4083814
  66.8374732  -0.1065583  68.8737082  59.5985558   2.8220161  61.1498216
  60.3906850   2.4810986  60.7344515  59.8382208   2.9315136  62.0700369
  67.6320684   4.9939937  53.6228460  66.9808664   5.5794018  53.2362474
  68.4265047   5.5246132  53.6823498  61.5576312   2.0829074  54.0215595
  62.3307188   1.5358061  53.8828471  61.9101710   2.9473324  54.2330056
  63.3961354   3.4105457  67.2282494  63.1051220   4.3151087  67.1129160
  64.0318338   3.4521984  67.9426564  64.3217561   0.7882305  63.8183854
  64.9181133   0.5638327  63.1040817  64.3792532   0.0467051  64.4209302
  69.1095950   2.6830369  54.1597445  68.4741782   2.7564996  54.8718349
  68.7793356   3.2723968  53.4816524  63.6138878   0.1449846  53.8558420
  63.4975136  -0.5305250  54.5239504  63.7241138  -0.3417780  53.0390573
  65.9570419  -0.3940007  57.5605109  65.5928626  -0.9209386  58.2718030
  66.8137535  -0.7841537  57.3871594  68.3551239   3.0966872  64.2232288
  68.0551962   3.9991911  64.1148095  68.0102299   2.8299055  65.0753441
  61.8063721  -0.4519331  60.2568992  60.8814217  -0.5843117  60.4646684
  62.0548134   0.3274888  60.7538935  59.1672532  -0.8086058  61.0912781
  59.2964913  -0.5551579  62.0052193  58.4869983  -0.2158350  60.7717436
  63.3372019   9.8611192  57.1903255  63.2596049  10.8119018  57.2691736
  62.7333663   9.5157065  57.8478182  64.0835621  -0.1575489  69.4082589
  64.8250305   0.3809555  69.1317413  63.3772607   0.4690800  69.5654141
  69.5590961   1.9853652  68.0054751  69.9674317   1.5436062  67.2609383
  68.8368222   1.4106279  68.2588944  69.8819775   2.5454842  61.7607040
  69.2528638   2.7100556  61.0583108  69.4945437   2.9596452  62.5318004
  73.7609007   3.4809280  59.1151403  73.0760045   3.8608182  58.5648437
  73.8452857   4.0904607  59.8483351  71.0159939   1.1269239  65.7146747
  71.2276834   1.7700999  65.0381128  70.9689687   0.2931556  65.2468677
  65.4347737   2.2829250  59.0257125  65.8986083   2.5616953  58.2361747
  65.1704535   1.3812695  58.8430216  62.3271818   1.8300732  61.9636888
  62.8973175   2.2588000  61.3254373  62.9179930   1.5483317  62.6621074
  58.1141957  -3.3364045  61.1363824  57.3241011  -3.0806516  60.6603934
  58.6053205  -2.5215707  61.2415864  72.1305767   4.0041195  63.8869104
  72.9523211   3.6021382  63.6051786  72.1268170   3.9009429  64.8385220
  60.0656703  -2.9719465  58.0947300  59.2687866  -2.8600771  58.6130796
  59.8382295  -2.6332813  57.2288191  65.8962370   3.5525238  66.0429815
  65.9606803   4.0145645  66.8787987  65.1873294   2.9222603  66.1712125
  56.3979660  -3.0833554  63.5678814  56.6487699  -2.1986544  63.8336390
  56.9339209  -3.2628953  62.7953906  65.6110388   5.2193345  55.9108795
  65.4756063   6.0644881  56.3393643  66.1520200   5.4212623  55.1474729
  59.0639785   2.7368783  56.4836720  59.5764306   3.5312034  56.6342285
  59.7162498   2.0395074  56.4170322  60.8734670   5.8534540  58.5659473
  61.0501298   6.7752504  58.3780457  61.6691504   5.5392959  58.9953853
  60.1587027  -2.1000828  68.4421637  60.0440542  -3.0015571  68.7428736
  59.3031544  -1.8537132  68.0906453  67.2378864   5.8416912  70.0409137
  66.7942718   5.0553290  69.7230042  67.8996078   6.0296062  69.3753028
  61.9965985   7.3712713  64.5669816  62.5473411   7.2429777  63.7946810
  61.1577461   7.6707603  64.2164709  69.3360102   6.1219712  68.0690539
  69.3178578   6.9428593  67.5770808  70.2580022   5.9973787  68.2940680
  65.7933156   3.6363841  68.9114047  66.3261493   2.8752129  68.6813355
  65.2647238   3.3437493  69.6538201  57.0288702   1.0657438  57.2596291
  57.8663924   1.4754446  57.0429999  57.2066970   0.1256880  57.2296485
  67.1585869   2.7649834  56.4232859  66.6307231   2.0302593  56.1106096
  66.6573372   3.5424510  56.1772827  72.1378715   0.9598854  61.5399905
  71.4802390   1.6498116  61.6280034  72.9419114   1.3495286  61.8833892
  65.3038469   0.5830044  49.4267832  64.3965531   0.3519298  49.6258981
  65.8009501  -0.2132337  49.6141813  68.2106548   9.2927551  52.3464518
  67.5368247   9.5959248  52.9549476  68.5972370  10.0956632  51.9969975
  66.4826703   0.6842639  53.9491822  65.5737922   0.4001672  54.0464292
  66.5121787   1.1041717  53.0895129  71.7145970   4.2949228  57.7182990
  71.2608297   3.4540138  57.7748180  71.0839937   4.9310627  58.0557770
  70.1578909   6.1325725  58.6532808  70.4501884   6.6930782  57.9345173
  70.6677530   6.4254286  59.4085967  57.0514873  -1.5951847  57.9307024
  56.8539273  -2.1882486  57.2058091  56.4961537  -1.8999637  58.6482963
  66.1802791   2.2251383  51.2879901  65.7422221   1.5087242  50.8285538
  66.9213231   2.4527497  50.7264992  65.1212535   6.9106076  59.7426261
  65.0788713   7.1366923  58.8134793  66.0375234   6.6769451  59.8912062
  74.3245285   2.5685107  62.3567491  74.7581792   2.4760396  63.2050545
  75.0376866   2.5442607  61.7187507  63.2378335   3.7869105  59.5388224
  64.0318934   3.2919425  59.3370799  62.5270028   3.2586968  59.1755929
  68.0573180   6.1687201  63.8900591  68.1110202   6.7378137  64.6578307
  67.1887961   6.3389086  63.5254628  59.5461099  -2.0687813  55.6147976
  58.6158687  -2.1303358  55.8317938  59.6418571  -2.5911860  54.8184618
  75.1860835   2.6108807  64.8900376  75.3796725   3.5154618  65.1359651
  75.0861453   2.1516226  65.7238961  70.2475943   2.7615550  70.4641257
  70.0961450   2.5326102  69.5471340  70.2380623   3.7186151  70.4772602
  67.0161280   0.3347463  65.4487523  67.9453340   0.4858622  65.2756490
  66.5952310   0.4231484  64.5936170  65.8149611   4.3598127  63.2186061
  65.6760697   3.9916912  64.0911999  65.0264208   4.8745767  63.0470019
  66.4097763   9.4607224  54.5611597  66.5849519   8.9895267  55.3757220
  65.7230551  10.0872990  54.7892858  67.3654827   3.7379730  60.6074899
  67.0304659   3.6980500  61.5032548  66.8658772   3.0724446  60.1345309
  61.3399071  -0.8552640  66.1327480  61.2018868  -1.5872401  66.7339019
  62.2503994  -0.9443740  65.8511667  70.3014018   1.0835764  50.8811958
  69.6843189   0.3582592  50.7845011  69.8330507   1.8445125  50.5379032
  63.9681371  -1.1432681  65.6211159  64.6780990  -1.7839489  65.5797778
  63.9250679  -0.8919786  66.5437340  71.9568150   5.7934673  68.5417739
  71.8980696   5.1093893  67.8748322  72.3587668   6.5353663  68.0898365
  60.9758849  12.6096586  61.3351457  61.2155447  13.2415111  62.0130476
  60.1328045  12.2584626  61.6216817  71.9585557   3.7574257  66.7731718
  71.0712336   3.4200178  66.8958117  72.5284108   3.0257288  67.0100484
  53.6114704   0.0898348  60.0974770  54.2985744  -0.2239922  59.5095785
  53.4562833   0.9939713  59.8242021  65.4886711   8.4175709  63.7392961
  65.4156882   9.2230680  64.2512266  65.0464104   8.6167675  62.9140983
  65.2776490   7.6547479  57.2495783  64.4944012   8.1969159  57.3434008
  65.9769235   8.1721459  57.6490024  67.9485394   8.3162543  65.8951120
  68.6613366   8.9510008  65.8227022  67.4575423   8.4126409  65.0791122
  69.6702921   2.2213796  57.4668412  68.7359200   2.3415258  57.2973116
  69.8479589   1.3186262  57.2028422  62.9997308   6.0656986  66.7156691
  63.7006767   6.6993469  66.8686085  62.5292423   6.4071718  65.9552330
  71.1251703   4.4074936  55.0004598  71.4011547   4.2931531  55.9098472
  70.2556202   4.0092421  54.9616771  67.7605767   8.6561287  58.6437412
  67.9428162   7.8382943  59.1065164  68.5838753   8.8728979  58.2062302
  68.0947933   7.5829472  55.9052460  68.6235699   7.0721927  55.2922622
  68.3576153   7.2672002  56.7697993  66.8486167  -0.6378595  71.0275278
  66.1726804  -0.7384466  71.6977654  67.6713800  -0.7939381  71.4911276
  58.5965026   5.5993341  63.6487794  59.1818462   4.8537029  63.7815698
  58.3989864   5.9097298  64.5324458  61.4503681   8.6344589  58.6650236
  60.7814056   9.1190716  58.1814276  61.3116551   8.8813809  59.5793615
  53.1882680  -1.8301058  62.3692237  53.2266780  -2.3637468  63.1629355
  52.6822973  -2.3565853  61.7503214  65.5908949  10.6688332  65.2632894
  66.1427258  10.8319954  66.0281980  65.9315143  11.2592770  64.5912919
  70.4419824   5.4949590  71.1181549  70.9859728   6.1079548  70.6236504
  69.8606669   6.0529168  71.6348562  56.8191258  -3.1036956  55.4446168
  57.1144699  -4.0126278  55.3913222  55.9179294  -3.1249217  55.1227170
  68.7277337   8.6170308  62.2496577  68.6028476   7.8160048  61.7407522
  69.3856428   9.1116501  61.7610546  70.7912245   6.4179328  63.8776127
  69.8442581   6.2984679  63.8054453  71.1395018   5.5301826  63.9602388
  67.7958678   6.2132044  60.0780479  67.6483641   5.2848752  60.2588049
  68.6212172   6.2352135  59.5937554  71.3992800   7.0360603  61.1645352
  72.3239348   6.8303464  61.0269803  71.2308104   6.7877004  62.0734693
  71.1888116   7.5546270  56.5207443  71.3624994   6.9892693  55.7681295
  71.6817008   8.3547165  56.3386933  57.0065076  -0.4339061  64.5871002
  56.4618544   0.3420747  64.7191276  57.8844426  -0.0868256  64.4290123
  72.1763289   6.8713035  53.6204341  72.8714194   7.4919727  53.8391656
  72.5186439   6.0208386  53.8956719  57.7931098  -1.3069164  67.4801159
  57.0512834  -1.1586529  68.0665789  57.4723842  -1.0460899  66.6167908
  74.0754712   4.3212740  55.1491672  74.6006036   4.6600013  54.4240992
  73.9877065   3.3859756  54.9654807  65.7374761   8.2346814  67.2781549
  66.0461887   7.9895961  68.1504248  66.5350243   8.4393452  66.7900419
  65.7595373  10.3884724  59.5086925  65.3200363   9.8961102  60.2019782
  66.5103490   9.8457691  59.2679001  58.2387712   6.5796264  59.5111553
  59.0645732   6.2800036  59.1310197  57.8881764   5.8103887  59.9601342
  63.2069245   5.9322733  61.5809227  62.5849254   5.2693438  61.2811455
  63.8774112   5.9583865  60.8982875  56.4396317   4.4982591  60.4700487
  55.6028225   4.0704765  60.2884488  56.4119962   4.6915034  61.4071278
  73.7648618   4.9545644  70.4542870  72.9744162   4.9369783  69.9147369
  73.5281973   5.4933938  71.2091907  62.7682752   4.4826656  55.0567687
  62.9170872   5.1662120  54.4034360  63.5749195   4.4631746  55.5717143
  75.3864690   4.2235052  68.0117620  75.0949498   4.5865032  68.8481081
  74.7736821   3.5102060  67.8330952  60.5235385   0.5091834  56.0628756
  60.2781427  -0.3945836  56.2608967  60.6931299   0.5108984  55.1208234
  66.2678157   6.9774786  52.5279435  65.6952125   7.5964974  52.0749907
  66.8410951   7.5274148  53.0619357  69.4875417   7.2611937  53.6588017
  70.4206090   7.1957498  53.8620893  69.3998630   8.0968203  53.2002550
  72.1163434   6.5777807  50.6191965  72.0377065   6.2437670  51.5127723
  72.9373101   7.0699575  50.6183437  66.5363648   2.3653345  71.3296144
  67.4566658   2.5431944  71.5236191  66.5013232   1.4209391  71.1775844
  55.7545813  -2.4408061  60.2549419  55.4348598  -3.2942753  59.9623793
  55.2079242  -2.2259483  61.0107386  59.5325721   0.2754380  63.9718926
  59.7511731   1.2071488  63.9906959  59.9451495  -0.0837646  64.7573729
  55.6234073   1.1794850  62.2242541  54.9297545   0.7648803  61.7112495
  56.3707064   1.2215387  61.6275960  64.2684856  -0.7215275  72.1786736
  63.7851938   0.0785085  72.3850625  64.3545795  -0.7107331  71.2254180
  57.5370816   1.1113104  60.1008555  57.5141504   1.2100792  59.1490439
  57.8471452   1.9578255  60.4225722  60.1958194   3.1689259  64.2155170
  61.1501447   3.1373202  64.1485101  59.9970717   2.7079883  65.0305396
  60.7857576   1.7390375  66.7825968  61.6050465   2.2334454  66.8060805
  61.0594384   0.8222343  66.7543535  58.5508423   8.7108879  61.2325368
  58.4162891   7.9509280  60.6663366  58.1340485   9.4349779  60.7654157
  69.6867386   3.8945802  50.2401943  70.3903236   4.0995805  50.8559599
  68.9630034   4.4622564  50.5051027  61.7077549   9.6078196  61.4443810
  61.5909933  10.5523628  61.3422501  60.8869995   9.3051757  61.8329610
  71.5954083   4.3328331  52.2900403  72.4299687   3.9009530  52.1077878
  71.4338426   4.1610345  53.2177298  71.2499975   0.8360445  53.6556742
  71.1948779   0.6704716  52.7145187  70.6246031   1.5436478  53.8118932
  56.0392490  -3.9271491  67.4818165  56.6851354  -4.4372537  67.9705390
  55.8309641  -3.1902809  68.0561590  68.5645882   3.1409357  72.9810305
  69.4337042   3.3150009  72.6196940  68.0852634   3.9603773  72.8586035
  62.7332063  10.2606458  64.6599739  63.6359309  10.2930068  64.9766234
  62.5069433   9.3306909  64.6746075  64.4885665   9.0137444  61.3209817
  63.5381296   9.0139306  61.2074190  64.7918151   8.2670179  60.8045852
  80.2238358  14.8497983  62.3855580  80.8616768  14.7304730  61.6818920
  80.1059201  15.7978827  62.4443532  77.0328064  14.8025411  62.3217105
  76.6946576  14.6866475  61.4337639  77.9017833  14.4016576  62.3018111
  72.8914880  16.6560887  58.3113996  72.3279745  16.5650824  57.5430283
  72.7767275  15.8360792  58.7916488  77.5147847  15.9560262  68.2803310
  77.5036488  15.5613061  67.4083814  77.6768487  15.2226335  68.8737082
  70.4379312  18.1512079  61.1498216  71.2300604  17.8102903  60.7344515
  70.6775962  18.2607054  62.0700369  78.4714439  20.3231855  53.6228460
  77.8202419  20.9085935  53.2362474  79.2658802  20.8538050  53.6823498
  72.3970066  17.4120992  54.0215595  73.1700942  16.8649979  53.8828471
  72.7495465  18.2765241  54.2330056  74.2355109  18.7397374  67.2282494
  73.9444975  19.6443005  67.1129160  74.8712093  18.7813902  67.9426564
  75.1611315  16.1174223  63.8183854  75.7574888  15.8930245  63.1040817
  75.2186287  15.3758968  64.4209302  74.7336344  13.5713658  51.6534045
  74.9861865  13.0495179  50.8917508  73.7960903  13.4079804  51.7560728
  79.7779627  12.5749436  59.4608788  80.5642716  12.1568860  59.1099205
  80.0418331  13.4795529  59.6290436  79.9489704  18.0122287  54.1597445
  79.3135537  18.0856913  54.8718349  79.6187110  18.6015886  53.4816524
  85.1788054  12.5124670  60.3641766  85.9113226  11.9423886  60.5979596
  84.4227409  12.1246270  60.8048272  74.4532633  15.4741764  53.8558420
  74.3368891  14.7986667  54.5239504  74.5634892  14.9874138  53.0390573
  76.7964174  14.9351911  57.5605109  76.4322381  14.4082532  58.2718030
  77.6531289  14.5450380  57.3871594  82.7013474   6.2246244  64.8236375
  82.3696799   7.0941655  64.5997590  82.1059088   5.9082528  65.5030405
  76.4369660   9.9641811  52.5566457  76.6044063  10.8322047  52.9236928
  76.2466830  10.1269093  51.6327747  79.1944994  18.4258790  64.2232288
  78.8945717  19.3283829  64.1148095  78.8496053  18.1590973  65.0753441
  72.6457475  14.8772587  60.2568992  71.7207972  14.7448801  60.4646684
  72.8941888  15.6566806  60.7538935  82.5942137  10.9441330  61.9029725
  81.6859015  10.8756738  61.6088486  82.5429733  11.4213275  62.7311551
  76.4158881  12.4199468  53.5413124  76.2958507  12.8656519  54.3798604
  75.7211470  12.7684786  52.9826662  70.0066286  14.5205860  61.0912781
  70.1358667  14.7740339  62.0052193  69.3263737  15.1133568  60.7717436
  74.1765773  25.1903110  57.1903255  74.0989803  26.1410935  57.2691736
  73.5727417  24.8448983  57.8478182  76.6683003  12.3630976  69.8464622
  75.8916337  12.9224896  69.8367487  77.3073566  12.8487759  70.3679492
  84.4603784   9.1457768  63.6807599  83.8178164   9.4390301  63.0347394
  83.9558712   9.0310689  64.4860796  82.1143948  12.8920942  54.3693458
  83.0261804  13.1248328  54.1941156  81.6053595  13.4757986  53.8068537
  74.9229376  15.1716429  69.4082589  75.6644060  15.7101473  69.1317413
  74.2166361  15.7982718  69.5654141  80.3984715  17.3145569  68.0054751
  80.8068071  16.8727980  67.2609383  79.6761977  16.7398197  68.2588944
  76.7515785  12.2518176  65.3788308  77.5976980  12.6757590  65.5222957
  76.6914423  11.5951800  66.0726871  80.7213530  17.8746760  61.7607040
  80.0922392  18.0392474  61.0583108  80.3339192  18.2888370  62.5318004
  84.6002762  18.8101198  59.1151403  83.9153800  19.1900099  58.5648437
  84.6846611  19.4196524  59.8483351  79.9015231   9.9122544  67.0369481
  79.6576162  10.6664605  66.5003757  80.1775161  10.2907892  67.8716728
  81.8553693  16.4561157  65.7146747  82.0670589  17.0992917  65.0381128
  81.8083442  15.6223473  65.2468677  79.4579922   9.0678977  62.6183319
  78.5964401   9.3660231  62.9100057  79.4842357   9.2849376  61.6864352
  76.2741492  17.6121168  59.0257125  76.7379837  17.8908871  58.2361747
  76.0098290  16.7104613  58.8430216  73.1665573  17.1592650  61.9636888
  73.7366930  17.5879918  61.3254373  73.7573685  16.8775234  62.6621074
  75.2110378  13.7344320  55.8346690  75.9134421  14.1865364  56.3020616
  74.8791006  13.0928139  56.4626583  73.6590739  12.3256077  70.2097899
  73.0289400  13.0072358  70.4433296  73.5526827  12.2139159  69.2651038
  68.9535712  11.9927873  61.1363824  68.1634766  12.2485402  60.6603934
  69.4446959  12.8076211  61.2415864  82.9699521  19.3333112  63.8869104
  83.7916965  18.9313300  63.6051786  82.9661924  19.2301346  64.8385220
  70.9050457  12.3572452  58.0947300  70.1081620  12.4691147  58.6130796
  70.6776049  12.6959105  57.2288191  76.7356125  18.8817156  66.0429815
  76.8000557  19.3437563  66.8787987  76.0267049  18.2514520  66.1712125
  67.2373415  12.2458364  63.5678814  67.4881453  13.1305373  63.8336390
  67.7732963  12.0662965  62.7953906  91.0605514  15.6771861  60.2354076
  90.3069223  15.1079259  60.0798080  91.1953056  15.6434525  61.1824711
  76.4504142  20.5485263  55.9108795  76.3149817  21.3936799  56.3393643
  76.9913955  20.7504541  55.1474729  72.9371482   6.6276843  72.5723150
  72.5438428   6.0743041  73.2470795  73.7537622   6.9387421  72.9629668
  69.9033540  18.0660701  56.4836720  70.4158060  18.8603951  56.6342285
  70.5556253  17.3686992  56.4170322  71.7128424  21.1826457  58.5659473
  71.8895053  22.1044422  58.3780457  72.5085258  20.8684877  58.9953853
  75.8539443   8.0434722  70.1643407  76.5949156   8.6441875  70.0847869
  76.0857366   7.3012360  69.6061450  70.9980781  13.2291089  68.4421637
  70.8834296  12.3276346  68.7428736  70.1425299  13.4754786  68.0906453
  78.0772619  21.1708830  70.0409137  77.6336473  20.3845208  69.7230042
  78.7389832  21.3587980  69.3753028  72.8359740  22.7004631  64.5669816
  73.3867165  22.5721695  63.7946810  71.9971216  22.9999520  64.2164709
  80.1753857  21.4511629  68.0690539  80.1572332  22.2720511  67.5770808
  81.0973777  21.3265705  68.2940680  76.6326911  18.9655759  68.9114047
  77.1655248  18.2044047  68.6813355  76.1040992  18.6729411  69.6538201
  79.7996606   4.0715825  64.4407689  79.4560875   4.9617467  64.3646799
  80.1675569   3.8817483  63.5777274  67.8682457  16.3949355  57.2596291
  68.7057679  16.8046364  57.0429999  68.0460724  15.4548798  57.2296485
  79.7646889  14.0624436  52.9480124  79.2493512  14.8329041  53.1868511
  79.4924197  13.3889572  53.5713185  77.3494000   8.9074137  58.0065362
  76.4935596   8.5180987  57.8271001  77.7620951   8.9866098  57.1465148
  78.8793146   6.4420480  62.4056922  78.3757942   6.4050615  61.5924727
  79.1723753   7.3513223  62.4653579  75.1236032   6.5259210  61.4123104
  75.9889029   6.3302019  61.0528993  75.1913541   6.2969562  62.3392460
  84.7381163  16.8156791  54.8833297  83.9610606  16.4767950  54.4388459
  85.4172644  16.8209414  54.2088262  79.5533192  11.9351528  54.7739905
  79.2483327  12.2497677  55.6250048  80.5063634  12.0132948  54.8167238
  77.9979624  18.0941751  56.4232859  77.4700985  17.3594511  56.1106096
  77.4967126  18.8716428  56.1772827  82.9772470  16.2890772  61.5399905
  82.3196144  16.9790033  61.6280034  83.7812869  16.6787204  61.8833892
  72.7298351   8.7561418  58.7839470  73.3042103   8.5336599  58.0512663
  73.3169334   8.8250112  59.5368072  81.7877929  14.6435145  59.5903847
  82.3009810  15.2765136  60.0925557  82.4379152  14.0436340  59.2247207
  73.0567938  10.7865879  52.8035356  72.2205251  11.1240565  53.1244630
  72.9172708  10.6514859  51.8662493  75.0321019   5.6302667  57.5114540
  74.3785431   5.3151684  56.8871155  74.9901493   5.0078407  58.2374363
  76.1432224  15.9121962  49.4267832  75.2359286  15.6811215  49.6258981
  76.6403256  15.1159581  49.6141813  79.0500303  24.6219469  52.3464518
  78.3762002  24.9251166  52.9549476  79.4366125  25.4248549  51.9969975
  78.2658759  12.1184600  61.8362187  77.3481321  12.3399547  61.6783876
  78.6818903  12.1930911  60.9773895  79.0493807  13.5176016  56.9664868
  79.7965626  14.0297413  56.6571990  79.3185397  13.1960069  57.8269261
  77.3220457  16.0134557  53.9491822  76.4131677  15.7293589  54.0464292
  77.3515541  16.4333635  53.0895129  82.5539725  19.6241146  57.7182990
  82.1002052  18.7832056  57.7748180  81.9233691  20.2602544  58.0557770
  81.4972644  10.5533132  58.9483657  80.7595401  10.0410518  59.2793900
  81.7499418  10.1133514  58.1366934  80.9972664  21.4617643  58.6532808
  81.2895638  22.0222700  57.9345173  81.5071285  21.7546204  59.4085967
  67.8908628  13.7340071  57.9307024  67.6933028  13.1409431  57.2058091
  67.3355292  13.4292281  58.6482963  75.8705351  13.6263177  60.0501617
  75.9253961  12.6737014  59.9744094  75.0596553  13.7822616  60.5342916
  77.0196545  17.5543300  51.2879901  76.5815975  16.8379159  50.8285538
  77.7606986  17.7819415  50.7264992  73.8097711  12.2440237  57.8091996
  72.9965577  12.5434407  58.2157188  74.3056705  11.8495926  58.5266479
  75.9606289  22.2397994  59.7426261  75.9182468  22.4658840  58.8134793
  76.8768988  22.0061368  59.8912062  79.4071923  12.7082061  66.6406890
  79.7621311  12.9353535  67.5001356  80.0544054  13.0400438  66.0184145
  85.1369660  15.8300497  57.3456219  84.9987558  16.0202093  56.4177408
  84.7805879  16.5919880  57.8024270  73.3011786   9.8158592  63.4253231
  73.9411165   9.6747352  62.7276195  72.4689317   9.5293106  63.0491833
  85.1639039  17.8977024  62.3567491  85.5975546  17.8052313  63.2050545
  85.8770620  17.8734525  61.7187507  74.0772090  19.1161023  59.5388224
  74.8712688  18.6211343  59.3370799  73.3663782  18.5878886  59.1755929
  78.8966934  21.4979118  63.8900591  78.9503957  22.0670055  64.6578307
  78.0281716  21.6681003  63.5254628  70.3854853  13.2604105  55.6147976
  69.4552441  13.1988560  55.8317938  70.4812325  12.7380057  54.8184618
  70.3040402   9.7858917  58.2026218  70.5647220  10.7004251  58.0935378
  71.1257575   9.3183360  58.3522831  71.7765328  11.1996675  65.3725043
  72.4488381  10.9914037  64.7237691  70.9495114  11.0018761  64.9330275
  86.0254589  17.9400725  64.8900376  86.2190479  18.8446535  65.1359651
  85.9255207  17.4808144  65.7238961  77.6790900   7.8258616  67.3890703
  77.0318815   8.5248565  67.2955180  78.4491915   8.2594759  67.7566952
  81.0869698  18.0907468  70.4641257  80.9355204  17.8618019  69.5471340
  81.0774377  19.0478069  70.4772602  77.8555034  15.6639380  65.4487523
  78.7847094  15.8150540  65.2756490  77.4346064  15.7523401  64.5936170
  76.6543366  19.6890045  63.2186061  76.5154452  19.3208829  64.0911999
  75.8657962  20.2037684  63.0470019  77.2491518  24.7899141  54.5611597
  77.4243274  24.3187185  55.3757220  76.5624306  25.4164908  54.7892858
  78.2048581  19.0671648  60.6074899  77.8698414  19.0272418  61.5032548
  77.7052527  18.4016363  60.1345309  72.1792825  14.4739278  66.1327480
  72.0412623  13.7419516  66.7339019  73.0897749  14.3848178  65.8511667
  81.1407773  16.4127682  50.8811958  80.5236943  15.6874510  50.7845011
  80.6724261  17.1737042  50.5379032  74.8075126  14.1859237  65.6211159
  75.5174744  13.5452429  65.5797778  74.7644434  14.4372132  66.5437340
  82.7961904  21.1226590  68.5417739  82.7374451  20.4385810  67.8748322
  83.1981423  21.8645580  68.0898365  73.5204060  11.1724455  67.4406799
  72.9841417  10.7215193  68.0928395  72.9320768  11.3070364  66.6977263
  71.8152603  27.9388504  61.3351457  72.0549201  28.5707028  62.0130476
  70.9721800  27.5876544  61.6216817  72.9306319  10.6313106  50.0033262
  72.0535785  10.5101907  49.6395509  73.4064072   9.8399185  49.7512151
  82.7979312  19.0866174  66.7731718  81.9106090  18.7492096  66.8958117
  83.3677863  18.3549205  67.0100484  64.4508459  15.4190266  60.0974770
  65.1379499  15.1051996  59.5095785  64.2956587  16.3231631  59.8242021
  69.2543181  10.3080463  64.5259793  69.1701370   9.7006132  63.7910203
  68.4325887  10.7989481  64.5269290  76.3280465  23.7467627  63.7392961
  76.2550637  24.5522598  64.2512266  75.8857858  23.9459592  62.9140983
  76.1170245  22.9839397  57.2495783  75.3337767  23.5261077  57.3434008
  76.8162990  23.5013376  57.6490024  79.4266895   8.7934026  59.8929988
  79.9235594   8.0403988  59.5731059  78.6553876   8.8298343  59.3273198
  87.2796652  14.4974392  61.5348280  87.2686528  15.3799107  61.1642213
  86.4114032  14.1445942  61.3402817  78.7879149  23.6454461  65.8951120
  79.5007121  24.2801925  65.8227022  78.2969177  23.7418327  65.0791122
  80.5096675  17.5505713  57.4668412  79.5752954  17.6707176  57.2973116
  80.6873344  16.6478180  57.2028422  76.0101864  10.9351409  59.6201673
  75.6399651  10.3822449  60.3082579  76.5060956  10.3309543  59.0676673
  83.8969227  13.3923033  58.0018446  84.3629679  14.2251024  57.9278749
  84.3476727  12.9268014  58.7063704  73.8391062  21.3948904  66.7156691
  74.5400522  22.0285387  66.8686085  73.3686177  21.7363636  65.9552330
  81.9645458  19.7366854  55.0004598  82.2405302  19.6223448  55.9098472
  81.0949957  19.3384339  54.9616771  81.8685890   5.7603620  62.0409347
  80.9548969   5.9907846  62.2091554  82.2978991   5.8442064  62.8923380
  81.6392348  13.9493511  64.5409241  80.9863798  14.1969419  63.8861694
  82.0172728  13.1357650  64.2071719  78.5999522  23.9853205  58.6437412
  78.7821916  23.1674861  59.1065164  79.4232508  24.2020897  58.2062302
  78.9341687  22.9121390  55.9052460  79.4629454  22.4013844  55.2922622
  79.1969907  22.5963920  56.7697993  77.6879921  14.6913323  71.0275278
  77.0120558  14.5907452  71.6977654  78.5107555  14.5352536  71.4911276
  69.4358780  20.9285259  63.6487794  70.0212217  20.1828947  63.7815698
  69.2383619  21.2389216  64.5324458  72.2897435  23.9636506  58.6650236
  71.6207811  24.4482634  58.1814276  72.1510305  24.2105727  59.5793615
  64.0276435  13.4990859  62.3692237  64.0660534  12.9654450  63.1629355
  63.5216728  12.9726065  61.7503214  76.4302704  25.9980250  65.2632894
  76.9821012  26.1611872  66.0281980  76.7708897  26.5884688  64.5912919
  71.4067197   8.3455400  65.8654779  71.4708524   9.2070231  65.4532177
  71.3434317   7.7329401  65.1327138  70.8819470  10.4178532  69.5127813
  71.5091509  10.0355610  70.1265338  70.0247389  10.1992734  69.8783506
  81.2813578  20.8241508  71.1181549  81.8253482  21.4371466  70.6236504
  80.7000423  21.3821086  71.6348562  67.6585012  12.2254961  55.4446168
  67.9538454  11.3165640  55.3913222  66.7573048  12.2042701  55.1227170
  79.5671091  23.9462226  62.2496577  79.4422231  23.1451965  61.7407522
  80.2250182  24.4408419  61.7610546  71.1879259  10.3010958  61.4273717
  70.4665845  10.9146926  61.2881190  71.9772515  10.8368723  61.3490363
  81.6306000  21.7471246  63.8776127  80.6836335  21.6276597  63.8054453
  81.9788773  20.8593744  63.9602388  73.9905573   7.6365385  67.7014369
  74.5139975   7.8827681  68.4640678  73.7717906   8.4685419  67.2817506
  69.3872854   9.9069059  55.5685493  69.0585560   9.0266438  55.3860599
  69.7412225   9.8516728  56.4561883  78.6352433  21.5423962  60.0780479
  78.4877395  20.6140669  60.2588049  79.4605926  21.5644053  59.5937554
  72.5014677  10.1942029  55.9360971  72.8410750  10.7227950  55.2139579
  72.9486798  10.5322435  56.7119538  82.2386555  22.3652521  61.1645352
  83.1633102  22.1595382  61.0269803  82.0701858  22.1168922  62.0734693
  75.1958118   8.5779080  65.3864039  74.8554938   7.7786893  65.7884719
  74.4897124   8.8780790  64.8140872  75.8474590   5.6628392  63.8391362
  76.6700659   5.1888870  63.7170252  76.0912653   6.4418876  64.3390048
  74.4882824   8.6916651  54.1354264  75.2091187   9.0697903  53.6317981
  73.8648128   9.4105527  54.2389242  78.6313947   9.3961799  55.0712596
  78.8477562  10.2786437  54.7701424  78.1508014   9.0048013  54.3418238
  73.3713169  12.3547513  61.6483341  73.2257749  12.6687816  62.5407622
  72.8938372  12.9732413  61.0954239  75.2309552   9.3450061  61.6964230
  75.2171120   8.4491154  61.3596528  75.9481980   9.3520724  62.3302516
  77.0835682   9.7787401  63.7417358  76.8253460  10.7004472  63.7401688
  76.5520723   9.3817835  64.4317822  82.0281871  22.8838188  56.5207443
  82.2018749  22.3184610  55.7681295  82.5210762  23.6839083  56.3386933
  67.8458831  14.8952857  64.5871002  67.3012299  15.6712665  64.7191276
  68.7238181  15.2423662  64.4290123  74.6346447   8.2264441  56.9651800
  74.7562359   7.2981087  57.1642688  74.3448490   8.2403127  56.0530116
  77.5037638   5.9119351  60.1018520  77.5259335   5.9758684  59.1470500
  77.9205697   5.0723860  60.2959026  87.8821262  15.6474611  58.1397743
  88.3252408  14.8981936  57.7416866  87.0047772  15.6384747  57.7571475
  83.0157043  22.2004952  53.6204341  83.7107948  22.8211645  53.8391656
  83.3580194  21.3500304  53.8956719  68.6324853  14.0222753  67.4801159
  67.8906589  14.1705389  68.0665789  68.3117597  14.2831019  66.6167908
  84.9148467  19.6504658  55.1491672  85.4399791  19.9891931  54.4240992
  84.8270819  18.7151673  54.9654807  76.5768515  23.5638732  67.2781549
  76.8855642  23.3187878  68.1504248  77.3743997  23.7685370  66.7900419
  76.5989127  25.7176641  59.5086925  76.1594118  25.2253020  60.2019782
  77.3497244  25.1749609  59.2679001  69.0781466  21.9088182  59.5111553
  69.9039486  21.6091954  59.1310197  68.7275518  21.1395805  59.9601342
  74.0462999  21.2614650  61.5809227  73.4243009  20.5985355  61.2811455
  74.7167866  21.2875782  60.8982875  67.2790071  19.8274509  60.4700487
  66.4421980  19.3996683  60.2884488  67.2513717  20.0206952  61.4071278
  74.1187527   9.7396438  71.1741733  74.1675682  10.6158561  70.7919503
  74.6610041   9.1973831  70.6013376  84.6042373  20.2837562  70.4542870
  83.8137916  20.2661700  69.9147369  84.3675727  20.8225855  71.2091907
  84.7240248  17.1330028  67.7675599  84.7738253  16.9680035  68.7091121
  84.6154171  16.2657287  67.3773479  73.6076506  19.8118574  55.0567687
  73.7564627  20.4954038  54.4034360  74.4142950  19.7923664  55.5717143
  82.0144010  13.1160956  69.0834905  82.9153873  12.9767421  68.7918903
  82.0891985  13.2815411  70.0233083  76.3486815  10.4927811  67.9288092
  75.4790125  10.7861377  67.6570680  76.5846296  11.0768256  68.6495355
  86.2258445  19.5526969  68.0117620  85.9343253  19.9156950  68.8481081
  85.6130576  18.8393978  67.8330952  87.4254127  17.1179849  60.5320190
  88.2601018  17.5569653  60.6957751  87.5613256  16.6418502  59.7128436
  84.4745633  14.6759584  66.4797678  84.9499754  14.8687230  65.6716529
  83.5511198  14.7318770  66.2341062  71.3629139  15.8383751  56.0628756
  71.1175181  14.9346081  56.2608967  71.5325054  15.8400902  55.1208234
  79.0525849   6.7107428  65.4453512  79.5707793   7.4468455  65.1200001
  78.6980982   7.0171421  66.2800271  70.6324787  11.5712109  53.5614918
  69.9394032  11.6456464  52.9054954  70.3876539  10.8072452  54.0836435
  77.1071912  22.3066704  52.5279435  76.5345879  22.9256891  52.0749907
  77.6804706  22.8566066  53.0619357  83.1747302  11.5525344  64.7125984
  84.1264725  11.6523442  64.7338208  83.0050752  10.7603613  65.2224068
  81.1961681   8.6380927  64.8985385  80.6011613   8.9185940  64.2031873
  80.9111378   9.1274828  65.6702126  80.3269172  22.5903854  53.6588017
  81.2599845  22.5249416  53.8620893  80.2392385  23.4260121  53.2002550
  82.9557188  21.9069725  50.6191965  82.8770820  21.5729588  51.5127723
  83.7766855  22.3991492  50.6183437  85.6535380  14.7731464  63.8268283
  85.6211700  13.8347465  64.0127967  86.2636003  14.8515501  63.0934108
  77.4918710  13.6427517  49.8695487  78.4377815  13.5133725  49.9383905
  77.1132955  12.9042179  50.3464916  85.8029868  11.5642507  63.8726567
  85.2868917  10.7800964  63.6856495  86.6869817  11.2361224  64.0373086
  83.4640595   5.3083523  59.8322379  83.2665416   4.9998611  60.7165711
  84.0740301   6.0345162  59.9620309  91.4711929  15.8347471  62.9674320
  92.2015318  15.5732759  63.5282023  90.8618875  15.0976193  63.0076388
  89.5527227  13.9755333  63.5648771  88.8260390  13.8411298  62.9565263
  89.1374513  14.2832162  64.3705489  77.3757403  17.6945263  71.3296144
  78.2960412  17.8723862  71.5236191  77.3406986  16.7501308  71.1775844
  75.6761628  11.5677493  49.8050373  74.7693083  11.2710606  49.8813086
  75.9537609  11.2707311  48.9384659  66.5939568  12.8883857  60.2549419
  66.2742352  12.0349165  59.9623793  66.0472996  13.1032435  61.0107386
  70.3719476  15.6046298  63.9718926  70.5905485  16.5363405  63.9906959
  70.7845249  15.2454272  64.7573729  77.2923693   6.1114383  55.9594614
  76.4824422   5.7661468  56.3349860  77.9808110   5.8021927  56.5482225
  79.2214242   5.1892430  57.5818911  79.7745280   5.6087883  58.2408934
  79.4584328   4.2628178  57.6241867  75.2447341  11.1779503  73.3621674
  75.1444068  12.1273860  73.2933766  75.0268883  10.8497742  72.4897745
  74.4460412   8.4264428  49.9462352  75.3079576   8.7519327  50.2058169
  74.6310756   7.6395924  49.4335418  66.4627828  16.5086768  62.2242541
  65.7691299  16.0940721  61.7112495  67.2100819  16.5507305  61.6275960
  82.5993049   7.2992955  57.0897575  82.0191718   7.9577759  56.7075627
  82.3328981   6.4770300  56.6784992  81.0496615   6.6998013  59.2918895
  81.5496393   6.8114547  58.4833214  81.6932223   6.3959065  59.9319704
  75.1078611  14.6076642  72.1786736  74.6245693  15.4077002  72.3850625
  75.1939550  14.6184587  71.2254180  68.3764570  16.4405022  60.1008555
  68.3535259  16.5392709  59.1490439  68.6865207  17.2870173  60.4225722
  71.0351948  18.4981177  64.2155170  71.9895202  18.4665119  64.1485101
  70.8364472  18.0371801  65.0305396  71.6251330  17.0682293  66.7825968
  72.4444219  17.5626372  66.8060805  71.8988138  16.1514261  66.7543535
  81.3817927   9.4593045  56.1453923  80.4943782   9.7442696  55.9274118
  81.7971916   9.2986809  55.2981200  84.7332463   9.4839566  59.8608262
  85.5092853   9.9736019  60.1332879  84.0080597   9.9097620  60.3180132
  87.1705021  10.1967186  60.9182203  87.7649512   9.9562921  60.2075511
  87.2431605   9.4774316  61.5455739  69.3902177  24.0400796  61.2325368
  69.2556645  23.2801197  60.6663366  68.9734239  24.7641696  60.7654157
  80.5261140  19.2237720  50.2401943  81.2296990  19.4287722  50.8559599
  79.8023789  19.7914482  50.5051027  81.3558950  14.9747581  56.3604213
  81.2994152  15.4316133  55.5211846  81.9087293  14.2138266  56.1827056
  85.1663756  10.7637313  57.1854333  84.9100691  10.3633949  58.0162540
  84.5416624  11.4781107  57.0604472  89.4776094  13.5033386  59.6925624
  88.9175652  13.5726576  60.4657186  88.8719598  13.3274371  58.9725120
  72.5471303  24.9370113  61.4443810  72.4303687  25.8815546  61.3422501
  71.7263749  24.6343675  61.8329610  82.4347838  19.6620249  52.2900403
  83.2693441  19.2301448  52.1077878  82.2732180  19.4902263  53.2177298
  82.0893730  16.1652362  53.6556742  82.0342534  15.9996634  52.7145187
  81.4639785  16.8728395  53.8118932  66.8786245  11.4020427  67.4818165
  67.5245108  10.8919381  67.9705390  66.6703396  12.1389109  68.0561590
  79.4039637  18.4701274  72.9810305  80.2730797  18.6441927  72.6196940
  78.9246388  19.2895691  72.8586035  75.3989855   5.6660471  53.2342061
  75.3868525   6.6102311  53.3910332  76.2913277   5.4830617  52.9401522
  73.5725817  25.5898375  64.6599739  74.4753064  25.6221986  64.9766234
  73.3463187  24.6598826  64.6746075  75.3279419  24.3429362  61.3209817
  74.3775050  24.3431224  61.2074190  75.6311905  23.5962096  60.8045852
  71.2183736   8.5488044  71.5793179  72.0815197   8.1924849  71.7896503
  70.6449146   8.2101939  72.2668583  91.0632113  30.1789900  62.3855580
  91.7010523  30.0596648  61.6818920  90.9452956  31.1270744  62.4443532
  87.8721819  30.1317328  62.3217105  87.5340330  30.0158393  61.4337639
  88.7411587  29.7308493  62.3018111  88.3541602  31.2852180  68.2803310
  88.3430243  30.8904978  67.4083814  88.5162241  30.5518253  68.8737082
  85.0748863  34.0689292  67.2282494  84.7838729  34.9734923  67.1129160
  85.7105847  34.1105820  67.9426564  86.0005070  31.4466140  63.8183854
  86.5968642  31.2222163  63.1040817  86.0580041  30.7050886  64.4209302
  96.0181808  27.8416587  60.3641766  96.7506980  27.2715804  60.5979596
  95.2621164  27.4538188  60.8048272  93.5407229  21.5538161  64.8236375
  93.2090553  22.4233572  64.5997590  92.9452842  21.2374445  65.5030405
  90.0338748  33.7550707  64.2232288  89.7339471  34.6575746  64.1148095
  89.6889808  33.4882891  65.0753441  93.4335892  26.2733248  61.9029725
  92.5252769  26.2048656  61.6088486  93.3823488  26.7505193  62.7311551
  80.8460041  29.8497778  61.0912781  80.9752422  30.1032257  62.0052193
  80.1657492  30.4425486  60.7717436  87.5076758  27.6922893  69.8464622
  86.7310092  28.2516813  69.8367487  88.1467321  28.1779676  70.3679492
  95.2997538  24.4749686  63.6807599  94.6571919  24.7682219  63.0347394
  94.7952467  24.3602606  64.4860796  85.7623130  30.5008347  69.4082589
  86.5037814  31.0393391  69.1317413  85.0560115  31.1274635  69.5654141
  91.2378470  32.6437487  68.0054751  91.6461826  32.2019898  67.2609383
  90.5155731  32.0690115  68.2588944  87.5909540  27.5810094  65.3788308
  88.4370735  28.0049507  65.5222957  87.5308177  26.9243718  66.0726871
  90.7408985  25.2414462  67.0369481  90.4969917  25.9956523  66.5003757
  91.0168916  25.6199810  67.8716728  92.6947448  31.7853075  65.7146747
  92.9064343  32.4284834  65.0381128  92.6477196  30.9515391  65.2468677
  90.2973677  24.3970895  62.6183319  89.4358156  24.6952149  62.9100057
  90.3236111  24.6141294  61.6864352  84.0059327  32.4884567  61.9636888
  84.5760684  32.9171836  61.3254373  84.5967439  32.2067152  62.6621074
  84.4984494  27.6547995  70.2097899  83.8683154  28.3364276  70.4433296
  84.3920582  27.5431076  69.2651038  79.7929466  27.3219791  61.1363824
  79.0028520  27.5777319  60.6603934  80.2840714  28.1368129  61.2415864
  93.8093276  34.6625030  63.8869104  94.6310719  34.2605217  63.6051786
  93.8055679  34.5593264  64.8385220  81.7444212  27.6864370  58.0947300
  80.9475375  27.7983064  58.6130796  81.5169804  28.0251022  57.2288191
  87.5749879  34.2109073  66.0429815  87.6394312  34.6729480  66.8787987
  86.8660803  33.5806438  66.1712125  78.0767169  27.5750281  63.5678814
  78.3275208  28.4597291  63.8336390  78.6126718  27.3954883  62.7953906
 101.8999269  31.0063778  60.2354076 101.1462977  30.4371177  60.0798080
 102.0346810  30.9726443  61.1824711  83.7765237  21.9568761  72.5723150
  83.3832182  21.4034959  73.2470795  84.5931377  22.2679339  72.9629668
  86.6933197  23.3726640  70.1643407  87.4342911  23.9733793  70.0847869
  86.9251120  22.6304277  69.6061450  81.8374536  28.5583007  68.4421637
  81.7228051  27.6568264  68.7428736  80.9819053  28.8046704  68.0906453
  88.9166373  36.5000747  70.0409137  88.4730227  35.7137126  69.7230042
  89.5783587  36.6879898  69.3753028  83.6753494  38.0296549  64.5669816
  84.2260920  37.9013612  63.7946810  82.8364970  38.3291438  64.2164709
  91.0147611  36.7803547  68.0690539  90.9966087  37.6012428  67.5770808
  91.9367531  36.6557622  68.2940680  87.4720665  34.2947677  68.9114047
  88.0049002  33.5335965  68.6813355  86.9434747  34.0021328  69.6538201
  90.6390360  19.4007743  64.4407689  90.2954630  20.2909384  64.3646799
  91.0069323  19.2109400  63.5777274  89.7186901  21.7712398  62.4056922
  89.2151696  21.7342533  61.5924727  90.0117508  22.6805140  62.4653579
  85.9629787  21.8551127  61.4123104  86.8282783  21.6593936  61.0528993
  86.0307296  21.6261479  62.3392460  83.5692106  24.0853335  58.7839470
  84.1435858  23.8628517  58.0512663  84.1563088  24.1542030  59.5368072
  85.8714773  20.9594584  57.5114540  85.2179186  20.6443601  56.8871155
  85.8295248  20.3370325  58.2374363  89.1052514  27.4476518  61.8362187
  88.1875075  27.6691465  61.6783876  89.5212657  27.5222828  60.9773895
  92.4378026  18.6601302  59.5425426  92.7436903  17.7998665  59.2551341
  93.1630631  19.2518922  59.3424420  78.7302382  29.0631988  57.9307024
  78.5326782  28.4701349  57.2058091  78.1749046  28.7584199  58.6482963
  90.2465677  28.0373979  66.6406890  90.6015065  28.2645452  67.5001356
  90.8937809  28.3692356  66.0184145  84.1405541  25.1450510  63.4253231
  84.7804920  25.0039269  62.7276195  83.3083071  24.8585024  63.0491833
  89.7360689  36.8271036  63.8900591  89.7897711  37.3961972  64.6578307
  88.8675470  36.9972921  63.5254628  81.1434157  25.1150835  58.2026218
  81.4040974  26.0296168  58.0935378  81.9651329  24.6475278  58.3522831
  82.6159082  26.5288592  65.3725043  83.2882136  26.3205954  64.7237691
  81.7888869  26.3310678  64.9330275  96.8648344  33.2692643  64.8900376
  97.0584234  34.1738453  65.1359651  96.7648962  32.8100062  65.7238961
  88.5184654  23.1550533  67.3890703  87.8712569  23.8540483  67.2955180
  89.2885670  23.5886677  67.7566952  91.9263452  33.4199385  70.4641257
  91.7748959  33.1909937  69.5471340  91.9168132  34.3769987  70.4772602
  88.6948789  30.9931298  65.4487523  89.6240849  31.1442458  65.2756490
  88.2739819  31.0815319  64.5936170  87.4937120  35.0181963  63.2186061
  87.3548206  34.6500747  64.0911999  86.7051717  35.5329602  63.0470019
  83.0186580  29.8031195  66.1327480  82.8806377  29.0711434  66.7339019
  83.9291503  29.7140095  65.8511667  85.6468880  29.5151155  65.6211159
  86.3568499  28.8744347  65.5797778  85.6038188  29.7664049  66.5437340
  93.6355659  36.4518508  68.5417739  93.5768205  35.7677728  67.8748322
  94.0375177  37.1937498  68.0898365  84.3597814  26.5016372  67.4406799
  83.8235171  26.0507111  68.0928395  83.7714523  26.6362281  66.6977263
  82.6546358  43.2680422  61.3351457  82.8942956  43.8998946  62.0130476
  81.8115554  42.9168462  61.6216817  93.6373066  34.4158092  66.7731718
  92.7499845  34.0784014  66.8958117  94.2071617  33.6841123  67.0100484
  75.2902213  30.7482184  60.0974770  75.9773253  30.4343914  59.5095785
  75.1350342  31.6523548  59.8242021  80.0936935  25.6372380  64.5259793
  80.0095124  25.0298050  63.7910203  79.2719642  26.1281398  64.5269290
  87.1674220  39.0759544  63.7392961  87.0944391  39.8814516  64.2512266
  86.7251613  39.2751510  62.9140983  90.2660649  24.1225944  59.8929988
  90.7629349  23.3695906  59.5731059  89.4947631  24.1590260  59.3273198
  98.1190407  29.8266309  61.5348280  98.1080283  30.7091025  61.1642213
  97.2507786  29.4737860  61.3402817  89.6272903  38.9746378  65.8951120
  90.3400875  39.6093843  65.8227022  89.1362932  39.0710244  65.0791122
  84.6784817  36.7240822  66.7156691  85.3794276  37.3577305  66.8686085
  84.2079932  37.0655553  65.9552330  92.7079644  21.0895537  62.0409347
  91.7942724  21.3199764  62.2091554  93.1372746  21.1733981  62.8923380
  92.4786103  29.2785429  64.5409241  91.8257553  29.5261337  63.8861694
  92.8566482  28.4649567  64.2071719  88.5273676  30.0205240  71.0275278
  87.8514313  29.9199370  71.6977654  89.3501309  29.8644454  71.4911276
  80.2752535  36.2577177  63.6487794  80.8605971  35.5120865  63.7815698
  80.0777373  36.5681133  64.5324458  74.8670189  28.8282777  62.3692237
  74.9054289  28.2946368  63.1629355  74.3610482  28.3017982  61.7503214
  87.2696458  41.3272168  65.2632894  87.8214766  41.4903789  66.0281980
  87.6102652  41.9176606  64.5912919  82.2460952  23.6747317  65.8654779
  82.3102278  24.5362148  65.4532177  82.1828072  23.0621319  65.1327138
  81.7213224  25.7470450  69.5127813  82.3485263  25.3647527  70.1265338
  80.8641143  25.5284652  69.8783506  92.1207333  36.1533425  71.1181549
  92.6647237  36.7663383  70.6236504  91.5394178  36.7113004  71.6348562
  78.4978767  27.5546879  55.4446168  78.7932208  26.6457558  55.3913222
  77.5966803  27.5334619  55.1227170  90.4064846  39.2754143  62.2496577
  90.2815985  38.4743883  61.7407522  91.0643937  39.7700337  61.7610546
  82.0273014  25.6302876  61.4273717  81.3059600  26.2438843  61.2881190
  82.8166270  26.1660641  61.3490363  92.4699754  37.0763163  63.8776127
  91.5230090  36.9568514  63.8054453  92.8182527  36.1885661  63.9602388
  84.8299327  22.9657302  67.7014369  85.3533729  23.2119599  68.4640678
  84.6111661  23.7977337  67.2817506  86.0351873  23.9070997  65.3864039
  85.6948693  23.1078810  65.7884719  85.3290879  24.2072708  64.8140872
  86.6868344  20.9920310  63.8391362  87.5094414  20.5180788  63.7170252
  86.9306408  21.7710793  64.3390048  84.2106923  27.6839430  61.6483341
  84.0651504  27.9979733  62.5407622  83.7332127  28.3024331  61.0954239
  86.0703306  24.6741978  61.6964230  86.0564875  23.7783072  61.3596528
  86.7875734  24.6812642  62.3302516  87.9229437  25.1079319  63.7417358
  87.6647215  26.0296389  63.7401688  87.3914477  24.7109753  64.4317822
  78.6852585  30.2244775  64.5871002  78.1406053  31.0004583  64.7191276
  79.5631935  30.5715579  64.4290123  85.4740202  23.5556359  56.9651800
  85.5956113  22.6273005  57.1642688  85.1842244  23.5695045  56.0530116
  88.3431392  21.2411269  60.1018520  88.3653089  21.3050602  59.1470500
  88.7599451  20.4015778  60.2959026  79.4718607  29.3514671  67.4801159
  78.7300343  29.4997306  68.0665789  79.1511351  29.6122937  66.6167908
  87.4162270  38.8930649  67.2781549  87.7249396  38.6479796  68.1504248
  88.2137752  39.0977288  66.7900419  78.1183826  35.1566426  60.4700487
  77.2815734  34.7288601  60.2884488  78.0907471  35.3498870  61.4071278
  84.9581281  25.0688356  71.1741733  85.0069437  25.9450479  70.7919503
  85.5003796  24.5265749  70.6013376  95.4436127  35.6129479  70.4542870
  94.6531671  35.5953618  69.9147369  95.2069482  36.1517773  71.2091907
  95.5634002  32.4621946  67.7675599  95.6132007  32.2971953  68.7091121
  95.4547926  31.5949205  67.3773479  92.8537765  28.4452874  69.0834905
  93.7547627  28.3059339  68.7918903  92.9285739  28.6107328  70.0233083
  87.1880570  25.8219728  67.9288092  86.3183879  26.1153294  67.6570680
  87.4240050  26.4060173  68.6495355  97.0652199  34.8818887  68.0117620
  96.7737007  35.2448868  68.8481081  96.4524330  34.1685895  67.8330952
  95.3139387  30.0051502  66.4797678  95.7893509  30.1979148  65.6716529
  94.3904953  30.0610688  66.2341062  89.8919604  22.0399345  65.4453512
  90.4101548  22.7760372  65.1200001  89.5374737  22.3463339  66.2800271
  90.1432198  18.4599628  60.9654409  90.4233952  17.7922817  61.5914835
  90.9282805  18.6528723  60.4529072  94.0141056  26.8817262  64.7125984
  94.9658479  26.9815360  64.7338208  93.8444507  26.0895530  65.2224068
  92.0355436  23.9672845  64.8985385  91.4405368  24.2477858  64.2031873
  91.7505132  24.4566746  65.6702126  96.4929134  30.1023382  63.8268283
  96.4605454  29.1639382  64.0127967  97.1029758  30.1807418  63.0934108
  96.6423623  26.8934425  63.8726567  96.1262671  26.1092882  63.6856495
  97.5263571  26.5653142  64.0373086  94.3034349  20.6375441  59.8322379
  94.1059171  20.3290529  60.7165711  94.9134055  21.3637079  59.9620309
 102.3105684  31.1639388  62.9674320 103.0409072  30.9024677  63.5282023
 101.7012629  30.4268110  63.0076388 100.3920981  29.3047251  63.5648771
  99.6654145  29.1703216  62.9565263  99.9768268  29.6124080  64.3705489
  88.2151157  33.0237181  71.3296144  89.1354167  33.2015780  71.5236191
  88.1800740  32.0793226  71.1775844  77.4333322  28.2175774  60.2549419
  77.1136107  27.3641083  59.9623793  76.8866751  28.4324352  61.0107386
  81.2113230  30.9338215  63.9718926  81.4299240  31.8655323  63.9906959
  81.6239004  30.5746190  64.7573729  88.1317448  21.4406301  55.9594614
  87.3218176  21.0953386  56.3349860  88.8201865  21.1313844  56.5482225
  90.0607996  20.5184347  57.5818911  90.6139035  20.9379801  58.2408934
  90.2978082  19.5920096  57.6241867  86.0841095  26.5071421  73.3621674
  85.9837822  27.4565778  73.2933766  85.8662637  26.1789660  72.4897745
  77.3021582  31.8378686  62.2242541  76.6085054  31.4232639  61.7112495
  78.0494573  31.8799222  61.6275960  93.4386803  22.6284873  57.0897575
  92.8585472  23.2869677  56.7075627  93.1722736  21.8062217  56.6784992
  91.8890370  22.0289930  59.2918895  92.3890148  22.1406465  58.4833214
  92.5325977  21.7250983  59.9319704  85.9472365  29.9368560  72.1786736
  85.4639447  30.7368920  72.3850625  86.0333304  29.9476505  71.2254180
  79.2158325  31.7696940  60.1008555  79.1929013  31.8684627  59.1490439
  79.5258961  32.6162090  60.4225722  81.8745703  33.8273095  64.2155170
  82.8288956  33.7957037  64.1485101  81.6758226  33.3663718  65.0305396
  82.4645085  32.3974211  66.7825968  83.2837974  32.8918289  66.8060805
  82.7381893  31.4806179  66.7543535  95.5726217  24.8131484  59.8608262
  96.3486607  25.3027936  60.1332879  94.8474351  25.2389538  60.3180132
  98.0098776  25.5259103  60.9182203  98.6043267  25.2854839  60.2075511
  98.0825360  24.8066234  61.5455739  80.2295932  39.3692714  61.2325368
  80.0950400  38.6093115  60.6663366  79.8127994  40.0933614  60.7654157
  96.0057511  26.0929231  57.1854333  95.7494445  25.6925866  58.0162540
  95.3810379  26.8073025  57.0604472 100.3169849  28.8325304  59.6925624
  99.7569407  28.9018493  60.4657186  99.7113352  28.6566289  58.9725120
  83.3865058  40.2662031  61.4443810  83.2697442  41.2107464  61.3422501
  82.5657504  39.9635593  61.8329610  77.7179999  26.7312345  67.4818165
  78.3638863  26.2211299  67.9705390  77.5097150  27.4681026  68.0561590
  90.2433391  33.7993192  72.9810305  91.1124551  33.9733844  72.6196940
  89.7640143  34.6187609  72.8586035  86.2383610  20.9952389  53.2342061
  86.2262280  21.9394229  53.3910332  87.1307032  20.8122535  52.9401522
  84.4119572  40.9190293  64.6599739  85.3146818  40.9513903  64.9766234
  84.1856942  39.9890744  64.6746075  90.0535729  17.5895166  57.4887998
  89.2868125  17.0353653  57.6344680  90.4646434  17.6617035  58.3502149
  82.0577490  23.8779962  71.5793179  82.9208952  23.5216766  71.7896503
  81.4842901  23.5393856  72.2668583 101.9025867  45.5081818  62.3855580
 102.5404277  45.3888565  61.6818920 101.7846710  46.4562662  62.4443532
  98.7115573  45.4609246  62.3217105  98.3734085  45.3450311  61.4337639
  99.5805342  45.0600411  62.3018111  94.5702389  47.3144722  58.3113996
  94.0067254  47.2234659  57.5430283  94.4554784  46.4944627  58.7916488
  99.1935356  46.6144098  68.2803310  99.1823997  46.2196896  67.4083814
  99.3555996  45.8810170  68.8737082  92.1166821  48.8095914  61.1498216
  92.9088113  48.4686739  60.7344515  92.3563471  48.9190889  62.0700369
 100.1501948  50.9815690  53.6228460  99.4989928  51.5669771  53.2362474
 100.9446311  51.5121885  53.6823498  94.0757575  48.0704827  54.0215595
  94.8488451  47.5233814  53.8828471  94.4282974  48.9349077  54.2330056
  95.9142618  49.3981210  67.2282494  95.6232484  50.3026840  67.1129160
  96.5499602  49.4397737  67.9426564  96.8398824  46.7758058  63.8183854
  97.4362397  46.5514081  63.1040817  96.8973796  46.0342804  64.4209302
 101.4567136  43.2333272  59.4608788 102.2430225  42.8152695  59.1099205
 101.7205840  44.1379364  59.6290436 101.6277213  48.6706122  54.1597445
 100.9923046  48.7440749  54.8718349 101.2974619  49.2599721  53.4816524
 106.8575563  43.1708505  60.3641766 107.5900735  42.6007722  60.5979596
 106.1014918  42.7830105  60.8048272  96.1320142  46.1325599  53.8558420
  96.0156400  45.4570503  54.5239504  96.2422401  45.6457973  53.0390573
  98.4751682  45.5935747  57.5605109  98.1109890  45.0666367  58.2718030
  99.3318798  45.2034216  57.3871594 104.3800983  36.8830079  64.8236375
 104.0484308  37.7525490  64.5997590 103.7846596  36.5666363  65.5030405
 100.8732503  49.0842625  64.2232288 100.5733226  49.9867664  64.1148095
 100.5283562  48.8174808  65.0753441  94.3244984  45.5356422  60.2568992
  93.3995481  45.4032636  60.4646684  94.5729397  46.3150641  60.7538935
 104.2729646  41.6025165  61.9029725 103.3646524  41.5340574  61.6088486
 104.2217242  42.0797110  62.7311551  98.0946390  43.0783304  53.5413124
  97.9746016  43.5240354  54.3798604  97.3998979  43.4268621  52.9826662
  91.6853795  45.1789695  61.0912781  91.8146176  45.4324174  62.0052193
  91.0051246  45.7717404  60.7717436  95.8553282  55.8486945  57.1903255
  95.7777312  56.7994771  57.2691736  95.2514926  55.5032818  57.8478182
  98.3470512  43.0214811  69.8464622  97.5703846  43.5808731  69.8367487
  98.9861075  43.5071594  70.3679492 106.1391293  39.8041604  63.6807599
 105.4965673  40.0974137  63.0347394 105.6346221  39.6894524  64.4860796
 103.7931456  43.5504777  54.3693458 104.7049313  43.7832164  54.1941156
 103.2841104  44.1341821  53.8068537  96.6016885  45.8300264  69.4082589
  97.3431569  46.3685308  69.1317413  95.8953870  46.4566553  69.5654141
 102.0772224  47.9729405  68.0054751 102.4855580  47.5311815  67.2609383
 101.3549486  47.3982032  68.2588944  98.4303294  42.9102011  65.3788308
  99.2764489  43.3341425  65.5222957  98.3701932  42.2535636  66.0726871
 102.4001039  48.5330595  61.7607040 101.7709901  48.6976309  61.0583108
 102.0126701  48.9472205  62.5318004 106.2790271  49.4685033  59.1151403
 105.5941309  49.8483935  58.5648437 106.3634120  50.0780360  59.8483351
 101.5802740  40.5706380  67.0369481 101.3363671  41.3248440  66.5003757
 101.8562670  40.9491727  67.8716728 103.5341202  47.1144992  65.7146747
 103.7458098  47.7576752  65.0381128 103.4870951  46.2807309  65.2468677
 101.1367431  39.7262813  62.6183319 100.2751910  40.0244066  62.9100057
 101.1629866  39.9433212  61.6864352  97.9529001  48.2705003  59.0257125
  98.4167346  48.5492706  58.2361747  97.6885799  47.3688448  58.8430216
  94.8453082  47.8176485  61.9636888  95.4154439  48.2463753  61.3254373
  95.4361194  47.5359070  62.6621074  95.3378248  42.9839912  70.2097899
  94.7076909  43.6656193  70.4433296  95.2314336  42.8722994  69.2651038
  90.6323221  42.6511708  61.1363824  89.8422275  42.9069237  60.6603934
  91.1234468  43.4660046  61.2415864 104.6487030  49.9916948  63.8869104
 105.4704474  49.5897135  63.6051786 104.6449433  49.8885182  64.8385220
  98.4143634  49.5400991  66.0429815  98.4788066  50.0021398  66.8787987
  97.7054558  48.9098356  66.1712125  88.9160924  42.9042199  63.5678814
  89.1668962  43.7889209  63.8336390  89.4520472  42.7246800  62.7953906
 112.7393023  46.3355696  60.2354076 111.9856732  45.7663094  60.0798080
 112.8740565  46.3018361  61.1824711  98.1291651  51.2069098  55.9108795
  97.9937326  52.0520634  56.3393643  98.6701464  51.4088376  55.1474729
  94.6158991  37.2860678  72.5723150  94.2225937  36.7326877  73.2470795
  95.4325131  37.5971257  72.9629668  91.5821049  48.7244536  56.4836720
  92.0945569  49.5187787  56.6342285  92.2343762  48.0270827  56.4170322
  93.3915933  51.8410293  58.5659473  93.5682562  52.7628257  58.3780457
  94.1872767  51.5268712  58.9953853  97.5326952  38.7018557  70.1643407
  98.2736665  39.3025710  70.0847869  97.7644875  37.9596195  69.6061450
  92.6768290  43.8874925  68.4421637  92.5621805  42.9860182  68.7428736
  91.8212808  44.1338621  68.0906453  99.7560128  51.8292665  70.0409137
  99.3123982  51.0429043  69.7230042 100.4177341  52.0171815  69.3753028
  94.5147249  53.3588467  64.5669816  95.0654674  53.2305530  63.7946810
  93.6758725  53.6583356  64.2164709 101.8541366  52.1095465  68.0690539
 101.8359841  52.9304346  67.5770808 102.7761286  51.9849540  68.2940680
  98.3114420  49.6239594  68.9114047  98.8442757  48.8627883  68.6813355
  97.7828501  49.3313246  69.6538201 101.4784115  34.7299660  64.4407689
 101.1348384  35.6201302  64.3646799 101.8463078  34.5401318  63.5777274
  89.5469966  47.0533191  57.2596291  90.3845188  47.4630199  57.0429999
  89.7248233  46.1132633  57.2296485 101.4434398  44.7208271  52.9480124
 100.9281021  45.4912876  53.1868511 101.1711706  44.0473408  53.5713185
 100.5580655  37.1004315  62.4056922 100.0545451  37.0634451  61.5924727
 100.8511262  38.0097058  62.4653579 106.4168672  47.4740626  54.8833297
 105.6398115  47.1351786  54.4388459 107.0960153  47.4793249  54.2088262
  99.6767133  48.7525587  56.4232859  99.1488494  48.0178346  56.1106096
  99.1754635  49.5300263  56.1772827 104.6559979  46.9474607  61.5399905
 103.9983653  47.6373869  61.6280034 105.4600378  47.3371039  61.8833892
 103.4665437  45.3018980  59.5903847 103.9797319  45.9348972  60.0925557
 104.1166661  44.7020176  59.2247207  97.8219733  46.5705797  49.4267832
  96.9146795  46.3395051  49.6258981  98.3190765  45.7743416  49.6141813
 100.7287812  55.2803304  52.3464518 100.0549510  55.5835001  52.9549476
 101.1153634  56.0832385  51.9969975  99.9446268  42.7768436  61.8362187
  99.0268830  42.9983383  61.6783876 100.3606412  42.8514746  60.9773895
  99.0007966  46.6718392  53.9491822  98.0919186  46.3877425  54.0464292
  99.0303050  47.0917471  53.0895129 104.2327234  50.2824981  57.7182990
 103.7789561  49.4415891  57.7748180 103.6021200  50.9186380  58.0557770
 103.1760153  41.2116967  58.9483657 102.4382910  40.6994354  59.2793900
 103.4286927  40.7717349  58.1366934 102.6760173  52.1201478  58.6532808
 102.9683147  52.6806535  57.9345173 103.1858794  52.4130039  59.4085967
 103.2771781  33.9893219  59.5425426 103.5830657  33.1290583  59.2551341
 104.0024385  34.5810840  59.3424420  97.5492860  44.2847013  60.0501617
  97.6041470  43.3320849  59.9744094  96.7384062  44.4406452  60.5342916
  98.6984054  48.2127136  51.2879901  98.2603484  47.4962995  50.8285538
  99.4394495  48.4403250  50.7264992  97.6393798  52.8981829  59.7426261
  97.5969977  53.1242676  58.8134793  98.5556497  52.6645204  59.8912062
 101.0859432  43.3665897  66.6406890 101.4408820  43.5937370  67.5001356
 101.7331563  43.6984274  66.0184145 106.8157169  46.4884333  57.3456219
 106.6775067  46.6785929  56.4177408 106.4593388  47.2503715  57.8024270
  94.9799295  40.4742428  63.4253231  95.6198674  40.3331187  62.7276195
  94.1476826  40.1876941  63.0491833 106.8426548  48.5560860  62.3567491
 107.2763055  48.4636149  63.2050545 107.5558129  48.5318360  61.7187507
  95.7559599  49.7744858  59.5388224  96.5500197  49.2795178  59.3370799
  95.0451291  49.2462721  59.1755929 100.5754443  52.1562954  63.8900591
 100.6291466  52.7253890  64.6578307  99.7069225  52.3264839  63.5254628
  93.4552837  41.8580510  65.3725043  94.1275890  41.6497872  64.7237691
  92.6282623  41.6602596  64.9330275 107.7042098  48.5984560  64.8900376
 107.8977988  49.5030371  65.1359651 107.6042716  48.1391979  65.7238961
  99.3578409  38.4842451  67.3890703  98.7106324  39.1832401  67.2955180
 100.1279424  38.9178595  67.7566952 102.7657207  48.7491303  70.4641257
 102.6142713  48.5201855  69.5471340 102.7561886  49.7061904  70.4772602
  99.5342543  46.3223216  65.4487523 100.4634603  46.4734375  65.2756490
  99.1133573  46.4107237  64.5936170  98.3330875  50.3473880  63.2186061
  98.1941961  49.9792665  64.0911999  97.5445471  50.8621520  63.0470019
  98.9279027  55.4482977  54.5611597  99.1030783  54.9771020  55.3757220
  98.2411815  56.0748743  54.7892858  99.8836090  49.7255483  60.6074899
  99.5485923  49.6856253  61.5032548  99.3840036  49.0600199  60.1345309
  93.8580334  45.1323113  66.1327480  93.7200132  44.4003352  66.7339019
  94.7685257  45.0432013  65.8511667 102.8195282  47.0711517  50.8811958
 102.2024452  46.3458345  50.7845011 102.3511770  47.8320878  50.5379032
  96.4862635  44.8443072  65.6211159  97.1962253  44.2036264  65.5797778
  96.4431943  45.0955967  66.5437340 104.4749413  51.7810426  68.5417739
 104.4161960  51.0969646  67.8748322 104.8768932  52.5229416  68.0898365
  95.1991569  41.8308290  67.4406799  94.6628926  41.3799029  68.0928395
  94.6108277  41.9654199  66.6977263 104.4766821  49.7450010  66.7731718
 103.5893599  49.4075931  66.8958117 105.0465372  49.0133041  67.0100484
  86.1295968  46.0774101  60.0974770  86.8167008  45.7635831  59.5095785
  85.9744096  46.9815466  59.8242021  90.9330690  40.9664298  64.5259793
  90.8488879  40.3589967  63.7910203  90.1113396  41.4573316  64.5269290
  98.0067974  54.4051462  63.7392961  97.9338146  55.2106433  64.2512266
  97.5645367  54.6043428  62.9140983  97.7957754  53.6423232  57.2495783
  97.0125276  54.1844912  57.3434008  98.4950499  54.1597212  57.6490024
 108.9584161  45.1558227  61.5348280 108.9474037  46.0382942  61.1642213
 108.0901541  44.8029778  61.3402817 100.4666658  54.3038296  65.8951120
 101.1794630  54.9385761  65.8227022  99.9756686  54.4002162  65.0791122
 102.1884184  48.2089549  57.4668412 101.2540463  48.3291011  57.2973116
 102.3660853  47.3062015  57.2028422 105.5756736  44.0506868  58.0018446
 106.0417188  44.8834859  57.9278749 106.0264236  43.5851849  58.7063704
  95.5178571  52.0532739  66.7156691  96.2188031  52.6869222  66.8686085
  95.0473686  52.3947471  65.9552330 103.6432967  50.3950689  55.0004598
 103.9192811  50.2807284  55.9098472 102.7737466  49.9968174  54.9616771
 103.5473399  36.4187455  62.0409347 102.6336478  36.6491682  62.2091554
 103.9766500  36.5025899  62.8923380 103.3179857  44.6077347  64.5409241
 102.6651307  44.8553254  63.8861694 103.6960237  43.7941485  64.2071719
 100.2787031  54.6437040  58.6437412 100.4609425  53.8258696  59.1065164
 101.1020017  54.8604732  58.2062302 100.6129196  53.5705225  55.9052460
 101.1416963  53.0597680  55.2922622 100.8757416  53.2547755  56.7697993
  99.3667430  45.3497158  71.0275278  98.6908067  45.2491287  71.6977654
 100.1895064  45.1936372  71.4911276  91.1146289  51.5869094  63.6487794
  91.6999726  50.8412782  63.7815698  90.9171128  51.8973051  64.5324458
  93.9684944  54.6220342  58.6650236  93.2995320  55.1066469  58.1814276
  93.8297814  54.8689562  59.5793615  85.7063944  44.1574695  62.3692237
  85.7448043  43.6238285  63.1629355  85.2004237  43.6309900  61.7503214
  98.1090213  56.6564085  65.2632894  98.6608521  56.8195707  66.0281980
  98.4496406  57.2468523  64.5912919  93.0854706  39.0039235  65.8654779
  93.1496033  39.8654066  65.4532177  93.0221826  38.3913237  65.1327138
  92.5606979  41.0762368  69.5127813  93.1879018  40.6939445  70.1265338
  91.7034898  40.8576570  69.8783506 102.9601087  51.4825343  71.1181549
 103.5040991  52.0955301  70.6236504 102.3787932  52.0404921  71.6348562
 101.2458600  54.6046061  62.2496577 101.1209740  53.8035801  61.7407522
 101.9037691  55.0992254  61.7610546  92.8666768  40.9594793  61.4273717
  92.1453354  41.5730761  61.2881190  93.6560024  41.4952558  61.3490363
 103.3093509  52.4055081  63.8776127 102.3623844  52.2860432  63.8054453
 103.6576282  51.5177579  63.9602388  95.6693082  38.2949220  67.7014369
  96.1927484  38.5411516  68.4640678  95.4505415  39.1269255  67.2817506
 100.3139942  52.2007797  60.0780479 100.1664904  51.2724505  60.2588049
 101.1393435  52.2227888  59.5937554 103.9174064  53.0236356  61.1645352
 104.8420611  52.8179217  61.0269803 103.7489367  52.7752757  62.0734693
  96.8745627  39.2362915  65.3864039  96.5342447  38.4370728  65.7884719
  96.1684633  39.5364626  64.8140872  97.5262099  36.3212227  63.8391362
  98.3488168  35.8472706  63.7170252  97.7700162  37.1002711  64.3390048
  95.0500678  43.0131348  61.6483341  94.9045258  43.3271651  62.5407622
  94.5725881  43.6316248  61.0954239  96.9097060  40.0033896  61.6964230
  96.8958629  39.1074989  61.3596528  97.6269489  40.0104560  62.3302516
  98.7623191  40.4371236  63.7417358  98.5040969  41.3588307  63.7401688
  98.2308232  40.0401671  64.4317822 103.7069380  53.5422023  56.5207443
 103.8806257  52.9768446  55.7681295 104.1998271  54.3422918  56.3386933
  89.5246340  45.5536692  64.5871002  88.9799808  46.3296500  64.7191276
  90.4025690  45.9007497  64.4290123 109.5608771  46.3058446  58.1397743
 110.0039917  45.5565772  57.7416866 108.6835281  46.2968583  57.7571475
 104.6944552  52.8588788  53.6204341 105.3895457  53.4795480  53.8391656
 105.0367703  52.0084139  53.8956719  90.3112362  44.6806589  67.4801159
  89.5694098  44.8289224  68.0665789  89.9905106  44.9414854  66.6167908
 106.5935976  50.3088493  55.1491672 107.1187300  50.6475766  54.4240992
 106.5058328  49.3735509  54.9654807  98.2556024  54.2222567  67.2781549
  98.5643151  53.9771714  68.1504248  99.0531506  54.4269205  66.7900419
  98.2776636  56.3760477  59.5086925  97.8381627  55.8836855  60.2019782
  99.0284753  55.8333444  59.2679001  90.7568975  52.5672017  59.5111553
  91.5826995  52.2675789  59.1310197  90.4063027  51.7979640  59.9601342
  95.7250508  51.9198486  61.5809227  95.1030518  51.2569191  61.2811455
  96.3955375  51.9459618  60.8982875  88.9577580  50.4858344  60.4700487
  88.1209489  50.0580518  60.2884488  88.9301226  50.6790787  61.4071278
  95.7975036  40.3980274  71.1741733  95.8463191  41.2742396  70.7919503
  96.3397550  39.8557667  70.6013376 106.2829882  50.9421397  70.4542870
 105.4925425  50.9245536  69.9147369 106.0463236  51.4809691  71.2091907
 106.4027757  47.7913863  67.7675599 106.4525762  47.6263871  68.7091121
 106.2941680  46.9241122  67.3773479  95.2864015  50.4702409  55.0567687
  95.4352136  51.1537873  54.4034360  96.0930459  50.4507499  55.5717143
 103.6931519  43.7744791  69.0834905 104.5941382  43.6351256  68.7918903
 103.7679494  43.9399246  70.0233083  98.0274324  41.1511646  67.9288092
  97.1577634  41.4445212  67.6570680  98.2633805  41.7352091  68.6495355
 107.9045954  50.2110805  68.0117620 107.6130762  50.5740785  68.8481081
 107.2918085  49.4977813  67.8330952 109.1041636  47.7763685  60.5320190
 109.9388527  48.2153489  60.6957751 109.2400765  47.3002338  59.7128436
 106.1533142  45.3343419  66.4797678 106.6287263  45.5271066  65.6716529
 105.2298707  45.3902605  66.2341062  93.0416648  46.4967587  56.0628756
  92.7962690  45.5929917  56.2608967  93.2112563  46.4984737  55.1208234
 100.7313358  37.3691263  65.4453512 101.2495302  38.1052290  65.1200001
 100.3768491  37.6755256  66.2800271 100.9825952  33.7891546  60.9654409
 101.2627706  33.1214735  61.5914835 101.7676559  33.9820641  60.4529072
  98.7859421  52.9650539  52.5279435  98.2133388  53.5840727  52.0749907
  99.3592215  53.5149901  53.0619357 104.8534811  42.2109180  64.7125984
 105.8052234  42.3107277  64.7338208 104.6838261  41.4187448  65.2224068
 102.8749190  39.2964763  64.8985385 102.2799122  39.5769775  64.2031873
 102.5898887  39.7858664  65.6702126 102.0056681  53.2487690  53.6588017
 102.9387354  53.1833251  53.8620893 101.9179894  54.0843956  53.2002550
 104.6344697  52.5653560  50.6191965 104.5558329  52.2313424  51.5127723
 105.4554364  53.0575328  50.6183437 107.3322889  45.4315299  63.8268283
 107.2999209  44.4931300  64.0127967 107.9423512  45.5099336  63.0934108
 107.4817377  42.2226343  63.8726567 106.9656426  41.4384799  63.6856495
 108.3657326  41.8945059  64.0373086 105.1428104  35.9667358  59.8322379
 104.9452925  35.6582446  60.7165711 105.7527810  36.6928997  59.9620309
 113.1499438  46.4931306  62.9674320 113.8802827  46.2316594  63.5282023
 112.5406384  45.7560028  63.0076388 111.2314736  44.6339169  63.5648771
 110.5047899  44.4995134  62.9565263 110.8162022  44.9415997  64.3705489
  88.2727077  43.5467692  60.2549419  87.9529861  42.6933000  59.9623793
  87.7260505  43.7616270  61.0107386  92.0506984  46.2630133  63.9718926
  92.2692994  47.1947241  63.9906959  92.4632758  45.9038107  64.7573729
 100.9001751  35.8476265  57.5818911 101.4532789  36.2671719  58.2408934
 101.1371837  34.9212013  57.6241867  96.9234850  41.8363339  73.3621674
  96.8231577  42.7857696  73.2933766  96.7056392  41.5081578  72.4897745
  88.1415337  47.1670603  62.2242541  87.4478808  46.7524556  61.7112495
  88.8888328  47.2091140  61.6275960 104.2780558  37.9576790  57.0897575
 103.6979227  38.6161594  56.7075627 104.0116490  37.1354135  56.6784992
 102.7284124  37.3581848  59.2918895 103.2283902  37.4698383  58.4833214
 103.3719732  37.0542901  59.9319704  96.7866120  45.2660478  72.1786736
  96.3033202  46.0660838  72.3850625  96.8727059  45.2768422  71.2254180
  90.0552079  47.0988857  60.1008555  90.0322768  47.1976545  59.1490439
  90.3652716  47.9454008  60.4225722  92.7139457  49.1565012  64.2155170
  93.6682711  49.1248955  64.1485101  92.5151981  48.6955636  65.0305396
  93.3038839  47.7266128  66.7825968  94.1231728  48.2210207  66.8060805
  93.5775647  46.8098096  66.7543535 106.4119972  40.1423402  59.8608262
 107.1880362  40.6319854  60.1332879 105.6868106  40.5681456  60.3180132
 108.8492530  40.8551021  60.9182203 109.4437021  40.6146757  60.2075511
 108.9219114  40.1358151  61.5455739  91.0689686  54.6984632  61.2325368
  90.9344154  53.9385033  60.6663366  90.6521748  55.4225532  60.7654157
 102.2048649  49.8821555  50.2401943 102.9084499  50.0871558  50.8559599
 101.4811298  50.4498317  50.5051027 103.0346459  45.6331417  56.3604213
 102.9781661  46.0899968  55.5211846 103.5874802  44.8722101  56.1827056
 106.8451265  41.4221148  57.1854333 106.5888200  41.0217784  58.0162540
 106.2204133  42.1364942  57.0604472 111.1563603  44.1617222  59.6925624
 110.5963161  44.2310411  60.4657186 110.5507107  43.9858206  58.9725120
  94.2258812  55.5953949  61.4443810  94.1091196  56.5399381  61.3422501
  93.4051258  55.2927510  61.8329610 104.1135347  50.3204085  52.2900403
 104.9480950  49.8885283  52.1077878 103.9519689  50.1486098  53.2177298
 103.7681239  46.8236198  53.6556742 103.7130043  46.6580469  52.7145187
 103.1427294  47.5312231  53.8118932  88.5573754  42.0604262  67.4818165
  89.2032617  41.5503216  67.9705390  88.3490905  42.7972944  68.0561590
 101.0827146  49.1285110  72.9810305 101.9518306  49.3025762  72.6196940
 100.6033897  49.9479527  72.8586035  95.2513326  56.2482211  64.6599739
  96.1540573  56.2805821  64.9766234  95.0250696  55.3182662  64.6746075
  97.0066928  55.0013197  61.3209817  96.0562559  55.0015059  61.2074190
  97.3099414  54.2545932  60.8045852 100.8929484  32.9187083  57.4887998
 100.1261879  32.3645570  57.6344680 101.3040189  32.9908952  58.3502149
  92.8971245  39.2071879  71.5793179  93.7602706  38.8508684  71.7896503
  92.3236655  38.8685774  72.2668583 112.7419622  60.8373736  62.3855580
 113.3798032  60.7180483  61.6818920 112.6240465  61.7854580  62.4443532
 109.5509328  60.7901164  62.3217105 109.2127839  60.6742228  61.4337639
 110.4199096  60.3892329  62.3018111 105.4096144  62.6436640  58.3113996
 104.8461009  62.5526577  57.5430283 105.2948539  61.8236545  58.7916488
 110.0329111  61.9436015  68.2803310 110.0217752  61.5488814  67.4083814
 110.1949750  61.2102088  68.8737082 102.9560576  64.1387832  61.1498216
 103.7481867  63.7978656  60.7344515 103.1957226  64.2482807  62.0700369
 110.9895702  66.3107608  53.6228460 110.3383682  66.8961688  53.2362474
 111.7840065  66.8413803  53.6823498 104.9151329  63.3996745  54.0215595
 105.6882205  62.8525732  53.8828471 105.2676728  64.2640994  54.2330056
 106.7536372  64.7273127  67.2282494 106.4626238  65.6318758  67.1129160
 107.3893356  64.7689655  67.9426564 107.6792579  62.1049976  63.8183854
 108.2756151  61.8805998  63.1040817 107.7367550  61.3634721  64.4209302
 107.2517607  59.5589411  51.6534045 107.5043128  59.0370932  50.8917508
 106.3142166  59.3955557  51.7560728 112.2960890  58.5625189  59.4608788
 113.0823979  58.1444613  59.1099205 112.5599594  59.4671282  59.6290436
 112.4670967  63.9998040  54.1597445 111.8316800  64.0732666  54.8718349
 112.1368374  64.5891639  53.4816524 117.6969317  58.5000423  60.3641766
 118.4294489  57.9299639  60.5979596 116.9408673  58.1122023  60.8048272
 106.9713896  61.4617517  53.8558420 106.8550154  60.7862420  54.5239504
 107.0816156  60.9749891  53.0390573 109.3145437  60.9227664  57.5605109
 108.9503644  60.3958285  58.2718030 110.1712553  60.5326133  57.3871594
 115.2194738  52.2121997  64.8236375 114.8878062  53.0817408  64.5997590
 114.6240351  51.8958281  65.5030405 108.9550924  55.9517564  52.5566457
 109.1225326  56.8197800  52.9236928 108.7648093  56.1144846  51.6327747
 111.7126257  64.4134543  64.2232288 111.4126980  65.3159582  64.1148095
 111.3677317  64.1466726  65.0753441 105.1638739  60.8648340  60.2568992
 104.2389235  60.7324554  60.4646684 105.4123152  61.6442559  60.7538935
 115.1123401  56.9317083  61.9029725 114.2040278  56.8632491  61.6088486
 115.0610997  57.4089028  62.7311551 108.9340145  58.4075221  53.5413124
 108.8139770  58.8532272  54.3798604 108.2392733  58.7560539  52.9826662
 102.5247550  60.5081613  61.0912781 102.6539931  60.7616092  62.0052193
 101.8445001  61.1009321  60.7717436 106.6947037  71.1778863  57.1903255
 106.6171067  72.1286688  57.2691736 106.0908681  70.8324736  57.8478182
 109.1864267  58.3506729  69.8464622 108.4097601  58.9100649  69.8367487
 109.8254830  58.8363512  70.3679492 116.9785047  55.1333521  63.6807599
 116.3359428  55.4266055  63.0347394 116.4739976  55.0186442  64.4860796
 114.6325211  58.8796695  54.3693458 115.5443067  59.1124081  54.1941156
 114.1234858  59.4633739  53.8068537 107.4410639  61.1592182  69.4082589
 108.1825323  61.6977226  69.1317413 106.7347624  61.7858471  69.5654141
 112.9165979  63.3021322  68.0054751 113.3249335  62.8603733  67.2609383
 112.1943240  62.7273950  68.2588944 109.2697049  58.2393929  65.3788308
 110.1158244  58.6633343  65.5222957 109.2095686  57.5827553  66.0726871
 113.2394793  63.8622513  61.7607040 112.6103656  64.0268227  61.0583108
 112.8520455  64.2764123  62.5318004 117.1184025  64.7976951  59.1151403
 116.4335063  65.1775852  58.5648437 117.2027875  65.4072278  59.8483351
 112.4196494  55.8998298  67.0369481 112.1757426  56.6540358  66.5003757
 112.6956425  56.2783645  67.8716728 114.3734957  62.4436910  65.7146747
 114.5851852  63.0868670  65.0381128 114.3264705  61.6099226  65.2468677
 111.9761186  55.0554731  62.6183319 111.1145665  55.3535984  62.9100057
 112.0023620  55.2725129  61.6864352 108.7922755  63.5996921  59.0257125
 109.2561101  63.8784624  58.2361747 108.5279553  62.6980366  58.8430216
 105.6846836  63.1468403  61.9636888 106.2548193  63.5755671  61.3254373
 106.2754948  62.8650987  62.6621074 107.7291641  59.7220073  55.8346690
 108.4315685  60.1741117  56.3020616 107.3972270  59.0803892  56.4626583
 106.1772003  58.3131830  70.2097899 105.5470663  58.9948111  70.4433296
 106.0708091  58.2014912  69.2651038 101.4716975  57.9803626  61.1363824
 100.6816029  58.2361155  60.6603934 101.9628223  58.7951964  61.2415864
 115.4880785  65.3208865  63.8869104 116.3098228  64.9189053  63.6051786
 115.4843188  65.2177099  64.8385220 103.4231721  58.3448205  58.0947300
 102.6262884  58.4566900  58.6130796 103.1957313  58.6834858  57.2288191
 109.2537388  64.8692909  66.0429815 109.3181821  65.3313316  66.8787987
 108.5448312  64.2390274  66.1712125  99.7554678  58.2334117  63.5678814
 100.0062717  59.1181126  63.8336390 100.2914227  58.0538718  62.7953906
 108.9685406  66.5361016  55.9108795 108.8331081  67.3812552  56.3393643
 109.5095218  66.7380294  55.1474729 105.4552745  52.6152596  72.5723150
 105.0619691  52.0618794  73.2470795 106.2718886  52.9263174  72.9629668
 102.4214803  64.0536454  56.4836720 102.9339324  64.8479704  56.6342285
 103.0737516  63.3562745  56.4170322 104.2309688  67.1702210  58.5659473
 104.4076316  68.0920175  58.3780457 105.0266521  66.8560630  58.9953853
 108.3720706  54.0310475  70.1643407 109.1130420  54.6317628  70.0847869
 108.6038629  53.2888113  69.6061450 103.5162044  59.2166842  68.4421637
 103.4015560  58.3152100  68.7428736 102.6606562  59.4630539  68.0906453
 110.5953882  67.1584583  70.0409137 110.1517736  66.3720961  69.7230042
 111.2571096  67.3463733  69.3753028 105.3541003  68.6880384  64.5669816
 105.9048429  68.5597448  63.7946810 104.5152479  68.9875273  64.2164709
 112.6935120  67.4387383  68.0690539 112.6753596  68.2596264  67.5770808
 113.6155040  67.3141458  68.2940680 109.1508174  64.9531512  68.9114047
 109.6836511  64.1919800  68.6813355 108.6222256  64.6605164  69.6538201
 112.3177869  50.0591578  64.4407689 111.9742139  50.9493220  64.3646799
 112.6856832  49.8693236  63.5777274 100.3863720  62.3825108  57.2596291
 101.2238942  62.7922117  57.0429999 100.5641988  61.4424551  57.2296485
 112.2828152  60.0500189  52.9480124 111.7674776  60.8204794  53.1868511
 112.0105461  59.3765325  53.5713185 109.8675263  54.8949890  58.0065362
 109.0116860  54.5056740  57.8271001 110.2802215  54.9741851  57.1465148
 111.3974410  52.4296233  62.4056922 110.8939205  52.3926368  61.5924727
 111.6905017  53.3388976  62.4653579 107.6417296  52.5134963  61.4123104
 108.5070292  52.3177772  61.0528993 107.7094805  52.2845315  62.3392460
 117.2562426  62.8032544  54.8833297 116.4791869  62.4643703  54.4388459
 117.9353907  62.8085167  54.2088262 112.0714455  57.9227281  54.7739905
 111.7664591  58.2373430  55.6250048 113.0244897  58.0008701  54.8167238
 110.5160887  64.0817504  56.4232859 109.9882249  63.3470264  56.1106096
 110.0148390  64.8592181  56.1772827 115.4953733  62.2766525  61.5399905
 114.8377408  62.9665786  61.6280034 116.2994132  62.6662957  61.8833892
 105.2479615  54.7437171  58.7839470 105.8223367  54.5212352  58.0512663
 105.8350597  54.8125865  59.5368072 114.3059192  60.6310898  59.5903847
 114.8191074  61.2640890  60.0925557 114.9560416  60.0312093  59.2247207
 105.5749202  56.7741632  52.8035356 104.7386514  57.1116318  53.1244630
 105.4353972  56.6390612  51.8662493 107.5502282  51.6178420  57.5114540
 106.8966695  51.3027437  56.8871155 107.5082757  50.9954160  58.2374363
 108.6613487  61.8997715  49.4267832 107.7540549  61.6686968  49.6258981
 109.1584519  61.1035334  49.6141813 111.5681566  70.6095222  52.3464518
 110.8943265  70.9126919  52.9549476 111.9547388  71.4124302  51.9969975
 110.7840023  58.1060353  61.8362187 109.8662584  58.3275300  61.6783876
 111.2000166  58.1806664  60.9773895 111.5675071  59.5051769  56.9664868
 112.3146890  60.0173166  56.6571990 111.8366660  59.1835822  57.8269261
 109.8401721  62.0010310  53.9491822 108.9312940  61.7169342  54.0464292
 109.8696805  62.4209388  53.0895129 115.0720988  65.6116899  57.7182990
 114.6183315  64.7707809  57.7748180 114.4414955  66.2478297  58.0557770
 114.0153908  56.5408885  58.9483657 113.2776665  56.0286271  59.2793900
 114.2680681  56.1009267  58.1366934 113.5153927  67.4493396  58.6532808
 113.8076902  68.0098453  57.9345173 114.0252548  67.7421957  59.4085967
 114.1165535  49.3185137  59.5425426 114.4224412  48.4582501  59.2551341
 114.8418140  49.9102757  59.3424420 100.4089891  59.7215824  57.9307024
 100.2114291  59.1285184  57.2058091  99.8536555  59.4168034  58.6482963
 108.3886615  59.6138930  60.0501617 108.4435225  58.6612767  59.9744094
 107.5777817  59.7698369  60.5342916 109.5377809  63.5419053  51.2879901
 109.0997239  62.8254912  50.8285538 110.2788249  63.7695168  50.7264992
 106.3278975  58.2315990  57.8091996 105.5146840  58.5310161  58.2157188
 106.8237969  57.8371679  58.5266479 108.4787553  68.2273747  59.7426261
 108.4363731  68.4534593  58.8134793 109.3950251  67.9937121  59.8912062
 111.9253186  58.6957814  66.6406890 112.2802574  58.9229288  67.5001356
 112.5725318  59.0276191  66.0184145 117.6550923  61.8176250  57.3456219
 117.5168822  62.0077846  56.4177408 117.2987142  62.5795633  57.8024270
 105.8193049  55.8034345  63.4253231 106.4592429  55.6623105  62.7276195
 104.9870580  55.5168859  63.0491833 117.6820303  63.8852777  62.3567491
 118.1156810  63.7928066  63.2050545 118.3951884  63.8610278  61.7187507
 106.5953353  65.1036776  59.5388224 107.3893952  64.6087096  59.3370799
 105.8845046  64.5754639  59.1755929 111.4148198  67.4854871  63.8900591
 111.4685220  68.0545808  64.6578307 110.5462979  67.6556756  63.5254628
 102.9036117  59.2479858  55.6147976 101.9733705  59.1864313  55.8317938
 102.9993589  58.7255810  54.8184618 102.8221666  55.7734670  58.2026218
 103.0828483  56.6880004  58.0935378 103.6438838  55.3059113  58.3522831
 104.2946591  57.1872428  65.3725043 104.9669645  56.9789790  64.7237691
 103.4676378  56.9894514  64.9330275 118.5435853  63.9276478  64.8900376
 118.7371743  64.8322288  65.1359651 118.4436471  63.4683897  65.7238961
 110.1972163  53.8134369  67.3890703 109.5500078  54.5124318  67.2955180
 110.9673179  54.2470512  67.7566952 113.6050961  64.0783221  70.4641257
 113.4536468  63.8493772  69.5471340 113.5955641  65.0353822  70.4772602
 110.3736298  61.6515133  65.4487523 111.3028358  61.8026293  65.2756490
 109.9527328  61.7399154  64.5936170 109.1724629  65.6765798  63.2186061
 109.0335715  65.3084582  64.0911999 108.3839226  66.1913437  63.0470019
 109.7672781  70.7774894  54.5611597 109.9424537  70.3062938  55.3757220
 109.0805569  71.4040661  54.7892858 110.7229845  65.0547401  60.6074899
 110.3879677  65.0148171  61.5032548 110.2233790  64.3892117  60.1345309
 104.6974089  60.4615031  66.1327480 104.5593886  59.7295269  66.7339019
 105.6079012  60.3723931  65.8511667 113.6589036  62.4003435  50.8811958
 113.0418207  61.6750263  50.7845011 113.1905525  63.1612795  50.5379032
 107.3256389  60.1734990  65.6211159 108.0356008  59.5328182  65.5797778
 107.2825697  60.4247885  66.5437340 115.3143168  67.1102343  68.5417739
 115.2555714  66.4261563  67.8748322 115.7162686  67.8521333  68.0898365
 106.0385323  57.1600208  67.4406799 105.5022680  56.7090946  68.0928395
 105.4502032  57.2946117  66.6977263 104.3333867  73.9264257  61.3351457
 104.5730465  74.5582781  62.0130476 103.4903063  73.5752297  61.6216817
 105.4487582  56.6188859  50.0033262 104.5717048  56.4977660  49.6395509
 105.9245335  55.8274938  49.7512151 115.3160575  65.0741927  66.7731718
 114.4287354  64.7367849  66.8958117 115.8859126  64.3424958  67.0100484
  96.9689722  61.4066019  60.0974770  97.6560762  61.0927749  59.5095785
  96.8137851  62.3107384  59.8242021 101.7724444  56.2956216  64.5259793
 101.6882633  55.6881885  63.7910203 100.9507151  56.7865234  64.5269290
 108.8461729  69.7343380  63.7392961 108.7731900  70.5398351  64.2512266
 108.4039122  69.9335345  62.9140983 108.6351508  68.9715150  57.2495783
 107.8519030  69.5136830  57.3434008 109.3344253  69.4889129  57.6490024
 111.9448158  54.7809779  59.8929988 112.4416858  54.0279741  59.5731059
 111.1735140  54.8174096  59.3273198 119.7977916  60.4850145  61.5348280
 119.7867792  61.3674860  61.1642213 118.9295295  60.1321695  61.3402817
 111.3060412  69.6330214  65.8951120 112.0188384  70.2677678  65.8227022
 110.8150441  69.7294080  65.0791122 113.0277939  63.5381466  57.4668412
 112.0934218  63.6582929  57.2973116 113.2054607  62.6353933  57.2028422
 108.5283127  56.9227162  59.6201673 108.1580915  56.3698202  60.3082579
 109.0242219  56.3185296  59.0676673 116.4150490  59.3798786  58.0018446
 116.8810942  60.2126777  57.9278749 116.8657991  58.9143767  58.7063704
 106.3572326  67.3824657  66.7156691 107.0581785  68.0161140  66.8686085
 105.8867441  67.7239389  65.9552330 114.4826721  65.7242607  55.0004598
 114.7586565  65.6099201  55.9098472 113.6131220  65.3260092  54.9616771
 114.3867153  51.7479373  62.0409347 113.4730233  51.9783599  62.2091554
 114.8160255  51.8317817  62.8923380 114.1573612  59.9369265  64.5409241
 113.5045062  60.1845172  63.8861694 114.5353991  59.1233403  64.2071719
 111.1180785  69.9728958  58.6437412 111.3003180  69.1550614  59.1065164
 111.9413771  70.1896650  58.2062302 111.4522951  68.8997143  55.9052460
 111.9810717  68.3889597  55.2922622 111.7151170  68.5839673  56.7697993
 110.2061185  60.6789076  71.0275278 109.5301822  60.5783205  71.6977654
 111.0288818  60.5228289  71.4911276 101.9540044  66.9161012  63.6487794
 102.5393480  66.1704700  63.7815698 101.7564882  67.2264969  64.5324458
 104.8078699  69.9512260  58.6650236 104.1389074  70.4358387  58.1814276
 104.6691569  70.1981480  59.5793615  96.5457698  59.4866612  62.3692237
  96.5841798  58.9530203  63.1629355  96.0397991  58.9601818  61.7503214
 108.9483967  71.9856003  65.2632894 109.5002275  72.1487625  66.0281980
 109.2890161  72.5760441  64.5912919 103.9248461  54.3331153  65.8654779
 103.9889787  55.1945984  65.4532177 103.8615581  53.7205154  65.1327138
 103.4000733  56.4054285  69.5127813 104.0272772  56.0231363  70.1265338
 102.5428652  56.1868487  69.8783506 113.7994842  66.8117261  71.1181549
 114.3434746  67.4247219  70.6236504 113.2181687  67.3696839  71.6348562
 100.1766276  58.2130714  55.4446168 100.4719717  57.3041393  55.3913222
  99.2754312  58.1918454  55.1227170 112.0852355  69.9337979  62.2496577
 111.9603494  69.1327718  61.7407522 112.7431446  70.4284172  61.7610546
 103.7060523  56.2886711  61.4273717 102.9847109  56.9022679  61.2881190
 104.4953779  56.8244476  61.3490363 114.1487263  67.7346999  63.8776127
 113.2017599  67.6152350  63.8054453 114.4970036  66.8469497  63.9602388
 106.5086836  53.6241138  67.7014369 107.0321238  53.8703434  68.4640678
 106.2899170  54.4561172  67.2817506 101.9054118  55.8944812  55.5685493
 101.5766824  55.0142191  55.3860599 102.2593488  55.8392481  56.4561883
 111.1533696  67.5299715  60.0780479 111.0058659  66.6016422  60.2588049
 111.9787190  67.5519806  59.5937554 105.0195941  56.1817782  55.9360971
 105.3592013  56.7103703  55.2139579 105.4668061  56.5198188  56.7119538
 114.7567818  68.3528274  61.1645352 115.6814366  68.1471135  61.0269803
 114.5883122  68.1044675  62.0734693 107.7139382  54.5654833  65.3864039
 107.3736202  53.7662646  65.7884719 107.0078388  54.8656544  64.8140872
 108.3655853  51.6504145  63.8391362 109.1881923  51.1764623  63.7170252
 108.6093917  52.4294629  64.3390048 107.0064088  54.6792404  54.1354264
 107.7272450  55.0573656  53.6317981 106.3829392  55.3981280  54.2389242
 111.1495211  55.3837553  55.0712596 111.3658825  56.2662190  54.7701424
 110.6689278  54.9923766  54.3418238 105.8894432  58.3423266  61.6483341
 105.7439013  58.6563569  62.5407622 105.4119636  58.9608166  61.0954239
 107.7490815  55.3325814  61.6964230 107.7352384  54.4366907  61.3596528
 108.4663243  55.3396477  62.3302516 109.6016946  55.7663154  63.7417358
 109.3434724  56.6880225  63.7401688 109.0701986  55.3693588  64.4317822
 114.5463134  68.8713941  56.5207443 114.7200012  68.3060364  55.7681295
 115.0392026  69.6714836  56.3386933 100.3640094  60.8828610  64.5871002
  99.8193562  61.6588418  64.7191276 101.2419444  61.2299415  64.4290123
 107.1527711  54.2140194  56.9651800 107.2743622  53.2856840  57.1642688
 106.8629753  54.2278880  56.0530116 110.0218901  51.8995104  60.1018520
 110.0440598  51.9634438  59.1470500 110.4386960  51.0599613  60.2959026
 120.4002526  61.6350364  58.1397743 120.8433672  60.8857689  57.7416866
 119.5229036  61.6260500  57.7571475 115.5338307  68.1880705  53.6204341
 116.2289212  68.8087398  53.8391656 115.8761457  67.3376057  53.8956719
 101.1506116  60.0098506  67.4801159 100.4087852  60.1581142  68.0665789
 100.8298860  60.2706772  66.6167908 117.4329730  65.6380411  55.1491672
 117.9581054  65.9767684  54.4240992 117.3452083  64.7027426  54.9654807
 109.0949779  69.5514485  67.2781549 109.4036905  69.3063631  68.1504248
 109.8925261  69.7561123  66.7900419 109.1170391  71.7052394  59.5086925
 108.6775381  71.2128773  60.2019782 109.8678508  71.1625362  59.2679001
 101.5962730  67.8963935  59.5111553 102.4220750  67.5967707  59.1310197
 101.2456782  67.1271558  59.9601342 106.5644263  67.2490403  61.5809227
 105.9424272  66.5861108  61.2811455 107.2349130  67.2751535  60.8982875
  99.7971335  65.8150262  60.4700487  98.9603243  65.3872436  60.2884488
  99.7694980  66.0082705  61.4071278 106.6368790  55.7272191  71.1741733
 106.6856946  56.6034314  70.7919503 107.1791305  55.1849584  70.6013376
 117.1223636  66.2713315  70.4542870 116.3319180  66.2537453  69.9147369
 116.8856991  66.8101608  71.2091907 117.2421511  63.1205781  67.7675599
 117.2919516  62.9555788  68.7091121 117.1335435  62.2533040  67.3773479
 106.1257770  65.7994327  55.0567687 106.2745890  66.4829791  54.4034360
 106.9324213  65.7799417  55.5717143 114.5325274  59.1036709  69.0834905
 115.4335136  58.9643174  68.7918903 114.6073248  59.2691164  70.0233083
 108.8668079  56.4803564  67.9288092 107.9971388  56.7737130  67.6570680
 109.1027559  57.0644009  68.6495355 118.7439708  65.5402723  68.0117620
 118.4524516  65.9032703  68.8481081 118.1311839  64.8269731  67.8330952
 119.9435390  63.1055602  60.5320190 120.7782282  63.5445406  60.6957751
 120.0794519  62.6294255  59.7128436 116.9926896  60.6635337  66.4797678
 117.4681018  60.8562983  65.6716529 116.0692462  60.7194523  66.2341062
 103.8810403  61.8259504  56.0628756 103.6356445  60.9221834  56.2608967
 104.0506317  61.8276655  55.1208234 111.5707113  52.6983181  65.4453512
 112.0889057  53.4344208  65.1200001 111.2162246  53.0047174  66.2800271
 103.1506050  57.5587862  53.5614918 102.4575295  57.6332217  52.9054954
 102.9057802  56.7948206  54.0836435 111.8219707  49.1183463  60.9654409
 112.1021461  48.4506652  61.5914835 112.6070314  49.3112559  60.4529072
 109.6253175  68.2942457  52.5279435 109.0527142  68.9132644  52.0749907
 110.1985969  68.8441819  53.0619357 115.6928565  57.5401097  64.7125984
 116.6445988  57.6399195  64.7338208 115.5232016  56.7479366  65.2224068
 113.7142945  54.6256680  64.8985385 113.1192877  54.9061693  64.2031873
 113.4292641  55.1150581  65.6702126 112.8450435  68.5779607  53.6588017
 113.7781108  68.5125169  53.8620893 112.7573648  69.4135874  53.2002550
 115.4738452  67.8945478  50.6191965 115.3952083  67.5605341  51.5127723
 116.2948119  68.3867246  50.6183437 118.1716643  60.7607217  63.8268283
 118.1392963  59.8223218  64.0127967 118.7817267  60.8391254  63.0934108
 110.0099974  59.6303270  49.8695487 110.9559079  59.5009478  49.9383905
 109.6314219  58.8917932  50.3464916 118.3211132  57.5518260  63.8726567
 117.8050180  56.7676717  63.6856495 119.2051080  57.2236977  64.0373086
 115.9821858  51.2959276  59.8322379 115.7846680  50.9874364  60.7165711
 116.5921564  52.0220915  59.9620309 109.8938666  63.6821016  71.3296144
 110.8141676  63.8599615  71.5236191 109.8588249  62.7377061  71.1775844
 108.1942891  57.5553246  49.8050373 107.2874346  57.2586359  49.8813086
 108.4718872  57.2583064  48.9384659  99.1120831  58.8759610  60.2549419
  98.7923616  58.0224918  59.9623793  98.5654260  59.0908188  61.0107386
 102.8900739  61.5922051  63.9718926 103.1086749  62.5239158  63.9906959
 103.3026513  61.2330025  64.7573729 109.8104957  52.0990136  55.9594614
 109.0005685  51.7537221  56.3349860 110.4989374  51.7897680  56.5482225
 111.7395505  51.1768183  57.5818911 112.2926544  51.5963636  58.2408934
 111.9765591  50.2503931  57.6241867 107.7628604  57.1655256  73.3621674
 107.6625331  58.1149613  73.2933766 107.5450146  56.8373495  72.4897745
 106.9641676  54.4140181  49.9462352 107.8260840  54.7395080  50.2058169
 107.1492020  53.6271677  49.4335418  98.9809091  62.4962521  62.2242541
  98.2872563  62.0816474  61.7112495  99.7282082  62.5383058  61.6275960
 115.1174312  53.2868708  57.0897575 114.5372981  53.9453512  56.7075627
 114.8510245  52.4646053  56.6784992 113.5677879  52.6873766  59.2918895
 114.0677657  52.7990300  58.4833214 114.2113486  52.3834819  59.9319704
 107.6259874  60.5952395  72.1786736 107.1426956  61.3952755  72.3850625
 107.7120813  60.6060340  71.2254180 100.8945834  62.4280775  60.1008555
 100.8716522  62.5268462  59.1490439 101.2046470  63.2745926  60.4225722
 103.5533212  64.4856930  64.2155170 104.5076465  64.4540872  64.1485101
 103.3545735  64.0247554  65.0305396 104.1432594  63.0558046  66.7825968
 104.9625483  63.5502125  66.8060805 104.4169402  62.1390014  66.7543535
 113.8999190  55.4468798  56.1453923 113.0125045  55.7318449  55.9274118
 114.3153179  55.2862562  55.2981200 117.2513726  55.4715319  59.8608262
 118.0274116  55.9611772  60.1332879 116.5261860  55.8973374  60.3180132
 119.6886285  56.1842939  60.9182203 120.2830776  55.9438674  60.2075511
 119.7612869  55.4650069  61.5455739 101.9083441  70.0276549  61.2325368
 101.7737909  69.2676950  60.6663366 101.4915503  70.7517449  60.7654157
 113.0442404  65.2113473  50.2401943 113.7478254  65.4163476  50.8559599
 112.3205052  65.7790235  50.5051027 113.8740214  60.9623334  56.3604213
 113.8175415  61.4191886  55.5211846 114.4268556  60.2014019  56.1827056
 117.6845020  56.7513066  57.1854333 117.4281954  56.3509702  58.0162540
 117.0597888  57.4656860  57.0604472 105.0652566  70.9245866  61.4443810
 104.9484951  71.8691299  61.3422501 104.2445013  70.6219428  61.8329610
 114.9529101  65.6496002  52.2900403 115.7874705  65.2177201  52.1077878
 114.7913444  65.4778016  53.2177298 114.6074993  62.1528116  53.6556742
 114.5523797  61.9872387  52.7145187 113.9821048  62.8604148  53.8118932
  99.3967508  57.3896180  67.4818165 100.0426372  56.8795134  67.9705390
  99.1884659  58.1264862  68.0561590 111.9220900  64.4577027  72.9810305
 112.7912060  64.6317680  72.6196940 111.4427652  65.2771444  72.8586035
 107.9171119  51.6536225  53.2342061 107.9049789  52.5978064  53.3910332
 108.8094541  51.4706370  52.9401522 106.0907081  71.5774128  64.6599739
 106.9934327  71.6097739  64.9766234 105.8644451  70.6474579  64.6746075
 107.8460683  70.3305115  61.3209817 106.8956314  70.3306977  61.2074190
 108.1493169  69.5837849  60.8045852 111.7323238  48.2479001  57.4887998
 110.9655634  47.6937488  57.6344680 112.1433943  48.3200870  58.3502149
 103.7364999  54.5363797  71.5793179 104.5996461  54.1800602  71.7896503
 103.1630410  54.1977692  72.2668583 120.3903082  76.1193081  62.3217105
 120.0521594  76.0034146  61.4337639 121.2592851  75.7184247  62.3018111
 116.2489898  77.9728558  58.3113996 115.6854763  77.8818495  57.5430283
 116.1342293  77.1528462  58.7916488 120.8722865  77.2727933  68.2803310
 120.8611506  76.8780731  67.4083814 121.0343505  76.5394006  68.8737082
 113.7954330  79.4679749  61.1498216 114.5875622  79.1270574  60.7344515
 114.0350980  79.5774724  62.0700369 115.7545084  78.7288663  54.0215595
 116.5275960  78.1817650  53.8828471 116.1070483  79.5932912  54.2330056
 117.5930127  80.0565045  67.2282494 117.3019993  80.9610676  67.1129160
 118.2287111  80.0981573  67.9426564 118.5186333  77.4341893  63.8183854
 119.1149906  77.2097916  63.1040817 118.5761305  76.6926639  64.4209302
 118.0911362  74.8881329  51.6534045 118.3436882  74.3662850  50.8917508
 117.1535921  74.7247474  51.7560728 117.8107651  76.7909435  53.8558420
 117.6943909  76.1154338  54.5239504 117.9209910  76.3041809  53.0390573
 120.1539191  76.2519582  57.5605109 119.7897399  75.7250203  58.2718030
 121.0106307  75.8618051  57.3871594 119.7944678  71.2809482  52.5566457
 119.9619081  72.1489718  52.9236928 119.6041848  71.4436763  51.6327747
 116.0032493  76.1940257  60.2568992 115.0782990  76.0616471  60.4646684
 116.2516906  76.9734477  60.7538935 119.7733899  73.7367139  53.5413124
 119.6533525  74.1824190  54.3798604 119.0786488  74.0852457  52.9826662
 113.3641304  75.8373531  61.0912781 113.4933685  76.0908010  62.0052193
 112.6838755  76.4301239  60.7717436 117.5340791  86.5070781  57.1903255
 117.4564821  87.4578606  57.2691736 116.9302435  86.1616653  57.8478182
 120.0258021  73.6798646  69.8464622 119.2491355  74.2392566  69.8367487
 120.6648584  74.1655429  70.3679492 118.2804394  76.4884100  69.4082589
 119.0219078  77.0269144  69.1317413 117.5741379  77.1150388  69.5654141
 120.1090803  73.5685847  65.3788308 120.9551998  73.9925260  65.5222957
 120.0489441  72.9119471  66.0726871 119.6316510  78.9288839  59.0257125
 120.0954855  79.2076542  58.2361747 119.3673308  78.0272283  58.8430216
 116.5240591  78.4760320  61.9636888 117.0941948  78.9047589  61.3254373
 117.1148703  78.1942905  62.6621074 118.5685396  75.0511991  55.8346690
 119.2709439  75.5033035  56.3020616 118.2366024  74.4095810  56.4626583
 117.0165757  73.6423748  70.2097899 116.3864418  74.3240029  70.4433296
 116.9101845  73.5306829  69.2651038 112.3110730  73.3095544  61.1363824
 111.5209784  73.5653072  60.6603934 112.8021977  74.1243882  61.2415864
 114.2625475  73.6740123  58.0947300 113.4656638  73.7858817  58.6130796
 114.0351067  74.0126775  57.2288191 120.0931143  80.1984826  66.0429815
 120.1575575  80.6605234  66.8787987 119.3842067  79.5682191  66.1712125
 110.5948433  73.5626034  63.5678814 110.8456471  74.4473044  63.8336390
 111.1307981  73.3830636  62.7953906 119.8079160  81.8652934  55.9108795
 119.6724835  82.7104469  56.3393643 120.3488973  82.0672211  55.1474729
 116.2946500  67.9444514  72.5723150 115.9013446  67.3910712  73.2470795
 117.1112640  68.2555092  72.9629668 113.2608558  79.3828372  56.4836720
 113.7733078  80.1771622  56.6342285 113.9131271  78.6854662  56.4170322
 115.0703442  82.4994128  58.5659473 115.2470071  83.4212093  58.3780457
 115.8660276  82.1852547  58.9953853 119.2114461  69.3602393  70.1643407
 119.9524174  69.9609546  70.0847869 119.4432384  68.6180031  69.6061450
 114.3555799  74.5458760  68.4421637 114.2409314  73.6444017  68.7428736
 113.5000317  74.7922457  68.0906453 116.1934758  84.0172302  64.5669816
 116.7442183  83.8889365  63.7946810 115.3546234  84.3167191  64.2164709
 119.9901929  80.2823430  68.9114047 120.5230266  79.5211718  68.6813355
 119.4616010  79.9897082  69.6538201 111.2257475  77.7117026  57.2596291
 112.0632697  78.1214034  57.0429999 111.4035742  76.7716468  57.2296485
 120.7069018  70.2241808  58.0065362 119.8510614  69.8348658  57.8271001
 121.1195969  70.3033768  57.1465148 118.4811050  67.8426881  61.4123104
 119.3464047  67.6469689  61.0528993 118.5488559  67.6137232  62.3392460
 121.3554642  79.4109422  56.4232859 120.8276003  78.6762182  56.1106096
 120.8542144  80.1884099  56.1772827 116.0873369  70.0729088  58.7839470
 116.6617121  69.8504270  58.0512663 116.6744352  70.1417783  59.5368072
 116.4142956  72.1033549  52.8035356 115.5780269  72.4408236  53.1244630
 116.2747726  71.9682529  51.8662493 118.3896037  66.9470337  57.5114540
 117.7360449  66.6319355  56.8871155 118.3476511  66.3246078  58.2374363
 119.5007242  77.2289632  49.4267832 118.5934304  76.9978886  49.6258981
 119.9978274  76.4327252  49.6141813 120.6795475  77.3302227  53.9491822
 119.7706695  77.0461260  54.0464292 120.7090559  77.7501306  53.0895129
 111.2483646  75.0507741  57.9307024 111.0508045  74.4577102  57.2058091
 110.6930310  74.7459952  58.6482963 119.2280369  74.9430848  60.0501617
 119.2828979  73.9904684  59.9744094 118.4171571  75.0990287  60.5342916
 120.3771563  78.8710971  51.2879901 119.9390993  78.1546830  50.8285538
 121.1182004  79.0987086  50.7264992 117.1672729  73.5607908  57.8091996
 116.3540595  73.8602078  58.2157188 117.6631723  73.1663596  58.5266479
 119.3181307  83.5565665  59.7426261 119.2757486  83.7826511  58.8134793
 120.2344006  83.3229039  59.8912062 116.6586804  71.1326263  63.4253231
 117.2986183  70.9915022  62.7276195 115.8264335  70.8460777  63.0491833
 117.4347108  80.4328694  59.5388224 118.2287706  79.9379014  59.3370799
 116.7238800  79.9046557  59.1755929 113.7429871  74.5771775  55.6147976
 112.8127459  74.5156231  55.8317938 113.8387343  74.0547728  54.8184618
 113.6615420  71.1026588  58.2026218 113.9222238  72.0171921  58.0935378
 114.4832593  70.6351031  58.3522831 115.1340346  72.5164345  65.3725043
 115.8063399  72.3081707  64.7237691 114.3070132  72.3186431  64.9330275
 120.0118384  81.0057716  63.2186061 119.8729470  80.6376500  64.0911999
 119.2232980  81.5205355  63.0470019 120.6066536  86.1066812  54.5611597
 120.7818292  85.6354855  55.3757220 119.9199324  86.7332578  54.7892858
 121.5623599  80.3839318  60.6074899 121.2273432  80.3440088  61.5032548
 121.0627545  79.7184034  60.1345309 115.5367843  75.7906948  66.1327480
 115.3987641  75.0587187  66.7339019 116.4472766  75.7015848  65.8511667
 118.1650144  75.5026908  65.6211159 118.8749762  74.8620100  65.5797778
 118.1219452  75.7539802  66.5437340 116.8779078  72.4892126  67.4406799
 116.3416435  72.0382864  68.0928395 116.2895786  72.6238034  66.6977263
 115.1727621  89.2556175  61.3351457 115.4124219  89.8874699  62.0130476
 114.3296818  88.9044215  61.6216817 116.2881337  71.9480777  50.0033262
 115.4110803  71.8269578  49.6395509 116.7639090  71.1566855  49.7512151
 107.8083477  76.7357937  60.0974770 108.4954517  76.4219667  59.5095785
 107.6531605  77.6399301  59.8242021 112.6118199  71.6248133  64.5259793
 112.5276388  71.0173803  63.7910203 111.7900905  72.1157152  64.5269290
 119.6855483  85.0635297  63.7392961 119.6125654  85.8690269  64.2512266
 119.2432876  85.2627263  62.9140983 119.4745263  84.3007067  57.2495783
 118.6912785  84.8428747  57.3434008 120.1738008  84.8181047  57.6490024
 119.3676881  72.2519080  59.6201673 118.9974669  71.6990120  60.3082579
 119.8635974  71.6477213  59.0676673 117.1966080  82.7116575  66.7156691
 117.8975540  83.3453058  66.8686085 116.7261195  83.0531306  65.9552330
 112.7933798  82.2452930  63.6487794 113.3787235  81.4996618  63.7815698
 112.5958637  82.5556887  64.5324458 115.6472453  85.2804177  58.6650236
 114.9782829  85.7650305  58.1814276 115.5085323  85.5273398  59.5793615
 107.3851453  74.8158530  62.3692237 107.4235552  74.2822121  63.1629355
 106.8791746  74.2893736  61.7503214 119.7877722  87.3147921  65.2632894
 120.3396030  87.4779542  66.0281980 120.1283915  87.9052359  64.5912919
 114.7642215  69.6623071  65.8654779 114.8283542  70.5237901  65.4532177
 114.7009335  69.0497072  65.1327138 114.2394488  71.7346203  69.5127813
 114.8666526  71.3523280  70.1265338 113.3822407  71.5160405  69.8783506
 111.0160030  73.5422632  55.4446168 111.3113472  72.6333311  55.3913222
 110.1148066  73.5210372  55.1227170 114.5454277  71.6178629  61.4273717
 113.8240863  72.2314596  61.2881190 115.3347533  72.1536394  61.3490363
 117.3480591  68.9533055  67.7014369 117.8714993  69.1995352  68.4640678
 117.1292924  69.7853090  67.2817506 112.7447872  71.2236730  55.5685493
 112.4160578  70.3434109  55.3860599 113.0987243  71.1684399  56.4561883
 115.8589695  71.5109700  55.9360971 116.1985768  72.0395621  55.2139579
 116.3061816  71.8490106  56.7119538 118.5533136  69.8946750  65.3864039
 118.2129956  69.0954563  65.7884719 117.8472142  70.1948461  64.8140872
 119.2049608  66.9796063  63.8391362 120.0275677  66.5056541  63.7170252
 119.4487671  67.7586547  64.3390048 117.8457842  70.0084321  54.1354264
 118.5666205  70.3865574  53.6317981 117.2223146  70.7273198  54.2389242
 116.7288187  73.6715183  61.6483341 116.5832767  73.9855486  62.5407622
 116.2513390  74.2900084  61.0954239 118.5884569  70.6617731  61.6964230
 118.5746138  69.7658825  61.3596528 119.3056998  70.6688395  62.3302516
 120.4410700  71.0955072  63.7417358 120.1828478  72.0172142  63.7401688
 119.9095741  70.6985506  64.4317822 111.2033849  76.2120528  64.5871002
 110.6587317  76.9880336  64.7191276 112.0813199  76.5591332  64.4290123
 117.9921465  69.5432112  56.9651800 118.1137377  68.6148758  57.1642688
 117.7023508  69.5570798  56.0530116 120.8612656  67.2287022  60.1018520
 120.8834353  67.2926355  59.1470500 121.2780715  66.3891531  60.2959026
 111.9899871  75.3390424  67.4801159 111.2481607  75.4873059  68.0665789
 111.6692615  75.5998690  66.6167908 119.9343533  84.8806402  67.2781549
 120.2430660  84.6355549  68.1504248 120.7319015  85.0853041  66.7900419
 119.9564145  87.0344312  59.5086925 119.5169136  86.5420691  60.2019782
 120.7072262  86.4917280  59.2679001 112.4356484  83.2255853  59.5111553
 113.2614504  82.9259625  59.1310197 112.0850536  82.4563475  59.9601342
 117.4038017  82.5782321  61.5809227 116.7818027  81.9153026  61.2811455
 118.0742884  82.6043453  60.8982875 110.6365089  81.1442179  60.4700487
 109.7996998  80.7164354  60.2884488 110.6088735  81.3374623  61.4071278
 117.4762545  71.0564109  71.1741733 117.5250700  71.9326232  70.7919503
 118.0185059  70.5141502  70.6013376 116.9651524  81.1286244  55.0567687
 117.1139645  81.8121709  54.4034360 117.7717968  81.1091334  55.5717143
 119.7061833  71.8095481  67.9288092 118.8365143  72.1029047  67.6570680
 119.9421314  72.3935926  68.6495355 114.7204157  77.1551422  56.0628756
 114.4750199  76.2513752  56.2608967 114.8900072  77.1568572  55.1208234
 113.9899805  72.8879780  53.5614918 113.2969050  72.9624135  52.9054954
 113.7451557  72.1240123  54.0836435 120.4646930  83.6234375  52.5279435
 119.8920897  84.2424562  52.0749907 121.0379724  84.1733736  53.0619357
 119.0336646  72.8845164  49.8050373 118.1268101  72.5878277  49.8813086
 119.3112627  72.5874982  48.9384659 109.9514586  74.2051527  60.2549419
 109.6317370  73.3516836  59.9623793 109.4048014  74.4200106  61.0107386
 113.7294493  76.9213968  63.9718926 113.9480503  77.8531076  63.9906959
 114.1420267  76.5621943  64.7573729 120.6498711  67.4282054  55.9594614
 119.8399440  67.0829139  56.3349860 121.3383128  67.1189597  56.5482225
 118.6022359  72.4947174  73.3621674 118.5019086  73.4441531  73.2933766
 118.3843901  72.1665413  72.4897745 117.8035430  69.7432099  49.9462352
 118.6654594  70.0686997  50.2058169 117.9885774  68.9563595  49.4335418
 109.8202846  77.8254439  62.2242541 109.1266317  77.4108392  61.7112495
 110.5675837  77.8674975  61.6275960 118.4653629  75.9244313  72.1786736
 117.9820711  76.7244673  72.3850625 118.5514568  75.9352258  71.2254180
 111.7339588  77.7572693  60.1008555 111.7110277  77.8560380  59.1490439
 112.0440225  78.6037843  60.4225722 114.3926966  79.8148848  64.2155170
 115.3470220  79.7832790  64.1485101 114.1939490  79.3539471  65.0305396
 114.9826348  78.3849964  66.7825968 115.8019237  78.8794042  66.8060805
 115.2563156  77.4681932  66.7543535 112.7477195  85.3568467  61.2325368
 112.6131663  84.5968868  60.6663366 112.3309257  86.0809367  60.7654157
 115.9046321  86.2537784  61.4443810 115.7878705  87.1983217  61.3422501
 115.0838767  85.9511346  61.8329610 110.2361263  72.7188098  67.4818165
 110.8820126  72.2087052  67.9705390 110.0278414  73.4556779  68.0561590
 118.7564873  66.9828142  53.2342061 118.7443543  67.9269982  53.3910332
 119.6488295  66.7998288  52.9401522 116.9300835  86.9066046  64.6599739
 117.8328082  86.9389656  64.9766234 116.7038205  85.9766497  64.6746075
 118.6854437  85.6597033  61.3209817 117.7350068  85.6598894  61.2074190
 118.9886923  84.9129767  60.8045852 114.5758754  69.8655715  71.5793179
 115.4390215  69.5092519  71.7896503 114.0024164  69.5269609  72.2668583
 118.6477231  92.0649854  60.0974770 119.3348271  91.7511584  59.5095785
 118.4925360  92.9691219  59.8242021 118.2245207  90.1450448  62.3692237
 118.2629307  89.6114038  63.1629355 117.7185500  89.6185653  61.7503214
 121.4758844  96.4734097  60.4700487 120.6390752  96.0456271  60.2884488
 121.4482489  96.6666540  61.4071278 120.7908340  89.5343445  60.2549419
 120.4711125  88.6808753  59.9623793 120.2441769  89.7492023  61.0107386
 120.6596600  93.1546357  62.2242541 119.9660072  92.7400309  61.7112495
 121.4069591  93.1966893  61.6275960  74.1765775   2.1965233  43.9148562
  74.0989804   3.1473058  43.9937043  73.5727418   1.8511105  44.5723488
  71.8152604   4.9450627  48.0596764  72.0549203   5.5769151  48.7375783
  70.9721801   4.5938667  48.3462123  72.2897437   0.9698629  45.3895543
  71.6207812   1.4544757  44.9059583  72.1510306   1.2167850  46.3038921
  76.4302705   3.0042373  51.9878201  76.9821013   3.1673994  52.7527286
  76.7708899   3.5946810  51.3158226  69.3902178   1.0462919  47.9570674
  69.2556646   0.2863320  47.3908672  68.9734241   1.7703819  47.4899463
  72.5471304   1.9432236  48.1689117  72.4303688   2.8877669  48.0667807
  71.7263751   1.6405798  48.5574916  73.5725818   2.5960498  51.3845045
  74.4753065   2.6284108  51.7011540  73.3463188   1.6660949  51.3991381
  87.8721820   7.1379451  49.0462411  87.5340332   7.0220516  48.1582946
  88.7411588   6.7370616  49.0263417  83.7308636   8.9914927  45.0359302
  83.1673501   8.9004864  44.2675590  83.6161031   8.1714832  45.5161795
  88.3541603   8.2914303  55.0048617  88.3430244   7.8967101  54.1329120
  88.5162243   7.5580375  55.5982388  81.2773068  10.4866119  47.8743523
  82.0694360  10.1456944  47.4589822  81.5169718  10.5961094  48.7945676
  89.3108195  12.6585895  40.3473767  88.6596174  13.2439976  39.9607781
  90.1052557  13.1892090  40.4068805  83.2363822   9.7475032  40.7460901
  84.0094698   9.2004019  40.6073777  83.5889221  10.6119282  40.9575363
  85.0748864  11.0751415  53.9527801  84.7838730  11.9797045  53.8374467
  85.7105849  11.1167942  54.6671870  86.0005071   8.4528263  50.5429160
  86.5968643   8.2284285  49.8286123  86.0580043   7.7113009  51.1454608
  90.7883460  10.3476327  40.8842751  90.1529293  10.4210954  41.5963656
  90.4580866  10.9369926  40.2061831  85.2926388   7.8095804  40.5803726
  85.1762646   7.1340708  41.2484811  85.4028648   7.3228178  39.7635879
  87.6357929   7.2705951  44.2850416  87.2716136   6.7436572  44.9963337
  88.4925045   6.8804420  44.1116901  90.0338749  10.7612830  50.9477594
  89.7339472  11.6637869  50.8393402  89.6889809  10.4945013  51.7998747
  83.4851231   7.2126627  46.9814299  82.5601727   7.0802841  47.1891991
  83.7335644   7.9920846  47.4784241  80.8460042   6.8559900  47.8158088
  80.9752423   7.1094379  48.7297500  80.1657493   7.4487608  47.4962743
  85.0159529  17.5257150  43.9148562  84.9383559  18.4764975  43.9937043
  84.4121173  17.1803023  44.5723488  85.7623131   7.5070469  56.1327896
  86.5037816   8.0455513  55.8562720  85.0560117   8.1336758  56.2899448
  91.2378471   9.6499610  54.7300057  91.6461827   9.2082020  53.9854690
  90.5155732   9.0752237  54.9834250  91.5607286  10.2100800  48.4852346
  90.9316148  10.3746514  47.7828414  91.1732948  10.6242410  49.2563310
  95.4396517  11.1455238  45.8396710  94.7547556  11.5254139  45.2893743
  95.5240367  11.7550565  46.5728658  92.6947449   8.7915197  52.4392054
  92.9064344   9.4346957  51.7626435  92.6477197   7.9577514  51.9713984
  87.1135247   9.9475208  45.7502431  87.5773593  10.2262911  44.9607054
  86.8492046   9.0458653  45.5675522  84.0059329   9.4946690  48.6882195
  84.5760686   9.9233958  48.0499679  84.5967440   9.2129275  49.3866380
  79.7929467   4.3281913  47.8609130  79.0028521   4.5839442  47.3849241
  80.2840715   5.1430251  47.9661171  93.8093277  11.6687153  50.6114411
  94.6310721  11.2667340  50.3297093  93.8055680  11.5655387  51.5630527
  81.7444213   4.6926493  44.8192607  80.9475376   4.8045187  45.3376103
  81.5169805   5.0313145  43.9533497  87.5749880  11.2171196  52.7675121
  87.6394313  11.6791603  53.6033293  86.8660804  10.5868561  52.8957431
  78.0767170   4.5812404  50.2924121  78.3275209   5.4659414  50.5581697
  78.6126719   4.4017005  49.5199213  87.2897898  12.8839303  42.6354102
  87.1543573  13.7290839  43.0638950  87.8307711  13.0858581  41.8720036
  80.7427296  10.4014741  43.2082027  81.2551816  11.1957992  43.3587592
  81.3950008   9.7041032  43.1415628  82.5522180  13.5180498  45.2904780
  82.7288809  14.4398462  45.1025764  83.3479014  13.2038917  45.7199160
  81.8374537   5.5645130  55.1666943  81.7228052   4.6630387  55.4674042
  80.9819055   5.8108826  54.8151760  88.9166375  13.5062870  56.7654444
  88.4730229  12.7199248  56.4475348  89.5783588  13.6942020  56.0998335
  83.6753496  15.0358671  51.2915122  84.2260921  14.9075735  50.5192116
  82.8364972  15.3353560  50.9410015  91.0147613  13.7865670  54.7935845
  90.9966088  14.6074551  54.3016114  91.9367533  13.6619745  55.0185986
  87.4720667  11.3009799  55.6359354  88.0049004  10.5398087  55.4058662
  86.9434748  11.0083451  56.3783508  78.7076212   8.7303396  43.9841597
  79.5451434   9.1400404  43.7675305  78.8854480   7.7902838  43.9541791
  88.8373379  10.4295792  43.1478166  88.3094741   9.6948551  42.8351403
  88.3360882  11.2070468  42.9018134  93.8166225   8.6244812  48.2645212
  93.1589900   9.3144074  48.3525340  94.6206625   9.0141244  48.6079198
  86.9825980   8.2476002  36.1513139  86.0753041   8.0165255  36.3504288
  87.4797012   7.4513621  36.3387120  89.8894058  16.9573509  39.0709825
  89.2155757  17.2605206  39.6794783  90.2759880  17.7602590  38.7215282
  88.1614213   8.3488597  40.6737129  87.2525432   8.0647630  40.7709598
  88.1909297   8.7687675  39.8140436  93.3933480  11.9595186  44.4428296
  92.9395808  11.1186096  44.4993487  92.7627447  12.5956585  44.7803076
  91.8366420  13.7971683  45.3778114  92.1289394  14.3576740  44.6590480
  92.3465040  14.0900244  46.1331273  78.7302383   6.0694111  44.6552331
  78.5326783   5.4763472  43.9303397  78.1749047   5.7646321  45.3728270
  87.8590301   9.8897341  38.0125207  87.4209731   9.1733199  37.5530845
  88.6000742  10.1173455  37.4510299  86.8000045  14.5752034  46.4671568
  86.7576224  14.8012880  45.5380100  87.7162744  14.3415409  46.6157369
  96.0032795  10.2331065  49.0812797  96.4369302  10.1406354  49.9295851
  96.7164376  10.2088565  48.4432813  84.9165846  11.4515063  46.2633530
  85.7106444  10.9565383  46.0616105  84.2057538  10.9232926  45.9001236
  89.7360690  13.8333159  50.6145898  89.7897712  14.4024095  51.3823614
  88.8675472  14.0035044  50.2499935  81.2248609   5.5958145  42.3393283
  80.2946197   5.5342600  42.5563245  81.3206081   5.0734098  41.5429924
  96.8648345  10.2754765  51.6145683  97.0584235  11.1800576  51.8604958
  96.7648963   9.8162184  52.4484268  91.9263453  10.4261508  57.1886563
  91.7748960  10.1972060  56.2716647  91.9168133  11.3832109  57.2017908
  88.6948790   7.9993421  52.1732830  89.6240850   8.1504580  52.0001797
  88.2739820   8.0877442  51.3181476  87.4937122  12.0244085  49.9431367
  87.3548207  11.6562870  50.8157306  86.7051718  12.5391725  49.7715325
  88.0885274  17.1253182  41.2856904  88.2637029  16.6541225  42.1002527
  87.4018062  17.7518948  41.5138165  89.0442337  11.4025688  47.3320205
  88.7092169  11.3626458  48.2277855  88.5446282  10.7370404  46.8590615
  83.0186581   6.8093318  52.8572786  82.8806379   6.0773557  53.4584325
  83.9291504   6.7202218  52.5756974  91.9801528   8.7481722  37.6057265
  91.3630699   8.0228550  37.5090318  91.5118017   9.5091082  37.2624339
  85.6468881   6.5213277  52.3456466  86.3568500   5.8806469  52.3043084
  85.6038190   6.7726172  53.2682647  93.6355660  13.4580631  55.2663045
  93.5768206  12.7739851  54.5993628  94.0375179  14.1999621  54.8143671
  82.6546359  20.2742544  48.0596764  82.8942957  20.9061069  48.7375783
  81.8115555  19.9230584  48.3462123  93.6373067  11.4220214  53.4977025
  92.7499846  11.0846136  53.6203424  94.2071618  10.6903246  53.7345790
  75.2902215   7.7544306  46.8220076  75.9773254   7.4406036  46.2341092
  75.1350343   8.6585671  46.5487328  87.1674221  16.0821667  50.4638268
  87.0944392  16.8876638  50.9757573  86.7251614  16.2813633  49.6386289
  86.9564000  15.3193437  43.9741090  86.1731522  15.8615117  44.0679314
  87.6556746  15.8367416  44.3735331  89.6272904  15.9808501  52.6196427
  90.3400877  16.6155966  52.5472328  89.1362933  16.0772367  51.8036429
  91.3490431   9.8859754  44.1913718  90.4146710  10.0061216  44.0218423
  91.5267100   8.9832220  43.9273728  84.6784818  13.7302944  53.4401998
  85.3794277  14.3639427  53.5931392  84.2079933  14.0717676  52.6797637
  92.8039214  12.0720894  41.7249905  93.0799058  11.9577489  42.6343779
  91.9343712  11.6738379  41.6862078  89.4393278  16.3207245  45.3682718
  89.6215672  15.5028901  45.8310471  90.2626264  16.5374937  44.9307608
  89.7735443  15.2475430  42.6297767  90.3023210  14.7367885  42.0167929
  90.0363663  14.9317960  43.4943300  88.5273677   7.0267363  57.7520585
  87.8514314   6.9261492  58.4222960  89.3501311   6.8706577  58.2156582
  80.2752536  13.2639299  50.3733100  80.8605973  12.5182987  50.5061004
  80.0777374  13.5743256  51.2569764  83.1291191  16.2990547  45.3895543
  82.4601566  16.7836674  44.9059583  82.9904061  16.5459767  46.3038921
  74.8670191   5.8344900  49.0937543  74.9054290   5.3008490  49.8874661
  74.3610483   5.3080105  48.4748521  87.2696460  18.3334290  51.9878201
  87.8214768  18.4965912  52.7527286  87.6102653  18.9238728  51.3158226
  92.1207334  13.1595548  57.8426855  92.6647238  13.7725506  57.3481810
  91.5394179  13.7175126  58.3593868  78.4978768   4.5609002  42.1691475
  78.7932209   3.6519680  42.1158528  77.5966804   4.5396741  41.8472477
  90.4064847  16.2816266  48.9741883  90.2815986  15.4806006  48.4652829
  91.0643938  16.7762459  48.4855853  92.4699755  14.0825286  50.6021433
  91.5230091  13.9630637  50.5299760  92.8182528  13.1947784  50.6847695
  89.4746189  13.8778002  46.8025785  89.3271151  12.9494710  46.9833356
  90.2999682  13.8998093  46.3182861  93.0780311  14.7006561  47.8890658
  94.0026858  14.4949422  47.7515109  92.9095614  14.4522962  48.7980000
  92.8675627  15.2192228  43.2452750  93.0412504  14.6538651  42.4926602
  93.3604518  16.0193123  43.0632240  78.6852587   7.2306897  51.3116308
  78.1406055   8.0066705  51.4436583  79.5631936   7.5777702  51.1535430
  93.8550799  14.5358993  40.3449648  94.5501704  15.1565685  40.5636963
  94.1973949  13.6854344  40.6202026  79.4718608   6.3576794  54.2046465
  78.7300344   6.5059429  54.7911096  79.1511353   6.6185059  53.3413215
  95.7542222  11.9858698  41.8736979  96.2793546  12.3245971  41.1486299
  95.6664575  11.0505714  41.6900113  87.4162271  15.8992772  54.0026855
  87.7249397  15.6541919  54.8749555  88.2137753  16.1039410  53.5145726
  87.4382883  18.0530681  46.2332232  86.9987873  17.5607060  46.9265089
  88.1891000  17.5103649  45.9924307  79.9175222  14.2442222  46.2356860
  80.7433242  13.9445994  45.8555504  79.5669274  13.4749845  46.6846649
  84.8856755  13.5968691  48.3054534  84.2636765  12.9339396  48.0056761
  85.5561622  13.6229822  47.6228181  78.1183827  12.1628549  47.1945794
  77.2815735  11.7350723  47.0129795  78.0907473  12.3560992  48.1316585
  95.4436128  12.6191602  57.1788177  94.6531672  12.6015741  56.6392676
  95.2069483  13.1579896  57.9337213  84.4470262  12.1472614  41.7812994
  84.5958383  12.8308078  41.1279667  85.2536706  12.1277704  42.2962450
  97.0652200  11.8881010  54.7362927  96.7737009  12.2510990  55.5726388
  96.4524332  11.1748018  54.5576259  82.2022895   8.1737792  42.7874063
  81.9568937   7.2700122  42.9854273  82.3718810   8.1754942  41.8453541
  87.9465668  14.6420744  39.2524742  87.3739635  15.2610932  38.7995213
  88.5198461  15.1920106  39.7864663  91.1662927  14.9257895  40.3833324
  92.0993601  14.8603456  40.5866199  91.0786140  15.7614161  39.9247856
  93.7950944  14.2423765  37.3437271  93.7164576  13.9083628  38.2373029
  94.6160611  14.7345533  37.3428744  88.2151159  10.0299303  58.0541451
  89.1354168  10.2077902  58.2481498  88.1800742   9.0855349  57.9021150
  77.4333324   5.2237897  46.9794726  77.1136108   4.3703205  46.6869100
  76.8866752   5.4386475  47.7352693  81.2113231   7.9400338  50.6964232
  81.4299241   8.8717446  50.7152266  81.6239005   7.5808312  51.4819036
  77.3021584   8.8440808  48.9487847  76.6085055   8.4294761  48.4357802
  78.0494575   8.8861345  48.3521266  85.9472367   6.9430683  58.9032043
  85.4639448   7.7431043  59.1095932  86.0333306   6.9538627  57.9499487
  79.2158326   8.7759062  46.8253862  79.1929014   8.8746749  45.8735745
  79.5258963   9.6224213  47.1471028  81.8745704  10.8335217  50.9400477
  82.8288958  10.8019160  50.8730408  81.6758228  10.3725841  51.7550702
  82.4645086   9.4036333  53.5071274  83.2837975   9.8980412  53.5306111
  82.7381894   8.4868301  53.4788842  80.2295933  16.3754837  47.9570674
  80.0950401  15.6155238  47.3908672  79.8127995  17.0995737  47.4899463
  91.3654896  11.5591760  36.9647250  92.0690746  11.7641763  37.5804905
  90.6417545  12.1268522  37.2296333  83.3865059  17.2724154  48.1689117
  83.2697443  18.2169586  48.0667807  82.5657505  16.9697715  48.5574916
  93.2741593  11.9974289  39.0145710  94.1087197  11.5655488  38.8323185
  93.1125936  11.8256303  39.9422604  92.9287485   8.5006403  40.3802049
  92.8736289   8.3350674  39.4390493  92.3033541   9.2082436  40.5364239
  77.7180000   3.7374467  54.2063471  78.3638864   3.2273421  54.6950696
  77.5097152   4.4743149  54.7806897  90.2433393  10.8055315  59.7055612
  91.1124552  10.9795967  59.3442247  89.7640144  11.6249731  59.5831341
  84.4119573  17.9252416  51.3845045  85.3146820  17.9576026  51.7011540
  84.1856943  16.9952867  51.3991381  86.1673175  16.6783402  48.0455124
  85.2168806  16.6785264  47.9319496  86.4705661  15.9316137  47.5291159
 101.9025868  22.5143941  49.1100887 102.5404278  22.3950688  48.4064227
 101.7846711  23.4624785  49.1688839  98.7115575  22.4671369  49.0462411
  98.3734086  22.3512433  48.1582946  99.5805343  22.0662534  49.0263417
  99.1935358  23.6206220  55.0048617  99.1823998  23.2259019  54.1329120
  99.3555997  22.8872293  55.5982388  96.4123854  21.2359616  38.3779351
  96.6649375  20.7141137  37.6162814  95.4748413  21.0725761  38.4806035
 101.4567137  20.2395394  46.1854095 102.2430226  19.8214818  45.8344512
 101.7205841  21.1441487  46.3535743 101.6277214  25.6768245  40.8842751
 100.9923047  25.7502871  41.5963656 101.2974621  26.2661844  40.2061831
 106.8575564  20.1770628  47.0887073 107.5900736  19.6069844  47.3224903
 106.1014920  19.7892228  47.5293579  96.1320143  23.1387722  40.5803726
  96.0156401  22.4632625  41.2484811  96.2422403  22.6520096  39.7635879
  98.4751684  22.5997869  44.2850416  98.1109891  22.0728490  44.9963337
  99.3318800  22.2096338  44.1116901 104.3800984  13.8892202  51.5481682
 104.0484309  14.7587613  51.3242897 103.7846598  13.5728486  52.2275712
  98.1157171  17.6287769  39.2811764  98.2831573  18.4968005  39.6482235
  97.9254340  17.7915051  38.3573053 100.8732504  26.0904748  50.9477594
 100.5733227  26.9929787  50.8393402 100.5283563  25.8236931  51.7998747
  94.3244985  22.5418545  46.9814299  93.3995482  22.4094759  47.1891991
  94.5729399  23.3212764  47.4784241 104.2729648  18.6087288  48.6275032
 103.3646525  18.5402696  48.3333793 104.2217243  19.0859233  49.4556857
  98.0946392  20.0845426  40.2658431  97.9746017  20.5302477  41.1043911
  97.3998980  20.4330744  39.7071969  91.6853796  22.1851818  47.8158088
  91.8146178  22.4386297  48.7297500  91.0051248  22.7779526  47.4962743
  98.3470513  20.0276933  56.5709929  97.5703848  20.5870854  56.5612794
  98.9861077  20.5133716  57.0924799 106.1391294  16.8103726  50.4052906
 105.4965674  17.1036259  49.7592700 105.6346223  16.6956647  51.2106102
 103.7931458  20.5566899  41.0938765 104.7049314  20.7894286  40.9186462
 103.2841105  21.1403944  40.5313844  96.6016886  22.8362387  56.1327896
  97.3431570  23.3747431  55.8562720  95.8953871  23.4628676  56.2899448
 102.0772225  24.9791527  54.7300057 102.4855581  24.5373938  53.9854690
 101.3549487  24.4044155  54.9834250  98.4303295  19.9164134  52.1033614
  99.2764491  20.3403548  52.2468263  98.3701933  19.2597758  52.7972178
 102.4001040  25.5392718  48.4852346 101.7709903  25.7038432  47.7828414
 102.0126702  25.9534327  49.2563310 106.2790272  26.4747156  45.8396710
 105.5941310  26.8546057  45.2893743 106.3634121  27.0842482  46.5728658
 101.5802741  17.5768502  53.7614788 101.3363673  18.3310563  53.2249064
 101.8562671  17.9553850  54.5962035 103.5341204  24.1207115  52.4392054
 103.7458099  24.7638875  51.7626435 103.4870952  23.2869431  51.9713984
 101.1367433  16.7324935  49.3428626 100.2751912  17.0306189  49.6345363
 101.1629867  16.9495334  48.4109658  96.8897888  21.3990278  42.5591997
  97.5921931  21.8511322  43.0265923  96.5578516  20.7574097  43.1871890
  95.3378250  19.9902035  56.9343206  94.7076910  20.6718316  57.1678603
  95.2314337  19.8785117  55.9896344  90.6323222  19.6573831  47.8609130
  89.8422276  19.9131360  47.3849241  91.1234469  20.4722169  47.9661171
 104.6487032  26.9979070  50.6114411 105.4704475  26.5959258  50.3297093
 104.6449434  26.8947304  51.5630527  92.5837967  20.0218410  44.8192607
  91.7869131  20.1337105  45.3376103  92.3563560  20.3605063  43.9533497
  98.4143635  26.5463114  52.7675121  98.4788067  27.0083521  53.6033293
  97.7054559  25.9160478  52.8957431  88.9160925  19.9104321  50.2924121
  89.1668963  20.7951331  50.5581697  89.4520473  19.7308923  49.5199213
 112.7393025  23.3417819  46.9599382 111.9856733  22.7725217  46.8043387
 112.8740566  23.3080483  47.9070017  94.6158992  14.2922801  59.2968457
  94.2225938  13.7388999  59.9716101  95.4325133  14.6033379  59.6874975
  97.5326953  15.7080680  56.8888714  98.2736667  16.3087833  56.8093176
  97.7644876  14.9658318  56.3306756  92.6768291  20.8937047  55.1666943
  92.5621806  19.9922304  55.4674042  91.8212809  21.1400744  54.8151760
  99.7560129  28.8354788  56.7654444  99.3123983  28.0491166  56.4475348
 100.4177343  29.0233938  56.0998335 101.8541367  29.1157587  54.7935845
 101.8359842  29.9366468  54.3016114 102.7761287  28.9911663  55.0185986
  98.3114421  26.6301717  55.6359354  98.8442758  25.8690005  55.4058662
  97.7828502  26.3375369  56.3783508 101.4784116  11.7361783  51.1652995
 101.1348386  12.6263425  51.0892106 101.8463079  11.5463441  50.3022580
 101.4434399  21.7270394  39.6725430 100.9281022  22.4974999  39.9113818
 101.1711707  21.0535530  40.2958492  99.0281510  16.5720095  44.7310669
  98.1723106  16.1826945  44.5516307  99.4408462  16.6512056  43.8710454
 100.5580657  14.1066438  49.1302229 100.0545452  14.0696573  48.3170034
 100.8511263  15.0159181  49.1898885  96.8023542  14.1905168  48.1368410
  97.6676539  13.9947976  47.7774300  96.8701051  13.9615520  49.0637767
 106.4168673  24.4802749  41.6078604 105.6398116  24.1413908  41.1633766
 107.0960154  24.4855372  40.9333569 101.2320702  19.5997486  41.4985212
 100.9270838  19.9143635  42.3495355 102.1851144  19.6778906  41.5412545
  99.6767134  25.7587709  43.1478166  99.1488495  25.0240469  42.8351403
  99.1754637  26.5362386  42.9018134 104.6559980  23.9536730  48.2645212
 103.9983654  24.6435991  48.3525340 105.4600379  24.3433162  48.6079198
  94.4085862  16.4207376  45.5084777  94.9829613  16.1982557  44.7757970
  94.9956844  16.4896070  46.2613378 103.4665439  22.3081103  46.3149154
 103.9797320  22.9411094  46.8170863 104.1166663  21.7082298  45.9492514
  94.7355449  18.4511837  39.5280662  93.8992761  18.7886523  39.8489937
  94.5960218  18.3160817  38.5907799  96.7108529  13.2948625  44.2359847
  96.0572942  12.9797642  43.6116461  96.6689003  12.6724365  44.9619669
  97.8219734  23.5767920  36.1513139  96.9146796  23.3457173  36.3504288
  98.3190766  22.7805539  36.3387120  99.9446270  19.7830558  48.5607494
  99.0268831  20.0045505  48.4029182 100.3606413  19.8576869  47.7019201
 100.7281317  21.1821974  43.6910174 101.4753136  21.6943371  43.3817296
 100.9972907  20.8606027  44.5514568  99.0007968  23.6780515  40.6737129
  98.0919187  23.3939547  40.7709598  99.0303051  24.0979593  39.8140436
 104.2327235  27.2887104  44.4428296 103.7789562  26.4478014  44.4993487
 103.6021202  27.9248502  44.7803076 103.1760155  18.2179090  45.6728964
 102.4382911  17.7056476  46.0039206 103.4286928  17.7779472  44.8612241
  97.5492862  21.2909135  46.7746924  97.6041471  20.3382972  46.6989401
  96.7384064  21.4468574  47.2588222  98.6984055  25.2189258  38.0125207
  98.2603485  24.5025117  37.5530845  99.4394496  25.4465373  37.4510299
  95.4885222  19.9086195  44.5337303  94.6753087  20.2080365  44.9402495
  95.9844216  19.5141884  45.2511785 101.0859433  20.3728019  53.3652197
 101.4408821  20.5999492  54.2246663 101.7331564  20.7046396  52.7429452
 106.8157170  23.4946455  44.0701526 106.6775069  23.6848051  43.1422715
 106.4593389  24.2565838  44.5269577  94.9799296  17.4804550  50.1498538
  95.6198676  17.3393310  49.4521501  94.1476827  17.1939064  49.7737140
 106.8426550  25.5622982  49.0812797 107.2763056  25.4698271  49.9295851
 107.5558130  25.5380483  48.4432813 100.5754445  29.1625076  50.6145898
 100.6291467  29.7316013  51.3823614  99.7069226  29.3326961  50.2499935
  91.9827913  17.4504875  44.9271525  92.2434730  18.3650209  44.8180685
  92.8045085  16.9829318  45.0768137  93.4552838  18.8642633  52.0970349
  94.1275891  18.6559995  51.4482998  92.6282625  18.6664719  51.6575581
 107.7042099  25.6046683  51.6145683 107.8977989  26.5092493  51.8604958
 107.6042717  25.1454102  52.4484268  99.3578410  15.4904573  54.1136010
  98.7106325  16.1894523  54.0200486 100.1279425  15.9240717  54.4812258
 102.7657208  25.7553426  57.1886563 102.6142714  25.5263977  56.2716647
 102.7561887  26.7124027  57.2017908  99.5342544  23.3285338  52.1732830
 100.4634604  23.4796498  52.0001797  99.1133574  23.4169359  51.3181476
  98.3330876  27.3536003  49.9431367  98.1941962  26.9854787  50.8157306
  97.5445472  27.8683642  49.7715325 102.8195283  24.0773640  37.6057265
 102.2024454  23.3520468  37.5090318 102.3511771  24.8383000  37.2624339
  96.4862636  21.8505195  52.3456466  97.1962254  21.2098387  52.3043084
  96.4431944  22.1018090  53.2682647 104.4749415  28.7872548  55.2663045
 104.4161961  28.1031768  54.5993628 104.8768933  29.5291538  54.8143671
  95.1991570  18.8370413  54.1652105  94.6628927  18.3861151  54.8173702
  94.6108278  18.9716322  53.4222570  94.6093829  18.2959064  36.7278569
  93.7323295  18.1747865  36.3640816  95.0851582  17.5045142  36.4757458
 104.4766822  26.7512132  53.4977025 103.5893601  26.4138054  53.6203424
 105.0465373  26.0195163  53.7345790  90.9330691  17.9726420  51.2505100
  90.8488880  17.3652090  50.5155510  90.1113398  18.4635439  51.2514596
 101.1054405  16.4579984  46.6175295 101.6023105  15.7049946  46.2976365
 100.3341387  16.4944301  46.0518504 108.9584162  22.1620350  48.2593587
 108.9474039  23.0445065  47.8887520 108.0901542  21.8091900  48.0648124
 100.4666659  31.3100419  52.6196427 101.1794631  31.9447883  52.5472328
  99.9756687  31.4064285  51.8036429 102.1884186  25.2151671  44.1913718
 101.2540464  25.3353134  44.0218423 102.3660854  24.3124138  43.9273728
  97.6889374  18.5997367  46.3446980  97.3187161  18.0468407  47.0327885
  98.1848466  17.9955500  45.7921980 105.5756737  21.0568990  44.7263753
 106.0417189  21.8896982  44.6524055 106.0264238  20.5913972  45.4309011
 103.6432968  27.4012812  41.7249905 103.9192812  27.2869406  42.6343779
 102.7737467  27.0030297  41.6862078 103.5473400  13.4249577  48.7654654
 102.6336480  13.6553804  48.9336861 103.9766501  13.5088022  49.6168686
 103.3179858  21.6139469  51.2654548 102.6651309  21.8615377  50.6107001
 103.6960238  20.8003608  50.9317025  99.3667431  22.3559280  57.7520585
  98.6908068  22.2553410  58.4222960 100.1895065  22.1998494  58.2156582
  85.7063945  21.1636817  49.0937543  85.7448045  20.6300408  49.8874661
  85.2004238  20.6372023  48.4748521  93.0854707  16.0101358  52.5900086
  93.1496034  16.8716189  52.1777483  93.0221828  15.3975359  51.8572444
  92.5606980  18.0824490  56.2373120  93.1879019  17.7001568  56.8510644
  91.7034899  17.8638692  56.6028812 102.9601089  28.4887465  57.8426855
 103.5040993  29.1017424  57.3481810 102.3787933  29.0467044  58.3593868
  89.3372523  19.8900919  42.1691475  89.6325964  18.9811598  42.1158528
  88.4360558  19.8688659  41.8472477 101.2458601  31.6108183  48.9741883
 101.1209741  30.8097923  48.4652829 101.9037693  32.1054377  48.4855853
  92.8666770  17.9656916  48.1519023  92.1453355  18.5792884  48.0126497
  93.6560025  18.5014681  48.0735669 103.3093510  29.4117204  50.6021433
 102.3623845  29.2922555  50.5299760 103.6576283  28.5239702  50.6847695
  95.6693083  15.3011342  54.4259675  96.1927485  15.5473639  55.1885984
  95.4505417  16.1331377  54.0062812  91.0660364  17.5715017  42.2930800
  90.7373070  16.6912396  42.1105906  91.4199735  17.5162686  43.1807189
  94.1802187  17.8587987  42.6606278  94.5198260  18.3873908  41.9384886
  94.6274308  18.1968393  43.4364844 103.9174065  30.0298478  47.8890658
 104.8420612  29.8241340  47.7515109 103.7489368  29.7814880  48.7980000
  96.8745628  16.2425038  52.1109346  96.5342449  15.4432851  52.5130026
  96.1684635  16.5426748  51.5386179  97.5262100  13.3274350  50.5636669
  98.3488169  12.8534828  50.4415559  97.7700164  14.1064834  51.0635355
  96.1670335  16.3562608  40.8599570  96.8878697  16.7343861  40.3563287
  95.5435639  17.0751485  40.9634548 100.3101457  17.0607757  41.7957903
 100.5265072  17.9432395  41.4946731  99.8295525  16.6693971  41.0663545
  95.0500679  20.0193471  48.3728647  94.9045260  20.3333774  49.2652929
  94.5725882  20.6378371  47.8199546  96.9097062  17.0096019  48.4209537
  96.8958630  16.1137112  48.0841835  97.6269490  17.0166682  49.0547823
  98.7623192  17.4433359  50.4662664  98.5040970  18.3650429  50.4646995
  98.2308233  17.0463793  51.1563128  96.3133958  15.8910399  43.6897107
  96.4349869  14.9627045  43.8887994  96.0236000  15.9049085  42.7775422
  99.1825148  13.5765309  46.8263827  99.2046845  13.6404642  45.8715806
  99.5993207  12.7369818  47.0204333 109.5608772  23.3120569  44.8643049
 110.0039918  22.5627894  44.4662173 108.6835283  23.3030705  44.4816781
 104.6944554  29.8650910  40.3449648 105.3895458  30.4857603  40.5636963
 105.0367704  29.0146262  40.6202026  90.3112363  21.6868711  54.2046465
  89.5694099  21.8351347  54.7911096  89.9905107  21.9476977  53.3413215
 106.5935977  27.3150616  41.8736979 107.1187301  27.6537889  41.1486299
 106.5058329  26.3797631  41.6900113  95.7975037  17.4042396  57.8987040
  95.8463193  18.2804519  57.5164809  96.3397551  16.8619789  57.3258683
 106.2829883  27.9483520  57.1788177 105.4925427  27.9307658  56.6392676
 106.0463237  28.4871813  57.9337213 106.4027758  24.7975986  54.4920905
 106.4525763  24.6325993  55.4336428 106.2941681  23.9303245  54.1018786
 103.6931520  20.7806914  55.8080212 104.5941383  20.6413379  55.5164210
 103.7679495  20.9461369  56.7478389  98.0274326  18.1573769  54.6533398
  97.1577635  18.4507335  54.3815987  98.2633806  18.7414214  55.3740662
 107.9045955  27.2172927  54.7362927 107.6130763  27.5802908  55.5726388
 107.2918086  26.5039936  54.5576259 109.1041637  24.7825807  47.2565497
 109.9388528  25.2215611  47.4203057 109.2400766  24.3064460  46.4373743
 106.1533143  22.3405542  53.2042985 106.6287265  22.5333188  52.3961836
 105.2298708  22.3964728  52.9586368 100.7313359  14.3753386  52.1698819
 101.2495303  15.1114413  51.8445307 100.3768492  14.6817379  53.0045578
 104.8534812  19.2171302  51.4371290 105.8052235  19.3169400  51.4583514
 104.6838262  18.4249571  51.9469375 102.8749191  16.3026885  51.6230691
 102.2799124  16.5831898  50.9277180 102.5898888  16.7920786  52.3947432
 104.6344699  29.5715683  37.3437271 104.5558330  29.2375546  38.2373029
 105.4554365  30.0637450  37.3428744 107.3322890  22.4377422  50.5513590
 107.2999210  21.4993423  50.7373274 107.9423513  22.5161459  49.8179415
  99.1706221  21.3073475  36.5940794 100.1165325  21.1779683  36.6629212
  98.7920466  20.5688137  37.0710222 107.4817378  19.2288465  50.5971873
 106.9656427  18.4446922  50.4101802 108.3657327  18.9007182  50.7618393
 105.1428105  12.9729481  46.5567686 104.9452926  12.6644569  47.4411018
 105.7527811  13.6991120  46.6865616 113.1499440  23.4993429  49.6919627
 113.8802828  23.2378717  50.2527330 112.5406385  22.7622151  49.7321695
 111.2314737  21.6401291  50.2894078 110.5047900  21.5057256  49.6810570
 110.8162024  21.9478120  51.0950796  99.0544913  25.3591221  58.0541451
  99.9747923  25.5369820  58.2481498  99.0194496  24.4147266  57.9021150
  97.3549138  19.2323451  36.5295679  96.4480593  18.9356564  36.6058393
  97.6325119  18.9353269  35.6629966  98.9711204  13.7760341  42.6839921
  98.1611932  13.4307426  43.0595167  99.6595620  13.4667885  43.2727532
 100.9001752  12.8538388  44.3064217 101.4532790  13.2733841  44.9654240
 101.1371838  11.9274136  44.3487173  96.9234851  18.8425461  60.0866981
  96.8231578  19.7919818  60.0179072  96.7056393  18.5143700  59.2143051
  96.1247922  16.0910386  36.6707658  96.9867086  16.4165285  36.9303476
  96.3098267  15.3041882  36.1580724 104.2780559  14.9638913  43.8142881
 103.6979228  15.6223717  43.4320934 104.0116492  14.1416257  43.4030299
 102.7284125  14.3643971  46.0164202 103.2283904  14.4760505  45.2078521
 103.3719733  14.0605023  46.6565010  96.7866121  22.2722600  58.9032043
  96.3033203  23.0722960  59.1095932  96.8727060  22.2830545  57.9499487
 103.0605437  17.1239003  42.8699230 102.1731292  17.4088654  42.6519424
 103.4759426  16.9632767  42.0226507 106.4119973  17.1485524  46.5853569
 107.1880363  17.6381977  46.8578186 105.6868107  17.5743578  47.0425438
 108.8492532  17.8613143  47.6427510 109.4437022  17.6208879  46.9320818
 108.9219115  17.1420274  48.2701046 102.2048650  26.8883678  36.9647250
 102.9084501  27.0933680  37.5804905 101.4811299  27.4560440  37.2296333
 103.0346461  22.6393539  43.0849520 102.9781662  23.0962091  42.2457152
 103.5874803  21.8784224  42.9072363 106.8451267  18.4283271  43.9099639
 106.5888201  18.0279907  44.7407847 106.2204135  19.1427065  43.7849779
 111.1563604  21.1679344  46.4170931 110.5963162  21.2372534  47.1902493
 110.5507108  20.9920329  45.6970427 104.1135348  27.3266207  39.0145710
 104.9480952  26.8947406  38.8323185 103.9519691  27.1548221  39.9422604
 103.7681240  23.8298320  40.3802049 103.7130044  23.6642592  39.4390493
 103.1427295  24.5374353  40.5364239  88.5573755  19.0666385  54.2063471
  89.2032619  18.5565339  54.6950696  88.3490906  19.8035066  54.7806897
 101.0827147  26.1347232  59.7055612 101.9518307  26.3087885  59.3442247
 100.6033899  26.9541649  59.5831341  97.0777365  13.3306429  39.9587367
  97.0656035  14.2748269  40.1155638  97.9700787  13.1476575  39.6646829
  92.8971246  16.2134002  58.3038486  93.7602708  15.8570807  58.5141810
  92.3236657  15.8747897  58.9913890 112.7419623  37.8435858  49.1100887
 113.3798033  37.7242606  48.4064227 112.6240466  38.7916702  49.1688839
 109.5509329  37.7963286  49.0462411 109.2127841  37.6804351  48.1582946
 110.4199097  37.3954451  49.0263417 105.4096145  39.6498763  45.0359302
 104.8461010  39.5588700  44.2675590 105.2948540  38.8298667  45.5161795
 110.0329112  38.9498138  55.0048617 110.0217753  38.5550936  54.1329120
 110.1949752  38.2164211  55.5982388 102.9560577  41.1449954  47.8743523
 103.7481869  40.8040779  47.4589822 103.1957227  41.2544929  48.7945676
 110.9895704  43.3169730  40.3473767 110.3383683  43.9023811  39.9607781
 111.7840066  43.8475925  40.4068805 104.9151331  40.4058868  40.7460901
 105.6882207  39.8587855  40.6073777 105.2676730  41.2703117  40.9575363
 106.7536373  41.7335250  53.9527801 106.4626239  42.6380881  53.8374467
 107.3893358  41.7751777  54.6671870 107.6792580  39.1112098  50.5429160
 108.2756152  38.8868121  49.8286123 107.7367552  38.3696844  51.1454608
 107.2517609  36.5651534  38.3779351 107.5043129  36.0433055  37.6162814
 106.3142168  36.4017679  38.4806035 112.2960891  35.5687312  46.1854095
 113.0823981  35.1506735  45.8344512 112.5599596  36.4733404  46.3535743
 112.4670969  41.0060162  40.8842751 111.8316802  41.0794789  41.5963656
 112.1368375  41.5953761  40.2061831 117.6969319  35.5062545  47.0887073
 118.4294490  34.9361762  47.3224903 116.9408674  35.1184146  47.5293579
 106.9713897  38.4679640  40.5803726 106.8550155  37.7924543  41.2484811
 107.0816157  37.9812014  39.7635879 109.3145438  37.9289787  44.2850416
 108.9503645  37.4020408  44.9963337 110.1712554  37.5388256  44.1116901
 115.2194739  29.2184119  51.5481682 114.8878064  30.0879530  51.3242897
 114.6240352  28.9020403  52.2275712 108.9550925  32.9579686  39.2811764
 109.1225328  33.8259923  39.6482235 108.7648094  33.1206968  38.3573053
 111.7126258  41.4196665  50.9477594 111.4126981  42.3221704  50.8393402
 111.3677318  41.1528849  51.7998747 105.1638740  37.8710462  46.9814299
 104.2389236  37.7386676  47.1891991 105.4123153  38.6504681  47.4784241
 115.1123402  33.9379206  48.6275032 114.2040280  33.8694614  48.3333793
 115.0610998  34.4151150  49.4556857 108.9340146  35.4137344  40.2658431
 108.8139771  35.8594395  41.1043911 108.2392734  35.7622662  39.7071969
 102.5247551  37.5143736  47.8158088 102.6539932  37.7678215  48.7297500
 101.8445002  38.1071444  47.4962743 106.6947038  48.1840986  43.9148562
 106.6171068  49.1348811  43.9937043 106.0908682  47.8386858  44.5723488
 109.1864268  35.3568851  56.5709929 108.4097602  35.9162771  56.5612794
 109.8254831  35.8425634  57.0924799 116.9785049  32.1395644  50.4052906
 116.3359429  32.4328177  49.7592700 116.4739977  32.0248564  51.2106102
 114.6325212  35.8858817  41.0938765 115.5443068  36.1186204  40.9186462
 114.1234859  36.4695861  40.5313844 107.4410640  38.1654305  56.1327896
 108.1825325  38.7039348  55.8562720 106.7347626  38.7920593  56.2899448
 112.9165980  40.3083445  54.7300057 113.3249336  39.8665856  53.9854690
 112.1943241  39.7336072  54.9834250 109.2697050  35.2456052  52.1033614
 110.1158245  35.6695465  52.2468263 109.2095688  34.5889676  52.7972178
 113.2394795  40.8684636  48.4852346 112.6103657  41.0330350  47.7828414
 112.8520457  41.2826245  49.2563310 117.1184026  41.8039073  45.8396710
 116.4335065  42.1837975  45.2893743 117.2027876  42.4134400  46.5728658
 112.4196495  32.9060420  53.7614788 112.1757427  33.6602481  53.2249064
 112.6956426  33.2845768  54.5962035 114.3734958  39.4499032  52.4392054
 114.5851853  40.0930792  51.7626435 114.3264706  38.6161349  51.9713984
 111.9761187  32.0616853  49.3428626 111.1145666  32.3598107  49.6345363
 112.0023622  32.2787252  48.4109658 108.7922756  40.6059044  45.7502431
 109.2561102  40.8846747  44.9607054 108.5279555  39.7042488  45.5675522
 105.6846837  40.1530525  48.6882195 106.2548195  40.5817794  48.0499679
 106.2754949  39.8713110  49.3866380 107.7291642  36.7282196  42.5591997
 108.4315686  37.1803240  43.0265923 107.3972271  36.0866015  43.1871890
 106.1772004  35.3193953  56.9343206 105.5470665  36.0010234  57.1678603
 106.0708092  35.2077034  55.9896344 115.4880786  42.3270988  50.6114411
 116.3098230  41.9251175  50.3297093 115.4843189  42.2239222  51.5630527
 109.2537389  41.8755031  52.7675121 109.3181822  42.3375438  53.6033293
 108.5448313  41.2452396  52.8957431 108.9685407  43.5423139  42.6354102
 108.8331082  44.3874674  43.0638950 109.5095220  43.7442416  41.8720036
 105.4552747  29.6214719  59.2968457 105.0619692  29.0680917  59.9716101
 106.2718887  29.9325297  59.6874975 104.2309689  44.1764333  45.2904780
 104.4076318  45.0982298  45.1025764 105.0266523  43.8622752  45.7199160
 108.3720708  31.0372598  56.8888714 109.1130421  31.6379751  56.8093176
 108.6038631  30.2950235  56.3306756 103.5162046  36.2228965  55.1666943
 103.4015561  35.3214222  55.4674042 102.6606563  36.4692662  54.8151760
 110.5953883  44.1646705  56.7654444 110.1517738  43.3783084  56.4475348
 111.2571097  44.3525856  56.0998335 105.3541005  45.6942507  51.2915122
 105.9048430  45.5659570  50.5192116 104.5152481  45.9937396  50.9410015
 112.6935122  44.4449505  54.7935845 112.6753597  45.2658386  54.3016114
 113.6155042  44.3203580  55.0185986 109.1508176  41.9593635  55.6359354
 109.6836513  41.1981923  55.4058662 108.6222257  41.6667286  56.3783508
 112.3177871  27.0653701  51.1652995 111.9742140  27.9555342  51.0892106
 112.6856833  26.8755358  50.3022580 112.2828153  37.0562312  39.6725430
 111.7674777  37.8266916  39.9113818 112.0105462  36.3827448  40.2958492
 109.8675264  31.9012012  44.7310669 109.0116861  31.5118863  44.5516307
 110.2802216  31.9803973  43.8710454 111.3974411  29.4358356  49.1302229
 110.8939207  29.3988491  48.3170034 111.6905018  30.3451098  49.1898885
 107.6417297  29.5197085  48.1368410 108.5070294  29.3239894  47.7774300
 107.7094806  29.2907437  49.0637767 117.2562428  39.8094666  41.6078604
 116.4791870  39.4705826  41.1633766 117.9353909  39.8147289  40.9333569
 112.0714457  34.9289404  41.4985212 111.7664592  35.2435553  42.3495355
 113.0244899  35.0070824  41.5412545 110.5160888  41.0879627  43.1478166
 109.9882250  40.3532387  42.8351403 110.0148391  41.8654303  42.9018134
 115.4953734  39.2828648  48.2645212 114.8377409  39.9727909  48.3525340
 116.2994134  39.6725080  48.6079198 105.2479616  31.7499293  45.5084777
 105.8223368  31.5274475  44.7757970 105.8350598  31.8187988  46.2613378
 114.3059193  37.6373020  46.3149154 114.8191075  38.2703012  46.8170863
 114.9560417  37.0374216  45.9492514 105.5749203  33.7803754  39.5280662
 104.7386515  34.1178441  39.8489937 105.4353973  33.6452734  38.5907799
 107.5502284  28.6240542  44.2359847 106.8966696  28.3089559  43.6116461
 107.5082758  28.0016283  44.9619669 108.6613489  38.9059837  36.1513139
 107.7540550  38.6749091  36.3504288 109.1584521  38.1097457  36.3387120
 111.5681567  47.6157345  39.0709825 110.8943266  47.9189041  39.6794783
 111.9547389  48.4186425  38.7215282 110.7840024  35.1122476  48.5607494
 109.8662585  35.3337423  48.4029182 111.2000168  35.1868786  47.7019201
 111.5675072  36.5113891  43.6910174 112.3146891  37.0235289  43.3817296
 111.8366661  36.1897944  44.5514568 109.8401722  39.0072432  40.6737129
 108.9312941  38.7231465  40.7709598 109.8696806  39.4271511  39.8140436
 115.0720989  42.6179022  44.4428296 114.6183317  41.7769932  44.4993487
 114.4414956  43.2540420  44.7803076 114.0153909  33.5471008  45.6728964
 113.2776666  33.0348394  46.0039206 114.2680683  33.1071389  44.8612241
 113.5153929  44.4555518  45.3778114 113.8076903  45.0160576  44.6590480
 114.0252549  44.7484079  46.1331273 114.1165536  26.3247260  46.2670733
 114.4224413  25.4644623  45.9796648 114.8418141  26.9164880  46.0669727
 108.3886616  36.6201053  46.7746924 108.4435226  35.6674889  46.6989401
 107.5777818  36.7760492  47.2588222 109.5377810  40.5481176  38.0125207
 109.0997240  39.8317035  37.5530845 110.2788251  40.7757291  37.4510299
 106.3278976  35.2378113  44.5337303 105.5146842  35.5372283  44.9402495
 106.8237970  34.8433801  45.2511785 108.4787554  45.2335869  46.4671568
 108.4363733  45.4596716  45.5380100 109.3950253  44.9999244  46.6157369
 111.9253188  35.7019937  53.3652197 112.2802575  35.9291410  54.2246663
 112.5725319  36.0338314  52.7429452 117.6550925  38.8238373  44.0701526
 117.5168823  39.0139969  43.1422715 117.2987143  39.5857756  44.5269577
 105.8193051  32.8096468  50.1498538 106.4592430  32.6685227  49.4521501
 104.9870581  32.5230981  49.7737140 117.6820304  40.8914900  49.0812797
 118.1156811  40.7990189  49.9295851 118.3951885  40.8672400  48.4432813
 106.5953355  42.1098899  46.2633530 107.3893953  41.6149219  46.0616105
 105.8845047  41.5816762  45.9001236 111.4148199  44.4916994  50.6145898
 111.4685221  45.0607930  51.3823614 110.5462980  44.6618879  50.2499935
 104.2946593  34.1934550  52.0970349 104.9669646  33.9851912  51.4482998
 103.4676379  33.9956636  51.6575581 118.5435854  40.9338601  51.6145683
 118.7371744  41.8384411  51.8604958 118.4436472  40.4746020  52.4484268
 110.1972165  30.8196491  54.1136010 109.5500080  31.5186441  54.0200486
 110.9673180  31.2532635  54.4812258 113.6050962  41.0845343  57.1886563
 113.4536469  40.8555895  56.2716647 113.5955642  42.0415945  57.2017908
 110.3736299  38.6577256  52.1732830 111.3028359  38.8088416  52.0001797
 109.9527329  38.7461277  51.3181476 109.1724631  42.6827920  49.9431367
 109.0335716  42.3146705  50.8157306 108.3839227  43.1975560  49.7715325
 109.7672783  47.7837017  41.2856904 109.9424538  47.3125060  42.1002527
 109.0805571  48.4102783  41.5138165 110.7229846  42.0609523  47.3320205
 110.3879678  42.0210293  48.2277855 110.2233791  41.3954239  46.8590615
 104.6974090  37.4677153  52.8572786 104.5593888  36.7357392  53.4584325
 105.6079013  37.3786053  52.5756974 113.6589037  39.4065558  37.6057265
 113.0418208  38.6812386  37.5090318 113.1905526  40.1674918  37.2624339
 107.3256390  37.1797113  52.3456466 108.0356009  36.5390305  52.3043084
 107.2825699  37.4310007  53.2682647 115.3143169  44.1164466  55.2663045
 115.2555715  43.4323686  54.5993628 115.7162687  44.8583456  54.8143671
 106.0385324  34.1662330  54.1652105 105.5022681  33.7153069  54.8173702
 105.4502033  34.3008239  53.4222570 104.3333868  50.9326380  48.0596764
 104.5730466  51.5644904  48.7375783 103.4903064  50.5814420  48.3462123
 105.4487583  33.6250982  36.7278569 104.5717050  33.5039783  36.3640816
 105.9245336  32.8337060  36.4757458 115.3160576  42.0804050  53.4977025
 114.4287355  41.7429972  53.6203424 115.8859127  41.3487081  53.7345790
 101.7724446  33.3018338  51.2505100 101.6882634  32.6944008  50.5155510
 100.9507152  33.7927356  51.2514596 108.8461730  46.7405502  50.4638268
 108.7731901  47.5460474  50.9757573 108.4039123  46.9397468  49.6386289
 108.6351509  45.9777272  43.9741090 107.8519031  46.5198952  44.0679314
 109.3344255  46.4951252  44.3735331 111.9448160  31.7871902  46.6175295
 112.4416859  31.0341864  46.2976365 111.1735141  31.8236218  46.0518504
 119.7977917  37.4912267  48.2593587 119.7867793  38.3736983  47.8887520
 118.9295296  37.1383818  48.0648124 111.3060413  46.6392336  52.6196427
 112.0188385  47.2739801  52.5472328 110.8150442  46.7356202  51.8036429
 113.0277940  40.5443589  44.1913718 112.0934219  40.6645051  44.0218423
 113.2054609  39.6416056  43.9273728 108.5283128  33.9289285  46.3446980
 108.1580916  33.3760325  47.0327885 109.0242221  33.3247418  45.7921980
 116.4150492  36.3860908  44.7263753 116.8810944  37.2188900  44.6524055
 116.8657992  35.9205890  45.4309011 106.3572327  44.3886780  53.4401998
 107.0581786  45.0223263  53.5931392 105.8867442  44.7301511  52.6797637
 114.4826723  42.7304729  41.7249905 114.7586567  42.6161324  42.6343779
 113.6131221  42.3322214  41.6862078 114.3867154  28.7541495  48.7654654
 113.4730234  28.9845722  48.9336861 114.8160256  28.8379939  49.6168686
 114.1573613  36.9431387  51.2654548 113.5045063  37.1907295  50.6107001
 114.5353993  36.1295525  50.9317025 111.1180787  46.9791080  45.3682718
 111.3003181  46.1612736  45.8310471 111.9413773  47.1958773  44.9307608
 111.4522952  45.9059265  42.6297767 111.9810719  45.3951720  42.0167929
 111.7151172  45.5901796  43.4943300 110.2061186  37.6851198  57.7520585
 109.5301823  37.5845327  58.4222960 111.0288820  37.5290412  58.2156582
 101.9540045  43.9223135  50.3733100 102.5393482  43.1766823  50.5061004
 101.7564883  44.2327091  51.2569764 104.8078700  46.9574382  45.3895543
 104.1389075  47.4420510  44.9059583 104.6691570  47.2043603  46.3038921
 108.9483969  48.9918126  51.9878201 109.5002277  49.1549747  52.7527286
 109.2890162  49.5822563  51.3158226 103.9248462  31.3393275  52.5900086
 103.9889788  32.2008106  52.1777483 103.8615582  30.7267277  51.8572444
 103.4000734  33.4116408  56.2373120 104.0272773  33.0293485  56.8510644
 102.5428653  33.1930610  56.6028812 113.7994843  43.8179383  57.8426855
 114.3434747  44.4309341  57.3481810 113.2181688  44.3758962  58.3593868
 112.0852356  46.9400101  48.9741883 111.9603495  46.1389841  48.4652829
 112.7431447  47.4346295  48.4855853 103.7060524  33.2948834  48.1519023
 102.9847110  33.9084801  48.0126497 104.4953780  33.8306598  48.0735669
 114.1487264  44.7409121  50.6021433 113.2017600  44.6214472  50.5299760
 114.4970037  43.8531619  50.6847695 106.5086838  30.6303260  54.4259675
 107.0321240  30.8765557  55.1885984 106.2899171  31.4623295  54.0062812
 111.1533698  44.5361837  46.8025785 111.0058660  43.6078545  46.9833356
 111.9787191  44.5581928  46.3182861 105.0195942  33.1879905  42.6606278
 105.3592014  33.7165826  41.9384886 105.4668062  33.5260311  43.4364844
 114.7567819  45.3590396  47.8890658 115.6814367  45.1533258  47.7515109
 114.5883123  45.1106797  48.7980000 107.7139383  31.5716955  52.1109346
 107.3736203  30.7724768  52.5130026 107.0078389  31.8718666  51.5386179
 108.3655855  28.6566268  50.5636669 109.1881924  28.1826746  50.4415559
 108.6093918  29.4356751  51.0635355 107.0064089  31.6854526  40.8599570
 107.7272452  32.0635779  40.3563287 106.3829393  32.4043403  40.9634548
 111.1495212  32.3899675  41.7957903 111.3658826  33.2724313  41.4946731
 110.6689279  31.9985889  41.0663545 105.8894433  35.3485388  48.3728647
 105.7439014  35.6625691  49.2652929 105.4119637  35.9670289  47.8199546
 107.7490816  32.3387936  48.4209537 107.7352385  31.4429030  48.0841835
 108.4663244  32.3458600  49.0547823 109.6016947  32.7725277  50.4662664
 109.3434725  33.6942347  50.4646995 109.0701987  32.3755711  51.1563128
 114.5463136  45.8776064  43.2452750 114.7200013  45.3122486  42.4926602
 115.0392027  46.6776959  43.0632240 107.1527712  31.2202317  43.6897107
 107.2743623  30.2918963  43.8887994 106.8629755  31.2341003  42.7775422
 110.0218903  28.9057227  46.8263827 110.0440599  28.9696560  45.8715806
 110.4386962  28.0661736  47.0204333 120.4002527  38.6412487  44.8643049
 120.8433673  37.8919812  44.4662173 119.5229037  38.6322623  44.4816781
 115.5338308  45.1942828  40.3449648 116.2289213  45.8149521  40.5636963
 115.8761458  44.3438179  40.6202026 101.1506117  37.0160629  54.2046465
 100.4087853  37.1643264  54.7911096 100.8298862  37.2768895  53.3413215
 117.4329731  42.6442534  41.8736979 117.9581055  42.9829806  41.1486299
 117.3452084  41.7089549  41.6900113 109.0949780  46.5576607  54.0026855
 109.4036906  46.3125754  54.8749555 109.8925262  46.7623246  53.5145726
 109.1170392  48.7114517  46.2332232 108.6775382  48.2190896  46.9265089
 109.8678509  48.1687485  45.9924307 101.5962731  44.9026058  46.2356860
 102.4220751  44.6029830  45.8555504 101.2456783  44.1333680  46.6846649
 106.5644264  44.2552526  48.3054534 105.9424273  43.5923231  48.0056761
 107.2349131  44.2813658  47.6228181 106.6368792  32.7334314  57.8987040
 106.6856947  33.6096437  57.5164809 107.1791306  32.1911707  57.3258683
 117.1223637  43.2775437  57.1788177 116.3319181  43.2599576  56.6392676
 116.8856992  43.8163731  57.9337213 117.2421512  40.1267904  54.4920905
 117.2919517  39.9617911  55.4336428 117.1335436  39.2595163  54.1018786
 106.1257771  42.8056449  41.7812994 106.2745891  43.4891914  41.1279667
 106.9324215  42.7861539  42.2962450 114.5325275  36.1098832  55.8080212
 115.4335138  35.9705296  55.5164210 114.6073249  36.2753286  56.7478389
 108.8668080  33.4865686  54.6533398 107.9971390  33.7799252  54.3815987
 109.1027561  34.0706131  55.3740662 118.7439709  42.5464845  54.7362927
 118.4524518  42.9094826  55.5726388 118.1311841  41.8331853  54.5576259
 119.9435392  40.1117725  47.2565497 120.7782283  40.5507529  47.4203057
 120.0794520  39.6356378  46.4373743 116.9926898  37.6697460  53.2042985
 117.4681019  37.8625106  52.3961836 116.0692463  37.7256646  52.9586368
 111.5707114  29.7045303  52.1698819 112.0889058  30.4406330  51.8445307
 111.2162247  30.0109297  53.0045578 111.8219708  26.1245586  47.6899715
 112.1021462  25.4568775  48.3160142 112.6070315  26.3174681  47.1774379
 109.6253177  45.3004580  39.2524742 109.0527144  45.9194767  38.7995213
 110.1985970  45.8503941  39.7864663 115.6928567  34.5463220  51.4371290
 116.6445989  34.6461317  51.4583514 115.5232017  33.7541488  51.9469375
 113.7142946  31.6318803  51.6230691 113.1192878  31.9123816  50.9277180
 113.4292643  32.1212704  52.3947432 112.8450436  45.5841730  40.3833324
 113.7781110  45.5187292  40.5866199 112.7573649  46.4197997  39.9247856
 115.4738453  44.9007600  37.3437271 115.3952085  44.5667464  38.2373029
 116.2948120  45.3929368  37.3428744 118.1716644  37.7669340  50.5513590
 118.1392964  36.8285340  50.7373274 118.7817268  37.8453376  49.8179415
 110.0099975  36.6365392  36.5940794 110.9559080  36.5071601  36.6629212
 109.6314220  35.8980054  37.0710222 118.3211133  34.5580383  50.5971873
 117.8050181  33.7738840  50.4101802 119.2051081  34.2299100  50.7618393
 115.9821860  28.3021399  46.5567686 115.7846681  27.9936487  47.4411018
 116.5921565  29.0283037  46.6865616 109.8938668  40.6883139  58.0541451
 110.8141677  40.8661738  58.2481498 109.8588251  39.7439184  57.9021150
 108.1942892  34.5615369  36.5295679 107.2874348  34.2648482  36.6058393
 108.4718873  34.2645187  35.6629966 102.8900740  38.5984173  50.6964232
 103.1086750  39.5301281  50.7152266 103.3026514  38.2392148  51.4819036
 109.8104958  29.1052259  42.6839921 109.0005686  28.7599344  43.0595167
 110.4989375  28.7959802  43.2727532 111.7395506  28.1830305  44.3064217
 112.2926545  28.6025759  44.9654240 111.9765593  27.2566053  44.3487173
 107.7628606  34.1717379  60.0866981 107.6625332  35.1211736  60.0179072
 107.5450148  33.8435618  59.2143051 106.9641677  31.4202304  36.6707658
 107.8260841  31.7457202  36.9303476 107.1492021  30.6333800  36.1580724
 115.1174313  30.2930831  43.8142881 114.5372982  30.9515635  43.4320934
 114.8510246  29.4708175  43.4030299 113.5677880  29.6935888  46.0164202
 114.0677658  29.8052423  45.2078521 114.2113488  29.3896941  46.6565010
 107.6259876  37.6014518  58.9032043 107.1426957  38.4014878  59.1095932
 107.7120815  37.6122463  57.9499487 103.5533213  41.4919053  50.9400477
 104.5076467  41.4602995  50.8730408 103.3545737  41.0309676  51.7550702
 104.1432595  40.0620169  53.5071274 104.9625484  40.5564247  53.5306111
 104.4169403  39.1452137  53.4788842 113.8999191  32.4530921  42.8699230
 113.0125046  32.7380572  42.6519424 114.3153180  32.2924684  42.0226507
 117.2513728  32.4777442  46.5853569 118.0274118  32.9673894  46.8578186
 116.5261862  32.9035496  47.0425438 119.6886286  33.1905061  47.6427510
 120.2830777  32.9500797  46.9320818 119.7612870  32.4712192  48.2701046
 101.9083442  47.0338672  47.9570674 101.7737910  46.2739073  47.3908672
 101.4915504  47.7579572  47.4899463 113.0442405  42.2175596  36.9647250
 113.7478255  42.4225598  37.5804905 112.3205054  42.7852357  37.2296333
 113.8740215  37.9685457  43.0849520 113.8175417  38.4254008  42.2457152
 114.4268558  37.2076141  42.9072363 117.6845021  33.7575189  43.9099639
 117.4281955  33.3571824  44.7407847 117.0597889  34.4718983  43.7849779
 105.0652568  47.9307989  48.1689117 104.9484952  48.8753422  48.0667807
 104.2445014  47.6281551  48.5574916 114.9529102  42.6558125  39.0145710
 115.7874706  42.2239323  38.8323185 114.7913445  42.4840138  39.9422604
 114.6074994  39.1590238  40.3802049 114.5523798  38.9934510  39.4390493
 113.9821050  39.8666271  40.5364239 111.9220902  41.4639150  59.7055612
 112.7912061  41.6379802  59.3442247 111.4427653  42.2833567  59.5831341
 107.9171120  28.6598347  39.9587367 107.9049790  29.6040187  40.1155638
 108.8094542  28.4768493  39.6646829 106.0907082  48.5836251  51.3845045
 106.9934329  48.6159861  51.7011540 105.8644452  47.6536702  51.3991381
 107.8460684  47.3367238  48.0455124 106.8956315  47.3369099  47.9319496
 108.1493170  46.5899972  47.5291159 111.7323239  25.2541124  44.2133304
 110.9655635  24.6999610  44.3589987 112.1433944  25.3262993  45.0747456
 103.7365000  31.5425920  58.3038486 104.5996462  31.1862724  58.5141810
 103.1630411  31.2039814  58.9913890 120.3903084  53.1255204  49.0462411
 120.0521595  53.0096269  48.1582946 121.2592852  52.7246369  49.0263417
 116.2489899  54.9790680  45.0359302 115.6854764  54.8880617  44.2675590
 116.1342294  54.1590585  45.5161795 120.8722867  54.2790056  55.0048617
 120.8611507  53.8842854  54.1329120 121.0343506  53.5456128  55.5982388
 113.7954331  56.4741872  47.8743523 114.5875623  56.1332697  47.4589822
 114.0350981  56.5836847  48.7945676 115.7545085  55.7350785  40.7460901
 116.5275961  55.1879772  40.6073777 116.1070484  56.5995035  40.9575363
 117.5930128  57.0627168  53.9527801 117.3019994  57.9672798  53.8374467
 118.2287112  57.1043695  54.6671870 118.5186335  54.4404016  50.5429160
 119.1149907  54.2160038  49.8286123 118.5761306  53.6988762  51.1454608
 118.0911363  51.8943451  38.3779351 118.3436884  51.3724973  37.6162814
 117.1535922  51.7309597  38.4806035 117.8107652  53.7971557  40.5803726
 117.6943910  53.1216461  41.2484811 117.9209912  53.3103931  39.7635879
 120.1539193  53.2581704  44.2850416 119.7897400  52.7312325  44.9963337
 121.0106309  52.8680174  44.1116901 119.7944680  48.2871604  39.2811764
 119.9619082  49.1551841  39.6482235 119.6041849  48.4498886  38.3573053
 116.0032494  53.2002380  46.9814299 115.0782991  53.0678594  47.1891991
 116.2516908  53.9796599  47.4784241 119.7733901  50.7429262  40.2658431
 119.6533526  51.1886312  41.1043911 119.0786489  51.0914579  39.7071969
 113.3641305  52.8435653  47.8158088 113.4933687  53.0970132  48.7297500
 112.6838757  53.4363361  47.4962743 117.5340793  63.5132903  43.9148562
 117.4564822  64.4640728  43.9937043 116.9302436  63.1678776  44.5723488
 120.0258022  50.6860769  56.5709929 119.2491357  51.2454689  56.5612794
 120.6648586  51.1717552  57.0924799 118.2804395  53.4946222  56.1327896
 119.0219079  54.0331266  55.8562720 117.5741380  54.1212511  56.2899448
 120.1090804  50.5747969  52.1033614 120.9552000  50.9987383  52.2468263
 120.0489442  49.9181594  52.7972178 119.6316511  55.9350961  45.7502431
 120.0954856  56.2138664  44.9607054 119.3673309  55.0334406  45.5675522
 116.5240592  55.4822443  48.6882195 117.0941949  55.9109711  48.0499679
 117.1148704  55.2005028  49.3866380 118.5685397  52.0574114  42.5591997
 119.2709440  52.5095157  43.0265923 118.2366025  51.4157933  43.1871890
 117.0165759  50.6485870  56.9343206 116.3864419  51.3302151  57.1678603
 116.9101846  50.5368952  55.9896344 112.3110731  50.3157666  47.8609130
 111.5209785  50.5715195  47.3849241 112.8021978  51.1306004  47.9661171
 114.2625476  50.6802246  44.8192607 113.4656640  50.7920940  45.3376103
 114.0351069  51.0188898  43.9533497 120.0931144  57.2046949  52.7675121
 120.1575576  57.6667356  53.6033293 119.3842068  56.5744314  52.8957431
 110.5948434  50.5688157  50.2924121 110.8456472  51.4535167  50.5581697
 111.1307982  50.3892758  49.5199213 119.8079162  58.8715056  42.6354102
 119.6724836  59.7166592  43.0638950 120.3488974  59.0734334  41.8720036
 116.2946501  44.9506636  59.2968457 115.9013447  44.3972835  59.9716101
 117.1112642  45.2617215  59.6874975 113.2608559  56.3890494  43.2082027
 113.7733080  57.1833745  43.3587592 113.9131272  55.6916785  43.1415628
 115.0703444  59.5056251  45.2904780 115.2470072  60.4274215  45.1025764
 115.8660277  59.1914670  45.7199160 119.2114462  46.3664515  56.8888714
 119.9524176  46.9671668  56.8093176 119.4432385  45.6242153  56.3306756
 114.3555800  51.5520883  55.1666943 114.2409315  50.6506140  55.4674042
 113.5000318  51.7984579  54.8151760 116.1934759  61.0234424  51.2915122
 116.7442184  60.8951488  50.5192116 115.3546235  61.3229313  50.9410015
 119.9901930  57.2885552  55.6359354 120.5230267  56.5273840  55.4058662
 119.4616011  56.9959204  56.3783508 111.2257476  54.7179149  43.9841597
 112.0632698  55.1276157  43.7675305 111.4035743  53.7778591  43.9541791
 120.7069019  47.2303930  44.7310669 119.8510615  46.8410781  44.5516307
 121.1195971  47.3095891  43.8710454 118.4811051  44.8489003  48.1368410
 119.3464048  44.6531812  47.7774300 118.5488560  44.6199355  49.0637767
 121.3554643  56.4171545  43.1478166 120.8276004  55.6824304  42.8351403
 120.8542146  57.1946221  42.9018134 116.0873371  47.0791211  45.5084777
 116.6617122  46.8566393  44.7757970 116.6744353  47.1479906  46.2613378
 116.4142958  49.1095672  39.5280662 115.5780270  49.4470359  39.8489937
 116.2747727  48.9744652  38.5907799 118.3896038  43.9532460  44.2359847
 117.7360451  43.6381477  43.6116461 118.3476512  43.3308200  44.9619669
 119.5007243  54.2351755  36.1513139 118.5934305  54.0041008  36.3504288
 119.9978275  53.4389374  36.3387120 120.6795477  54.3364350  40.6737129
 119.7706696  54.0523383  40.7709598 120.7090560  54.7563428  39.8140436
 111.2483647  52.0569864  44.6552331 111.0508047  51.4639225  43.9303397
 110.6930311  51.7522074  45.3728270 119.2280371  51.9492970  46.7746924
 119.2828980  50.9966807  46.6989401 118.4171573  52.1052410  47.2588222
 120.3771564  55.8773094  38.0125207 119.9390994  55.1608952  37.5530845
 121.1182005  56.1049208  37.4510299 117.1672730  50.5670030  44.5337303
 116.3540596  50.8664201  44.9402495 117.6631725  50.1725719  45.2511785
 119.3181308  60.5627787  46.4671568 119.2757487  60.7888633  45.5380100
 120.2344007  60.3291162  46.6157369 116.6586805  48.1388386  50.1498538
 117.2986185  47.9977145  49.4521501 115.8264336  47.8522899  49.7737140
 117.4347109  57.4390816  46.2633530 118.2287708  56.9441136  46.0616105
 116.7238802  56.9108679  45.9001236 113.7429873  51.5833898  42.3393283
 112.8127461  51.5218353  42.5563245 113.8387345  51.0609851  41.5429924
 113.6615422  48.1088711  44.9271525 113.9222239  49.0234044  44.8180685
 114.4832594  47.6413153  45.0768137 115.1340347  49.5226468  52.0970349
 115.8063400  49.3143830  51.4482998 114.3070134  49.3248554  51.6575581
 120.0118385  58.0119838  49.9431367 119.8729471  57.6438623  50.8157306
 119.2232981  58.5267478  49.7715325 120.6066537  63.1128935  41.2856904
 120.7818293  62.6416978  42.1002527 119.9199325  63.7394701  41.5138165
 121.5623600  57.3901441  47.3320205 121.2273433  57.3502211  48.2277855
 121.0627546  56.7246157  46.8590615 115.5367844  52.7969071  52.8572786
 115.3987642  52.0649310  53.4584325 116.4472768  52.7077971  52.5756974
 118.1650145  52.5089030  52.3456466 118.8749763  51.8682222  52.3043084
 118.1219453  52.7601925  53.2682647 116.8779079  49.4954248  54.1652105
 116.3416436  49.0444987  54.8173702 116.2895787  49.6300157  53.4222570
 115.1727622  66.2618297  48.0596764 115.4124221  66.8936822  48.7375783
 114.3296819  65.9106337  48.3462123 116.2881338  48.9542900  36.7278569
 115.4110804  48.8331700  36.3640816 116.7639091  48.1628978  36.4757458
 107.8083478  53.7420059  46.8220076 108.4954518  53.4281789  46.2341092
 107.6531607  54.6461424  46.5487328 112.6118200  48.6310256  51.2505100
 112.5276389  48.0235925  50.5155510 111.7900907  49.1219274  51.2514596
 119.6855484  62.0697420  50.4638268 119.6125656  62.8752391  50.9757573
 119.2432877  62.2689386  49.6386289 119.4745264  61.3069190  43.9741090
 118.6912786  61.8490870  44.0679314 120.1738009  61.8243170  44.3735331
 119.3676883  49.2581202  46.3446980 118.9974670  48.7052243  47.0327885
 119.8635975  48.6539336  45.7921980 117.1966081  59.7178697  53.4401998
 117.8975541  60.3515180  53.5931392 116.7261196  60.0593429  52.6797637
 112.7933799  59.2515052  50.3733100 113.3787236  58.5058740  50.5061004
 112.5958638  59.5619009  51.2569764 115.6472455  62.2866300  45.3895543
 114.9782830  62.7712427  44.9059583 115.5085324  62.5335520  46.3038921
 107.3851454  51.8220653  49.0937543 107.4235554  51.2884243  49.8874661
 106.8791747  51.2955858  48.4748521 119.7877723  64.3210043  51.9878201
 120.3396031  64.4841665  52.7527286 120.1283917  64.9114481  51.3158226
 114.7642216  46.6685193  52.5900086 114.8283543  47.5300024  52.1777483
 114.7009337  46.0559195  51.8572444 114.2394489  48.7408326  56.2373120
 114.8666528  48.3585403  56.8510644 113.3822408  48.5222528  56.6028812
 111.0160032  50.5484755  42.1691475 111.3113473  49.6395433  42.1158528
 110.1148067  50.5272494  41.8472477 114.5454279  48.6240751  48.1519023
 113.8240864  49.2376719  48.0126497 115.3347534  49.1598516  48.0735669
 117.3480592  45.9595178  54.4259675 117.8714994  46.2057474  55.1885984
 117.1292925  46.7915213  54.0062812 112.7447873  48.2298852  42.2930800
 112.4160579  47.3496231  42.1105906 113.0987244  48.1746521  43.1807189
 115.8589696  48.5171822  42.6606278 116.1985769  49.0457743  41.9384886
 116.3061817  48.8552228  43.4364844 118.5533137  46.9008873  52.1109346
 118.2129958  46.1016686  52.5130026 117.8472144  47.2010584  51.5386179
 119.2049609  43.9858185  50.5636669 120.0275678  43.5118664  50.4415559
 119.4487673  44.7648669  51.0635355 117.8457844  47.0146444  40.8599570
 118.5666206  47.3927697  40.3563287 117.2223148  47.7335321  40.9634548
 116.7288188  50.6777306  48.3728647 116.5832769  50.9917609  49.2652929
 116.2513391  51.2962206  47.8199546 118.5884571  47.6679854  48.4209537
 118.5746139  46.7720947  48.0841835 119.3056999  47.6750518  49.0547823
 120.4410701  48.1017194  50.4662664 120.1828479  49.0234265  50.4646995
 119.9095742  47.7047629  51.1563128 111.2033850  53.2182650  51.3116308
 110.6587318  53.9942458  51.4436583 112.0813200  53.5653455  51.1535430
 117.9921467  46.5494234  43.6897107 118.1137378  45.6210880  43.8887994
 117.7023509  46.5632920  42.7775422 120.8612657  44.2349145  46.8263827
 120.8834354  44.2988478  45.8715806 121.2780716  43.3953653  47.0204333
 111.9899872  52.3452547  54.2046465 111.2481608  52.4935182  54.7911096
 111.6692616  52.6060812  53.3413215 119.9343535  61.8868525  54.0026855
 120.2430661  61.6417672  54.8749555 120.7319017  62.0915163  53.5145726
 119.9564147  64.0406435  46.2332232 119.5169137  63.5482813  46.9265089
 120.7072264  63.4979402  45.9924307 112.4356486  60.2317975  46.2356860
 113.2614505  59.9321747  45.8555504 112.0850538  59.4625598  46.6846649
 117.4038019  59.5844444  48.3054534 116.7818028  58.9215149  48.0056761
 118.0742886  59.6105576  47.6228181 110.6365091  58.1504302  47.1945794
 109.7996999  57.7226476  47.0129795 110.6088736  58.3436745  48.1316585
 117.4762546  48.0626232  57.8987040 117.5250702  48.9388354  57.5164809
 118.0185060  47.5203625  57.3258683 116.9651526  58.1348367  41.7812994
 117.1139646  58.8183831  41.1279667 117.7717969  58.1153457  42.2962450
 119.7061835  48.8157604  54.6533398 118.8365144  49.1091170  54.3815987
 119.9421315  49.3998049  55.3740662 114.7204159  54.1613545  42.7874063
 114.4750201  53.2575875  42.9854273 114.8900073  54.1630695  41.8453541
 113.9899806  49.8941902  40.2860224 113.2969051  49.9686257  39.6300260
 113.7451558  49.1302246  40.8081741 120.4646931  60.6296497  39.2524742
 119.8920898  61.2486685  38.7995213 121.0379725  61.1795859  39.7864663
 119.0336647  49.8907287  36.5295679 118.1268102  49.5940399  36.6058393
 119.3112628  49.5937105  35.6629966 109.9514587  51.2113650  46.9794726
 109.6317372  50.3578958  46.6869100 109.4048015  51.4262228  47.7352693
 113.7294495  53.9276091  50.6964232 113.9480504  54.8593199  50.7152266
 114.1420269  53.5684065  51.4819036 120.6498713  44.4344176  42.6839921
 119.8399441  44.0891261  43.0595167 121.3383129  44.1251720  43.2727532
 118.6022360  49.5009297  60.0866981 118.5019087  50.4503654  60.0179072
 118.3843902  49.1727536  59.2143051 117.8035431  46.7494222  36.6707658
 118.6654595  47.0749120  36.9303476 117.9885776  45.9625718  36.1580724
 109.8202847  54.8316561  48.9487847 109.1266319  54.4170514  48.4357802
 110.5675838  54.8737098  48.3521266 118.4653630  52.9306436  58.9032043
 117.9820712  53.7306796  59.1095932 118.5514569  52.9414380  57.9499487
 111.7339590  54.7634815  46.8253862 111.7110278  54.8622502  45.8735745
 112.0440226  55.6099966  47.1471028 114.3926968  56.8210970  50.9400477
 115.3470221  56.7894913  50.8730408 114.1939491  56.3601594  51.7550702
 114.9826350  55.3912086  53.5071274 115.8019239  55.8856165  53.5306111
 115.2563157  54.4744054  53.4788842 112.7477196  62.3630590  47.9570674
 112.6131664  61.6030991  47.3908672 112.3309259  63.0871490  47.4899463
 115.9046322  63.2599907  48.1689117 115.7878706  64.2045339  48.0667807
 115.0838769  62.9573468  48.5574916 110.2361264  49.7250220  54.2063471
 110.8820128  49.2149174  54.6950696 110.0278415  50.4618902  54.7806897
 118.7564874  43.9890265  39.9587367 118.7443544  44.9332105  40.1155638
 119.6488296  43.8060410  39.6646829 116.9300836  63.9128169  51.3845045
 117.8328083  63.9451779  51.7011540 116.7038206  62.9828620  51.3991381
 118.6854438  62.6659155  48.0455124 117.7350069  62.6661017  47.9319496
 118.9886925  61.9191890  47.5291159 114.5758755  46.8717837  58.3038486
 115.4390217  46.5154642  58.5141810 114.0024166  46.5331732  58.9913890
 118.6477232  69.0711977  46.8220076 119.3348272  68.7573707  46.2341092
 118.4925361  69.9753342  46.5487328 118.2245209  67.1512570  49.0937543
 118.2629308  66.6176161  49.8874661 117.7185501  66.6247776  48.4748521
 121.4758845  73.4796220  47.1945794 120.6390753  73.0518394  47.0129795
 121.4482491  73.6728663  48.1316585 120.7908342  66.5405568  46.9794726
 120.4711126  65.6870876  46.6869100 120.2441770  66.7554146  47.7352693
 120.6596602  70.1608479  48.9487847 119.9660073  69.7462432  48.4357802
 121.4069593  70.2029016  48.3521266  95.8553285   9.8611191  30.6393869
  95.7777315  10.8119016  30.7182349  95.2514929   9.5157063  31.2968795
  93.4940115  12.6096585  34.7842071  93.7336713  13.2415109  35.4621089
  92.6509311  12.2584625  35.0707430  93.9684947   8.6344587  32.1140849
  93.2995322   9.1190715  31.6304889  93.8297817   8.8813807  33.0284228
  98.1090215  10.6688331  38.7123508  98.6608523  10.8319952  39.4772593
  98.4496409  11.2592768  38.0403532  91.0689689   8.7108877  34.6815981
  90.9344157   7.9509278  34.1153979  90.6521751   9.4349777  34.2144770
  94.2258815   9.6078194  34.8934424  94.1091199  10.5523626  34.7913114
  93.4051261   9.3051756  35.2820223  95.2513329  10.2606456  38.1090352
  96.1540575  10.2930066  38.4256847  95.0250699   9.3306907  38.1236688
 109.5509330  14.8025409  35.7707718 109.2127842  14.6866474  34.8828253
 110.4199099  14.4016574  35.7508724 105.4096146  16.6560885  31.7604609
 104.8461011  16.5650822  30.9920897 105.2948541  15.8360790  32.2407101
 110.0329113  15.9560261  41.7293923 110.0217754  15.5613059  40.8574427
 110.1949753  15.2226333  42.3227695 102.9560578  18.1512077  34.5988829
 103.7481870  17.8102902  34.1835129 103.1957228  18.2607052  35.5190983
 110.9895705  20.3231853  27.0719074 110.3383685  20.9085933  26.6853087
 111.7840068  20.8538048  27.1314111 104.9151332  17.4120990  27.4706208
 105.6882208  16.8649977  27.3319084 105.2676731  18.2765240  27.6820669
 106.7536375  18.7397372  40.6773107 106.4626241  19.6443003  40.5619774
 107.3893359  18.7813900  41.3917177 107.6792581  16.1174221  37.2674467
 108.2756154  15.8930243  36.5531430 107.7367553  15.3758966  37.8699915
 106.9713899  15.4741762  27.3049033 106.8550157  14.7986666  27.9730117
 107.0816158  14.9874136  26.4881186 109.3145439  14.9351909  31.0095722
 108.9503647  14.4082530  31.7208644 110.1712555  14.5450378  30.8362208
 111.7126260  18.4258788  37.6722901 111.4126983  19.3283827  37.5638708
 111.3677319  18.1590971  38.5244054 105.1638741  14.8772585  33.7059605
 104.2389238  14.7448799  33.9137297 105.4123154  15.6566804  34.2029548
 102.5247552  14.5205858  34.5403395 102.6539933  14.7740337  35.4542806
 101.8445003  15.1133566  34.2208050 106.6947039  25.1903108  30.6393869
 106.6171069  26.1410933  30.7182349 106.0908683  24.8448981  31.2968795
 107.4410642  15.1716427  42.8573203 108.1825326  15.7101471  42.5808026
 106.7347627  15.7982716  43.0144754 112.9165981  17.3145568  41.4545364
 113.3249337  16.8727978  40.7099996 112.1943243  16.7398195  41.7079557
 113.2394796  17.8746758  35.2097653 112.6103658  18.0392472  34.5073721
 112.8520458  18.2888368  35.9808617 117.1184028  18.8101196  32.5642017
 116.4335066  19.1900097  32.0139050 117.2027877  19.4196523  33.2973965
 114.3734959  16.4561155  39.1637360 114.5851855  17.0992915  38.4871741
 114.3264708  15.6223472  38.6959290 108.7922758  17.6121166  32.4747738
 109.2561103  17.8908869  31.6852361 108.5279556  16.7104611  32.2920829
 105.6846839  17.1592648  35.4127501 106.2548196  17.5879916  34.7744986
 106.2754951  16.8775233  36.1111687 101.4716978  11.9927871  34.5854437
 100.6816032  12.2485400  34.1094547 101.9628225  12.8076209  34.6906477
 115.4880787  19.3333111  37.3359718 116.3098231  18.9313298  37.0542399
 115.4843190  19.2301345  38.2875833 103.4231723  12.3572451  31.5437914
 102.6262886  12.4691145  32.0621409 103.1957315  12.6959103  30.6778804
 109.2537391  18.8817154  39.4920428 109.3181823  19.3437561  40.3278600
 108.5448315  18.2514519  39.6202738  99.7554681  12.2458362  37.0169428
 100.0062719  13.1305372  37.2827004 100.2914229  12.0662963  36.2444519
 108.9685408  20.5485261  29.3599408 108.8331083  21.3936797  29.7884256
 109.5095221  20.7504539  28.5965342 102.4214806  18.0660699  29.9327334
 102.9339326  18.8603950  30.0832898 103.0737519  17.3686990  29.8660935
 104.2309690  21.1826456  32.0150087 104.4076319  22.1044420  31.8271071
 105.0266524  20.8684875  32.4444467 103.5162047  13.2291087  41.8912250
 103.4015562  12.3276345  42.1919349 102.6606565  13.4754784  41.5397066
 110.5953885  21.1708828  43.4899751 110.1517739  20.3845206  43.1720655
 111.2571098  21.3587978  42.8243641 105.3541006  22.7004629  38.0160429
 105.9048431  22.5721693  37.2437423 104.5152482  22.9999518  37.6655322
 112.6935123  21.4511628  41.5181152 112.6753598  22.2720509  41.0261421
 113.6155043  21.3265703  41.7431293 109.1508177  18.9655757  42.3604660
 109.6836514  18.2044045  42.1303968 108.6222258  18.6729409  43.1028815
 100.3863723  16.3949354  30.7086904 101.2238945  16.8046362  30.4920612
 100.5641990  15.4548796  30.6787098 110.5160890  18.0941750  29.8723472
 109.9882251  17.3594509  29.5596710 110.0148392  18.8716426  29.6263441
 115.4953736  16.2890770  34.9890518 114.8377410  16.9790032  35.0770647
 116.2994135  16.6787202  35.3324505 111.5681569  24.6219467  25.7955131
 110.8943267  24.9251164  26.4040089 111.9547391  25.4248547  25.4460588
 115.0720991  19.6241144  31.1673603 114.6183318  18.7832054  31.2238793
 114.4414957  20.2602543  31.5048383 113.5153930  21.4617641  32.1023421
 113.8076904  22.0222698  31.3835787 114.0252551  21.7546202  32.8576580
 100.4089894  13.7340069  31.3797638 100.2114293  13.1409430  30.6548704
  99.8536558  13.4292279  32.0973576 108.4787555  22.2397992  33.1916874
 108.4363734  22.4658838  32.2625406 109.3950254  22.0061367  33.3402675
 117.6820305  17.8977023  35.8058104 118.1156812  17.8052312  36.6541158
 118.3951886  17.8734523  35.1678120 106.5953356  19.1161021  32.9878837
 107.3893954  18.6211341  32.7861412 105.8845048  18.5878884  32.6246543
 111.4148200  21.4979117  37.3391205 111.4685223  22.0670053  38.1068920
 110.5462982  21.6681002  36.9745242 102.9036119  13.2604103  29.0638590
 101.9733707  13.1988558  29.2808552 102.9993591  12.7380056  28.2675231
 118.5435855  17.9400723  38.3390989 118.7371745  18.8446534  38.5850264
 118.4436473  17.4808142  39.1729574 113.6050964  18.0907466  43.9131870
 113.4536470  17.8618018  42.9961954 113.5955643  19.0478067  43.9263215
 110.3736300  15.6639379  38.8978136 111.3028360  15.8150538  38.7247104
 109.9527330  15.7523399  38.0426783 109.1724632  19.6890043  36.6676674
 109.0335718  19.3208827  37.5402612 108.3839228  20.2037683  36.4960632
 109.7672784  24.7899140  28.0102211 109.9424540  24.3187183  28.8247833
 109.0805572  25.4164906  28.2383471 110.7229847  19.0671646  34.0565512
 110.3879680  19.0272416  34.9523162 110.2233793  18.4016362  33.5835922
 104.6974091  14.4739276  39.5818093 104.5593889  13.7419515  40.1829632
 105.6079014  14.3848176  39.3002281 107.3256392  14.1859235  39.0701773
 108.0356010  13.5452427  39.0288391 107.2825700  14.4372130  39.9927953
 115.3143170  21.1226588  41.9908352 115.2555717  20.4385809  41.3238935
 115.7162689  21.8645578  41.5388978 104.3333869  27.9388502  34.7842071
 104.5730467  28.5707026  35.4621089 103.4903066  27.5876542  35.0707430
 115.3160578  19.0866172  40.2222332 114.4287356  18.7492094  40.3448730
 115.8859129  18.3549204  40.4591097  96.9689725  15.4190264  33.5465383
  97.6560765  15.1051994  32.9586398  96.8137853  16.3231629  33.2732634
 108.8461731  23.7467625  37.1883575 108.7731903  24.5522596  37.7002879
 108.4039124  23.9459591  36.3631596 108.6351511  22.9839395  30.6986396
 107.8519033  23.5261075  30.7924621 109.3344256  23.5013374  31.0980637
 111.3060415  23.6454459  39.3441733 112.0188387  24.2801924  39.2717635
 110.8150443  23.7418325  38.5281735 113.0277941  17.5505711  30.9159025
 112.0934220  17.6707174  30.7463729 113.2054610  16.6478178  30.6519035
 106.3572328  21.3948902  40.1647304 107.0581788  22.0285385  40.3176698
 105.8867443  21.7363634  39.4042943 111.1180788  23.9853203  32.0928025
 111.3003182  23.1674859  32.5555777 111.9413774  24.2020895  31.6552915
 111.4522953  22.9121388  29.3543073 111.9810720  22.4013843  28.7413235
 111.7151173  22.5963918  30.2188606 110.2061187  14.6913321  44.4765892
 109.5301824  14.5907450  45.1468267 111.0288821  14.5352535  44.9401889
 101.9540046  20.9285257  37.0978407 102.5393483  20.1828945  37.2306311
 101.7564885  21.2389214  37.9815071 104.8078701  23.9636505  32.1140849
 104.1389077  24.4482632  31.6304889 104.6691571  24.2105725  33.0284228
  96.5457701  13.4990858  35.8182850  96.5841800  12.9654448  36.6119968
  96.0397994  12.9726063  35.1993827 108.9483970  25.9980248  38.7123508
 109.5002278  26.1611870  39.4772593 109.2890163  26.5884686  38.0403532
 113.7994844  20.8241506  44.5672162 114.3434748  21.4371464  44.0727117
 113.2181689  21.3821084  45.0839175 100.1766278  12.2254960  28.8936781
 100.4719720  11.3165638  28.8403835  99.2754314  12.2042699  28.5717784
 112.0852357  23.9462224  35.6987190 111.9603497  23.1451964  35.1898135
 112.7431448  24.4408417  35.2101160 114.1487266  21.7471244  37.3266740
 113.2017601  21.6276595  37.2545067 114.4970039  20.8593742  37.4093001
 111.1533699  21.5423960  33.5271092 111.0058661  20.6140667  33.7078662
 111.9787192  21.5644051  33.0428167 114.7567821  22.3652519  34.6135965
 115.6814368  22.1595380  34.4760416 114.5883124  22.1168920  35.5225306
 114.5463137  22.8838186  29.9698056 114.7200014  22.3184609  29.2171909
 115.0392028  23.6839081  29.7877546 100.3640097  14.8952855  38.0361615
  99.8193565  15.6712663  38.1681889 101.2419447  15.2423660  37.8780737
 101.1506119  14.0222752  40.9291772 100.4087855  14.1705387  41.5156402
 100.8298863  14.2831017  40.0658521 109.0949781  23.5638730  40.7272162
 109.4036908  23.3187877  41.5994862 109.8925263  23.7685368  40.2391032
 109.1170393  25.7176639  32.9577539 108.6775384  25.2253018  33.6510395
 109.8678510  25.1749607  32.7169614 101.5962732  21.9088180  32.9602167
 102.4220752  21.6091952  32.5800810 101.2456784  21.1395803  33.4091955
 106.5644265  21.2614649  35.0299840 105.9424275  20.5985354  34.7302068
 107.2349132  21.2875780  34.3473488  99.7971337  19.8274507  33.9191100
  98.9603246  19.3996681  33.7375101  99.7694983  20.0206950  34.8561891
 117.1223639  20.2837560  43.9033483 116.3319182  20.2661699  43.3637983
 116.8856993  20.8225853  44.6582520 106.1257772  19.8118572  28.5058301
 106.2745893  20.4954036  27.8524973 106.9324216  19.7923662  29.0207756
 118.7439711  19.5526968  41.4608233 118.4524519  19.9156948  42.2971694
 118.1311842  18.8393976  41.2821565 103.8810405  15.8383750  29.5119370
 103.6356447  14.9346080  29.7099580 104.0506320  15.8400900  28.5698848
 109.6253178  22.3066702  25.9770048 109.0527145  22.9256889  25.5240520
 110.1985972  22.8566064  26.5109970 109.8938669  17.6945261  44.7786758
 110.8141678  17.8723860  44.9726804 109.8588252  16.7501307  44.6266457
  99.1120834  12.8883855  33.7040032  98.7923618  12.0349163  33.4114406
  98.5654262  13.1032433  34.4598000 102.8900741  15.6046296  37.4209539
 103.1086751  16.5363404  37.4397573 103.3026515  15.2454270  38.2064343
  98.9809094  16.5086766  35.6733154  98.2872565  16.0940719  35.1603108
  99.7282085  16.5507303  35.0766573 107.6259877  14.6076640  45.6277349
 107.1426959  15.4077001  45.8341238 107.7120816  14.6184585  44.6744793
 100.8945836  16.4405020  33.5499169 100.8716525  16.5392707  32.5981052
 101.2046473  17.2870171  33.8716335 103.5533214  18.4981175  37.6645783
 104.5076468  18.4665118  37.5975715 103.3545738  18.0371799  38.4796009
 104.1432596  17.0682291  40.2316581 104.9625485  17.5626370  40.2551418
 104.4169404  16.1514259  40.2034148 101.9083443  24.0400795  34.6815981
 101.7737911  23.2801196  34.1153979 101.4915505  24.7641695  34.2144770
 105.0652569  24.9370112  34.8934424 104.9484953  25.8815544  34.7913114
 104.2445015  24.6343673  35.2820223  99.3967511  11.4020425  40.9308778
 100.0426374  10.8919379  41.4196003  99.1884662  12.1389107  41.5052203
 111.9220903  18.4701273  46.4300918 112.7912063  18.6441925  46.0687553
 111.4427654  19.2895689  46.3076648 106.0907083  25.5898374  38.1090352
 106.9934330  25.6221984  38.4256847 105.8644453  24.6598825  38.1236688
 107.8460685  24.3429360  34.7700431 106.8956316  24.3431222  34.6564803
 108.1493171  23.5962095  34.2536465 120.3903085  30.1317327  35.7707718
 120.0521596  30.0158391  34.8828253 121.2592853  29.7308492  35.7508724
 116.2489901  31.9852803  31.7604609 115.6854766  31.8942740  30.9920897
 116.1342296  31.1652707  32.2407101 120.8722868  31.2852178  41.7293923
 120.8611509  30.8904977  40.8574427 121.0343507  30.5518251  42.3227695
 113.7954333  33.4803995  34.5988829 114.5875624  33.1394819  34.1835129
 114.0350983  33.5898970  35.5190983 115.7545086  32.7412908  27.4706208
 116.5275962  32.1941895  27.3319084 116.1070485  33.6057157  27.6820669
 117.5930129  34.0689290  40.6773107 117.3019995  34.9734921  40.5619774
 118.2287113  34.1105818  41.3917177 118.5186336  31.4466139  37.2674467
 119.1149908  31.2222161  36.5531430 118.5761307  30.7050884  37.8699915
 117.8107653  30.8033680  27.3049033 117.6943911  30.1278583  27.9730117
 117.9209913  30.3166054  26.4881186 120.1539194  30.2643827  31.0095722
 119.7897401  29.7374448  31.7208644 121.0106310  29.8742296  30.8362208
 116.0032496  30.2064502  33.7059605 115.0782992  30.0740717  33.9137297
 116.2516909  30.9858722  34.2029548 113.3641307  29.8497776  34.5403395
 113.4933688  30.1032255  35.4542806 112.6838758  30.4425484  34.2208050
 117.5340794  40.5195026  30.6393869 117.4564824  41.4702851  30.7182349
 116.9302438  40.1740899  31.2968795 120.0258024  27.6922891  43.2955236
 119.2491358  28.2516812  43.2858100 120.6648587  28.1779674  43.8170106
 118.2804396  30.5008345  42.8573203 119.0219080  31.0393389  42.5808026
 117.5741381  31.1274634  43.0144754 120.1090806  27.5810092  38.8278921
 120.9552001  28.0049506  38.9713570 120.0489443  26.9243716  39.5217484
 119.6316512  32.9413084  32.4747738 120.0954858  33.2200787  31.6852361
 119.3673310  32.0396529  32.2920829 116.5240593  32.4884566  35.4127501
 117.0941950  32.9171834  34.7744986 117.1148705  32.2067150  36.1111687
 118.5685398  29.0636236  29.2837303 119.2709442  29.5157280  29.7511230
 118.2366027  28.4220055  29.9117196 117.0165760  27.6547993  43.6588513
 116.3864420  28.3364274  43.8923909 116.9101848  27.5431075  42.7141651
 112.3110732  27.3219789  34.5854437 111.5209786  27.5777318  34.1094547
 112.8021980  28.1368127  34.6906477 114.2625478  27.6864368  31.5437914
 113.4656641  27.7983062  32.0621409 114.0351070  28.0251020  30.6778804
 120.0931145  34.2109071  39.4920428 120.1575578  34.6729479  40.3278600
 119.3842069  33.5806436  39.6202738 110.5948435  27.5750279  37.0169428
 110.8456474  28.4597289  37.2827004 111.1307984  27.3954881  36.2444519
 119.8079163  35.8777179  29.3599408 119.6724838  36.7228715  29.7884256
 120.3488975  36.0796457  28.5965342 116.2946502  21.9568759  46.0213764
 115.9013448  21.4034957  46.6961408 117.1112643  22.2679337  46.4120281
 113.2608560  33.3952617  29.9327334 113.7733081  34.1895867  30.0832898
 113.9131273  32.6978907  29.8660935 115.0703445  36.5118373  32.0150087
 115.2470073  37.4336338  31.8271071 115.8660278  36.1976792  32.4444467
 119.2114463  23.3726638  43.6134020 119.9524177  23.9733791  43.5338483
 119.4432386  22.6304276  43.0552063 114.3555801  28.5583005  41.8912250
 114.2409317  27.6568262  42.1919349 113.5000319  28.8046702  41.5397066
 116.1934760  38.0296547  38.0160429 116.7442186  37.9013610  37.2437423
 115.3546236  38.3291436  37.6655322 119.9901931  34.2947675  42.3604660
 120.5230268  33.5335963  42.1303968 119.4616013  34.0021327  43.1028815
 111.2257477  31.7241271  30.7086904 112.0632699  32.1338280  30.4920612
 111.4035745  30.7840713  30.6787098 118.4811053  21.8551126  34.8613717
 119.3464049  21.6593934  34.5019606 118.5488562  21.6261477  35.7883074
 121.3554644  33.4233667  29.8723472 120.8276006  32.6886427  29.5596710
 120.8542147  34.2008344  29.6263441 116.0873372  24.0853334  32.2330084
 116.6617124  23.8628515  31.5003277 116.6744354  24.1542028  32.9858685
 111.2483648  29.0631987  31.3797638 111.0508048  28.4701347  30.6548704
 110.6930312  28.7584197  32.0973576 119.2280372  28.9555093  33.4992231
 119.2828982  28.0028929  33.4234707 118.4171574  29.1114532  33.9833529
 117.1672732  27.5732153  31.2582610 116.3540597  27.8726323  31.6647802
 117.6631726  27.1787842  31.9757092 119.3181310  37.5689910  33.1916874
 119.2757488  37.7950756  32.2625406 120.2344008  37.3353284  33.3402675
 116.6586806  25.1450508  36.8743844 117.2986186  25.0039267  36.1766808
 115.8264337  24.8585022  36.4982446 117.4347110  34.4452939  32.9878837
 118.2287709  33.9503259  32.7861412 116.7238803  33.9170802  32.6246543
 113.7429874  28.5896021  29.0638590 112.8127462  28.5280476  29.2808552
 113.8387346  28.0671973  28.2675231 113.6615423  25.1150833  31.6516831
 113.9222240  26.0296167  31.5425992 114.4832595  24.6475276  31.8013444
 115.1340348  26.5288591  38.8215656 115.8063402  26.3205953  38.1728305
 114.3070135  26.3310677  38.3820888 120.0118386  35.0181961  36.6676674
 119.8729472  34.6500745  37.5402612 119.2232983  35.5329600  36.4960632
 120.6066538  40.1191057  28.0102211 120.7818294  39.6479100  28.8247833
 119.9199326  40.7456823  28.2383471 121.5623602  34.3963563  34.0565512
 121.2273434  34.3564333  34.9523162 121.0627547  33.7308279  33.5835922
 115.5367846  29.8031193  39.5818093 115.3987643  29.0711432  40.1829632
 116.4472769  29.7140094  39.3002281 118.1650146  29.5151153  39.0701773
 118.8749765  28.8744345  39.0288391 118.1219454  29.7664048  39.9927953
 116.8779080  26.5016371  40.8897412 116.3416437  26.0507109  41.5419008
 116.2895789  26.6362280  40.1467876 115.1727624  43.2680420  34.7842071
 115.4124222  43.8998944  35.4621089 114.3296820  42.9168460  35.0707430
 107.8083479  30.7482182  33.5465383 108.4954519  30.4343912  32.9586398
 107.6531608  31.6523546  33.2732634 112.6118201  25.6372378  37.9750407
 112.5276390  25.0298048  37.2400817 111.7900908  26.1281397  37.9759903
 119.6855486  39.0759542  37.1883575 119.6125657  39.8814514  37.7002879
 119.2432879  39.2751508  36.3631596 119.4745265  38.3131312  30.6986396
 118.6912787  38.8552993  30.7924621 120.1738010  38.8305292  31.0980637
 119.3676884  26.2643325  33.0692286 118.9974672  25.7114365  33.7573192
 119.8635976  25.6601458  32.5167286 117.1966083  36.7240820  40.1647304
 117.8975542  37.3577303  40.3176698 116.7261198  37.0655551  39.4042943
 112.7933801  36.2577175  37.0978407 113.3787237  35.5120863  37.2306311
 112.5958639  36.5681132  37.9815071 115.6472456  39.2928422  32.1140849
 114.9782831  39.7774550  31.6304889 115.5085326  39.5397643  33.0284228
 107.3851455  28.8282775  35.8182850 107.4235555  28.2946366  36.6119968
 106.8791748  28.3017981  35.1993827 119.7877724  41.3272166  38.7123508
 120.3396032  41.4903787  39.4772593 120.1283918  41.9176604  38.0403532
 114.7642218  23.6747316  39.3145392 114.8283544  24.5362147  38.9022790
 114.7009338  23.0621317  38.5817751 114.2394490  25.7470448  42.9618427
 114.8666529  25.3647526  43.5755951 113.3822409  25.5284650  43.3274119
 111.0160033  27.5546877  28.8936781 111.3113474  26.6457556  28.8403835
 110.1148069  27.5334617  28.5717784 114.5454280  25.6302874  34.8764330
 113.8240866  26.2438842  34.7371803 115.3347536  26.1660639  34.7980976
 117.3480593  22.9657300  41.1504982 117.8714995  23.2119597  41.9131291
 117.1292927  23.7977335  40.7308119 112.7447875  25.2360975  29.0176107
 112.4160581  24.3558354  28.8351212 113.0987245  25.1808644  29.9052496
 115.8589698  25.5233945  29.3851584 116.1985770  26.0519866  28.6630193
 116.3061818  25.8614351  30.1610151 118.5533139  23.9070996  38.8354652
 118.2129959  23.1078809  39.2375332 117.8472145  24.2072706  38.2631485
 119.2049610  20.9920308  37.2881975 120.0275680  20.5180786  37.1660866
 119.4487674  21.7710792  37.7880662 116.7288189  27.6839429  35.0973954
 116.5832770  27.9979732  35.9898235 116.2513393  28.3024329  34.5444853
 118.5884572  24.6741977  35.1454843 118.5746141  23.7783070  34.8087141
 119.3057000  24.6812640  35.7793130 120.4410703  25.1079317  37.1907971
 120.1828481  26.0296387  37.1892301 119.9095743  24.7109751  37.8808435
 111.2033851  30.2244773  38.0361615 110.6587319  31.0004581  38.1681889
 112.0813201  30.5715577  37.8780737 111.9899873  29.3514669  40.9291772
 111.2481609  29.4997305  41.5156402 111.6692617  29.6122935  40.0658521
 119.9343536  38.8930647  40.7272162 120.2430662  38.6479794  41.5994862
 120.7319018  39.0977286  40.2391032 119.9564148  41.0468557  32.9577539
 119.5169138  40.5544936  33.6510395 120.7072265  40.5041525  32.7169614
 112.4356487  37.2380098  32.9602167 113.2614507  36.9383870  32.5800810
 112.0850539  36.4687720  33.4091955 117.4038020  36.5906566  35.0299840
 116.7818029  35.9277271  34.7302068 118.0742887  36.6167698  34.3473488
 110.6365092  35.1566424  33.9191100 109.7997000  34.7288599  33.7375101
 110.6088737  35.3498868  34.8561891 117.4762547  25.0688354  44.6232346
 117.5250703  25.9450477  44.2410116 118.0185062  24.5265747  44.0503989
 116.9651527  35.1410490  28.5058301 117.1139647  35.8245954  27.8524973
 117.7717970  35.1215580  29.0207756 119.7061836  25.8219727  41.3778705
 118.8365145  26.1153293  41.1061293 119.9421316  26.4060172  42.0985969
 114.7204160  31.1675667  29.5119370 114.4750202  30.2637997  29.7099580
 114.8900074  31.1692818  28.5698848 113.9899807  26.9004025  27.0105531
 113.2969052  26.9748380  26.3545567 113.7451559  26.1364368  27.5327048
 120.4646932  37.6358620  25.9770048 119.8920899  38.2548807  25.5240520
 121.0379726  38.1857982  26.5109970 109.9514588  28.2175773  33.7040032
 109.6317373  27.3641081  33.4114406 109.4048017  28.4324351  34.4598000
 113.7294496  30.9338214  37.4209539 113.9480506  31.8655321  37.4397573
 114.1420270  30.5746188  38.2064343 118.6022361  26.5071419  46.8112288
 118.5019088  27.4565776  46.7424379 118.3843903  26.1789658  45.9388358
 109.8202848  31.8378684  35.6733154 109.1266320  31.4232637  35.1603108
 110.5675839  31.8799221  35.0766573 118.4653631  29.9368558  45.6277349
 117.9820713  30.7368918  45.8341238 118.5514570  29.9476503  44.6744793
 111.7339591  31.7696938  33.5499169 111.7110279  31.8684625  32.5981052
 112.0440227  32.6162089  33.8716335 114.3926969  33.8273093  37.6645783
 115.3470222  33.7957035  37.5975715 114.1939492  33.3663717  38.4796009
 114.9826351  32.3974209  40.2316581 115.8019240  32.8918288  40.2551418
 115.2563159  31.4806177  40.2034148 112.7477198  39.3692712  34.6815981
 112.6131666  38.6093113  34.1153979 112.3309260  40.0933612  34.2144770
 115.9046323  40.2662029  34.8934424 115.7878708  41.2107462  34.7913114
 115.0838770  39.9635591  35.2820223 110.2361265  26.7312343  40.9308778
 110.8820129  26.2211297  41.4196003 110.0278416  27.4681024  41.5052203
 116.9300838  40.9190291  38.1090352 117.8328084  40.9513902  38.4256847
 116.7038208  39.9890742  38.1236688 118.6854440  39.6721278  34.7700431
 117.7350071  39.6723139  34.6564803 118.9886926  38.9254012  34.2536465
 114.5758756  23.8779960  45.0283792 115.4390218  23.5216765  45.2387117
 114.0024167  23.5393855  45.7159196 118.6477234  46.0774100  33.5465383
 119.3348274  45.7635830  32.9586398 118.4925362  46.9815464  33.2732634
 118.2245210  44.1574693  35.8182850 118.2629309  43.6238284  36.6119968
 117.7185503  43.6309898  35.1993827 121.4758846  50.4858342  33.9191100
 120.6390755  50.0580516  33.7375101 121.4482492  50.6790785  34.8561891
 120.7908343  43.5467690  33.7040032 120.4711127  42.6932998  33.4114406
 120.2441771  43.7616268  34.4598000 120.6596603  47.1670602  35.6733154
 119.9660074  46.7524555  35.1603108 121.4069594  47.2091138  35.0766573
   3.1744016  55.2803308 105.4483288   2.5005715  55.5835005 106.0568246
   3.5609838  56.0832388 105.0988746   7.1400757  52.8588791 106.7223112
   7.8351662  53.4795484 106.9410426   7.4823907  52.0084143 106.9975490
   1.2315625  52.9650543 105.6298205   0.6589593  53.5840730 105.1768677
   1.8048419  53.5149905 106.1638127   4.4512885  53.2487693 106.7606788
   5.3843558  53.1833255 106.9639663   4.3636098  54.0843960 106.3021320
   7.0800902  52.5653563 103.7210735   7.0014533  52.2313427 104.6146493
   7.9010569  53.0575331 103.7202207   4.6504854  49.8821559 103.3420713
   5.3540704  50.0871561 103.9578369   3.9267502  50.4498321 103.6069797
   6.5591551  50.3204088 105.3919173   7.3937155  49.8885287 105.2096648
   6.3975894  50.1486102 106.3196068  15.1875826  60.8373739 115.4874350
  15.8254236  60.7180487 114.7837690  15.0696669  61.7854583 115.5462302
   7.8552348  62.6436644 111.4132766   7.2917213  62.5526581 110.6449054
   7.7404743  61.8236548 111.8935258  13.4351907  66.3107611 106.7247231
  12.7839887  66.8961692 106.3381245  14.2296270  66.8413806 106.7842268
   7.3607534  63.3996749 107.1234365   8.1338410  62.8525736 106.9847241
   7.7132933  64.2640998 107.3348827   9.6973812  59.5589415 104.7552815
   9.9499333  59.0370936 103.9936278   8.7598371  59.3955560 104.8579499
  14.7417095  58.5625193 112.5627558  15.5280184  58.1444616 112.2117975
  15.0055799  59.4671285 112.7309207  14.9127172  63.9998043 107.2616215
  14.2773005  64.0732670 107.9737120  14.5824578  64.5891642 106.5835294
  20.1425522  58.5000426 113.4660537  20.8750694  57.9299643 113.6998366
  19.3864878  58.1122027 113.9067042   9.4170101  61.4617521 106.9577190
   9.3006359  60.7862424 107.6258274   9.5272360  60.9749895 106.1409343
  11.7601642  60.9227668 110.6623879  11.3959849  60.3958289 111.3736801
  12.6168757  60.5326137 110.4890365  11.4007129  55.9517567 105.6585228
  11.5681531  56.8197804 106.0255699  11.2104298  56.1144849 104.7346517
  11.3796349  58.4075225 106.6431895  11.2595975  58.8532276 107.4817375
  10.6848938  58.7560543 106.0845433   9.1403241  71.1778867 110.2922026
   9.0627271  72.1286692 110.3710506   8.5364885  70.8324739 110.9496952
  17.0781416  58.8796698 107.4712229  17.9899272  59.1124085 107.2959926
  16.5691063  59.4633742 106.9087307  15.6850998  63.8622517 114.8625810
  15.0559860  64.0268231 114.1601878  15.2976660  64.2764126 115.6336774
  19.5640230  64.7976954 112.2170174  18.8791268  65.1775856 111.6667207
  19.6484079  65.4072281 112.9502122  11.2378960  63.5996925 112.1275895
  11.7017305  63.8784628 111.3380518  10.9735758  62.6980369 111.9448986
  10.1747846  59.7220077 108.9365460  10.8771889  60.1741121 109.4039387
   9.8428474  59.0803896 109.5645353  17.9336989  65.3208869 116.9887875
  18.7554433  64.9189056 116.7070556  17.9299392  65.2177103 117.9403991
  26.0242982  61.6647617 113.3372846  25.2706691  61.0955015 113.1816851
  26.1590524  61.6310282 114.2843481  11.4141610  66.5361020 109.0127566
  11.2787285  67.3812555 109.4412413  11.9551423  66.7380297 108.2493499
   4.8671008  64.0536458 109.5855491   5.3795528  64.8479708 109.7361055
   5.5193721  63.3562748 109.5189092   6.6765893  67.1702214 111.6678244
   6.8532521  68.0920179 111.4799228   7.4722726  66.8560633 112.0972624
   2.8319925  62.3825112 110.3615061   3.6695147  62.7922120 110.1448769
   3.0098192  61.4424554 110.3315255  14.7284357  60.0500193 106.0498894
  14.2130980  60.8204797 106.2887282  14.4561665  59.3765329 106.6731956
  12.3131468  54.8949893 111.1084133  11.4573064  54.5056744 110.9289771
  12.7258419  54.9741854 110.2483918  19.7018631  62.8032547 107.9852068
  18.9248074  62.4643707 107.5407230  20.3810112  62.8085170 107.3107033
  14.5170660  57.9227285 107.8758675  14.2120795  58.2373434 108.7268818
  15.4701102  58.0008705 107.9186008  12.9617092  64.0817508 109.5251629
  12.4338453  63.3470268 109.2124867  12.4604594  64.8592184 109.2791598
  17.9409938  62.2766529 114.6418676  17.2833612  62.9665790 114.7298804
  18.7450337  62.6662960 114.9852662  16.7515397  60.6310901 112.6922617
  17.2647278  61.2640893 113.1944327  17.4016620  60.0312097 112.3265977
   8.0205406  56.7741635 105.9054126   7.1842719  57.1116322 106.2263401
   7.8810176  56.6390615 104.9681263  11.1069692  61.8997718 102.5286602
  10.1996754  61.6686972 102.7277751  11.6040724  61.1035338 102.7160584
  14.0137771  70.6095226 105.4483288  13.3399470  70.9126922 106.0568246
  14.4003593  71.4124306 105.0988746  14.0131275  59.5051772 110.0683638
  14.7603094  60.0173170 109.7590760  14.2822865  59.1835825 110.9288032
  12.2857925  62.0010313 107.0510592  11.3769145  61.7169346 107.1483062
  12.3153009  62.4209392 106.1913899  17.5177193  65.6116903 110.8201760
  17.0639520  64.7707813 110.8766950  16.8871159  66.2478301 111.1576540
  16.4610112  56.5408889 112.0502427  15.7232869  56.0286275 112.3812670
  16.7136886  56.1009270 111.2385704  15.9610132  67.4493399 111.7551578
  16.2533106  68.0098456 111.0363944  16.4708753  67.7421960 112.5104737
  10.8342819  59.6138934 113.1520388  10.8891429  58.6612770 113.0762864
  10.0234021  59.7698373 113.6361686  11.9834013  63.5419057 104.3898671
  11.5453443  62.8254916 103.9304308  12.7244454  63.7695172 103.8283762
   8.7735179  58.2315994 110.9110767   7.9603045  58.5310164 111.3175959
   9.2694173  57.8371682 111.6285249  10.9243757  68.2273750 112.8445031
  10.8819936  68.4534597 111.9153563  11.8406456  67.9937125 112.9930832
  20.1007128  61.8176254 110.4474990  19.9625027  62.0077850 109.5196179
  19.7443347  62.5795637 110.9043041  20.1276508  63.8852781 115.4586261
  20.5613014  63.7928070 116.3069315  20.8408088  63.8610281 114.8206277
   9.0409558  65.1036779 112.6406994   9.8350156  64.6087100 112.4389569
   8.3301250  64.5754643 112.2774700   5.3492321  59.2479861 108.7166747
   4.4189910  59.1864317 108.9336709   5.4449793  58.7255814 107.9203388
  20.9892057  63.9276482 117.9919146  21.1827947  64.8322292 118.2378421
  20.8892675  63.4683901 118.8257731  12.2128986  70.7774898 107.6630368
  12.3880742  70.3062941 108.4775990  11.5261774  71.4040664 107.8911628
  13.1686049  65.0547404 113.7093669  12.8335882  65.0148174 114.6051319
  12.6689995  64.3892120 113.2364079  16.1045241  62.4003438 103.9830729
  15.4874411  61.6750267 103.8863781  15.6361729  63.1612799 103.6397803
   7.8943787  56.6188863 103.1052033   7.0173253  56.4977664 102.7414280
   8.3701540  55.8274941 102.8530922  11.0807713  68.9715153 110.3514553
  10.2975235  69.5136833 110.4452778  11.7800458  69.4889133 110.7508795
  22.2434120  60.4850148 114.6367050  22.2323996  61.3674864 114.2660983
  21.3751500  60.1321699 114.4421587  15.4734143  63.5381470 110.5687182
  14.5390422  63.6582932 110.3991886  15.6510812  62.6353937 110.3047192
  18.8606695  59.3798789 111.1037216  19.3267147  60.2126781 111.0297519
  19.3114195  58.9143771 111.8082475  16.9282926  65.7242610 108.1023368
  17.2042770  65.6099205 109.0117242  16.0587425  65.3260095 108.0635541
  13.5636990  69.9728961 111.7456182  13.7459385  69.1550617 112.2083934
  14.3869976  70.1896654 111.3081072  13.8979155  68.8997146 109.0071230
  14.4266922  68.3889601 108.3941393  14.1607375  68.5839677 109.8716763
   2.6222481  58.2130718 108.5464939   2.9175922  57.3041396 108.4931992
   1.7210516  58.1918457 108.2245941  14.5308559  69.9337982 115.3515347
  14.4059699  69.1327722 114.8426292  15.1887650  70.4284175 114.8629317
  16.5943468  67.7347002 116.9794897  15.6473803  67.6152353 116.9073224
  16.9426241  66.8469500 117.0621158  13.5989901  67.5299718 113.1799249
  13.4514863  66.6016426 113.3606819  14.4243394  67.5519809 112.6956324
   7.4652145  56.1817785 109.0379741   7.8048218  56.7103707 108.3158350
   7.9124266  56.5198192 109.8138308  17.2024023  68.3528277 114.2664122
  18.1270570  68.1471138 114.1288573  17.0339326  68.1044678 115.1753463
   9.4520292  54.6792407 107.2373034  10.1728655  55.0573660 106.7336751
   8.8285597  55.3981284 107.3408012  13.5951415  55.3837556 108.1731366
  13.8115030  56.2662194 107.8720195  13.1145482  54.9923769 107.4437008
  16.9919339  68.8713945 109.6226213  17.1656217  68.3060367 108.8700066
  17.4848230  69.6714839 109.4405703  22.8458730  61.6350368 111.2416513
  23.2889876  60.8857693 110.8435636  21.9685240  61.6260504 110.8590245
  17.9794511  68.1880709 106.7223112  18.6745416  68.8087402 106.9410426
  18.3217662  67.3376060 106.9975490  19.8785935  65.6380415 108.2510442
  20.4037259  65.9767687 107.5259762  19.7908287  64.7027430 108.0673577
   8.5713974  65.7994330 108.1586458   8.7202095  66.4829795 107.5053131
   9.3780418  65.7799420 108.6735914  22.3891595  63.1055606 113.6338961
  23.2238486  63.5445410 113.7976521  22.5250724  62.6294259 112.8147206
   6.3266607  61.8259508 109.1647527   6.0812649  60.9221838 109.3627737
   6.4962522  61.8276658 108.2227005   5.5962255  57.5587865 106.6633688
   4.9031500  57.6332220 106.0073724   5.3514007  56.7948209 107.1855205
  12.0709380  68.2942461 105.6298205  11.4983347  68.9132648 105.1768677
  12.6442174  68.8441822 106.1638127  15.2906640  68.5779611 106.7606788
  16.2237313  68.5125172 106.9639663  15.2029853  69.4135878 106.3021320
  17.9194656  67.8945481 103.7210735  17.8408288  67.5605345 104.6146493
  18.7404323  68.3867249 103.7202207  20.6172848  60.7607220 116.9287054
  20.5849168  59.8223221 117.1146738  21.2273471  60.8391257 116.1952879
  12.4556178  59.6303273 102.9714258  13.4015283  59.5009482 103.0402676
  12.0770423  58.8917935 103.4483686  26.4349397  61.8223227 116.0693091
  27.1652786  61.5608515 116.6300794  25.8256343  61.0851949 116.1095158
  24.5164695  59.9631090 116.6667542  23.7897858  59.8287055 116.0584033
  24.1011981  60.2707919 117.4724260  10.6399096  57.5553250 102.9069143
   9.7330551  57.2586363 102.9831857  10.9175077  57.2583068 102.0403429
  12.2561161  52.0990140 109.0613384  11.4461890  51.7537225 109.4368630
  12.9445578  51.7897683 109.6500996   9.4097880  54.4140185 103.0481122
  10.2717044  54.7395083 103.3076940   9.5948224  53.6271681 102.5354188
  17.5630517  53.2868712 110.1916345  16.9829186  53.9453516 109.8094398
  17.2966449  52.4646056 109.7803763  16.3455395  55.4468802 109.2472693
  15.4581250  55.7318453 109.0292888  16.7609384  55.2862565 108.3999970
  19.6969931  55.4715323 112.9627033  20.4730321  55.9611775 113.2351650
  18.9718065  55.8973377 113.4198902  22.1342489  56.1842942 114.0200973
  22.7286980  55.9438678 113.3094282  22.2069073  55.4650073 114.6474510
  15.4898608  65.2113477 103.3420713  16.1934458  65.4163479 103.9578369
  14.7661257  65.7790238 103.6069797  16.3196418  60.9623338 109.4622984
  16.2631620  61.4191889 108.6230616  16.8724761  60.2014022 109.2845826
  20.1301224  56.7513070 110.2873103  19.8738159  56.3509705 111.1181311
  19.5054092  57.4656864 110.1623242  24.4413562  59.4909143 112.7944395
  23.8813120  59.5602332 113.5675957  23.8357066  59.3150128 112.0743891
  17.3985306  65.6496006 105.3919173  18.2330910  65.2177204 105.2096648
  17.2369649  65.4778019 106.3196068  17.0531198  62.1528119 106.7575513
  16.9980002  61.9872390 105.8163957  16.4277253  62.8604152 106.9137702
  10.3627323  51.6536228 106.3360831  10.3505993  52.5978068 106.4929102
  11.2550745  51.4706373 106.0420292  26.0269581  76.1665657 115.4874350
  26.6647991  76.0472404 114.7837690  25.9090424  77.1146501 115.5462302
  22.8359287  76.1193085 115.4235875  22.4977798  76.0034150 114.5356410
  23.7049055  75.7184250 115.4036881  18.6946103  77.9728561 111.4132766
  18.1310968  77.8818498 110.6449054  18.5798498  77.1528466 111.8935258
  24.2745661  81.6399529 106.7247231  23.6233641  82.2253610 106.3381245
  25.0690024  82.1705724 106.7842268  18.2001289  78.7288666 107.1234365
  18.9732165  78.1817653 106.9847241  18.5526687  79.5932916 107.3348827
  20.9642538  77.4341897 116.9202624  21.5606110  77.2097919 116.2059587
  21.0217509  76.6926643 117.5228072  20.5367566  74.8881332 104.7552815
  20.7893087  74.3662854 103.9936278  19.5992125  74.7247478 104.8579499
  25.5810849  73.8917111 112.5627558  26.3673938  73.4736534 112.2117975
  25.8449553  74.7963203 112.7309207  25.7520927  79.3289961 107.2616215
  25.1166760  79.4024588 107.9737120  25.4218333  79.9183560 106.5835294
  30.9819276  73.8292344 113.4660537  31.7144448  73.2591561 113.6998366
  30.2258632  73.4413944 113.9067042  20.2563855  76.7909438 106.9577190
  20.1400113  76.1154342 107.6258274  20.3666115  76.3041812 106.1409343
  22.5995396  76.2519585 110.6623879  22.2353603  75.7250206 111.3736801
  23.4562512  75.8618054 110.4890365  28.5044697  67.5413918 117.9255145
  28.1728021  68.4109329 117.7016360  27.9090310  67.2250202 118.6049176
  22.2400883  71.2809485 105.6585228  22.4075285  72.1489722 106.0255699
  22.0498052  71.4436767 104.7346517  24.9976216  79.7426464 117.3251058
  24.6976939  80.6451503 117.2166865  24.6527276  79.4758647 118.1772211
  18.4488698  76.1940261 113.3587763  17.5239194  76.0616475 113.5665454
  18.6973111  76.9734480 113.8557705  28.3973360  72.2609004 115.0048495
  27.4890237  72.1924413 114.7107256  28.3460956  72.7380949 115.8330321
  22.2190104  73.7367143 106.6431895  22.0989729  74.1824193 107.4817375
  21.5242692  74.0852460 106.0845433  19.9796996  86.5070784 110.2922026
  19.9021026  87.4578609 110.3710506  19.3758640  86.1616657 110.9496952
  30.2635006  70.4625443 116.7826369  29.6209387  70.7557976 116.1366164
  29.7589935  70.3478363 117.5879566  27.9175170  74.2088616 107.4712229
  28.8293026  74.4416003 107.2959926  27.4084817  74.7925660 106.9087307
  22.5547008  73.5685850 118.4807078  23.4008203  73.9925264 118.6241727
  22.4945645  72.9119475 119.1745641  26.5244752  79.1914434 114.8625810
  25.8953615  79.3560148 114.1601878  26.1370414  79.6056044 115.6336774
  30.4033984  80.1268872 112.2170174  29.7185022  80.5067773 111.6667207
  30.4877834  80.7364199 112.9502122  25.7046453  71.2290219 120.1388252
  25.4607385  71.9832279 119.6022527  25.9806384  71.6075566 120.9735499
  27.6584916  77.7728831 118.8165517  27.8701811  78.4160591 118.1399898
  27.6114664  76.9391148 118.3487447  25.2611145  70.3846652 115.7202090
  24.3995624  70.6827905 116.0118827  25.2873579  70.6017051 114.7883122
  22.0772714  78.9288842 112.1275895  22.5411060  79.2076545 111.3380518
  21.8129512  78.0272287 111.9448986  18.9696795  78.4760324 115.0655658
  19.5398152  78.9047592 114.4273143  19.5604907  78.1942909 115.7639844
  21.0141600  75.0511995 108.9365460  21.7165644  75.5033038 109.4039387
  20.6822229  74.4095814 109.5645353  14.7566934  73.3095547 114.2382594
  13.9665988  73.5653076 113.7622705  15.2478182  74.1243885 114.3434634
  28.7730744  80.6500787 116.9887875  29.5948188  80.2480974 116.7070556
  28.7693147  80.5469021 117.9403991  16.7081680  73.6740127 111.1966071
  15.9112843  73.7858821 111.7149566  16.4807272  74.0126779 110.3306961
  36.8636737  76.9939535 113.3372846  36.1100445  76.4246933 113.1816851
  36.9984278  76.9602200 114.2843481  22.2535365  81.8652937 109.0127566
  22.1181040  82.7104473 109.4412413  22.7945177  82.0672215 108.2493499
  15.7064762  79.3828375 109.5855491  16.2189283  80.1771626 109.7361055
  16.3587475  78.6854666 109.5189092  17.5159647  82.4994132 111.6678244
  17.6926275  83.4212096 111.4799228  18.3116481  82.1852551 112.0972624
  25.6027828  65.3883499 117.5426459  25.2592098  66.2785141 117.4665570
  25.9706791  65.1985157 116.6796044  13.6713679  77.7117030 110.3615061
  14.5088901  78.1214038 110.1448769  13.8491947  76.7716472 110.3315255
  25.5678111  75.3792110 106.0498894  25.0524735  76.1496715 106.2887282
  25.2955420  74.7057246 106.6731956  23.1525222  70.2241811 111.1084133
  22.2966819  69.8348661 110.9289771  23.5652174  70.3033772 110.2483918
  24.6824369  67.7588154 115.5075692  24.1789164  67.7218290 114.6943498
  24.9754976  68.6680897 115.5672349  20.9267255  67.8426884 114.5141874
  21.7920252  67.6469693 114.1547763  20.9944764  67.6137236 115.4411231
  30.5412385  78.1324465 107.9852068  29.7641828  77.7935624 107.5407230
  31.2203866  78.1377088 107.3107033  25.3564414  73.2519202 107.8758675
  25.0514550  73.5665352 108.7268818  26.3094856  73.3300622 107.9186008
  23.8010846  79.4109426 109.5251629  23.2732208  78.6762185 109.2124867
  23.2998349  80.1884102 109.2791598  28.7803692  77.6058446 114.6418676
  28.1227367  78.2957708 114.7298804  29.5844091  77.9954878 114.9852662
  18.5329574  70.0729092 111.8858241  19.1073326  69.8504274 111.1531434
  19.1200556  70.1417787 112.6386842  27.5909151  75.9602819 112.6922617
  28.1041033  76.5932811 113.1944327  28.2410375  75.3604014 112.3265977
  18.8599161  72.1033553 105.9054126  18.0236473  72.4408240 106.2263401
  18.7203931  71.9682533 104.9681263  20.8352242  66.9470341 110.6133310
  20.1816654  66.6319358 109.9889925  20.7932716  66.3246081 111.3393133
  21.9463446  77.2289636 102.5286602  21.0390508  76.9978889 102.7277751
  22.4434478  76.4327255 102.7160584  24.8531525  85.9387143 105.4483288
  24.1793224  86.2418840 106.0568246  25.2397347  86.7416224 105.0988746
  24.0689982  73.4352274 114.9380958  23.1512543  73.6567221 114.7802646
  24.4850126  73.5098585 114.0792665  24.8525030  74.8343690 110.0683638
  25.5996849  75.3465087 109.7590760  25.1216619  74.5127743 110.9288032
  23.1251680  77.3302231 107.0510592  22.2162899  77.0461264 107.1483062
  23.1546764  77.7501309 106.1913899  28.3570947  80.9408820 110.8201760
  27.9033274  80.0999730 110.8766950  27.7264914  81.5770219 111.1576540
  27.3003867  71.8700806 112.0502427  26.5626624  71.3578193 112.3812670
  27.5530640  71.4301188 111.2385704  26.8003886  82.7785317 111.7551578
  27.0926861  83.3390374 111.0363944  27.3102507  83.0713878 112.5104737
  27.4015494  64.6477058 112.6444197  27.7074371  63.7874422 112.3570112
  28.1268099  65.2394679 112.4443191  13.6939850  75.0507745 111.0325795
  13.4964250  74.4577106 110.3076861  13.1386514  74.7459955 111.7501733
  21.6736574  74.9430851 113.1520388  21.7285184  73.9904688 113.0762864
  20.8627776  75.0990291 113.6361686  22.8227768  78.8710975 104.3898671
  22.3847198  78.1546833 103.9304308  23.5638208  79.0987089 103.8283762
  19.6128934  73.5607911 110.9110767  18.7996799  73.8602082 111.3175959
  20.1087928  73.1663600 111.6285249  21.7637512  83.5565668 112.8445031
  21.7213690  83.7826514 111.9153563  22.6800211  83.3229043 112.9930832
  25.2103145  74.0249736 119.7425661  25.5652533  74.2521209 120.6020126
  25.8575277  74.3568112 119.1202916  30.9400882  77.1468172 110.4474990
  30.8018781  77.3369768 109.5196179  30.5837101  77.9087554 110.9043041
  19.1043009  71.1326267 116.5272002  19.7442388  70.9915026 115.8294965
  18.2720539  70.8460780 116.1510604  30.9670262  79.2144699 115.4586261
  31.4006769  79.1219988 116.3069315  31.6801843  79.1902199 114.8206277
  19.8803312  80.4328697 112.6406994  20.6743911  79.9379017 112.4389569
  19.1695005  79.9046560 112.2774700  16.1886076  74.5771779 108.7166747
  15.2583664  74.5156234 108.9336709  16.2843548  74.0547732 107.9203388
  16.1071625  71.1026592 111.3044988  16.3678442  72.0171925 111.1954149
  16.9288797  70.6351034 111.4541601  31.8285812  79.2568399 117.9919146
  32.0221702  80.1614210 118.2378421  31.7286430  78.7975818 118.8257731
  23.4822122  69.1426290 120.4909474  22.8350037  69.8416239 120.3973950
  24.2523138  69.5762434 120.8585722  23.6586257  76.9807055 118.5506294
  24.5878317  77.1318214 118.3775261  23.2377287  77.0691076 117.6954940
  23.0522740  86.1066816 107.6630368  23.2274496  85.6354859 108.4775990
  22.3655528  86.7332582 107.8911628  24.0079804  80.3839322 113.7093669
  23.6729636  80.3440092 114.6051319  23.5083749  79.7184038 113.2364079
  26.9438995  77.7295356 103.9830729  26.3268166  77.0042184 103.8863781
  26.4755484  78.4904716 103.6397803  18.7337541  71.9480780 103.1052033
  17.8567007  71.8269581 102.7414280  19.2095294  71.1566859 102.8530922
  28.6010534  80.4033848 119.8750489  27.7137313  80.0659770 119.9976887
  29.1709085  79.6716880 120.1119254  21.9201467  84.3007071 110.3514553
  21.1368989  84.8428751 110.4452778  22.6194212  84.8181050 110.7508795
  25.2298117  70.1101700 112.9948759  25.7266817  69.3571663 112.6749829
  24.4585099  70.1466017 112.4291968  33.0827875  75.8142066 114.6367050
  33.0717751  76.6966781 114.2660983  32.2145254  75.4613617 114.4421587
  26.3127898  78.8673388 110.5687182  25.3784177  78.9874850 110.3991886
  26.4904566  77.9645854 110.3047192  21.8133086  72.2519083 112.7220443
  21.4430874  71.6990124 113.4101349  22.3092179  71.6477217 112.1695443
  29.7000449  74.7090707 111.1037216  30.1660902  75.5418698 111.0297519
  30.1507950  74.2435688 111.8082475  27.7676680  81.0534528 108.1023368
  28.0436524  80.9391123 109.0117242  26.8981179  80.6552013 108.0635541
  27.6717112  67.0771294 115.1428118  26.7580192  67.3075521 115.3110325
  28.1010214  67.1609738 115.9942150  27.4423571  75.2661186 117.6428012
  26.7895021  75.5137093 116.9880464  27.8203950  74.4525324 117.3090489
  24.4030744  85.3020879 111.7456182  24.5853139  84.4842535 112.2083934
  25.2263730  85.5188571 111.3081072  24.7372910  84.2289064 109.0071230
  25.2660676  83.7181519 108.3941393  25.0001130  83.9131594 109.8716763
  17.2098420  69.6623074 118.9673549  17.2739746  70.5237905 118.5550947
  17.1465540  69.0497076 118.2345908  13.4616235  73.5422636 108.5464939
  13.7569676  72.6333314 108.4931992  12.5604271  73.5210375 108.2245941
  25.3702314  85.2629900 115.3515347  25.2453453  84.4619640 114.8426292
  26.0281405  85.7576093 114.8629317  16.9910482  71.6178632 114.5292487
  16.2697068  72.2314600 114.3899960  17.7803738  72.1536397 114.4509133
  27.4337222  83.0638920 116.9794897  26.4867558  82.9444271 116.9073224
  27.7819995  82.1761418 117.0621158  19.7936796  68.9533059 120.8033139
  20.3171197  69.1995355 121.5659448  19.5749129  69.7853094 120.3836276
  15.1904077  71.2236733 108.6704264  14.8616783  70.3434112 108.4879370
  15.5443447  71.1684402 109.5580653  24.4383655  82.8591636 113.1799249
  24.2908618  81.9308344 113.3606819  25.2637149  82.8811727 112.6956324
  18.3045900  71.5109703 109.0379741  18.6441972  72.0395624 108.3158350
  18.7518020  71.8490109 109.8138308  28.0417777  83.6820195 114.2664122
  28.9664325  83.4763056 114.1288573  27.8733081  83.4336596 115.1753463
  20.9989341  69.8946754 118.4882809  20.6586161  69.0954567 118.8903489
  20.2928347  70.1948465 117.9159643  21.6505812  66.9796066 116.9410132
  22.4731882  66.5056545 116.8189023  21.8943876  67.7586550 117.4408819
  20.2914047  70.0084325 107.2373034  21.0122409  70.3865578 106.7336751
  19.6679351  70.7273202 107.3408012  24.4345170  70.7129474 108.1731366
  24.6508784  71.5954112 107.8720195  23.9539237  70.3215687 107.4437008
  19.1744391  73.6715187 114.7502111  19.0288972  73.9855490 115.6426393
  18.6969595  74.2900087 114.1973010  21.0340774  70.6617735 114.7983001
  21.0202343  69.7658828 114.4615299  21.7513202  70.6688399 115.4321287
  22.8866905  71.0955075 116.8436128  22.6284683  72.0172146 116.8420458
  22.3551945  70.6985510 117.5336592  27.8313094  84.2005862 109.6226213
  28.0049971  83.6352285 108.8700066  28.3241985  85.0006757 109.4405703
  20.4377670  69.5432115 110.0670571  20.5593581  68.6148761 110.2661458
  20.1479712  69.5570801 109.1548886  23.3068860  67.2287026 113.2037291
  23.3290557  67.2926359 112.2489270  23.7236919  66.3891534 113.3977797
  33.6852485  76.9642285 111.2416513  34.1283631  76.2149610 110.8435636
  32.8078995  76.9552422 110.8590245  28.8188266  83.5172627 106.7223112
  29.5139171  84.1379319 106.9410426  29.1611416  82.6667978 106.9975490
  30.7179689  80.9672332 108.2510442  31.2431013  81.3059605 107.5259762
  30.6302042  80.0319348 108.0673577  30.5271470  78.4497702 120.8694369
  30.5769475  78.2847710 121.8109892  30.4185394  77.5824961 120.4792250
  19.4107729  81.1286248 108.1586458  19.5595849  81.8121712 107.5053131
  20.2174172  81.1091338 108.6735914  27.8175233  74.4328630 122.1853676
  28.7185095  74.2935095 121.8937673  27.8923207  74.5983085 123.1251853
  22.1518038  71.8095485 121.0306862  21.2821347  72.1029051 120.7589451
  22.3877518  72.3935930 121.7514126  32.0289667  80.8694644 121.1136390
  31.7374475  81.2324624 121.9499851  31.4161798  80.1561652 120.9349723
  33.2285349  78.4347524 113.6338961  34.0632241  78.8737328 113.7976521
  33.3644478  77.9586177 112.8147206  30.2776855  75.9927258 119.5816448
  30.7530977  76.1854905 118.7735300  29.3542421  76.0486444 119.3359832
  17.1660362  77.1551426 109.1647527  16.9206404  76.2513756 109.3627737
  17.3356276  77.1568576 108.2227005  24.8557072  68.0275102 118.5472282
  25.3739016  68.7636129 118.2218771  24.5012205  68.3339095 119.3819041
  16.4356009  72.8879783 106.6633688  15.7425254  72.9624138 106.0073724
  16.1907761  72.1240127 107.1855205  25.1069666  64.4475384 114.0673179
  25.3871420  63.7798574 114.6933605  25.8920273  64.6404480 113.5547843
  22.9103134  83.6234378 105.6298205  22.3377102  84.2424565 105.1768677
  23.4835928  84.1733740 106.1638127  28.9778524  72.8693018 117.8144754
  29.9295947  72.9691116 117.8356978  28.8081975  72.0771287 118.3242838
  26.9992904  69.9548602 118.0004155  26.4042836  70.2353614 117.3050644
  26.7142600  70.4442503 118.7720896  26.1300394  83.9071528 106.7606788
  27.0631067  83.8417090 106.9639663  26.0423607  84.7427795 106.3021320
  28.7588411  83.2237399 103.7210735  28.6802042  82.8897262 104.6146493
  29.5798078  83.7159167 103.7202207  31.4566602  76.0899138 116.9287054
  31.4242922  75.1515139 117.1146738  32.0667226  76.1683175 116.1952879
  23.2949933  74.9595191 102.9714258  24.2409038  74.8301399 103.0402676
  22.9164178  74.2209853 103.4483686  31.6061091  72.8810182 116.9745337
  31.0900139  72.0968638 116.7875266  32.4901039  72.5528898 117.1391856
  29.2671817  66.6251197 112.9341150  29.0696639  66.3166285 113.8184482
  29.8771523  67.3512836 113.0639079  37.2743152  77.1515145 116.0693091
  38.0046540  76.8900433 116.6300794  36.6650097  76.4143867 116.1095158
  35.3558449  75.2923008 116.6667542  34.6291613  75.1578973 116.0584033
  34.9405736  75.5999836 117.4724260  21.4792850  72.8845168 102.9069143
  20.5724305  72.5878280 102.9831857  21.7568831  72.5874986 102.0403429
  23.0954916  67.4282057 109.0613384  22.2855644  67.0829142 109.4368630
  23.7839333  67.1189601 109.6500996  25.0245464  66.5060104 110.6837681
  25.5776503  66.9255557 111.3427704  25.2615550  65.5795852 110.7260637
  20.2491635  69.7432103 103.0481122  21.1110799  70.0687001 103.3076940
  20.4341979  68.9563599 102.5354188  28.4024271  68.6160629 110.1916345
  27.8222940  69.2745433 109.8094398  28.1360204  67.7937974 109.7803763
  26.8527838  68.0165687 112.3937666  27.3527616  68.1282221 111.5851984
  27.4963445  67.7126740 113.0338474  27.1849149  70.7760720 109.2472693
  26.2975004  71.0610370 109.0292888  27.6003138  70.6154483 108.3999970
  30.5363685  70.8007241 112.9627033  31.3124075  71.2903693 113.2351650
  29.8111820  71.2265295 113.4198902  32.9736244  71.5134860 114.0200973
  33.5680735  71.2730596 113.3094282  33.0462828  70.7941990 114.6474510
  26.3292363  80.5405394 103.3420713  27.0328213  80.7455397 103.9578369
  25.6055011  81.1082156 103.6069797  27.1590173  76.2915255 109.4622984
  27.1025374  76.7483807 108.6230616  27.7118515  75.5305940 109.2845826
  30.9694979  72.0804987 110.2873103  30.7131913  71.6801623 111.1181311
  30.3447847  72.7948781 110.1623242  35.2807317  74.8201061 112.7944395
  34.7206875  74.8894250 113.5675957  34.6750820  74.6442045 112.0743891
  28.2379060  80.9787923 105.3919173  29.0724664  80.5469122 105.2096648
  28.0763403  80.8069937 106.3196068  27.8924952  77.4820037 106.7575513
  27.8373756  77.3164308 105.8163957  27.2671008  78.1896070 106.9137702
  21.2021078  66.9828146 106.3360831  21.1899748  67.9269986 106.4929102
  22.0944500  66.7998291 106.0420292  25.0173197  63.5770922 110.5906768
  24.2505593  63.0229409 110.7363450  25.4283902  63.6492791 111.4520920
  36.8663335  91.4957575 115.4874350  37.5041745  91.3764322 114.7837690
  36.7484178  92.4438419 115.5462302  33.6753041  91.4485003 115.4235875
  33.3371553  91.3326067 114.5356410  34.5442810  91.0476168 115.4036881
  29.5339857  93.3020479 111.4132766  28.9704722  93.2110416 110.6449054
  29.4192252  92.4820384 111.8935258  35.1139416  96.9691447 106.7247231
  34.4627396  97.5545527 106.3381245  35.9083779  97.4997642 106.7842268
  29.0395043  94.0580584 107.1234365  29.8125919  93.5109571 106.9847241
  29.3920442  94.9224833 107.3348827  31.8036292  92.7633815 116.9202624
  32.3999865  92.5389837 116.2059587  31.8611264  92.0218560 117.5228072
  31.3761321  90.2173250 104.7552815  31.6286842  89.6954771 103.9936278
  30.4385880  90.0539395 104.8579499  36.4204604  89.2209028 112.5627558
  37.2067693  88.8028452 112.2117975  36.6843308  90.1255121 112.7309207
  36.5914681  94.6581879 107.2616215  35.9560514  94.7316505 107.9737120
  36.2612087  95.2475478 106.5835294  41.8213031  89.1584262 113.4660537
  42.5538203  88.5883478 113.6998366  41.0652386  88.7705862 113.9067042
  31.0957610  92.1201356 106.9577190  30.9793868  91.4446259 107.6258274
  31.2059869  91.6333730 106.1409343  33.4389151  91.5811503 110.6623879
  33.0747358  91.0542124 111.3736801  34.2956266  91.1909972 110.4890365
  39.3438451  82.8705836 117.9255145  39.0121776  83.7401247 117.7016360
  38.7484065  82.5542120 118.6049176  33.0794637  86.6101403 105.6585228
  33.2469040  87.4781639 106.0255699  32.8891807  86.7728684 104.7346517
  35.8369971  95.0718382 117.3251058  35.5370694  95.9743421 117.2166865
  35.4921030  94.8050565 118.1772211  29.2882452  91.5232179 113.3587763
  28.3632949  91.3908393 113.5665454  29.5366865  92.3026398 113.8557705
  39.2367114  87.5900922 115.0048495  38.3283992  87.5216330 114.7107256
  39.1854710  88.0672867 115.8330321  33.0583858  89.0659060 106.6431895
  32.9383484  89.5116111 107.4817375  32.3636447  89.4144378 106.0845433
  30.8190750 101.8362702 110.2922026  30.7414780 102.7870527 110.3710506
  30.2152394 101.4908575 110.9496952  41.1028761  85.7917360 116.7826369
  40.4603141  86.0849893 116.1366164  40.5983689  85.6770281 117.5879566
  38.7568925  89.5380533 107.4712229  39.6686781  89.7707920 107.2959926
  38.2478572  90.1217578 106.9087307  33.3940762  88.8977768 118.4807078
  34.2401957  89.3217182 118.6241727  33.3339400  88.2411392 119.1745641
  37.3638507  94.5206352 114.8625810  36.7347369  94.6852066 114.1601878
  36.9764169  94.9347961 115.6336774  41.2427739  95.4560790 112.2170174
  40.5578777  95.8359691 111.6667207  41.3271588  96.0656116 112.9502122
  36.5440208  86.5582136 120.1388252  36.3001139  87.3124197 119.6022527
  36.8200138  86.9367484 120.9735499  38.4978670  93.1020749 118.8165517
  38.7095566  93.7452509 118.1399898  38.4508419  92.2683065 118.3487447
  36.1004899  85.7138569 115.7202090  35.2389378  86.0119823 116.0118827
  36.1267334  85.9308968 114.7883122  32.9166469  94.2580760 112.1275895
  33.3804814  94.5368463 111.3380518  32.6523267  93.3564205 111.9448986
  29.8090550  93.8052242 115.0655658  30.3791907  94.2339510 114.4273143
  30.3998662  93.5234826 115.7639844  31.8535355  90.3803912 108.9365460
  32.5559398  90.8324956 109.4039387  31.5215983  89.7387731 109.5645353
  25.5960689  88.6387465 114.2382594  24.8059743  88.8944994 113.7622705
  26.0871936  89.4535803 114.3434634  39.6124498  95.9792704 116.9887875
  40.4341942  95.5772891 116.7070556  39.6086901  95.8760938 117.9403991
  27.5475434  89.0032044 111.1966071  26.7506597  89.1150739 111.7149566
  27.3201026  89.3418697 110.3306961  47.7030491  92.3231453 113.3372846
  46.9494200  91.7538851 113.1816851  47.8378033  92.2894117 114.2843481
  33.0929119  97.1944855 109.0127566  32.9574794  98.0396391 109.4412413
  33.6338932  97.3964133 108.2493499  26.5458517  94.7120293 109.5855491
  27.0583037  95.5063543 109.7361055  27.1981230  94.0146583 109.5189092
  28.3553401  97.8286049 111.6678244  28.5320030  98.7504014 111.4799228
  29.1510235  97.5144469 112.0972624  36.4421583  80.7175417 117.5426459
  36.0985852  81.6077059 117.4665570  36.8100546  80.5277075 116.6796044
  24.5107434  93.0408947 110.3615061  25.3482656  93.4505956 110.1448769
  24.6885701  92.1008390 110.3315255  36.4071866  90.7084028 106.0498894
  35.8918489  91.4788633 106.2887282  36.1349174  90.0349164 106.6731956
  33.9918977  85.5533729 111.1084133  33.1360573  85.1640579 110.9289771
  34.4045928  85.6325690 110.2483918  35.5218123  83.0880072 115.5075692
  35.0182919  83.0510207 114.6943498  35.8148730  83.9972815 115.5672349
  31.7661009  83.1718802 114.5141874  32.6314006  82.9761610 114.1547763
  31.8338518  82.9429154 115.4411231  41.3806140  93.4616383 107.9852068
  40.6035583  93.1227542 107.5407230  42.0597621  93.4669006 107.3107033
  36.1958169  88.5811120 107.8758675  35.8908304  88.8957269 108.7268818
  37.1488611  88.6592540 107.9186008  34.6404601  94.7401343 109.5251629
  34.1125962  94.0054103 109.2124867  34.1392103  95.5176020 109.2791598
  39.6197447  92.9350364 114.6418676  38.9621121  93.6249625 114.7298804
  40.4237846  93.3246796 114.9852662  29.3723328  85.4021010 111.8858241
  29.9467080  85.1796191 111.1531434  29.9594311  85.4709704 112.6386842
  38.4302906  91.2894737 112.6922617  38.9434787  91.9224728 113.1944327
  39.0804129  90.6895932 112.3265977  29.6992915  87.4325471 105.9054126
  28.8630228  87.7700157 106.2263401  29.5597685  87.2974451 104.9681263
  31.6745996  82.2762259 110.6133310  31.0210408  81.9611276 109.9889925
  31.6326470  81.6537999 111.3393133  32.7857201  92.5581554 102.5286602
  31.8784263  92.3270807 102.7277751  33.2828233  91.7619173 102.7160584
  35.6925280 101.2679061 105.4483288  35.0186979 101.5710758 106.0568246
  36.0791102 102.0708141 105.0988746  34.9083736  88.7644192 114.9380958
  33.9906298  88.9859139 114.7802646  35.3243880  88.8390503 114.0792665
  35.6918784  90.1635608 110.0683638  36.4390603  90.6757005 109.7590760
  35.9610374  89.8419661 110.9288032  33.9645434  92.6594149 107.0510592
  33.0556654  92.3753181 107.1483062  33.9940518  93.0793227 106.1913899
  39.1964702  96.2700738 110.8201760  38.7427029  95.4291648 110.8766950
  38.5658668  96.9062136 111.1576540  38.1397621  87.1992724 112.0502427
  37.4020378  86.6870110 112.3812670  38.3924395  86.7593106 111.2385704
  37.6397641  98.1077235 111.7551578  37.9320615  98.6682292 111.0363944
  38.1496262  98.4005796 112.5104737  38.2409249  79.9768976 112.6444197
  38.5468125  79.1166339 112.3570112  38.9661853  80.5686596 112.4443191
  24.5333605  90.3799663 111.0325795  24.3358005  89.7869023 110.3076861
  23.9780269  90.0751873 111.7501733  32.5130328  90.2722769 113.1520388
  32.5678938  89.3196606 113.0762864  31.7021530  90.4282208 113.6361686
  33.6621522  94.2002892 104.3898671  33.2240952  93.4838751 103.9304308
  34.4031963  94.4279007 103.8283762  30.4522688  88.8899829 110.9110767
  29.6390554  89.1893999 111.3175959  30.9481682  88.4955518 111.6285249
  32.6031266  98.8857586 112.8445031  32.5607445  99.1118432 111.9153563
  33.5193965  98.6520960 112.9930832  36.0496900  89.3541653 119.7425661
  36.4046288  89.5813126 120.6020126  36.6969031  89.6860030 119.1202916
  41.7794637  92.4760089 110.4474990  41.6412535  92.6661685 109.5196179
  41.4230856  93.2379472 110.9043041  29.9436763  86.4618184 116.5272002
  30.5836142  86.3206944 115.8294965  29.1114294  86.1752698 116.1510604
  41.8064017  94.5436616 115.4586261  42.2400523  94.4511905 116.3069315
  42.5195597  94.5194117 114.8206277  30.7197067  95.7620615 112.6406994
  31.5137665  95.2670935 112.4389569  30.0088759  95.2338478 112.2774700
  27.0279830  89.9063697 108.7166747  26.0977419  89.8448152 108.9336709
  27.1237302  89.3839649 107.9203388  26.9465379  86.4318509 111.3044988
  27.2072197  87.3463843 111.1954149  27.7682552  85.9642952 111.4541601
  42.6679566  94.5860317 117.9919146  42.8615456  95.4906127 118.2378421
  42.5680184  94.1267736 118.8257731  34.3215877  84.4718207 120.4909474
  33.6743792  85.1708157 120.3973950  35.0916892  84.9054351 120.8585722
  34.4980011  92.3098972 118.5506294  35.4272071  92.4610132 118.3775261
  34.0771041  92.3982993 117.6954940  33.8916495 101.4358733 107.6630368
  34.0668251 100.9646776 108.4775990  33.2049283 102.0624499 107.8911628
  34.8473558  95.7131240 113.7093669  34.5123391  95.6732009 114.6051319
  34.3477504  95.0475955 113.2364079  37.7832750  93.0587274 103.9830729
  37.1661920  92.3334102 103.8863781  37.3149238  93.8196634 103.6397803
  29.5731296  87.2772698 103.1052033  28.6960762  87.1561499 102.7414280
  30.0489049  86.4858776 102.8530922  39.4404289  95.7325766 119.8750489
  38.5531067  95.3951688 119.9976887  40.0102840  95.0008797 120.1119254
  32.7595222  99.6298989 110.3514553  31.9762744 100.1720669 110.4452778
  33.4587967 100.1472968 110.7508795  36.0691872  85.4393618 112.9948759
  36.5660571  84.6863580 112.6749829  35.2978853  85.4757935 112.4291968
  43.9221629  91.1433984 114.6367050  43.9111505  92.0258699 114.2660983
  43.0539009  90.7905534 114.4421587  37.1521652  94.1965305 110.5687182
  36.2177931  94.3166768 110.3991886  37.3298321  93.2937772 110.3047192
  32.6526841  87.5811001 112.7220443  32.2824628  87.0282041 113.4101349
  33.1485933  86.9769134 112.1695443  40.5394204  90.0382624 111.1037216
  41.0054656  90.8710616 111.0297519  40.9901704  89.5727606 111.8082475
  38.6070435  96.3826446 108.1023368  38.8830279  96.2683040 109.0117242
  37.7374934  95.9843931 108.0635541  38.5110867  82.4063211 115.1428118
  37.5973946  82.6367438 115.3110325  38.9403968  82.4901656 115.9942150
  38.2817325  90.5953103 117.6428012  37.6288775  90.8429011 116.9880464
  38.6597705  89.7817242 117.3090489  35.2424499 100.6312797 111.7456182
  35.4246893  99.8134453 112.2083934  36.0657485 100.8480489 111.3081072
  35.5766664  99.5580982 109.0071230  36.1054431  99.0473436 108.3941393
  35.8394884  99.2423512 109.8716763  28.0492174  84.9914992 118.9673549
  28.1133501  85.8529823 118.5550947  27.9859294  84.3788993 118.2345908
  24.3009989  88.8714553 108.5464939  24.5963431  87.9625232 108.4931992
  23.3998025  88.8502293 108.2245941  36.2096068 100.5921817 115.3515347
  36.0847208  99.7911557 114.8426292  36.8675159 101.0868011 114.8629317
  27.8304236  86.9470550 114.5292487  27.1090822  87.5606518 114.3899960
  28.6197492  87.4828315 114.4509133  38.2730977  98.3930838 116.9794897
  37.3261312  98.2736189 116.9073224  38.6213750  97.5053336 117.0621158
  30.6330550  84.2824976 120.8033139  31.1564952  84.5287273 121.5659448
  30.4142883  85.1145011 120.3836276  26.0297831  86.5528651 108.6704264
  25.7010537  85.6726030 108.4879370  26.3837202  86.4976320 109.5580653
  35.2777410  98.1883554 113.1799249  35.1302372  97.2600261 113.3606819
  36.1030903  98.2103644 112.6956324  29.1439654  86.8401621 109.0379741
  29.4835727  87.3687542 108.3158350  29.5911775  87.1782027 109.8138308
  38.8811532  99.0112112 114.2664122  39.8058079  98.8054974 114.1288573
  38.7126835  98.7628514 115.1753463  31.8383095  85.2238672 118.4882809
  31.4979915  84.4246485 118.8903489  31.1322101  85.5240382 117.9159643
  32.4899567  82.3087984 116.9410132  33.3125636  81.8348462 116.8189023
  32.7337630  83.0878468 117.4408819  31.1307801  85.3376242 107.2373034
  31.8516164  85.7157495 106.7336751  30.5073105  86.0565119 107.3408012
  35.2738924  86.0421391 108.1731366  35.4902539  86.9246029 107.8720195
  34.7932991  85.6507605 107.4437008  30.0138146  89.0007105 114.7502111
  29.8682726  89.3147408 115.6426393  29.5363349  89.6192005 114.1973010
  31.8734529  85.9909653 114.7983001  31.8596097  85.0950746 114.4615299
  32.5906957  85.9980316 115.4321287  33.7260659  86.4246993 116.8436128
  33.4678437  87.3464063 116.8420458  33.1945700  86.0277427 117.5336592
  38.6706848  99.5297780 109.6226213  38.8443726  98.9644202 108.8700066
  39.1635739 100.3298675 109.4405703  31.2771424  84.8724033 110.0670571
  31.3987336  83.9440679 110.2661458  30.9873467  84.8862719 109.1548886
  34.1462615  82.5578943 113.2037291  34.1684312  82.6218276 112.2489270
  34.5630674  81.7183452 113.3977797  44.5246239  92.2934203 111.2416513
  44.9677385  91.5441528 110.8435636  43.6472749  92.2844339 110.8590245
  39.6582020  98.8464544 106.7223112  40.3532925  99.4671237 106.9410426
  40.0005171  97.9959896 106.9975490  41.5573444  96.2964250 108.2510442
  42.0824768  96.6351523 107.5259762  41.4695796  95.3611265 108.0673577
  41.3665225  93.7789620 120.8694369  41.4163230  93.6139627 121.8109892
  41.2579148  92.9116879 120.4792250  30.2501483  96.4578166 108.1586458
  30.3989604  97.1413630 107.5053131  31.0567927  96.4383256 108.6735914
  38.6568987  89.7620548 122.1853676  39.5578850  89.6227013 121.8937673
  38.7316962  89.9275003 123.1251853  32.9911792  87.1387403 121.0306862
  32.1215102  87.4320969 120.7589451  33.2271273  87.7227848 121.7514126
  42.8683422  96.1986561 121.1136390  42.5768230  96.5616542 121.9499851
  42.2555553  95.4853570 120.9349723  44.0679104  93.7639441 113.6338961
  44.9025995  94.2029245 113.7976521  44.2038233  93.2878094 112.8147206
  41.1170610  91.3219176 119.5816448  41.5924731  91.5146822 118.7735300
  40.1936175  91.3778362 119.3359832  28.0054116  92.4843343 109.1647527
  27.7600158  91.5805673 109.3627737  28.1750031  92.4860494 108.2227005
  35.6950826  83.3567020 118.5472282  36.2132770  84.0928047 118.2218771
  35.3405959  83.6631013 119.3819041  27.2749764  88.2171701 106.6633688
  26.5819009  88.2916056 106.0073724  27.0301516  87.4532044 107.1855205
  35.9463420  79.7767302 114.0673179  36.2265174  79.1090491 114.6933605
  36.7314027  79.9696398 113.5547843  33.7496889  98.9526296 105.6298205
  33.1770856  99.5716483 105.1768677  34.3229683  99.5025658 106.1638127
  39.8172279  88.1984936 117.8144754  40.7689702  88.2983034 117.8356978
  39.6475729  87.4063205 118.3242838  37.8386658  85.2840519 118.0004155
  37.2436590  85.5645532 117.3050644  37.5536355  85.7734420 118.7720896
  36.9694149  99.2363446 106.7606788  37.9024822  99.1709008 106.9639663
  36.8817362 100.0719713 106.3021320  39.5982165  98.5529317 103.7210735
  39.5195797  98.2189180 104.6146493  40.4191832  99.0451084 103.7202207
  42.2960357  91.4191056 116.9287054  42.2636677  90.4807057 117.1146738
  42.9060980  91.4975093 116.1952879  34.1343687  90.2887109 102.9714258
  35.0802792  90.1593317 103.0402676  33.7557932  89.5501771 103.4483686
  42.4454845  88.2102099 116.9745337  41.9293894  87.4260556 116.7875266
  43.3294794  87.8820816 117.1391856  40.1065572  81.9543115 112.9341150
  39.9090393  81.6458203 113.8184482  40.7165278  82.6804754 113.0639079
  48.1136906  92.4807063 116.0693091  48.8440295  92.2192351 116.6300794
  47.5043852  91.7435785 116.1095158  46.1952204  90.6214925 116.6667542
  45.4685367  90.4870890 116.0584033  45.7799490  90.9291754 117.4724260
  32.3186605  88.2137085 102.9069143  31.4118060  87.9170198 102.9831857
  32.5962586  87.9166903 102.0403429  33.9348670  82.7573975 109.0613384
  33.1249399  82.4121060 109.4368630  34.6233087  82.4481519 109.6500996
  35.8639219  81.8352022 110.6837681  36.4170257  82.2547475 111.3427704
  36.1009305  80.9087770 110.7260637  31.0885389  85.0724020 103.0481122
  31.9504553  85.3978919 103.3076940  31.2735733  84.2855516 102.5354188
  39.2418026  83.9452547 110.1916345  38.6616695  84.6037351 109.8094398
  38.9753958  83.1229891 109.7803763  37.6921592  83.3457605 112.3937666
  38.1921370  83.4574139 111.5851984  38.3357200  83.0418657 113.0338474
  38.0242904  86.1052637 109.2472693  37.1368759  86.3902288 109.0292888
  38.4396893  85.9446401 108.3999970  41.3757440  86.1299158 112.9627033
  42.1517830  86.6195611 113.2351650  40.6505574  86.5557212 113.4198902
  43.8129998  86.8426777 114.0200973  44.4074489  86.6022513 113.3094282
  43.8856582  86.1233908 114.6474510  37.1686117  95.8697312 103.3420713
  37.8721967  96.0747314 103.9578369  36.4448766  96.4374074 103.6069797
  37.9983927  91.6207173 109.4622984  37.9419129  92.0775725 108.6230616
  38.5512270  90.8597858 109.2845826  41.8088733  87.4096905 110.2873103
  41.5525668  87.0093541 111.1181311  41.1841601  88.1240699 110.1623242
  46.1201071  90.1492978 112.7944395  45.5600629  90.2186168 113.5675957
  45.5144575  89.9733963 112.0743891  39.0772815  96.3079841 105.3919173
  39.9118419  95.8761040 105.2096648  38.9157157  96.1361855 106.3196068
  38.7318707  92.8111954 106.7575513  38.6767511  92.6456226 105.8163957
  38.1064762  93.5187987 106.9137702  32.0414832  82.3120063 106.3360831
  32.0293502  83.2561903 106.4929102  32.9338254  82.1290209 106.0420292
  35.8566952  78.9062840 110.5906768  35.0899347  78.3521327 110.7363450
  36.2677657  78.9784709 111.4520920  40.3733612 108.6312397 111.4132766
  39.8098477 108.5402334 110.6449054  40.2586007 107.8112301 111.8935258
  45.9533170 112.2983364 106.7247231  45.3021150 112.8837445 106.3381245
  46.7477533 112.8289559 106.7842268  39.8788798 109.3872502 107.1234365
  40.6519674 108.8401489 106.9847241  40.2314196 110.2516751 107.3348827
  42.2155075 105.5465168 104.7552815  42.4680596 105.0246689 103.9936278
  41.2779634 105.3831313 104.8579499  47.2598358 104.5500946 112.5627558
  48.0461447 104.1320369 112.2117975  47.5237062 105.4547038 112.7309207
  47.4308436 109.9873796 107.2616215  46.7954268 110.0608423 107.9737120
  47.1005842 110.5767395 106.5835294  41.9351364 107.4493274 106.9577190
  41.8187622 106.7738177 107.6258274  42.0453624 106.9625648 106.1409343
  44.2782905 106.9103421 110.6623879  43.9141112 106.3834042 111.3736801
  45.1350021 106.5201890 110.4890365  43.9188392 101.9393320 105.6585228
  44.0862794 102.8073557 106.0255699  43.7285561 102.1020602 104.7346517
  40.1276207 106.8524096 113.3587763  39.2026703 106.7200310 113.5665454
  40.3760620 107.6318315 113.8557705  43.8977613 104.3950978 106.6431895
  43.7777238 104.8408029 107.4817375  43.2030201 104.7436296 106.0845433
  49.5962679 104.8672451 107.4712229  50.5080535 105.0999838 107.2959926
  49.0872326 105.4509495 106.9087307  46.9398654 101.0430487 115.7202090
  46.0783133 101.3411741 116.0118827  46.9661088 101.2600886 114.7883122
  43.7560223 109.5872678 112.1275895  44.2198569 109.8660381 111.3380518
  43.4917021 108.6856122 111.9448986  42.6929109 105.7095830 108.9365460
  43.3953153 106.1616874 109.4039387  42.3609738 105.0679649 109.5645353
  36.4354443 103.9679383 114.2382594  35.6453497 104.2236911 113.7622705
  36.9265691 104.7827721 114.3434634  38.3869189 104.3323962 111.1966071
  37.5900352 104.4442656 111.7149566  38.1594781 104.6710614 110.3306961
  43.9322874 112.5236773 109.0127566  43.7968549 113.3688308 109.4412413
  44.4732686 112.7256050 108.2493499  37.3852271 110.0412211 109.5855491
  37.8976792 110.8355461 109.7361055  38.0374984 109.3438501 109.5189092
  39.1947156 113.1577967 111.6678244  39.3713784 114.0795932 111.4799228
  39.9903989 112.8436386 112.0972624  47.2815337  96.0467335 117.5426459
  46.9379607  96.9368976 117.4665570  47.6494300  95.8568992 116.6796044
  35.3501188 108.3700865 110.3615061  36.1876410 108.7797873 110.1448769
  35.5279456 107.4300307 110.3315255  47.2465620 106.0375946 106.0498894
  46.7312244 106.8080550 106.2887282  46.9742929 105.3641082 106.6731956
  44.8312731 100.8825646 111.1084133  43.9754328 100.4932497 110.9289771
  45.2439683 100.9617607 110.2483918  46.3611878  98.4171990 115.5075692
  45.8576673  98.3802125 114.6943498  46.6542485  99.3264732 115.5672349
  42.6054764  98.5010719 114.5141874  43.4707760  98.3053528 114.1547763
  42.6732273  98.2721071 115.4411231  52.2199894 108.7908300 107.9852068
  51.4429337 108.4519460 107.5407230  52.8991375 108.7960923 107.3107033
  47.0351923 103.9103038 107.8758675  46.7302059 104.2249187 108.7268818
  47.9882365 103.9884458 107.9186008  45.4798355 110.0693261 109.5251629
  44.9519717 109.3346021 109.2124867  44.9785858 110.8467937 109.2791598
  40.2117083 100.7312927 111.8858241  40.7860835 100.5088109 111.1531434
  40.7988065 100.8001622 112.6386842  40.5386670 102.7617388 105.9054126
  39.7023982 103.0992075 106.2263401  40.3991440 102.6266368 104.9681263
  42.5139751  97.6054176 110.6133310  41.8604163  97.2903193 109.9889925
  42.4720225  96.9829917 111.3393133  43.6250955 107.8873471 102.5286602
  42.7178017 107.6562725 102.7277751  44.1221987 107.0911091 102.7160584
  46.5319034 116.5970979 105.4483288  45.8580733 116.9002675 106.0568246
  46.9184856 117.4000059 105.0988746  45.7477491 104.0936110 114.9380958
  44.8300052 104.3151057 114.7802646  46.1637634 104.1682420 114.0792665
  46.5312539 105.4927525 110.0683638  47.2784358 106.0048923 109.7590760
  46.8004128 105.1711578 110.9288032  44.8039189 107.9886066 107.0510592
  43.8950408 107.7045099 107.1483062  44.8334273 108.4085145 106.1913899
  48.9791376 102.5284642 112.0502427  48.2414133 102.0162028 112.3812670
  49.2318149 102.0885023 111.2385704  49.0803003  95.3060894 112.6444197
  49.3861880  94.4458257 112.3570112  49.8055608  95.8978514 112.4443191
  35.3727359 105.7091580 111.0325795  35.1751759 105.1160941 110.3076861
  34.8174023 105.4043791 111.7501733  43.3524083 105.6014687 113.1520388
  43.4072693 104.6488523 113.0762864  42.5415285 105.7574126 113.6361686
  44.5015277 109.5294810 104.3898671  44.0634707 108.8130669 103.9304308
  45.2425717 109.7570925 103.8283762  41.2916443 104.2191747 110.9110767
  40.4784308 104.5185917 111.3175959  41.7875437 103.8247435 111.6285249
  52.6188391 107.8052007 110.4474990  52.4806290 107.9953603 109.5196179
  52.2624610 108.5671390 110.9043041  40.7830518 101.7910102 116.5272002
  41.4229897 101.6498861 115.8294965  39.9508048 101.5044615 116.1510604
  41.5590821 111.0912532 112.6406994  42.3531420 110.5962853 112.4389569
  40.8482514 110.5630396 112.2774700  37.8673585 105.2355614 108.7166747
  36.9371173 105.1740070 108.9336709  37.9631057 104.7131567 107.9203388
  37.7859134 101.7610427 111.3044988  38.0465951 102.6755760 111.1954149
  38.6076306 101.2934870 111.4541601  44.7310249 116.7650651 107.6630368
  44.9062005 116.2938694 108.4775990  44.0443037 117.3916417 107.8911628
  48.6226504 108.3879192 103.9830729  48.0055675 107.6626020 103.8863781
  48.1542993 109.1488552 103.6397803  40.4125050 102.6064616 103.1052033
  39.5354516 102.4853417 102.7414280  40.8882803 101.8150694 102.8530922
  46.9085626 100.7685536 112.9948759  47.4054326 100.0155498 112.6749829
  46.1372608 100.8049852 112.4291968  47.9915407 109.5257223 110.5687182
  47.0571686 109.6458685 110.3991886  48.1692075 108.6229690 110.3047192
  43.4920595 102.9102919 112.7220443  43.1218383 102.3573959 113.4101349
  43.9879687 102.3061052 112.1695443  51.3787958 105.3674542 111.1037216
  51.8448411 106.2002534 111.0297519  51.8295459 104.9019524 111.8082475
  49.4464189 111.7118363 108.1023368  49.7224033 111.5974958 109.0117242
  48.5768688 111.3135848 108.0635541  49.3504621  97.7355129 115.1428118
  48.4367701  97.9659356 115.3110325  49.7797723  97.8193573 115.9942150
  46.4160419 114.8872899 109.0071230  46.9448185 114.3765354 108.3941393
  46.6788639 114.5715430 109.8716763  38.8885929 100.3206909 118.9673549
  38.9527255 101.1821740 118.5550947  38.8253049  99.7080911 118.2345908
  35.1403744 104.2006471 108.5464939  35.4357185 103.2917149 108.4931992
  34.2391780 104.1794211 108.2245941  38.6697991 102.2762468 114.5292487
  37.9484577 102.8898435 114.3899960  39.4591247 102.8120232 114.4509133
  36.8691586 101.8820569 108.6704264  36.5404292 101.0017948 108.4879370
  37.2230956 101.8268237 109.5580653  39.9833409 102.1693539 109.0379741
  40.3229481 102.6979460 108.3158350  40.4305529 102.5073945 109.8138308
  42.6776850 100.5530589 118.4882809  42.3373670  99.7538402 118.8903489
  41.9715856 100.8532300 117.9159643  43.3293321  97.6379902 116.9410132
  44.1519391  97.1640380 116.8189023  43.5731385  98.4170385 117.4408819
  41.9701556 100.6668160 107.2373034  42.6909918 101.0449413 106.7336751
  41.3466860 101.3857037 107.3408012  46.1132679 101.3713309 108.1731366
  46.3296293 102.2537947 107.8720195  45.6326746 100.9799522 107.4437008
  40.8531900 104.3299022 114.7502111  40.7076481 104.6439325 115.6426393
  40.3757104 104.9483923 114.1973010  42.7128283 101.3201570 114.7983001
  42.6989852 100.4242664 114.4615299  43.4300711 101.3272234 115.4321287
  44.5654414 101.7538911 116.8436128  44.3072192 102.6755981 116.8420458
  44.0339454 101.3569345 117.5336592  42.1165179 100.2015951 110.0670571
  42.2381090  99.2732597 110.2661458  41.8267221 100.2154637 109.1548886
  44.9856369  97.8870861 113.2037291  45.0078066  97.9510194 112.2489270
  45.4024428  97.0475370 113.3977797  50.4975775 114.1756462 106.7223112
  51.1926680 114.7963155 106.9410426  50.8398925 113.3251813 106.9975490
  52.3967198 111.6256168 108.2510442  52.9218522 111.9643440 107.5259762
  52.3089551 110.6903183 108.0673577  41.0895238 111.7870083 108.1586458
  41.2383358 112.4705548 107.5053131  41.8961681 111.7675173 108.6735914
  38.8447871 107.8135261 109.1647527  38.5993913 106.9097591 109.3627737
  39.0143785 107.8152411 108.2227005  38.1143518 103.5463618 106.6633688
  37.4212763 103.6207973 106.0073724  37.8695270 102.7823962 107.1855205
  46.7857175  95.1059220 114.0673179  47.0658929  94.4382409 114.6933605
  47.5707782  95.2988315 113.5547843  44.5890643 114.2818214 105.6298205
  44.0164611 114.9008401 105.1768677  45.1623437 114.8317575 106.1638127
  47.8087903 114.5655364 106.7606788  48.7418576 114.5000926 106.9639663
  47.7211116 115.4011631 106.3021320  50.4375920 113.8821234 103.7210735
  50.3589551 113.5481098 104.6146493  51.2585587 114.3743002 103.7202207
  44.9737442 105.6179026 102.9714258  45.9196547 105.4885235 103.0402676
  44.5951687 104.8793688 103.4483686  50.9459326  97.2835032 112.9341150
  50.7484148  96.9750121 113.8184482  51.5559032  98.0096671 113.0639079
  43.1580359 103.5429003 102.9069143  42.2511814 103.2462116 102.9831857
  43.4356340 103.2458821 102.0403429  44.7742425  98.0865893 109.0613384
  43.9643153  97.7412978 109.4368630  45.4626842  97.7773436 109.6500996
  46.7032973  97.1643939 110.6837681  47.2564012  97.5839393 111.3427704
  46.9403059  96.2379687 110.7260637  41.9279144 100.4015938 103.0481122
  42.7898308 100.7270836 103.3076940  42.1129488  99.6147434 102.5354188
  50.0811780  99.2744465 110.1916345  49.5010449  99.9329269 109.8094398
  49.8147713  98.4521809 109.7803763  48.5315347  98.6749522 112.3937666
  49.0315125  98.7866057 111.5851984  49.1750954  98.3710575 113.0338474
  48.8636658 101.4344555 109.2472693  47.9762513 101.7194206 109.0292888
  49.2790647 101.2738318 108.3999970  52.2151194 101.4591076 112.9627033
  52.9911584 101.9487528 113.2351650  51.4899328 101.8849130 113.4198902
  48.0079872 111.1989230 103.3420713  48.7115722 111.4039232 103.9578369
  47.2842520 111.7665991 103.6069797  48.8377682 106.9499091 109.4622984
  48.7812883 107.4067642 108.6230616  49.3906024 106.1889775 109.2845826
  52.6482488 102.7388823 110.2873103  52.3919422 102.3385458 111.1181311
  52.0235356 103.4532617 110.1623242  49.9166569 111.6371759 105.3919173
  50.7512173 111.2052957 105.2096648  49.7550912 111.4653772 106.3196068
  49.5712461 108.1403872 106.7575513  49.5161265 107.9748144 105.8163957
  48.9458517 108.8479905 106.9137702  42.8808587  97.6411981 106.3360831
  42.8687257  98.5853821 106.4929102  43.7732009  97.4582127 106.0420292
  46.6960706  94.2354758 110.5906768  45.9293102  93.6813244 110.7363450
  47.1071411  94.3076627 111.4520920  51.3780424 118.0909306 105.9054126
  50.5417737 118.4283993 106.2263401  51.2385194 117.9558286 104.9681263
  51.2518805 117.9356534 103.1052033  50.3748271 117.8145334 102.7414280
  51.7276558 117.1442612 102.8530922  48.9537273 118.8755536 106.6633688
  48.2606518 118.9499891 106.0073724  48.7089025 118.1115880 107.1855205
  53.9974114 118.8720921 102.9069143  53.0905569 118.5754033 102.9831857
  54.2750095 118.5750739 102.0403429  52.7672898 115.7307856 103.0481122
  53.6292062 116.0562754 103.3076940  52.9523242 114.9439352 102.5354188
  53.7202341 112.9703899 106.3360831  53.7081011 113.9145739 106.4929102
  54.6125763 112.7874044 106.0420292   3.1744018  32.2865430  92.1728595
   2.5005716  32.5897127  92.7813553   3.5609840  33.0894511  91.8234052
   7.1400758  29.8650914  93.4468418   7.8351663  30.4857607  93.6655733
   7.4823908  29.0146265  93.7220796   1.2315627  29.9712666  92.3543512
   0.6589594  30.5902853  91.9013984   1.8048420  30.5212027  92.8883434
   4.4512886  30.2549816  93.4852094   5.3843560  30.1895377  93.6884970
   4.3636099  31.0906083  93.0266627   7.0800903  29.5715686  90.4456042
   7.0014535  29.2375550  91.3391800   7.9010570  30.0637454  90.4447514
   4.6504855  26.8883681  90.0666020   5.3540705  27.0933684  90.6823676
   3.9267504  27.4560443  90.3315104   6.5591552  27.3266211  92.1164480
   7.3937156  26.8947409  91.9341955   6.3975895  27.1548224  93.0441375
  15.1875827  37.8435862 102.2119657  15.8254237  37.7242609 101.5082997
  15.0696670  38.7916706 102.2707609   7.8552349  39.6498766  98.1378073
   7.2917215  39.5588703  97.3694360   7.7404744  38.8298671  98.6180565
  13.4351908  43.3169734  93.4492537  12.7839888  43.9023814  93.0626551
  14.2296271  43.8475929  93.5087575   7.3607535  40.4058871  93.8479672
   8.1338411  39.8587858  93.7092548   7.7132934  41.2703120  94.0594133
   9.6973813  36.5651537  91.4798122   9.9499334  36.0433059  90.7181585
   8.7598372  36.4017683  91.5824805  14.7417096  35.5687316  99.2872865
  15.5280185  35.1506739  98.9363282  15.0055800  36.4733408  99.4554513
  14.9127173  41.0060166  93.9861522  14.2773006  41.0794792  94.6982426
  14.5824580  41.5953765  93.3080601  20.1425523  35.5062549 100.1905843
  20.8750695  34.9361766 100.4243673  19.3864879  35.1184149 100.6312349
   9.4170102  38.4679643  93.6822497   9.3006360  37.7924547  94.3503581
   9.5272362  37.9812017  92.8654650  11.7601643  37.9289790  97.3869186
  11.3959850  37.4020411  98.0982107  12.6168759  37.5388259  97.2135671
  11.4007130  32.9579690  92.3830534  11.5681532  33.8259926  92.7501005
  11.2104299  33.1206972  91.4591824  11.3796351  35.4137348  93.3677201
  11.2595976  35.8594398  94.2062682  10.6848939  35.7622665  92.8090739
   9.1403243  48.1840989  97.0167332   9.0627272  49.1348814  97.0955813
   8.5364886  47.8386862  97.6742259  17.0781417  35.8858821  94.1957535
  17.9899273  36.1186207  94.0205233  16.5691064  36.4695865  93.6332614
  15.6850999  40.8684639 101.5871117  15.0559862  41.0330353 100.8847185
  15.2976661  41.2826249 102.3582081  19.5640231  41.8039077  98.9415480
  18.8791269  42.1837978  98.3912514  19.6484080  42.4134404  99.6747428
  11.2378961  40.6059047  98.8521202  11.7017307  40.8846750  98.0625824
  10.9735759  39.7042492  98.6694293  10.1747847  36.7282200  95.6610767
  10.8771890  37.1803243  96.1284693   9.8428476  36.0866018  96.2890660
  17.9336991  42.3270991 103.7133181  18.7554434  41.9251179 103.4315863
  17.9299393  42.2239226 104.6649297  26.0242984  38.6709740 100.0618153
  25.2706692  38.1017138  99.9062157  26.1590525  38.6372404 101.0088788
  11.4141612  43.5423142  95.7372872  11.2787286  44.3874678  96.1657720
  11.9551424  43.7442420  94.9738806   4.8671009  41.0598580  96.3100797
   5.3795530  41.8541831  96.4606362   5.5193722  40.3624871  96.2434399
   6.6765894  44.1764337  98.3923550   6.8532522  45.0982301  98.2044534
   7.4722727  43.8622756  98.8217930   7.7997209  45.6942510 104.3933893
   8.3504634  45.5659574 103.6210887   6.9608685  45.9937399 104.0428786
   2.8319926  39.3887235  97.0860368   3.6695148  39.7984243  96.8694076
   3.0098194  38.4486677  97.0560562  14.7284358  37.0562315  92.7744201
  14.2130981  37.8266920  93.0132588  14.4561666  36.3827451  93.3977262
  12.3131469  31.9012016  97.8329439  11.4573065  31.5118866  97.6535078
  12.7258421  31.9803977  96.9729225  19.7018632  39.8094670  94.7097374
  18.9248075  39.4705829  94.2652536  20.3810113  39.8147293  94.0352339
  14.5170661  34.9289407  94.6003982  14.2120797  35.2435557  95.4514125
  15.4701103  35.0070827  94.6431315  12.9617093  41.0879631  96.2496936
  12.4338455  40.3532390  95.9370173  12.4604596  41.8654307  96.0036904
  17.9409939  39.2828651 101.3663982  17.2833613  39.9727913 101.4544111
  18.7450338  39.6725083 101.7097969  16.7515398  37.6373024  99.4167924
  17.2647280  38.2703016  99.9189634  17.4016622  37.0374219  99.0511284
   8.0205408  33.7803758  92.6299433   7.1842720  34.1178444  92.9508707
   7.8810177  33.6452738  91.6926570  11.1069693  38.9059841  89.2531909
  10.1996755  38.6749094  89.4523058  11.6040725  38.1097460  89.4405891
  14.0137772  47.6157348  92.1728595  13.3399471  47.9189045  92.7813553
  14.4003594  48.4186428  91.8234052  14.0131276  36.5113895  96.7928945
  14.7603095  37.0235292  96.4836067  14.2822866  36.1897948  97.6533338
  12.2857927  39.0072436  93.7755899  11.3769146  38.7231469  93.8728369
  12.3153010  39.4271514  92.9159206  17.5177194  42.6179025  97.5447067
  17.0639521  41.7769935  97.6012257  16.8871161  43.2540424  97.8821847
  16.4610114  33.5471011  98.7747734  15.7232870  33.0348398  99.1057977
  16.7136887  33.1071393  97.9631011  15.9610133  44.4555522  98.4796885
  16.2533108  45.0160579  97.7609250  16.4708754  44.7484083  99.2350044
  10.8342821  36.6201056  99.8765694  10.8891430  35.6674893  99.8008171
  10.0234023  36.7760495 100.3606993  11.9834014  40.5481179  91.1143978
  11.5453444  39.8317038  90.6549615  12.7244455  40.7757294  90.5529069
   8.7735181  35.2378116  97.6356073   7.9603046  35.5372287  98.0421265
   9.2694175  34.8433805  98.3530556  10.9243758  45.2335873  99.5690338
  10.8819937  45.4596719  98.6398870  11.8406457  44.9999248  99.7176139
  20.1007129  38.8238376  97.1720296  19.9625028  39.0139972  96.2441485
  19.7443348  39.5857759  97.6288347  20.1276509  40.8914903 102.1831568
  20.5613015  40.7990193 103.0314622  20.8408089  40.8672404 101.5451584
   9.0409559  42.1098902  99.3652301   9.8350158  41.6149222  99.1634876
   8.3301252  41.5816765  99.0020006  13.8604404  44.4916998 103.7164668
  13.9141426  45.0607934 104.4842384  12.9919185  44.6618883 103.3518705
   5.3492323  36.2541984  95.4412053   4.4189911  36.1926439  95.6582015
   5.4449795  35.7317937  94.6448695  20.9892058  40.9338604 104.7164453
  21.1827948  41.8384415 104.9623728  20.8892677  40.4746023 105.5503038
  11.6180835  42.6827924 103.0450138  11.4791921  42.3146708 103.9176076
  10.8295431  43.1975563 102.8734096  12.2128987  47.7837021  94.3875674
  12.3880743  47.3125064  95.2021297  11.5261775  48.4102787  94.6156935
  13.1686050  42.0609527 100.4338976  12.8335883  42.0210297 101.3296625
  12.6689996  41.3954243  99.9609386  16.1045242  39.4065561  90.7076035
  15.4874413  38.6812389  90.6109088  15.6361730  40.1674921  90.3643109
   6.7790072  50.9326383 101.1615534   7.0186671  51.5644907 101.8394553
   5.9359269  50.5814423 101.4480894   7.8943788  33.6250985  89.8297339
   7.0173254  33.5039786  89.4659586   8.3701541  32.8337064  89.5776228
  11.2917934  46.7405506 103.5657038  11.2188106  47.5460477 104.0776343
  10.8495327  46.9397472 102.7405060  11.0807714  45.9777276  97.0759860
  10.2975236  46.5198956  97.1698085  11.7800459  46.4951255  97.4754101
  22.2434121  37.4912271 101.3612357  22.2323998  38.3736986 100.9906290
  21.3751501  37.1383822 101.1666894  13.7516618  46.6392340 105.7215197
  14.4644590  47.2739805 105.6491099  13.2606646  46.7356206 104.9055199
  15.4734145  40.5443592  97.2932489  14.5390423  40.6645055  97.1237193
  15.6510813  39.6416059  97.0292499  18.8606696  36.3860912  97.8282523
  19.3267148  37.2188903  97.7542826  19.3114197  35.9205893  98.5327781
  16.9282927  42.7304733  94.8268675  17.2042771  42.6161328  95.7362549
  16.0587426  42.3322218  94.7880848  13.5636991  46.9791084  98.4701489
  13.7459386  46.1612740  98.9329241  14.3869977  47.1958776  98.0326379
  13.8979157  45.9059269  95.7316537  14.4266923  45.3951724  95.1186699
  14.1607376  45.5901799  96.5962070   7.2534905  46.9574386  98.4914313
   6.5845280  47.4420513  98.0078353   7.1147774  47.2043606  99.4057692
  11.3940173  48.9918129 105.0896971  11.9458481  49.1549751 105.8546057
  11.7346367  49.5822567 104.4176996   2.6222482  35.2192841  95.2710245
   2.9175923  34.3103519  95.2177299   1.7210518  35.1980580  94.9491248
  14.5308561  46.9400105 102.0760654  14.4059700  46.1389845 101.5671599
  15.1887652  47.4346298 101.5874623  16.5943469  44.7409125 103.7040204
  15.6473804  44.6214476 103.6318530  16.9426242  43.8531623 103.7866465
  13.5989902  44.5361841  99.9044556  13.4514865  43.6078548 100.0852126
  14.4243396  44.5581932  99.4201631   7.4652147  33.1879908  95.7625048
   7.8048219  33.7165829  95.0403656   7.9124267  33.5260314  96.5383615
  17.2024024  45.3590400 100.9909429  18.1270572  45.1533261 100.8533880
  17.0339327  45.1106801 101.8998770   9.4520294  31.6854530  93.9618341
  10.1728656  32.0635782  93.4582058   8.8285598  32.4043406  94.0653319
  13.5951417  32.3899679  94.8976673  13.8115031  33.2724317  94.5965501
  13.1145484  31.9985892  94.1682315  16.9919340  45.8776067  96.3471520
  17.1656218  45.3122490  95.5945373  17.4848231  46.6776962  96.1651010
  22.8458731  38.6412490  97.9661820  23.2889877  37.8919815  97.5680943
  21.9685242  38.6322626  97.5835552  17.9794513  45.1942832  93.4468418
  18.6745417  45.8149524  93.6655733  18.3217663  44.3438183  93.7220796
  19.8785936  42.6442537  94.9755749  20.4037260  42.9829810  94.2505069
  19.7908288  41.7089552  94.7918884  11.5626597  48.7114520  99.3351002
  11.1231587  48.2190899 100.0283859  12.3134714  48.1687488  99.0943078
   4.0418936  44.9026061  99.3375630   4.8676956  44.6029833  98.9574274
   3.6912988  44.1333684  99.7865419   9.0100469  44.2552529 101.4073304
   8.3880478  43.5923235 101.1075532   9.6805336  44.2813661 100.7246952
   8.5713976  42.8056453  94.8831765   8.7202096  43.4891917  94.2298437
   9.3780419  42.7861543  95.3981220  22.3891596  40.1117728 100.3584267
  23.2238488  40.5507533 100.5221828  22.5250725  39.6356382  99.5392513
   6.3266609  38.8321630  95.8892833   6.0812651  37.9283960  96.0873044
   6.4962523  38.8338781  94.9472311   5.5962256  34.5649988  93.3878995
   4.9031501  34.6394343  92.7319031   5.3514008  33.8010332  93.9100512
  12.0709381  45.3004583  92.3543512  11.4983348  45.9194770  91.9013984
  12.6442175  45.8503945  92.8883434  15.2906641  45.5841733  93.4852094
  16.2237314  45.5187295  93.6884970  15.2029854  46.4198000  93.0266627
  17.9194658  44.9007604  90.4456042  17.8408289  44.5667467  91.3391800
  18.7404324  45.3929372  90.4447514  20.6172849  37.7669343 103.6532360
  20.5849169  36.8285344 103.8392044  21.2273472  37.8453380 102.9198185
  12.4556180  36.6365396  89.6959564  13.4015284  36.5071604  89.7647982
  12.0770425  35.8980058  90.1728993  26.4349399  38.8285350 102.7938397
  27.1652787  38.5670638 103.3546100  25.8256344  38.0914072 102.8340465
  24.5164696  36.9693212 103.3912848  23.7897859  36.8349177 102.7829340
  24.1011983  37.2770041 104.1969566  10.6399097  34.5615372  89.6314450
   9.7330552  34.2648485  89.7077163  10.9175078  34.2645191  88.7648736
  12.2561163  29.1052262  95.7858691  11.4461891  28.7599347  96.1613937
  12.9445580  28.7959806  96.3746302   9.4097881  31.4202308  89.7726429
  10.2717045  31.7457206  90.0322246   9.5948226  30.6333804  89.2599495
  17.5630518  30.2930834  96.9161652  16.9829187  30.9515638  96.5339704
  17.2966451  29.4708179  96.5049069  16.3455396  32.4530924  95.9718000
  15.4581251  32.7380575  95.7538195  16.7609385  32.2924688  95.1245277
  19.6969932  32.4777445  99.6872339  20.4730322  32.9673898  99.9596956
  18.9718066  32.9035500 100.1444209  22.1342491  33.1905065 100.7446280
  22.7286982  32.9500801 100.0339588  22.2069074  32.4712195 101.3719816
   4.3539646  47.0338676 101.0589445   4.2194114  46.2739077 100.4927443
   3.9371709  47.7579575 100.5918234  15.4898609  42.2175599  90.0666020
  16.1934460  42.4225602  90.6823676  14.7661258  42.7852361  90.3315104
  16.3196420  37.9685460  96.1868290  16.2631621  38.4254012  95.3475923
  16.8724762  37.2076145  96.0091133  20.1301226  33.7575192  97.0118410
  19.8738160  33.3571828  97.8426617  19.5054094  34.4718986  96.8868549
  24.4413563  36.4971266  99.5189701  23.8813121  36.5664455 100.2921263
  23.8357067  36.3212250  98.7989197   7.5108772  47.9307993 101.2707887
   7.3941156  48.8753425 101.1686578   6.6901219  47.6281554 101.6593687
  17.3985307  42.6558128  92.1164480  18.2330911  42.2239327  91.9341955
  17.2369650  42.4840142  93.0441375  17.0531199  39.1590242  93.4820819
  16.9980003  38.9934513  92.5409264  16.4277254  39.8666275  93.6383009
  10.3627324  28.6598351  93.0606138  10.3505994  29.6040191  93.2174409
  11.2550746  28.4768496  92.7665599   8.5363286  48.5836255 104.4863816
   9.4390533  48.6159865 104.8030311   8.3100656  47.6536705 104.5010152
  10.2916888  47.3367241 101.1473894   9.3412519  47.3369103 101.0338267
  10.5949375  46.5899976 100.6309929  26.0269582  53.1727779 102.2119657
  26.6647992  53.0534527 101.5082997  25.9090425  54.1208623 102.2707609
  22.8359288  53.1255208 102.1481182  22.4977800  53.0096272 101.2601716
  23.7049056  52.7246373 102.1282188  18.6946104  54.9790684  98.1378073
  18.1310969  54.8880621  97.3694360  18.5798499  54.1590588  98.6180565
  23.3179071  54.2790059 108.1067387  23.3067712  53.8842858 107.2347891
  23.4799711  53.5456132 108.7001159  16.2410536  56.4741876 100.9762293
  17.0331828  56.1332700 100.5608592  16.4807186  56.5836851 101.8964446
  24.2745663  58.6461652  93.4492537  23.6233642  59.2315732  93.0626551
  25.0690025  59.1767847  93.5087575  18.2001290  55.7350789  93.8479672
  18.9732166  55.1879776  93.7092548  18.5526689  56.5995038  94.0594133
  20.0386332  57.0627171 107.0546571  19.7476198  57.9672802 106.9393237
  20.6743317  57.1043699 107.7690641  20.9642539  54.4404020 103.6447931
  21.5606111  54.2160042 102.9304894  21.0217511  53.6988765 104.2473379
  20.5367568  51.8943455  91.4798122  20.7893088  51.3724976  90.7181585
  19.5992127  51.7309600  91.5824805  25.5810850  50.8979233  99.2872865
  26.3673940  50.4798656  98.9363282  25.8449555  51.8025326  99.4554513
  25.7520928  56.3352084  93.9861522  25.1166761  56.4086710  94.6982426
  25.4218334  56.9245682  93.3080601  20.2563856  53.7971561  93.6822497
  20.1400114  53.1216464  94.3503581  20.3666116  53.3103935  92.8654650
  22.5995397  53.2581708  97.3869186  22.2353605  52.7312329  98.0982107
  23.4562513  52.8680177  97.2135671  28.5044698  44.5476041 104.6500452
  28.1728023  45.4171452 104.4261667  27.9090311  44.2312325 105.3294482
  22.2400884  48.2871608  92.3830534  22.4075287  49.1551844  92.7501005
  22.0498053  48.4498889  91.4591824  24.9976217  56.7488587 104.0496365
  24.6976941  57.6513625 103.9412172  24.6527277  56.4820770 104.9017518
  18.4488699  53.2002383 100.0833069  17.5239195  53.0678598 100.2910761
  18.6973112  53.9796603 100.5803012  28.3973361  49.2671127 101.7293802
  27.4890239  49.1986535 101.4352563  28.3460957  49.7443072 102.5575628
  22.2190105  50.7429265  93.3677201  22.0989730  51.1886316  94.2062682
  21.5242694  51.0914583  92.8090739  15.8097510  52.8435657 100.9176858
  15.9389891  53.0970136 101.8316270  15.1294961  53.4363365 100.5981513
  19.9796997  63.5132907  97.0167332  19.9021027  64.4640732  97.0955813
  19.3758641  63.1678779  97.6742259  22.4714227  50.6860772 109.6728699
  21.6947561  51.2454693 109.6631564  23.1104790  51.1717555 110.1943569
  30.2635008  47.4687565 103.5071676  29.6209388  47.7620098 102.8611471
  29.7589936  47.3540486 104.3124873  27.9175171  51.2150738  94.1957535
  28.8293027  51.4478125  94.0205233  27.4084818  51.7987783  93.6332614
  20.7260599  53.4946226 109.2346666  21.4675284  54.0331270 108.9581490
  20.0197585  54.1212515 109.3918218  26.2015939  55.6375366 107.8318828
  26.6099295  55.1957777 107.0873460  25.4793200  55.0627994 108.0853021
  22.5547009  50.5747973 105.2052385  23.4008204  50.9987387 105.3487034
  22.4945647  49.9181597 105.8990948  26.5244754  56.1976557 101.5871117
  25.8953616  56.3622271 100.8847185  26.1370416  56.6118166 102.3582081
  30.4033985  57.1330995  98.9415480  29.7185024  57.5129896  98.3912514
  30.4877835  57.7426321  99.6747428  25.7046454  48.2352341 106.8633558
  25.4607386  48.9894402 106.3267834  25.9806385  48.6137689 107.6980805
  27.6584917  54.7790954 105.5410824  27.8701812  55.4222714 104.8645205
  27.6114665  53.9453270 105.0732754  25.2611146  47.3908774 102.4447396
  24.3995625  47.6890028 102.7364134  25.2873581  47.6079173 101.5128429
  22.0772715  55.9350965  98.8521202  22.5411061  56.2138668  98.0625824
  21.8129514  55.0334410  98.6694293  18.9696797  55.4822446 101.7900965
  19.5398154  55.9109715 101.1518450  19.5604908  55.2005031 102.4885151
  21.0141602  52.0574117  95.6610767  21.7165645  52.5095161  96.1284693
  20.6822230  51.4157936  96.2890660  19.4621963  50.6485874 110.0361976
  18.8320624  51.3302155 110.2697373  19.3558051  50.5368956 109.0915115
  14.7566935  50.3157670 100.9627901  13.9665989  50.5715198 100.4868011
  15.2478183  51.1306008 101.0679941  28.7730745  57.6562909 103.7133181
  29.5948189  57.2543096 103.4315863  28.7693148  57.5531143 104.6649297
  16.7081681  50.6802249  97.9211377  15.9112844  50.7920943  98.4394873
  16.4807273  51.0188901  97.0552268  22.5387348  57.2046952 105.8693892
  22.6031781  57.6667360 106.7052064  21.8298272  56.5744317 105.9976202
  13.0404638  50.5688160 103.3942891  13.2912677  51.4535170 103.6600467
  13.5764187  50.3892762 102.6217983  22.2535366  58.8715060  95.7372872
  22.1181041  59.7166596  96.1657720  22.7945179  59.0734338  94.9738806
  15.7064764  56.3890498  96.3100797  16.2189284  57.1833748  96.4606362
  16.3587476  55.6916788  96.2434399  17.5159648  59.5056254  98.3923550
  17.6926277  60.4274219  98.2044534  18.3116482  59.1914673  98.8217930
  21.6570667  46.3664519 109.9907484  22.3980380  46.9671672 109.9111946
  21.8888590  45.6242157 109.4325527  16.8012005  51.5520886 108.2685714
  16.6865520  50.6506143 108.5692813  15.9456523  51.7984583 107.9170530
  23.8803843  59.4938626 109.8673214  23.4367697  58.7075005 109.5494119
  24.5421056  59.6817777 109.2017105  18.6390964  61.0234428 104.3933893
  19.1898389  60.8951491 103.6210887  17.8002440  61.3229317 104.0428786
  25.9785081  59.7741426 107.8954616  25.9603556  60.5950307 107.4034885
  26.9005001  59.6495502 108.1204757  22.4358135  57.2885556 108.7378124
  22.9686472  56.5273844 108.5077432  21.9072216  56.9959208 109.4802278
  25.6027830  42.3945622 104.2671766  25.2592099  43.2847263 104.1910876
  25.9706792  42.2047279 103.4041351  13.6713680  54.7179152  97.0860368
  14.5088902  55.1276161  96.8694076  13.8491948  53.7778594  97.0560562
  25.5678112  52.3854233  92.7744201  25.0524736  53.1558838  93.0132588
  25.2955421  51.7119369  93.3977262  23.1525223  47.2303934  97.8329439
  22.2966820  46.8410784  97.6535078  23.5652175  47.3095894  96.9729225
  24.6824370  44.7650277 102.2320999  24.1789166  44.7280412 101.4188804
  24.9754977  45.6743020 102.2917656  20.9267256  44.8489007 101.2387181
  21.7920253  44.6531815 100.8793070  20.9944765  44.6199358 102.1656537
  25.3564416  50.2581325  94.6003982  25.0514551  50.5727474  95.4514125
  26.3094858  50.3362745  94.6431315  23.8010847  56.4171548  96.2496936
  23.2732209  55.6824308  95.9370173  23.2998350  57.1946225  96.0036904
  28.7803693  54.6120569 101.3663982  28.1227368  55.3019830 101.4544111
  29.5844093  55.0017001 101.7097969  18.5329575  47.0791215  98.6103547
  19.1073327  46.8566396  97.8776740  19.1200558  47.1479909  99.3632149
  27.5909152  52.9664941  99.4167924  28.1041034  53.5994933  99.9189634
  28.2410376  52.3666137  99.0511284  18.8599162  49.1095676  92.6299433
  18.0236474  49.4470362  92.9508707  18.7203932  48.9744655  91.6926570
  20.8352243  43.9532464  97.3378617  20.1816655  43.6381481  96.7135232
  20.7932717  43.3308204  98.0638440  21.9463448  54.2351759  89.2531909
  21.0390509  54.0041012  89.4523058  22.4434480  53.4389378  89.4405891
  24.8531527  62.9449266  92.1728595  24.1793225  63.2480963  92.7813553
  25.2397348  63.7478346  91.8234052  24.0689983  50.4414397 101.6626264
  23.1512545  50.6629344 101.5047953  24.4850127  50.5160708 100.8037972
  24.8525031  51.8405813  96.7928945  25.5996850  52.3527210  96.4836067
  25.1216620  51.5189865  97.6533338  23.1251681  54.3364353  93.7755899
  22.2162900  54.0523386  93.8728369  23.1546765  54.7563432  92.9159206
  28.3570948  57.9470943  97.5447067  27.9033276  57.1061853  97.6012257
  27.7264915  58.5832341  97.8821847  27.3003868  48.8762929  98.7747734
  26.5626625  48.3640315  99.1057977  27.5530642  48.4363311  97.9631011
  26.8003888  59.7847440  98.4796885  27.0926862  60.3452497  97.7609250
  27.3102508  60.0776001  99.2350044  27.4015495  41.6539181  99.3689503
  27.7074372  40.7936544  99.0815418  28.1268100  42.2456801  99.1688497
  13.6939851  52.0569868  97.7571101  13.4964251  51.4639228  97.0322168
  13.1386515  51.7522078  98.4747040  21.6736575  51.9492974  99.8765694
  21.7285185  50.9966810  99.8008171  20.8627777  52.1052413 100.3606993
  22.8227769  55.8773097  91.1143978  22.3847199  55.1608956  90.6549615
  23.5638210  56.1049212  90.5529069  19.6128935  50.5670034  97.6356073
  18.7996801  50.8664204  98.0421265  20.1087929  50.1725723  98.3530556
  21.7637513  60.5627791  99.5690338  21.7213692  60.7888637  98.6398870
  22.6800212  60.3291165  99.7176139  25.2103147  51.0311858 106.4670967
  25.5652534  51.2583331 107.3265433  25.8575278  51.3630235 105.8448222
  19.1043010  48.1388389 103.2517308  19.7442389  47.9977148 102.5540272
  18.2720540  47.8522903 102.8755910  30.9670263  56.2206821 102.1831568
  31.4006770  56.1282110 103.0314622  31.6801844  56.1964322 101.5451584
  19.8803314  57.4390820  99.3652301  20.6743912  56.9441140  99.1634876
  19.1695006  56.9108683  99.0020006  24.6998158  59.8208915 103.7164668
  24.7535180  60.3899852 104.4842384  23.8312940  59.9910800 103.3518705
  16.1886077  51.5833901  95.4412053  15.2583665  51.5218357  95.6582015
  16.2843549  51.0609854  94.6448695  16.1071626  48.1088714  98.0290295
  16.3678444  49.0234048  97.9199455  16.9288799  47.6413157  98.1786908
  17.5796552  49.5226471 105.1989120  18.2519605  49.3143834 104.5501768
  16.7526338  49.3248557 104.7594352  31.8285813  56.2630522 104.7164453
  32.0221703  57.1676332 104.9623728  31.7286431  55.8037941 105.5503038
  23.4822124  46.1488412 107.2154780  22.8350039  46.8478362 107.1219257
  24.2523139  46.5824556 107.5831029  26.8900922  56.4137265 110.2905334
  26.7386428  56.1847816 109.3735417  26.8805601  57.3707866 110.3036679
  23.6586258  53.9869177 105.2751600  24.5878318  54.1380337 105.1020567
  23.2377288  54.0753198 104.4200247  22.4574590  58.0119842 103.0450138
  22.3185675  57.6438626 103.9176076  21.6689186  58.5267481 102.8734096
  23.0522742  63.1128938  94.3875674  23.2274497  62.6416981  95.2021297
  22.3655530  63.7394704  94.6156935  24.0079805  57.3901444 100.4338976
  23.6729637  57.3502214 101.3296625  23.5083751  56.7246160  99.9609386
  17.9824049  52.7969074 105.9591557  17.8443847  52.0649313 106.5603096
  18.8928972  52.7077975 105.6775744  20.6106349  52.5089034 105.4475236
  21.3205968  51.8682226 105.4061855  20.5675658  52.7601929 106.3701417
  28.5993128  59.4456387 108.3681816  28.5405674  58.7615607 107.7012399
  29.0012647  60.1875377 107.9162442  19.3235283  49.4954252 107.2670876
  18.7872640  49.0444990 107.9192472  18.7351992  49.6300160 106.5241340
  17.6183827  66.2618301 101.1615534  17.8580425  66.8936825 101.8394553
  16.7753023  65.9106341 101.4480894  18.7337542  48.9542903  89.8297339
  17.8567009  48.8331704  89.4659586  19.2095295  48.1628981  89.5776228
  28.6010535  57.4095971 106.5995795  27.7137314  57.0721893 106.7222194
  29.1709086  56.6779002 106.8364561  10.2539683  53.7420063  99.9238847
  10.9410722  53.4281793  99.3359862  10.0987811  54.6461427  99.6506098
  15.0574405  48.6310259 104.3523870  14.9732593  48.0235929 103.6174280
  14.2357111  49.1219278 104.3533367  22.1311689  62.0697423 103.5657038
  22.0581860  62.8752395 104.0776343  21.6889082  62.2689389 102.7405060
  21.9201468  61.3069193  97.0759860  21.1368990  61.8490874  97.1698085
  22.6194214  61.8243173  97.4754101  25.2298119  47.1163823  99.7194065
  25.7266818  46.3633785  99.3995136  24.4585100  47.1528140  99.1537275
  24.5910372  61.9684257 105.7215197  25.3038345  62.6031722 105.6491099
  24.1000401  62.0648123 104.9055199  26.3127899  55.8735510  97.2932489
  25.3784178  55.9936973  97.1237193  26.4904568  54.9707977  97.0292499
  21.8133087  49.2581206  99.4465750  21.4430875  48.7052246 100.1346656
  22.3092180  48.6539339  98.8940750  19.6422286  59.7178701 106.5420768
  20.3431745  60.3515184 106.6950162  19.1717401  60.0593432 105.7816407
  27.6717113  44.0833416 101.8673424  26.7580193  44.3137643 102.0355631
  28.1010215  44.1671860 102.7187457  27.4423572  52.2723308 104.3673318
  26.7895022  52.5199216 103.7125771  27.8203952  51.4587447 104.0335796
  24.4030746  62.3083002  98.4701489  24.5853140  61.4904657  98.9329241
  25.2263732  62.5250694  98.0326379  24.7372911  61.2351187  95.7316537
  25.2660678  60.7243641  95.1186699  25.0001131  60.9193717  96.5962070
  23.4911145  53.0143119 110.8539355  22.8151782  52.9137249 111.5241731
  24.3138779  52.8582333 111.3175353  15.2390004  59.2515056 103.4751871
  15.8243441  58.5058744 103.6079775  15.0414842  59.5619013 104.3588535
  18.0928659  62.2866303  98.4914313  17.4239034  62.7712431  98.0078353
  17.9541529  62.5335524  99.4057692   9.8307659  51.8220656 102.1956314
   9.8691758  51.2884247 102.9893432   9.3247951  51.2955862 101.5767291
  22.2333928  64.3210047 105.0896971  22.7852236  64.4841668 105.8546057
  22.5740121  64.9114485 104.4176996  17.2098421  46.6685197 105.6918856
  17.2739747  47.5300028 105.2796254  17.1465541  46.0559198 104.9591215
  27.0844802  59.1471304 110.9445626  27.6284706  59.7601263 110.4500581
  26.5031647  59.7050883 111.4612639  13.4616236  50.5484758  95.2710245
  13.7569677  49.6395437  95.2177299  12.5604272  50.5272498  94.9491248
  25.3702315  62.2692022 102.0760654  25.2453454  61.4681762 101.5671599
  26.0281406  62.7638216 101.5874623  16.9910483  48.6240755 101.2537794
  16.2697069  49.2376723 101.1145267  17.7803739  49.1598520 101.1754440
  27.4337223  60.0701042 103.7040204  26.4867559  59.9506394 103.6318530
  27.7819997  59.1823541 103.7866465  19.7936797  45.9595181 107.5278446
  20.3171199  46.2057478 108.2904755  19.5749130  46.7915216 107.1081583
  15.1904078  48.2298856  95.3949570  14.8616784  47.3496235  95.2124676
  15.5443449  48.1746525  96.2825960  24.4383657  59.8653759  99.9044556
  24.2908619  58.9370466 100.0852126  25.2637150  59.8873849  99.4201631
  18.3045901  48.5171826  95.7625048  18.6441973  49.0457747  95.0403656
  18.7518021  48.8552232  96.5383615  28.0417779  60.6882317 100.9909429
  28.9664326  60.4825179 100.8533880  27.8733082  60.4398719 101.8998770
  20.9989342  46.9008877 105.2128116  20.6586162  46.1016690 105.6148796
  20.2928348  47.2010587 104.6404949  21.6505814  43.9858189 103.6655439
  22.4731883  43.5118667 103.5434329  21.8943877  44.7648673 104.1654125
  20.2914048  47.0146447  93.9618341  21.0122411  47.3927700  93.4582058
  19.6679352  47.7335324  94.0653319  24.4345171  47.7191596  94.8976673
  24.6508785  48.6016234  94.5965501  23.9539238  47.3277810  94.1682315
  19.1744392  50.6777310 101.4747418  19.0288973  50.9917613 102.3671699
  18.6969596  51.2962210 100.9218316  21.0340775  47.6679858 101.5228307
  21.0202344  46.7720951 101.1860605  21.7513203  47.6750521 102.1566593
  22.8866906  48.1017198 103.5681435  22.6284684  49.0234268 103.5665765
  22.3551946  47.7047632 104.2581899  27.8313095  61.2067985  96.3471520
  28.0049972  60.6414407  95.5945373  28.3241986  62.0068880  96.1651010
  13.6490055  53.2182654 104.4135079  13.1043523  53.9942462 104.5455353
  14.5269404  53.5653458 104.2554200  20.4377671  46.5494238  96.7915877
  20.5593582  45.6210884  96.9906765  20.1479714  46.5632924  95.8794193
  23.3068862  44.2349148  99.9282597  23.3290558  44.2988481  98.9734577
  23.7236921  43.3953657 100.1223103  14.4356076  52.3452550 107.3065236
  13.6937812  52.4935186 107.8929866  14.1148821  52.6060816 106.4431985
  22.3799739  61.8868528 107.1045626  22.6886866  61.6417675 107.9768325
  23.1775221  62.0915167 106.6164496  22.4020351  64.0406438  99.3351002
  21.9625341  63.5482817 100.0283859  23.1528468  63.4979406  99.0943078
  14.8812690  60.2317979  99.3375630  15.7070710  59.9321751  98.9574274
  14.5306742  59.4625601  99.7865419  19.8494223  59.5844447 101.4073304
  19.2274233  58.9215152 101.1075532  20.5199090  59.6105579 100.7246952
  13.0821295  58.1504305 100.2964564  12.2453203  57.7226480 100.1148565
  13.0544941  58.3436749 101.2335355  30.4073596  58.6067358 110.2806947
  29.6169140  58.5891497 109.7411446  30.1706951  59.1455652 111.0355984
  30.5271471  55.4559825 107.5939676  30.5769476  55.2909832 108.5355198
  30.4185395  54.5887084 107.2037556  19.4107730  58.1348371  94.8831765
  19.5595851  58.8183835  94.2298437  20.2174174  58.1153461  95.3981220
  27.8175234  51.4390753 108.9098982  28.7185097  51.2997218 108.6182980
  27.8923208  51.6045208 109.8497160  22.1518039  48.8157608 107.7552169
  21.2821349  49.1091174 107.4834757  22.3877520  49.3998053 108.4759432
  32.0289668  57.8756766 107.8381697  31.7374477  58.2386747 108.6745158
  31.4161800  57.1623775 107.6595029  30.2776857  52.9989381 106.3061755
  30.7530978  53.1917027 105.4980607  29.3542422  53.0548567 106.0605139
  17.1660363  54.1613548  95.8892833  16.9206405  53.2575878  96.0873044
  17.3356278  54.1630699  94.9472311  24.8557073  45.0337225 105.2717589
  25.3739017  45.7698251 104.9464078  24.5012206  45.3401218 106.1064348
  16.4356011  49.8941906  93.3878995  15.7425256  49.9686261  92.7319031
  16.1907763  49.1302249  93.9100512  25.1069667  41.4537507 100.7918486
  25.3871421  40.7860696 101.4178912  25.8920274  41.6466603 100.2793149
  22.9103136  60.6296501  92.3543512  22.3377103  61.2486688  91.9013984
  23.4835929  61.1795863  92.8883434  28.9778526  49.8755141 104.5390061
  29.9295948  49.9753239 104.5602285  28.8081976  49.0833410 105.0488145
  26.9992905  46.9610724 104.7249462  26.4042837  47.2415737 104.0295950
  26.7142602  47.4504625 105.4966203  26.1300395  60.9133651  93.4852094
  27.0631069  60.8479213  93.6884970  26.0423608  61.7489918  93.0266627
  28.7588412  60.2299521  90.4456042  28.6802044  59.8959385  91.3391800
  29.5798079  60.7221289  90.4447514  31.4566603  53.0961261 103.6532360
  31.4242923  52.1577261 103.8392044  32.0667227  53.1745297 102.9198185
  23.2949934  51.9657314  89.6959564  24.2409039  51.8363522  89.7647982
  22.9164179  51.2271976  90.1728993  31.6061092  49.8872304 103.6990644
  31.0900140  49.1030761 103.5120572  32.4901040  49.5591021 103.8637163
  29.2671819  43.6313320  99.6586456  29.0696640  43.3228408 100.5429788
  29.8771524  44.3574959  99.7884386  35.3558450  52.2985130 103.3912848
  34.6291614  52.1641095 102.7829340  34.9405737  52.6061959 104.1969566
  23.1788627  56.0175060 111.1560221  24.0991636  56.1953659 111.3500268
  23.1438210  55.0731105 111.0039921  21.4792851  49.8907290  89.6314450
  20.5724307  49.5940403  89.7077163  21.7568832  49.5937108  88.7648736
  12.3970792  51.2113654 100.0813496  12.0773576  50.3578962  99.7887870
  11.8504220  51.4262232 100.8371463  16.1750699  53.9276095 103.7983003
  16.3936709  54.8593202 103.8171036  16.5876473  53.5684069 104.5837806
  23.0954917  44.4344180  95.7858691  22.2855645  44.0891265  96.1613937
  23.7839334  44.1251724  96.3746302  25.0245465  43.5122227  97.4082988
  25.5776504  43.9317680  98.0673011  25.2615552  42.5857975  97.4505944
  20.2491636  46.7494225  89.7726429  21.1110800  47.0749124  90.0322246
  20.4341980  45.9625721  89.2599495  12.2659052  54.8316565 102.0506618
  11.5722523  54.4170518 101.5376572  13.0132043  54.8737102 101.4540037
  28.4024272  45.6222752  96.9161652  27.8222941  46.2807556  96.5339704
  28.1360205  44.8000096  96.5049069  26.8527839  45.0227809  99.1182972
  27.3527617  45.1344344  98.3097291  27.4963447  44.7188862  99.7583781
  20.9109835  52.9306439 112.0050813  20.4276916  53.7306799 112.2114702
  20.9970774  52.9414384 111.0518257  14.1795794  54.7634819  99.9272632
  14.1566482  54.8622506  98.9754516  14.4896431  55.6099970 100.2489799
  16.8383172  56.8210974 104.0419247  17.7926426  56.7894916 103.9749178
  16.6395696  56.3601598 104.8569473  17.4282554  55.3912090 106.6090045
  18.2475443  55.8856169 106.6324882  17.7019362  54.4744058 106.5807612
  27.1849150  47.7822842  95.9718000  26.2975005  48.0672493  95.7538195
  27.6003140  47.6216606  95.1245277  15.1933401  62.3630593 101.0589445
  15.0587869  61.6030994 100.4927443  14.7765463  63.0871493 100.5918234
  26.3292364  57.5467517  90.0666020  27.0328214  57.7517519  90.6823676
  25.6055013  58.1144279  90.3315104  27.1590174  53.2977378  96.1868290
  27.1025376  53.7545930  95.3475923  27.7118517  52.5368063  96.0091133
  18.3502527  63.2599910 101.2707887  18.2334911  64.2045343 101.1686578
  17.5294973  62.9573472 101.6593687  27.8924954  54.4882159  93.4820819
  27.8373757  54.3226431  92.5409264  27.2671009  55.1958192  93.6383009
  12.6817469  49.7250224 107.3082242  13.3276332  49.2149178 107.7969467
  12.4734620  50.4618905 107.8825667  25.2070861  56.7931071 112.8074382
  26.0762020  56.9671723 112.4461017  24.7277612  57.6125488 112.6850112
  21.2021079  43.9890268  93.0606138  21.1899749  44.9332108  93.2174409
  22.0944501  43.8060414  92.7665599  19.3757041  63.9128172 104.4863816
  20.2784288  63.9451782 104.8030311  19.1494411  62.9828623 104.5010152
  21.1310643  62.6659159 101.1473894  20.1806274  62.6661020 101.0338267
  21.4343129  61.9191893 100.6309929  25.0173198  40.5833045  97.3152075
  24.2505594  40.0291532  97.4608757  25.4283903  40.6554914  98.1766226
  27.0804290  71.8033793 100.9762293  27.8725582  71.4624618 100.5608592
  27.3200941  71.9128768 101.8964446  26.6491264  68.1727575 100.9176858
  26.7783646  68.4262054 101.8316270  25.9688716  68.7655283 100.5981513
  33.3107981  66.0152690 109.6728699  32.5341316  66.5746610 109.6631564
  33.9498545  66.5009473 110.1943569  31.5654354  68.8238143 109.2346666
  32.3069038  69.3623187 108.9581490  30.8591339  69.4504432 109.3918218
  36.5440209  63.5644259 106.8633558  36.3001141  64.3186320 106.3267834
  36.8200139  63.9429607 107.6980805  30.3015718  65.9777792 110.0361976
  29.6714378  66.6594072 110.2697373  30.1951805  65.8660873 109.0915115
  25.5960690  65.6449588 100.9627901  24.8059744  65.9007116 100.4868011
  26.0871937  66.4597925 101.0679941  23.8798393  65.8980078 103.3942891
  24.1306431  66.7827088 103.6600467  24.4157941  65.7184680 102.6217983
  29.5796460  60.2798557 112.3987227  29.1863406  59.7264756 113.0734872
  30.3962601  60.5909136 112.7893745  28.3553403  74.8348172  98.3923550
  28.5320031  75.7566137  98.2044534  29.1510236  74.5206591  98.8217930
  32.4964421  61.6956437 109.9907484  33.2374135  62.2963590 109.9111946
  32.7282344  60.9534074 109.4325527  27.6405759  66.8812804 108.2685714
  27.5259274  65.9798061 108.5692813  26.7850277  67.1276501 107.9170530
  33.2751889  72.6177474 108.7378124  33.8080226  71.8565762 108.5077432
  32.7465970  72.3251125 109.4802278  24.5107435  70.0471070  97.0860368
  25.3482657  70.4568078  96.8694076  24.6885703  69.1070512  97.0560562
  24.5333606  67.3861785  97.7571101  24.3358006  66.7931146  97.0322168
  23.9780270  67.0813995  98.4747040  27.0279832  66.9125819  95.4412053
  26.0977420  66.8510275  95.6582015  27.1237304  66.3901772  94.6448695
  26.9465381  63.4380632  98.0290295  27.2072198  64.3525965  97.9199455
  27.7682553  62.9705075  98.1786908  28.4190306  64.8518389 105.1989120
  29.0913359  64.6435751 104.5501768  27.5920093  64.6540475 104.7594352
  34.3215878  61.4780330 107.2154780  33.6743793  62.1770280 107.1219257
  35.0916893  61.9116474 107.5831029  28.8217803  68.1260992 105.9591557
  28.6837601  67.3941231 106.5603096  29.7322727  68.0369892 105.6775744
  30.1629038  64.8246169 107.2670876  29.6266395  64.3736908 107.9192472
  29.5745746  64.9592078 106.5241340  28.4577581  81.5910219 101.1615534
  28.6974180  82.2228743 101.8394553  27.6146778  81.2398259 101.4480894
  29.5731297  64.2834821  89.8297339  28.6960763  64.1623622  89.4659586
  30.0489050  63.4920899  89.5776228  21.0933437  69.0711980  99.9238847
  21.7804477  68.7573711  99.3359862  20.9381566  69.9753345  99.6506098
  25.8968159  63.9602177 104.3523870  25.8126348  63.3527847 103.6174280
  25.0750866  64.4511195 104.3533367  34.3304899  68.3435037 110.8539355
  33.6545536  68.2429166 111.5241731  35.1532533  68.1874251 111.3175353
  26.0783758  74.5806974 103.4751871  26.6637195  73.8350662 103.6079775
  25.8808597  74.8910930 104.3588535  20.6701413  67.1512574 102.1956314
  20.7085513  66.6176165 102.9893432  20.1641706  66.6247779 101.5767291
  27.5244448  64.0700247 109.3391890  28.1516487  63.6877324 109.9529415
  26.6672367  63.8514449 109.7047583  24.3009991  65.8776676  95.2710245
  24.5963432  64.9687354  95.2177299  23.3998026  65.8564415  94.9491248
  30.6330551  61.2887099 107.5278446  31.1564953  61.5349396 108.2904755
  30.4142885  62.1207134 107.1081583  26.0297832  63.5590774  95.3949570
  25.7010538  62.6788153  95.2124676  26.3837203  63.5038442  96.2825960
  24.4883809  68.5474572 104.4135079  23.9437277  69.3234380 104.5455353
  25.3663159  68.8945376 104.2554200  25.2749831  67.6744468 107.3065236
  24.5331567  67.8227103 107.8929866  24.9542575  67.9352734 106.4431985
  25.7206445  75.5609897  99.3375630  26.5464464  75.2613668  98.9574274
  25.3700497  74.7917519  99.7865419  23.9215050  73.4796223 100.2964564
  23.0846958  73.0518397 100.1148565  23.8938695  73.6728666 101.2335355
  30.7612505  63.3918153 111.0005810  30.8100661  64.2680276 110.6183580
  31.3035019  62.8495546 110.4277453  32.9911794  64.1449525 107.7552169
  32.1215103  64.4383091 107.4834757  33.2271274  64.7289970 108.4759432
  35.6950828  60.3629142 105.2717589  36.2132771  61.0990169 104.9464078
  35.3405960  60.6693135 106.1064348  27.2749765  65.2233823  93.3878995
  26.5819010  65.2978178  92.7319031  27.0301517  64.4594167  93.9100512
  34.0182381  71.3466978 111.1560221  34.9385391  71.5245577 111.3500268
  33.9831964  70.4023023 111.0039921  23.2364546  66.5405571 100.0813496
  22.9167331  65.6870879  99.7887870  22.6897974  66.7554149 100.8371463
  27.0144454  69.2568012 103.7983003  27.2330464  70.1885120 103.8171036
  27.4270228  68.8975987 104.5837806  31.8872319  64.8301218 113.1885751
  31.7869046  65.7795575 113.1197843  31.6693861  64.5019457 112.3161822
  31.0885390  62.0786143  89.7726429  31.9504554  62.4041041  90.0322246
  31.2735735  61.2917639  89.2599495  23.1052806  70.1608483 102.0506618
  22.4116278  69.7462435 101.5376572  23.8525797  70.2029019 101.4540037
  31.7503589  68.2598357 112.0050813  31.2670671  69.0598717 112.2114702
  31.8364528  68.2706302 111.0518257  25.0189549  70.0926736  99.9272632
  24.9960237  70.1914424  98.9754516  25.3290185  70.9391887 100.2489799
  27.6776927  72.1502891 104.0419247  28.6320180  72.1186834 103.9749178
  27.4789450  71.6893515 104.8569473  28.2676309  70.7204008 106.6090045
  29.0869198  71.2148086 106.6324882  28.5413116  69.8035976 106.5807612
  26.0327155  77.6922511 101.0589445  25.8981623  76.9322912 100.4927443
  25.6159218  78.4163411 100.5918234  29.1896281  78.5891828 101.2707887
  29.0728665  79.5337260 101.1686578  28.3688728  78.2865390 101.6593687
  23.5211223  65.0542141 107.3082242  24.1670087  64.5441095 107.7969467
  23.3128374  65.7910823 107.8825667  36.0464615  72.1222989 112.8074382
  36.9155775  72.2963641 112.4461017  35.5671367  72.9417406 112.6850112
  30.2150795  79.2420090 104.4863816  31.1178042  79.2743700 104.8030311
  29.9888165  78.3120541 104.5010152  27.8608714  62.2009758 111.4057256
  28.7240176  61.8446563 111.6160580  27.2874125  61.8623653 112.0932660
  47.7057091  83.8311615 102.2119657  48.3435501  83.7118362 101.5082997
  47.5877934  84.7792459 102.2707609  44.5146797  83.7839043 102.1481182
  44.1765309  83.6680108 101.2601716  45.3836565  83.3830208 102.1282188
  40.3733613  85.6374519  98.1378073  39.8098478  85.5464456  97.3694360
  40.2586008  84.8174424  98.6180565  44.9966580  84.9373895 108.1067387
  44.9855221  84.5426693 107.2347891  45.1587220  84.2039967 108.7001159
  37.9198045  87.1325711 100.9762293  38.7119337  86.7916536 100.5608592
  38.1594695  87.2420686 101.8964446  45.9533172  89.3045487  93.4492537
  45.3021151  89.8899567  93.0626551  46.7477534  89.8351682  93.5087575
  39.8788799  86.3934624  93.8479672  40.6519675  85.8463611  93.7092548
  40.2314198  87.2578874  94.0594133  41.7173841  87.7211006 107.0546571
  41.4263707  88.6256637 106.9393237  42.3530826  87.7627534 107.7690641
  42.6430048  85.0987855 103.6447931  43.2393620  84.8743877 102.9304894
  42.7005020  84.3572600 104.2473379  42.2155077  82.5527290  91.4798122
  42.4680597  82.0308812  90.7181585  41.2779636  82.3893436  91.5824805
  47.2598359  81.5563069  99.2872865  48.0461449  81.1382492  98.9363282
  47.5237064  82.4609161  99.4554513  47.4308437  86.9935919  93.9861522
  46.7954270  87.0670545  94.6982426  47.1005843  87.5829518  93.3080601
  52.6606787  81.4938302 100.1905843  53.3931958  80.9237519 100.4243673
  51.9046142  81.1059902 100.6312349  41.9351365  84.4555396  93.6822497
  41.8187623  83.7800300  94.3503581  42.0453625  83.9687770  92.8654650
  44.2782906  83.9165543  97.3869186  43.9141113  83.3896164  98.0982107
  45.1350022  83.5264012  97.2135671  50.1832207  75.2059876 104.6500452
  49.8515532  76.0755287 104.4261667  49.5877820  74.8896160 105.3294482
  43.9188393  78.9455443  92.3830534  44.0862796  79.8135679  92.7501005
  43.7285562  79.1082725  91.4591824  46.6763726  87.4072422 104.0496365
  46.3764450  88.3097461 103.9412172  46.3314786  87.1404605 104.9017518
  40.1276208  83.8586219 100.0833069  39.2026704  83.7262433 100.2910761
  40.3760621  84.6380438 100.5803012  50.0760870  79.9254962 101.7293802
  49.1677748  79.8570371 101.4352563  50.0248466  80.4026907 102.5575628
  43.8977614  81.4013101  93.3677201  43.7777239  81.8470151  94.2062682
  43.2030202  81.7498418  92.8090739  37.4885019  83.5019492 100.9176858
  37.6177400  83.7553971 101.8316270  36.8082470  84.0947200 100.5981513
  41.6584506  94.1716742  97.0167332  41.5808536  95.1224567  97.0955813
  41.0546150  93.8262615  97.6742259  44.1501736  81.3444608 109.6728699
  43.3735070  81.9038528 109.6631564  44.7892299  81.8301391 110.1943569
  51.9422517  78.1271401 103.5071676  51.2996897  78.4203934 102.8611471
  51.4377445  78.0124321 104.3124873  49.5962680  81.8734574  94.1957535
  50.5080536  82.1061960  94.0205233  49.0872327  82.4571618  93.6332614
  42.4048108  84.1530061 109.2346666  43.1462793  84.6915105 108.9581490
  41.6985094  84.7796350 109.3918218  47.8803448  86.2959202 107.8318828
  48.2886804  85.8541612 107.0873460  47.1580709  85.7211829 108.0853021
  44.2334518  81.2331808 105.2052385  45.0795713  81.6571222 105.3487034
  44.1733156  80.5765433 105.8990948  48.2032263  86.8560392 101.5871117
  47.5741125  87.0206106 100.8847185  47.8157925  87.2702002 102.3582081
  52.0821494  87.7914830  98.9415480  51.3972533  88.1713731  98.3912514
  52.1665344  88.4010157  99.6747428  47.3833963  78.8936177 106.8633558
  47.1394895  79.6478237 106.3267834  47.6593894  79.2721524 107.6980805
  49.3372426  85.4374789 105.5410824  49.5489321  86.0806549 104.8645205
  49.2902174  84.6037106 105.0732754  43.7560224  86.5934800  98.8521202
  44.2198570  86.8722503  98.0625824  43.4917023  85.6918245  98.6694293
  40.6484306  86.1406282 101.7900965  41.2185663  86.5693550 101.1518450
  41.2392417  85.8588867 102.4885151  42.6929111  82.7157953  95.6610767
  43.3953154  83.1678996  96.1284693  42.3609739  82.0741772  96.2890660
  41.1409472  81.3069709 110.0361976  40.5108133  81.9885990 110.2697373
  41.0345560  81.1952791 109.0915115  50.4518254  88.3146744 103.7133181
  51.2735698  87.9126932 103.4315863  50.4480657  88.2114979 104.6649297
  38.3869190  81.3386085  97.9211377  37.5900353  81.4504779  98.4394873
  38.1594782  81.6772737  97.0552268  44.2174857  87.8630788 105.8693892
  44.2819290  88.3251195 106.7052064  43.5085781  87.2328153 105.9976202
  58.5424247  84.6585493 100.0618153  57.7887955  84.0892891  99.9062157
  58.6771788  84.6248157 101.0088788  43.9322875  89.5298895  95.7372872
  43.7968550  90.3750431  96.1657720  44.4732688  89.7318173  94.9738806
  37.3852273  87.0474333  96.3100797  37.8976793  87.8417584  96.4606362
  38.0374985  86.3500624  96.2434399  39.1947157  90.1640090  98.3923550
  39.3713786  91.0858054  98.2044534  39.9903991  89.8498509  98.8217930
  43.3358176  77.0248354 109.9907484  44.0767889  77.6255507 109.9111946
  43.5676099  76.2825992 109.4325527  38.4799514  82.2104721 108.2685714
  38.3653029  81.3089979 108.5692813  37.6244032  82.4568418 107.9170530
  45.5591352  90.1522462 109.8673214  45.1155206  89.3658840 109.5494119
  46.2208565  90.3401612 109.2017105  40.3178473  91.6818263 104.3933893
  40.8685898  91.5535327 103.6210887  39.4789949  91.9813152 104.0428786
  47.6572590  90.4325262 107.8954616  47.6391065  91.2534143 107.4034885
  48.5792510  90.3079337 108.1204757  44.1145644  87.9469391 108.7378124
  44.6473981  87.1857679 108.5077432  43.5859725  87.6543043 109.4802278
  35.3501189  85.3762988  97.0860368  36.1876411  85.7859996  96.8694076
  35.5279457  84.4362430  97.0560562  47.2465621  83.0438068  92.7744201
  46.7312245  83.8142673  93.0132588  46.9742930  82.3703204  93.3977262
  52.2199896  85.7970423  94.7097374  51.4429338  85.4581582  94.2652536
  52.8991377  85.8023046  94.0352339  47.0351925  80.9165160  94.6003982
  46.7302060  81.2311310  95.4514125  47.9882367  80.9946580  94.6431315
  45.4798356  87.0755384  96.2496936  44.9519718  86.3408143  95.9370173
  44.9785859  87.8530060  96.0036904  50.4591202  85.2704404 101.3663982
  49.8014877  85.9603666 101.4544111  51.2631602  85.6600836 101.7097969
  49.2696661  83.6248777  99.4167924  49.7828543  84.2578769  99.9189634
  49.9197885  83.0249972  99.0511284  40.5386671  79.7679511  92.6299433
  39.7023983  80.1054198  92.9508707  40.3991441  79.6328491  91.6926570
  43.6250957  84.8935594  89.2531909  42.7178018  84.6624847  89.4523058
  44.1221989  84.0973213  89.4405891  46.5319036  93.6033101  92.1728595
  45.8580734  93.9064798  92.7813553  46.9184857  94.4062181  91.8234052
  46.5312540  82.4989648  96.7928945  47.2784359  83.0111045  96.4836067
  46.8004129  82.1773701  97.6533338  44.8039190  84.9948189  93.7755899
  43.8950409  84.7107222  93.8728369  44.8334274  85.4147267  92.9159206
  50.0358457  88.6054778  97.5447067  49.5820785  87.7645688  97.6012257
  49.4052424  89.2416177  97.8821847  48.9791377  79.5346764  98.7747734
  48.2414134  79.0224151  99.1057977  49.2318151  79.0947146  97.9631011
  48.4791397  90.4431275  98.4796885  48.7714371  91.0036332  97.7609250
  48.9890017  90.7359836  99.2350044  44.5015278  86.5356932  91.1143978
  44.0634708  85.8192791  90.6549615  45.2425719  86.7633047  90.5529069
  41.2916444  81.2253869  97.6356073  40.4784310  81.5248040  98.0421265
  41.7875438  80.8309558  98.3530556  43.4425022  91.2211626  99.5690338
  43.4001201  91.4472472  98.6398870  44.3587721  90.9875001  99.7176139
  46.8890656  81.6895694 106.4670967  47.2440043  81.9167167 107.3265433
  47.5362787  82.0214070 105.8448222  52.6188393  84.8114130  97.1720296
  52.4806291  85.0015725  96.2441485  52.2624611  85.5733512  97.6288347
  52.6457772  86.8790657 102.1831568  53.0794279  86.7865946 103.0314622
  53.3589353  86.8548157 101.5451584  41.5590823  88.0974655  99.3652301
  42.3531421  87.6024975  99.1634876  40.8482515  87.5692518  99.0020006
  46.3785667  90.4792751 103.7164668  46.4322689  91.0483687 104.4842384
  45.5100449  90.6494636 103.3518705  37.8673586  82.2417737  95.4412053
  36.9371174  82.1802192  95.6582015  37.9631058  81.7193690  94.6448695
  53.5073322  86.9214357 104.7164453  53.7009212  87.8260168 104.9623728
  53.4073940  86.4621776 105.5503038  48.5688430  87.0721100 110.2905334
  48.4173937  86.8431652 109.3735417  48.5593110  88.0291701 110.3036679
  45.3373767  84.6453013 105.2751600  46.2665827  84.7964172 105.1020567
  44.9164797  84.7337033 104.4200247  44.1362099  88.6703677 103.0450138
  43.9973184  88.3022461 103.9176076  43.3476695  89.1851317 102.8734096
  44.7310251  93.7712774  94.3875674  44.9062006  93.3000817  95.2021297
  44.0443039  94.3978540  94.6156935  45.6867314  88.0485280 100.4338976
  45.3517146  88.0086050 101.3296625  45.1871260  87.3829996  99.9609386
  39.6611558  83.4552910 105.9591557  39.5231356  82.7233149 106.5603096
  40.5716481  83.3661810 105.6775744  48.6226505  85.3941314  90.7076035
  48.0055676  84.6688142  90.6109088  48.1542994  86.1550674  90.3643109
  42.2893858  83.1672869 105.4475236  42.9993477  82.5266061 105.4061855
  42.2463167  83.4185764 106.3701417  50.2780637  90.1040222 108.3681816
  50.2193183  89.4199443 107.7012399  50.6800156  90.8459212 107.9162442
  41.0022792  80.1538087 107.2670876  40.4660149  79.7028825 107.9192472
  40.4139501  80.2883996 106.5241340  39.2971336  96.9202136 101.1615534
  39.5367934  97.5520660 101.8394553  38.4540532  96.5690176 101.4480894
  40.4125051  79.6126738  89.8297339  39.5354518  79.4915539  89.4659586
  40.8882804  78.8212817  89.5776228  50.2798044  88.0679806 106.5995795
  49.3924823  87.7305728 106.7222194  50.8496595  87.3362838 106.8364561
  31.9327192  84.4003898  99.9238847  32.6198231  84.0865628  99.3359862
  31.7775320  85.3045263  99.6506098  43.8099198  92.7281259 103.5657038
  43.7369369  93.5336230 104.0776343  43.3676591  92.9273225 102.7405060
  43.5988977  91.9653029  97.0759860  42.8156499  92.5074709  97.1698085
  44.2981723  92.4827008  97.4754101  54.7615385  83.4788024 101.3612357
  54.7505261  84.3612739 100.9906290  53.8932764  83.1259575 101.1666894
  46.2697881  92.6268093 105.7215197  46.9825854  93.2615558 105.6491099
  45.7787910  92.7231959 104.9055199  47.9915408  86.5319345  97.2932489
  47.0571687  86.6520808  97.1237193  48.1692077  85.6291812  97.0292499
  51.3787960  82.3736665  97.8282523  51.8448412  83.2064656  97.7542826
  51.8295460  81.9081646  98.5327781  41.3209795  90.3762536 106.5420768
  42.0219254  91.0099019 106.6950162  40.8504910  90.7177268 105.7816407
  49.4464191  88.7180486  94.8268675  49.7224035  88.6037081  95.7362549
  48.5768689  88.3197971  94.7880848  49.1211081  82.9307144 104.3673318
  48.4682531  83.1783051 103.7125771  49.4991461  82.1171282 104.0335796
  46.0818255  92.9666837  98.4701489  46.2640649  92.1488493  98.9329241
  46.9051241  93.1834529  98.0326379  46.4160420  91.8935022  95.7316537
  46.9448187  91.3827477  95.1186699  46.6788640  91.5777552  96.5962070
  45.1698654  83.6726955 110.8539355  44.4939291  83.5721084 111.5241731
  45.9926288  83.5166169 111.3175353  36.9177513  89.9098891 103.4751871
  37.5030950  89.1642579 103.6079775  36.7202351  90.2202848 104.3588535
  39.7716168  92.9450139  98.4914313  39.1026543  93.4296266  98.0078353
  39.6329038  93.1919359  99.4057692  31.5095168  82.4804492 102.1956314
  31.5479267  81.9468082 102.9893432  31.0035460  81.9539697 101.5767291
  43.9121437  94.9793882 105.0896971  44.4639745  95.1425504 105.8546057
  44.2527630  95.5698320 104.4176996  38.3638202  79.3992165 109.3391890
  38.9910241  79.0169242 109.9529415  37.5066121  79.1806366 109.7047583
  48.7632311  89.8055140 110.9445626  49.3072215  90.4185098 110.4500581
  48.1819156  90.3634718 111.4612639  47.0489824  92.9275858 102.0760654
  46.9240963  92.1265598 101.5671599  47.7068915  93.4222051 101.5874623
  49.1124732  90.7284878 103.7040204  48.1655068  90.6090229 103.6318530
  49.4607505  89.8407376 103.7866465  46.1171166  90.5237594  99.9044556
  45.9696128  89.5954301 100.0852126  46.9424659  90.5457685  99.4201631
  49.7205288  91.3466153 100.9909429  50.6451835  91.1409014 100.8533880
  49.5520591  91.0982554 101.8998770  46.1132680  78.3775432  94.8976673
  46.3296294  79.2600070  94.5965501  45.6326747  77.9861645  94.1682315
  49.5100604  91.8651820  96.3471520  49.6837481  91.2998243  95.5945373
  50.0029495  92.6652715  96.1651010  35.3277564  83.8766489 104.4135079
  34.7831032  84.6526297 104.5455353  36.2056913  84.2237294 104.2554200
  55.3639995  84.6288243  97.9661820  55.8071141  83.8795568  97.5680943
  54.4866505  84.6198380  97.5835552  50.4975776  91.1818585  93.4468418
  51.1926681  91.8025277  93.6655733  50.8398926  90.3313936  93.7220796
  36.1143585  83.0036386 107.3065236  35.3725321  83.1519021 107.8929866
  35.7936330  83.2644651 106.4431985  52.3967199  88.6318290  94.9755749
  52.9218523  88.9705563  94.2505069  52.3089552  87.6965305  94.7918884
  44.0587248  92.5452364 107.1045626  44.3674374  92.3001511 107.9768325
  44.8562730  92.7499002 106.6164496  44.0807860  94.6990273  99.3351002
  43.6412850  94.2066652 100.0283859  44.8315977  94.1563241  99.0943078
  36.5600199  90.8901814  99.3375630  37.3858219  90.5905586  98.9574274
  36.2094251  90.1209437  99.7865419  41.5281732  90.2428283 101.4073304
  40.9061742  89.5798988 101.1075532  42.1986599  90.2689414 100.7246952
  34.7608804  88.8088141 100.2964564  33.9240712  88.3810315 100.1148565
  34.7332450  89.0020584 101.2335355  41.6006260  78.7210071 111.0005810
  41.6494415  79.5972193 110.6183580  42.1428774  78.1787464 110.4277453
  52.0861105  89.2651194 110.2806947  51.2956649  89.2475333 109.7411446
  51.8494460  89.8039487 111.0355984  52.2058980  86.1143660 107.5939676
  52.2556985  85.9493668 108.5355198  52.0972904  85.2470919 107.2037556
  41.0895239  88.7932206  94.8831765  41.2383360  89.4767670  94.2298437
  41.8961683  88.7737296  95.3981220  49.4962743  82.0974588 108.9098982
  50.3972606  81.9581053 108.6182980  49.5710717  82.2629043 109.8497160
  43.8305548  79.4741443 107.7552169  42.9608858  79.7675009 107.4834757
  44.0665029  80.0581888 108.4759432  53.7077177  88.5340602 107.8381697
  53.4161986  88.8970582 108.6745158  53.0949309  87.8207610 107.6595029
  54.9072860  86.0993481 100.3584267  55.7419751  86.5383286 100.5221828
  55.0431988  85.6232135  99.5392513  51.9564366  83.6573216 106.3061755
  52.4318487  83.8500863 105.4980607  51.0329931  83.7132402 106.0605139
  38.8447872  84.8197383  95.8892833  38.5993914  83.9159713  96.0873044
  39.0143787  84.8214534  94.9472311  44.5890645  91.2880336  92.3543512
  44.0164612  91.9070523  91.9013984  45.1623438  91.8379698  92.8883434
  50.6566035  80.5338976 104.5390061  51.6083457  80.6337074 104.5602285
  50.4869485  79.7417245 105.0488145  48.6780414  77.6194560 104.7249462
  48.0830346  77.8999572 104.0295950  48.3930111  78.1088461 105.4966203
  47.8087904  91.5717486  93.4852094  48.7418578  91.5063048  93.6884970
  47.7211117  92.4073753  93.0266627  50.4375921  90.8883357  90.4456042
  50.3589553  90.5543220  91.3391800  51.2585588  91.3805125  90.4447514
  53.1354112  83.7545096 103.6532360  53.1030432  82.8161097 103.8392044
  53.7454736  83.8329133 102.9198185  44.9737443  82.6241149  89.6959564
  45.9196548  82.4947357  89.7647982  44.5951688  81.8855811  90.1728993
  53.2848601  80.5456140 103.6990644  52.7687649  79.7614596 103.5120572
  54.1688549  80.2174856 103.8637163  58.9530662  84.8161103 102.7938397
  59.6834051  84.5546391 103.3546100  58.3437608  84.0789825 102.8340465
  57.0345959  82.9568966 103.3912848  56.3079123  82.8224930 102.7829340
  56.6193246  83.2645794 104.1969566  44.8576136  86.6758895 111.1560221
  45.7779145  86.8537494 111.3500268  44.8225719  85.7314941 111.0039921
  43.1580360  80.5491125  89.6314450  42.2511816  80.2524238  89.7077163
  43.4356341  80.2520944  88.7648736  37.8538208  84.5859930 103.7983003
  38.0724218  85.5177038 103.8171036  38.2663982  84.2267904 104.5837806
  42.7266074  80.1593136 113.1885751  42.6262800  81.1087493 113.1197843
  42.5087616  79.8311375 112.3161822  41.9279145  77.4078061  89.7726429
  42.7898309  77.7332959  90.0322246  42.1129489  76.6209557  89.2599495
  33.9446561  85.4900400 102.0506618  33.2510032  85.0754353 101.5376572
  34.6919552  85.5320937 101.4540037  42.5897344  83.5890274 112.0050813
  42.1064425  84.3890635 112.2114702  42.6758283  83.5998219 111.0518257
  35.8583303  85.4218654  99.9272632  35.8353991  85.5206341  98.9754516
  36.1683940  86.2683805 100.2489799  38.5170681  87.4794809 104.0419247
  39.4713935  87.4478751 103.9749178  38.3183205  87.0185433 104.8569473
  39.1070063  86.0495925 106.6090045  39.9262952  86.5440004 106.6324882
  39.3806871  85.1327893 106.5807612  52.2151196  78.4653198  99.6872339
  52.9911586  78.9549651  99.9596956  51.4899330  78.8911253 100.1444209
  54.6523754  79.1780818 100.7446280  55.2468245  78.9376554 100.0339588
  54.7250338  78.4587948 101.3719816  36.8720910  93.0214429 101.0589445
  36.7375378  92.2614830 100.4927443  36.4552972  93.7455329 100.5918234
  48.0079873  88.2051352  90.0666020  48.7115723  88.4101355  90.6823676
  47.2842522  88.7728114  90.3315104  48.8377683  83.9561213  96.1868290
  48.7812885  84.4129765  95.3475923  49.3906026  83.1951898  96.0091133
  52.6482489  79.7450945  97.0118410  52.3919423  79.3447581  97.8426617
  52.0235357  80.4594739  96.8868549  56.9594827  82.4847019  99.5189701
  56.3994385  82.5540208 100.2921263  56.3538330  82.3088003  98.7989197
  40.0290036  93.9183746 101.2707887  39.9122420  94.8629178 101.1686578
  39.2082482  93.6157307 101.6593687  49.9166570  88.6433881  92.1164480
  50.7512174  88.2115080  91.9341955  49.7550913  88.4715895  93.0441375
  49.5712463  85.1465995  93.4820819  49.5161266  84.9810266  92.5409264
  48.9458518  85.8542028  93.6383009  34.3604977  80.3834059 107.3082242
  35.0063841  79.8733013 107.7969467  34.1522129  81.1202741 107.8825667
  46.8858370  87.4514907 112.8074382  47.7549529  87.6255559 112.4461017
  46.4065121  88.2709323 112.6850112  41.0544550  94.5712008 104.4863816
  41.9571797  94.6035618 104.8030311  40.8281920  93.6412459 104.5010152
  42.8098152  93.3242994 101.1473894  41.8593783  93.3244856 101.0338267
  43.1130638  92.5775729 100.6309929  58.5450845  99.1603533 102.2119657
  59.1829255  99.0410280 101.5082997  58.4271688 100.1084376 102.2707609
  55.3540552  99.1130961 102.1481182  55.0159063  98.9972025 101.2601716
  56.2230320  98.7122126 102.1282188  51.2127367 100.9666437  98.1378073
  50.6492233 100.8756374  97.3694360  51.0979762 100.1466341  98.6180565
  55.8360335 100.2665812 108.1067387  55.8248975  99.8718611 107.2347891
  55.9980974  99.5331885 108.7001159  48.7591799 102.4617629 100.9762293
  49.5513091 102.1208453 100.5608592  48.9988449 102.5712604 101.8964446
  56.7926926 104.6337405  93.4492537  56.1414906 105.2191485  93.0626551
  57.5871289 105.1643600  93.5087575  50.7182553 101.7226542  93.8479672
  51.4913429 101.1755529  93.7092548  51.0707952 102.5870791  94.0594133
  52.5567596 103.0502924 107.0546571  52.2657462 103.9548555 106.9393237
  53.1924580 103.0919452 107.7690641  53.4823803 100.4279773 103.6447931
  54.0787375 100.2035795 102.9304894  53.5398774  99.6864518 104.2473379
  53.0548831  97.8819208  91.4798122  53.3074352  97.3600729  90.7181585
  52.1173390  97.7185353  91.5824805  58.0992114  96.8854986  99.2872865
  58.8855203  96.4674410  98.9363282  58.3630818  97.7901079  99.4554513
  58.2702191 102.3227837  93.9861522  57.6348024 102.3962463  94.6982426
  57.9399598 102.9121435  93.3080601  63.5000541  96.8230220 100.1905843
  64.2325713  96.2529436 100.4243673  62.7439897  96.4351820 100.6312349
  52.7745120  99.7847314  93.6822497  52.6581378  99.1092217  94.3503581
  52.8847380  99.2979688  92.8654650  55.1176661  99.2457461  97.3869186
  54.7534868  98.7188082  98.0982107  55.9743777  98.8555930  97.2135671
  61.0225961  90.5351794 104.6500452  60.6909286  91.4047205 104.4261667
  60.4271575  90.2188078 105.3294482  54.7582148  94.2747361  92.3830534
  54.9256550  95.1427597  92.7501005  54.5679317  94.4374642  91.4591824
  57.5157481 102.7364340 104.0496365  57.2158204 103.6389378 103.9412172
  57.1708540 102.4696523 104.9017518  50.9669962  99.1878136 100.0833069
  50.0420459  99.0554351 100.2910761  51.2154376  99.9672356 100.5803012
  60.9154625  95.2546880 101.7293802  60.0071502  95.1862288 101.4352563
  60.8642220  95.7318825 102.5575628  54.7371369  96.7305018  93.3677201
  54.6170994  97.1762069  94.2062682  54.0423957  97.0790336  92.8090739
  48.3278773  98.8311410 100.9176858  48.4571155  99.0845889 101.8316270
  47.6476225  99.4239118 100.5981513  52.4978261 109.5008660  97.0167332
  52.4202290 110.4516485  97.0955813  51.8939904 109.1554532  97.6742259
  54.9895490  96.6736525 109.6728699  54.2128825  97.2330446 109.6631564
  55.6286054  97.1593308 110.1943569  62.7816271  93.4563318 103.5071676
  62.1390651  93.7495851 102.8611471  62.2771200  93.3416239 104.3124873
  60.4356435  97.2026491  94.1957535  61.3474291  97.4353878  94.0205233
  59.9266082  97.7863536  93.6332614  53.2441863  99.4821979 109.2346666
  53.9856547 100.0207023 108.9581490  52.5378848 100.1088268 109.3918218
  58.7197202 101.6251119 107.8318828  59.1280558 101.1833530 107.0873460
  57.9974464 101.0503747 108.0853021  55.0728272  96.5623726 105.2052385
  55.9189468  96.9863140 105.3487034  55.0126910  95.9057350 105.8990948
  59.0426017 102.1852310 101.5871117  58.4134880 102.3498024 100.8847185
  58.6551679 102.5993919 102.3582081  62.9215249 103.1206748  98.9415480
  62.2366287 103.5005649  98.3912514  63.0059098 103.7302074  99.6747428
  58.2227718  94.2228094 106.8633558  57.9788650  94.9770155 106.3267834
  58.4987648  94.6013442 107.6980805  60.1766181 100.7666707 105.5410824
  60.3883076 101.4098467 104.8645205  60.1295929  99.9329023 105.0732754
  57.7792410  93.3784527 102.4447396  56.9176889  93.6765781 102.7364134
  57.8054844  93.5954926 101.5128429  54.5953979 101.9226718  98.8521202
  55.0592324 102.2014421  98.0625824  54.3310777 101.0210163  98.6694293
  51.4878060 101.4698200 101.7900965  52.0579417 101.8985468 101.1518450
  52.0786172 101.1880784 102.4885151  53.5322865  98.0449870  95.6610767
  54.2346908  98.4970914  96.1284693  53.2003494  97.4033689  96.2890660
  51.9803227  96.6361627 110.0361976  51.3501887  97.3177908 110.2697373
  51.8739314  96.5244709 109.0915115  47.2748199  96.3033423 100.9627901
  46.4847253  96.5590952 100.4868011  47.7659446  97.1181761 101.0679941
  61.2912009 103.6438662 103.7133181  62.1129452 103.2418849 103.4315863
  61.2874411 103.5406896 104.6649297  49.2262944  96.6678002  97.9211377
  48.4294108  96.7796696  98.4394873  48.9988537  97.0064654  97.0552268
  55.0568612 103.1922705 105.8693892  55.1213044 103.6543113 106.7052064
  54.3479536 102.5620070 105.9976202  45.5585902  96.5563913 103.3942891
  45.8093940  97.4410923 103.6600467  46.0945450  96.3768515 102.6217983
  69.3818002  99.9877411 100.0618153  68.6281710  99.4184809  99.9062157
  69.5165543  99.9540075 101.0088788  54.7716630 104.8590813  95.7372872
  54.6362304 105.7042349  96.1657720  55.3126442 105.0610091  94.9738806
  51.2583969  90.9382393 112.3987227  50.8650915  90.3848591 113.0734872
  52.0750110  91.2492971 112.7893745  48.2246027 102.3766251  96.3100797
  48.7370548 103.1709501  96.4606362  48.8768740 101.6792541  96.2434399
  50.0340912 105.4932007  98.3923550  50.2107540 106.4149972  98.2044534
  50.8297745 105.1790426  98.8217930  54.1751930  92.3540272 109.9907484
  54.9161644  92.9547425 109.9111946  54.4069853  91.6117910 109.4325527
  49.3193268  97.5396639 108.2685714  49.2046783  96.6381896 108.5692813
  48.4637786  97.7860336 107.9170530  56.3985106 105.4814379 109.8673214
  55.9548960 104.6950758 109.5494119  57.0602320 105.6693530 109.2017105
  51.1572227 107.0110181 104.3933893  51.7079652 106.8827244 103.6210887
  50.3183703 107.3105070 104.0428786  58.4966344 105.7617179 107.8954616
  58.4784819 106.5826060 107.4034885  59.4186264 105.6371255 108.1204757
  54.9539398 103.2761309 108.7378124  55.4867735 102.5149597 108.5077432
  54.4253479 102.9834961 109.4802278  58.1209093  88.3821375 104.2671766
  57.7773363  89.2723017 104.1910876  58.4888056  88.1923032 103.4041351
  46.1894944 100.7054905  97.0860368  47.0270166 101.1151914  96.8694076
  46.3673211  99.7654347  97.0560562  58.0859376  98.3729986  92.7744201
  57.5705999  99.1434591  93.0132588  57.8136684  97.6995122  93.3977262
  55.6706487  93.2179687  97.8329439  54.8148083  92.8286537  97.6535078
  56.0833439  93.2971648  96.9729225  57.2005634  90.7526030 102.2320999
  56.6970429  90.7156165 101.4188804  57.4936240  91.6618773 102.2917656
  53.4448519  90.8364760 101.2387181  54.3101516  90.6407568 100.8793070
  53.5126028  90.6075111 102.1656537  63.0593650 101.1262341  94.7097374
  62.2823093 100.7873500  94.2652536  63.7385131 101.1314964  94.0352339
  57.8745679  96.2457078  94.6003982  57.5695815  96.5603227  95.4514125
  58.8276121  96.3238498  94.6431315  56.3192111 102.4047301  96.2496936
  55.7913473 101.6700061  95.9370173  55.8179614 103.1821978  96.0036904
  61.2984957 100.5996322 101.3663982  60.6408631 101.2895583 101.4544111
  62.1025356 100.9892754 101.7097969  51.0510839  93.0666968  98.6103547
  51.6254590  92.8442149  97.8776740  51.6381821  93.1355662  99.3632149
  60.1090416  98.9540695  99.4167924  60.6222298  99.5870686  99.9189634
  60.7591640  98.3541890  99.0511284  51.3780426  95.0971429  92.6299433
  50.5417738  95.4346115  92.9508707  51.2385195  94.9620408  91.6926570
  53.3533506  89.9408217  97.3378617  52.6997919  89.6257234  96.7135232
  53.3113980  89.3183957  98.0638440  54.4644711 100.2227512  89.2531909
  53.5571773  99.9916765  89.4523058  54.9615743  99.4265131  89.4405891
  57.3712790 108.9325019  92.1728595  56.6974489 109.2356716  92.7813553
  57.7578612 109.7354099  91.8234052  56.5871247  96.4290150 101.6626264
  55.6693808  96.6505097 101.5047953  57.0031390  96.5036461 100.8037972
  57.3706294  97.8281566  96.7928945  58.1178113  98.3402963  96.4836067
  57.6397884  97.5065618  97.6533338  55.6432945 100.3240106  93.7755899
  54.7344164 100.0399139  93.8728369  55.6728028 100.7439185  92.9159206
  60.8752212 103.9346696  97.5447067  60.4214539 103.0937606  97.6012257
  60.2446179 104.5708094  97.8821847  59.8185132  94.8638682  98.7747734
  59.0807888  94.3516068  99.1057977  60.0711905  94.4239064  97.9631011
  59.3185151 105.7723193  98.4796885  59.6108126 106.3328250  97.7609250
  59.8283772 106.0651754  99.2350044  59.9196759  87.6414934  99.3689503
  60.2255636  86.7812297  99.0815418  60.6449364  88.2332554  99.1688497
  46.2121115  98.0445621  97.7571101  46.0145515  97.4514981  97.0322168
  45.6567779  97.7397831  98.4747040  54.1917839  97.9368727  99.8765694
  54.2466448  96.9842563  99.8008171  53.3809041  98.0928166 100.3606993
  55.3409032 101.8648850  91.1143978  54.9028462 101.1484709  90.6549615
  56.0819473 102.0924965  90.5529069  52.1310199  96.5545787  97.6356073
  51.3178064  96.8539957  98.0421265  52.6269193  96.1601476  98.3530556
  54.2818776 106.5503544  99.5690338  54.2394955 106.7764390  98.6398870
  55.1981475 106.3166918  99.7176139  57.7284410  97.0187611 106.4670967
  58.0833798  97.2459084 107.3265433  58.3756541  97.3505988 105.8448222
  63.4582147 100.1406047  97.1720296  63.3200046 100.3307643  96.2441485
  63.1018366 100.9025430  97.6288347  51.6224273  94.1264142 103.2517308
  52.2623653  93.9852901 102.5540272  50.7901804  93.8398656 102.8755910
  63.4851527 102.2082574 102.1831568  63.9188033 102.1157863 103.0314622
  64.1983107 102.1840075 101.5451584  52.3984577 103.4266573  99.3652301
  53.1925176 102.9316893  99.1634876  51.6876270 102.8984436  99.0020006
  57.2179422 105.8084668 103.7164668  57.2716444 106.3775605 104.4842384
  56.3494203 105.9786553 103.3518705  48.7067341  97.5709655  95.4412053
  47.7764929  97.5094110  95.6582015  48.8024813  97.0485607  94.6448695
  48.6252890  94.0964467  98.0290295  48.8859707  95.0109801  97.9199455
  49.4470062  93.6288910  98.1786908  50.0977815  95.5102225 105.1989120
  50.7700868  95.3019587 104.5501768  49.2707602  95.3124311 104.7594352
  64.3467076 102.2506275 104.7164453  64.5402966 103.1552085 104.9623728
  64.2467694 101.7913694 105.5503038  56.0003387  92.1364165 107.2154780
  55.3531302  92.8354115 107.1219257  56.7704402  92.5700309 107.5831029
  59.4082185 102.4013018 110.2905334  59.2567691 102.1723569 109.3735417
  59.3986864 103.3583619 110.3036679  56.1767521  99.9744930 105.2751600
  57.1059581 100.1256090 105.1020567  55.7558551 100.0628951 104.4200247
  54.9755853 103.9995595 103.0450138  54.8366939 103.6314379 103.9176076
  54.1870449 104.5143234 102.8734096  55.5704005 109.1004691  94.3875674
  55.7455761 108.6292734  95.2021297  54.8836793 109.7270457  94.6156935
  56.5261068 103.3777197 100.4338976  56.1910901 103.3377967 101.3296625
  56.0265014 102.7121913  99.9609386  50.5005312  98.7844827 105.9591557
  50.3625110  98.0525066 106.5603096  51.4110236  98.6953728 105.6775744
  59.4620260 100.7233232  90.7076035  58.8449431  99.9980060  90.6109088
  58.9936748 101.4842592  90.3643109  53.1287613  98.4964787 105.4475236
  53.8387231  97.8557979 105.4061855  53.0856921  98.7477682 106.3701417
  61.1174392 105.4332140 108.3681816  61.0586938 104.7491360 107.7012399
  61.5193910 106.1751130 107.9162442  51.8416547  95.4830005 107.2670876
  51.3053904  95.0320743 107.9192472  51.2533255  95.6175914 106.5241340
  50.1365090 112.2494054 101.1615534  50.3761689 112.8812578 101.8394553
  49.2934287 111.8982094 101.4480894  51.2518806  94.9418656  89.8297339
  50.3748272  94.8207457  89.4659586  51.7276559  94.1504734  89.5776228
  61.1191799 103.3971724 106.5995795  60.2318578 103.0597646 106.7222194
  61.6890350 102.6654755 106.8364561  42.7720946  99.7295816  99.9238847
  43.4591986  99.4157546  99.3359862  42.6169075 100.6337180  99.6506098
  47.5755668  94.6186012 104.3523870  47.4913857  94.0111682 103.6174280
  46.7538375  95.1095031 104.3533367  54.6492952 108.0573176 103.5657038
  54.5763124 108.8628148 104.0776343  54.2070345 108.2565142 102.7405060
  54.4382732 107.2944946  97.0759860  53.6550254 107.8366627  97.1698085
  55.1375477 107.8118926  97.4754101  57.7479382  93.1039576  99.7194065
  58.2448082  92.3509538  99.3995136  56.9766364  93.1403893  99.1537275
  65.6009139  98.8079941 101.3612357  65.5899016  99.6904657 100.9906290
  64.7326519  98.4551492 101.1666894  57.1091636 107.9560010 105.7215197
  57.8219608 108.5907475 105.6491099  56.6181664 108.0523876 104.9055199
  58.8309163 101.8611263  97.2932489  57.8965441 101.9812726  97.1237193
  59.0085831 100.9583730  97.0292499  54.3314351  95.2456959  99.4465750
  53.9612138  94.6927999 100.1346656  54.8273443  94.6415092  98.8940750
  62.2181714  97.7028582  97.8282523  62.6842166  98.5356574  97.7542826
  62.6689215  97.2373564  98.5327781  52.1603549 105.7054454 106.5420768
  52.8613009 106.3390937 106.6950162  51.6898664 106.0469185 105.7816407
  60.2857945 104.0472404  94.8268675  60.5617789 103.9328998  95.7362549
  59.4162444 103.6489889  94.7880848  60.1898377  90.0709169 101.8673424
  59.2761457  90.3013396 102.0355631  60.6191478  90.1547613 102.7187457
  59.9604835  98.2599061 104.3673318  59.3076286  98.5074969 103.7125771
  60.3385215  97.4463200 104.0335796  56.9212009 108.2958755  98.4701489
  57.1034404 107.4780410  98.9329241  57.7444995 108.5126447  98.0326379
  57.2554175 107.2226940  95.7316537  57.7841941 106.7119394  95.1186699
  57.5182394 106.9069470  96.5962070  56.0092408  99.0018872 110.8539355
  55.3333045  98.9013002 111.5241731  56.8320042  98.8458086 111.3175353
  47.7571267 105.2390809 103.4751871  48.3424704 104.4934497 103.6079775
  47.5596106 105.5494766 104.3588535  50.6109923 108.2742056  98.4914313
  49.9420298 108.7588184  98.0078353  50.4722792 108.5211277  99.4057692
  42.3488922  97.8096409 102.1956314  42.3873022  97.2760000 102.9893432
  41.8429215  97.2831615 101.5767291  54.7515191 110.3085800 105.0896971
  55.3033499 110.4717421 105.8546057  55.0921385 110.8990238 104.4176996
  49.7279684  92.6560950 105.6918856  49.7921011  93.5175781 105.2796254
  49.6646805  92.0434951 104.9591215  49.2031957  94.7284082 109.3391890
  49.8303996  94.3461160 109.9529415  48.3459876  94.5098284 109.7047583
  45.9797500  96.5360511  95.2710245  46.2750941  95.6271190  95.2177299
  45.0785535  96.5148251  94.9491248  57.8883578 108.2567775 102.0760654
  57.7634718 107.4557515 101.5671599  58.5462670 108.7513969 101.5874623
  49.5091747  94.6116508 101.2537794  48.7878332  95.2252476 101.1145267
  50.2985002  95.1474273 101.1754440  59.9518487 106.0576796 103.7040204
  59.0048822 105.9382147 103.6318530  60.3001260 105.1699294 103.7866465
  52.3118060  91.9470934 107.5278446  52.8352462  92.1933231 108.2904755
  52.0930394  92.7790969 107.1081583  47.7085341  94.2174609  95.3949570
  47.3798047  93.3371988  95.2124676  48.0624712  94.1622278  96.2825960
  56.9564920 105.8529512  99.9044556  56.8089883 104.9246219 100.0852126
  57.7818414 105.8749602  99.4201631  50.8227164  94.5047579  95.7625048
  51.1623237  95.0333500  95.0403656  51.2699285  94.8427985  96.5383615
  60.5599042 106.6758070 100.9909429  61.4845589 106.4700932 100.8533880
  60.3914345 106.4274472 101.8998770  53.5170605  92.8884630 105.2128116
  53.1767426  92.0892443 105.6148796  52.8109612  93.1886340 104.6404949
  54.1687077  89.9733942 103.6655439  54.9913146  89.4994420 103.5434329
  54.4125141  90.7524426 104.1654125  52.8095312  93.0022200  93.9618341
  53.5303674  93.3803453  93.4582058  52.1860616  93.7211077  94.0653319
  56.9526434  93.7067349  94.8976673  57.1690049  94.5891987  94.5965501
  56.4720502  93.3153563  94.1682315  51.6925656  96.6653063 101.4747418
  51.5470237  96.9793366 102.3671699  51.2150859  97.2837963 100.9218316
  53.5522039  93.6555611 101.5228307  53.5383608  92.7596704 101.1860605
  54.2694467  93.6626274 102.1566593  55.4048169  94.0892951 103.5681435
  55.1465947  95.0110021 103.5665765  54.8733210  93.6923385 104.2581899
  60.3494358 107.1943738  96.3471520  60.5231236 106.6290160  95.5945373
  60.8423249 107.9944633  96.1651010  46.1671318  99.2058407 104.4135079
  45.6224786  99.9818215 104.5455353  47.0450668  99.5529211 104.2554200
  52.9558935  92.5369991  96.7915877  53.0774846  91.6086637  96.9906765
  52.6660977  92.5508677  95.8794193  55.8250125  90.2224901  99.9282597
  55.8471822  90.2864234  98.9734577  56.2418184  89.3829410 100.1223103
  66.2033749  99.9580161  97.9661820  66.6464895  99.2087486  97.5680943
  65.3260260  99.9490297  97.5835552  61.3369531 106.5110502  93.4468418
  62.0320435 107.1317195  93.6655733  61.6792681 105.6605854  93.7220796
  46.9537340  98.3328303 107.3065236  46.2119076  98.4810939 107.8929866
  46.6330084  98.5936569 106.4431985  63.2360954 103.9610208  94.9755749
  63.7612278 104.2997481  94.2505069  63.1483306 103.0257223  94.7918884
  54.8981003 107.8744281 107.1045626  55.2068129 107.6293428 107.9768325
  55.6956485 108.0790920 106.6164496  54.9201615 110.0282191  99.3351002
  54.4806605 109.5358570 100.0283859  55.6709732 109.4855159  99.0943078
  47.3993954 106.2193732  99.3375630  48.2251973 105.9197504  98.9574274
  47.0488006 105.4501354  99.7865419  52.3675487 105.5720200 101.4073304
  51.7455496 104.9090905 101.1075532  53.0380354 105.5981332 100.7246952
  45.6002559 104.1380058 100.2964564  44.7634467 103.7102233 100.1148565
  45.5726204 104.3312502 101.2335355  52.4400014  94.0501988 111.0005810
  52.4888170  94.9264111 110.6183580  52.9822528  93.5079381 110.4277453
  63.0452735 101.4435578 107.5939676  63.0950740 101.2785585 108.5355198
  62.9366658 100.5762837 107.2037556  51.9288994 104.1224124  94.8831765
  52.0777114 104.8059588  94.2298437  52.7355437 104.1029214  95.3981220
  60.3356497  97.4266506 108.9098982  61.2366360  97.2872971 108.6182980
  60.4104472  97.5920961 109.8497160  54.6699303  94.8033361 107.7552169
  53.8002612  95.0966927 107.4834757  54.9058783  95.3873806 108.4759432
  64.5470932 103.8632519 107.8381697  64.2555740 104.2262500 108.6745158
  63.9343063 103.1499528 107.6595029  65.7466614 101.4285399 100.3584267
  66.5813505 101.8675203 100.5221828  65.8825743 100.9524052  99.5392513
  62.7958120  98.9865134 106.3061755  63.2712242  99.1792780 105.4980607
  61.8723685  99.0424320 106.0605139  49.6841627 100.1489301  95.8892833
  49.4387669  99.2451631  96.0873044  49.8537541 100.1506452  94.9472311
  57.3738337  91.0212978 105.2717589  57.8920280  91.7574004 104.9464078
  57.0193469  91.3276971 106.1064348  48.9537274  95.8817659  93.3878995
  48.2606519  95.9562014  92.7319031  48.7089026  95.1178002  93.9100512
  57.6250931  87.4413260 100.7918486  57.9052684  86.7736449 101.4178912
  58.4101538  87.6342356 100.2793149  55.4284399 106.6172254  92.3543512
  54.8558366 107.2362441  91.9013984  56.0017193 107.1671616  92.8883434
  61.4959789  95.8630894 104.5390061  62.4477212  95.9628992 104.5602285
  61.3263239  95.0709163 105.0488145  59.5174168  92.9486477 104.7249462
  58.9224101  93.2291490 104.0295950  59.2323865  93.4380378 105.4966203
  58.6481659 106.9009404  93.4852094  59.5812332 106.8354966  93.6884970
  58.5604872 107.7365671  93.0266627  61.2769676 106.2175274  90.4456042
  61.1983307 105.8835138  91.3391800  62.0979342 106.7097042  90.4447514
  63.9747867  99.0837014 103.6532360  63.9424187  98.1453014 103.8392044
  64.5848490  99.1621050 102.9198185  55.8131198  97.9533067  89.6959564
  56.7590302  97.8239275  89.7647982  55.4345443  97.2147729  90.1728993
  64.1242355  95.8748057 103.6990644  63.6081404  95.0906514 103.5120572
  65.0082304  95.5466774 103.8637163  61.7853082  89.6189073  99.6586456
  61.5877903  89.3104161 100.5429788  62.3952788  90.3450712  99.7884386
  69.7924417 100.1453021 102.7938397  70.5227805  99.8838309 103.3546100
  69.1831362  99.4081743 102.8340465  67.8739714  98.2860883 103.3912848
  67.1472877  98.1516848 102.7829340  67.4587001  98.5937712 104.1969566
  55.6969890 102.0050813 111.1560221  56.6172900 102.1829412 111.3500268
  55.6619473 101.0606858 111.0039921  53.9974115  95.8783043  89.6314450
  53.0905570  95.5816156  89.7077163  54.2750096  95.5812861  88.7648736
  44.9152055  97.1989407 100.0813496  44.5954840  96.3454715  99.7887870
  44.3685483  97.4137985 100.8371463  48.6931963  99.9151848 103.7983003
  48.9117973 100.8468955 103.8171036  49.1057737  99.5559822 104.5837806
  55.6136181  90.4219933  95.7858691  54.8036909  90.0767018  96.1613937
  56.3020597  90.1127477  96.3746302  57.5426729  89.4997980  97.4082988
  58.0957767  89.9193433  98.0673011  57.7796815  88.5733728  97.4505944
  53.5659828  95.4885053 113.1885751  53.4656555  96.4379410 113.1197843
  53.3481370  95.1603292 112.3161822  52.7672899  92.7369978  89.7726429
  53.6292063  93.0624877  90.0322246  52.9523244  91.9501474  89.2599495
  44.7840315 100.8192318 102.0506618  44.0903787 100.4046271 101.5376572
  45.5313306 100.8612855 101.4540037  60.9205536  91.6098505  96.9161652
  60.3404205  92.2683309  96.5339704  60.6541469  90.7875849  96.5049069
  59.3709102  91.0103563  99.1182972  59.8708881  91.1220097  98.3097291
  60.0144710  90.7064615  99.7583781  53.4291098  98.9182192 112.0050813
  52.9458180  99.7182552 112.2114702  53.5152037  98.9290137 111.0518257
  46.6977058 100.7510572  99.9272632  46.6747746 100.8498259  98.9754516
  47.0077694 101.5975723 100.2489799  49.3564436 102.8086727 104.0419247
  50.3107689 102.7770669 103.9749178  49.1576959 102.3477351 104.8569473
  49.9463818 101.3787843 106.6090045  50.7656707 101.8731922 106.6324882
  50.2200625 100.4619811 106.5807612  59.7030414  93.7698595  95.9718000
  58.8156269  94.0548246  95.7538195  60.1184403  93.6092359  95.1245277
  63.0544950  93.7945116  99.6872339  63.8305340  94.2841569  99.9596956
  62.3293084  94.2203170 100.1444209  65.4917509  94.5072735 100.7446280
  66.0862000  94.2668471 100.0339588  65.5644092  93.7879866 101.3719816
  47.7114664 108.3506346 101.0589445  47.5769132 107.5906747 100.4927443
  47.2946727 109.0747246 100.5918234  58.8473627 103.5343270  90.0666020
  59.5509478 103.7393272  90.6823676  58.1236276 104.1020032  90.3315104
  59.6771438  99.2853131  96.1868290  59.6206639  99.7421683  95.3475923
  60.2299780  98.5243816  96.0091133  63.4876244  95.0742863  97.0118410
  63.2313178  94.6739499  97.8426617  62.8629112  95.7886657  96.8868549
  67.7988581  97.8138936  99.5189701  67.2388139  97.8832126 100.2921263
  67.1932085  97.6379921  98.7989197  50.8683790 109.2475663 101.2707887
  50.7516174 110.1921096 101.1686578  50.0476237 108.9449225 101.6593687
  60.7560325 103.9725799  92.1164480  61.5905929 103.5406998  91.9341955
  60.5944668 103.8007813  93.0441375  60.4106217 100.4757912  93.4820819
  60.3555021 100.3102184  92.5409264  59.7852272 101.1833945  93.6383009
  45.1998732  95.7125977 107.3082242  45.8457596  95.2024931 107.7969467
  44.9915883  96.4494658 107.8825667  53.7202342  89.9766021  93.0606138
  53.7081012  90.9207861  93.2174409  54.6125764  89.7936167  92.7665599
  51.8938304 109.9003925 104.4863816  52.7965551 109.9327536 104.8030311
  51.6675674 108.9704376 104.5010152  53.6491906 108.6534912 101.1473894
  52.6987537 108.6536773 101.0338267  53.9524393 107.9067646 100.6309929
  57.5354462  86.5708798  97.3152075  56.7686858  86.0167285  97.4608757
  57.9465167  86.6430667  98.1766226  49.5396223  92.8593594 111.4057256
  50.4027685  92.5030399 111.6160580  48.9661634  92.5207489 112.0932660
  62.0521122 116.2958355  98.1378073  61.4885987 116.2048292  97.3694360
  61.9373517 115.4758259  98.6180565  59.5985554 117.7909546 100.9762293
  60.3906846 117.4500371 100.5608592  59.8382204 117.9004521 101.8964446
  67.6320681 119.9629322  93.4492537  66.9808660 120.5483403  93.0626551
  68.4265043 120.4935517  93.5087575  61.5576308 117.0518460  93.8479672
  62.3307184 116.5047447  93.7092548  61.9101707 117.9162709  94.0594133
  63.8942586 113.2111126  91.4798122  64.1468106 112.6892647  90.7181585
  62.9567145 113.0477271  91.5824805  68.9385868 112.2146904  99.2872865
  69.7248958 111.7966327  98.9363282  69.2024573 113.1192996  99.4554513
  69.1095946 117.6519754  93.9861522  68.4741779 117.7254381  94.6982426
  68.7793352 118.2413353  93.3080601  63.6138874 115.1139232  93.6822497
  63.4975132 114.4384135  94.3503581  63.7241134 114.6271606  92.8654650
  65.9570415 114.5749379  97.3869186  65.5928622 114.0480000  98.0982107
  66.8137531 114.1847848  97.2135671  65.5975902 109.6039278  92.3830534
  65.7650305 110.4719515  92.7501005  65.4073071 109.7666560  91.4591824
  61.8063717 114.5170054 100.0833069  60.8814213 114.3846268 100.2910761
  62.0548130 115.2964273 100.5803012  65.5765123 112.0596936  93.3677201
  65.4564748 112.5053987  94.2062682  64.8817711 112.4082254  92.8090739
  59.1672528 114.1603328 100.9176858  59.2964909 114.4137807 101.8316270
  58.4869979 114.7531036 100.5981513  71.2750189 112.5318409  94.1957535
  72.1868045 112.7645796  94.0205233  70.7659836 113.1155453  93.6332614
  68.6186164 108.7076445 102.4447396  67.7570643 109.0057699 102.7364134
  68.6448599 108.9246844 101.5128429  65.4347733 117.2518636  98.8521202
  65.8986079 117.5306339  98.0625824  65.1704532 116.3502080  98.6694293
  64.3716619 113.3741788  95.6610767  65.0740663 113.8262832  96.1284693
  64.0397248 112.7325607  96.2890660  58.1141953 111.6325341 100.9627901
  57.3241007 111.8882869 100.4868011  58.6053201 112.4473679 101.0679941
  60.0656699 111.9969920  97.9211377  59.2687862 112.1088614  98.4394873
  59.8382291 112.3356572  97.0552268  56.3979656 111.8855831 103.3942891
  56.6487695 112.7702841 103.6600467  56.9339205 111.7060433 102.6217983
  65.6110384 120.1882731  95.7372872  65.4756059 121.0334266  96.1657720
  66.1520197 120.3902008  94.9738806  59.0639782 117.7058169  96.3100797
  59.5764302 118.5001419  96.4606362  59.7162494 117.0084459  96.2434399
  60.8734666 120.8223925  98.3923550  61.0501295 121.7441890  98.2044534
  61.6691500 120.5082344  98.8217930  68.9602848 103.7113293 104.2671766
  68.6167117 104.6014934 104.1910876  69.3281810 103.5214950 103.4041351
  57.0288698 116.0346823  97.0860368  57.8663920 116.4443831  96.8694076
  57.2066966 115.0946265  97.0560562  68.9253130 113.7021904  92.7744201
  68.4099754 114.4726508  93.0132588  68.6530439 113.0287040  93.3977262
  66.5100241 108.5471604  97.8329439  65.6541838 108.1578455  97.6535078
  66.9227193 108.6263565  96.9729225  68.0399388 106.0817948 102.2320999
  67.5364184 106.0448083 101.4188804  68.3329995 106.9910690 102.2917656
  64.2842274 106.1656677 101.2387181  65.1495271 105.9699486 100.8793070
  64.3519783 105.9367029 102.1656537  73.8987405 116.4554258  94.7097374
  73.1216847 116.1165418  94.2652536  74.5778886 116.4606881  94.0352339
  68.7139434 111.5748996  94.6003982  68.4089569 111.8895145  95.4514125
  69.6669876 111.6530416  94.6431315  67.1585865 117.7339219  96.2496936
  66.6307227 116.9991979  95.9370173  66.6573368 118.5113895  96.0036904
  61.8904593 108.3958885  98.6103547  62.4648345 108.1734067  97.8776740
  62.4775575 108.4647580  99.3632149  62.2174180 110.4263346  92.6299433
  61.3811492 110.7638033  92.9508707  62.0778950 110.2912326  91.6926570
  64.1927261 105.2700134  97.3378617  63.5391673 104.9549151  96.7135232
  64.1507735 104.6475875  98.0638440  65.3038466 115.5519429  89.2531909
  64.3965527 115.3208683  89.4523058  65.8009498 114.7557049  89.4405891
  68.2106544 124.2616936  92.1728595  67.5368243 124.5648633  92.7813553
  68.5972366 125.0646017  91.8234052  67.4265001 111.7582068 101.6626264
  66.5087562 111.9797015 101.5047953  67.8425145 111.8328378 100.8037972
  68.2100049 113.1573483  96.7928945  68.9571868 113.6694881  96.4836067
  68.4791638 112.8357536  97.6533338  66.4826699 115.6532024  93.7755899
  65.5737918 115.3691057  93.8728369  66.5121783 116.0731103  92.9159206
  70.6578886 110.1930600  98.7747734  69.9201643 109.6807986  99.1057977
  70.9105660 109.7530981  97.9631011  70.7590513 102.9706852  99.3689503
  71.0649390 102.1104215  99.0815418  71.4843118 103.5624472  99.1688497
  57.0514869 113.3737538  97.7571101  56.8539269 112.7806899  97.0322168
  56.4961533 113.0689748  98.4747040  65.0311593 113.2660645  99.8765694
  65.0860203 112.3134481  99.8008171  64.2202795 113.4220084 100.3606993
  66.1802787 117.1940768  91.1143978  65.7422217 116.4776627  90.6549615
  66.9213228 117.4216883  90.5529069  62.9703953 111.8837705  97.6356073
  62.1571819 112.1831875  98.0421265  63.4662947 111.4893393  98.3530556
  74.2975902 115.4697965  97.1720296  74.1593800 115.6599561  96.2441485
  73.9412120 116.2317348  97.6288347  62.4618028 109.4556060 103.2517308
  63.1017407 109.3144819 102.5540272  61.6295558 109.1690573 102.8755910
  63.2378332 118.7558490  99.3652301  64.0318930 118.2608811  99.1634876
  62.5270024 118.2276354  99.0020006  59.5461095 112.9001572  95.4412053
  58.6158683 112.8386028  95.6582015  59.6418567 112.3777525  94.6448695
  59.4646644 109.4256385  98.0290295  59.7253461 110.3401718  97.9199455
  60.2863817 108.9580828  98.1786908  60.9371570 110.8394142 105.1989120
  61.6094623 110.6311504 104.5501768  60.1101356 110.6416228 104.7594352
  66.4097760 124.4296609  94.3875674  66.5849515 123.9584652  95.2021297
  65.7230548 125.0562375  94.6156935  70.3014014 116.0525149  90.7076035
  69.6843185 115.3271978  90.6109088  69.8330503 116.8134510  90.3643109
  62.0912560 110.2710574  89.8297339  61.2142027 110.1499375  89.4659586
  62.5670313 109.4796652  89.5776228  53.6114701 115.0587734  99.9238847
  54.2985740 114.7449464  99.3359862  53.4562829 115.9629098  99.6506098
  58.4149423 109.9477930 104.3523870  58.3307611 109.3403600 103.6174280
  57.5932129 110.4386948 104.3533367  68.5873137 108.4331494  99.7194065
  69.0841836 107.6801456  99.3995136  67.8160118 108.4695810  99.1537275
  69.6702917 117.1903181  97.2932489  68.7359196 117.3104643  97.1237193
  69.8479586 116.2875648  97.0292499  65.1708105 110.5748877  99.4465750
  64.8005893 110.0219917 100.1346656  65.6667198 109.9707010  98.8940750
  73.0575469 113.0320500  97.8282523  73.5235921 113.8648492  97.7542826
  73.5082969 112.5665482  98.5327781  71.1251700 119.3764321  94.8268675
  71.4011544 119.2620916  95.7362549  70.2556198 118.9781806  94.7880848
  71.0292131 105.4001087 101.8673424  70.1155211 105.6305314 102.0355631
  71.4585233 105.4839531 102.7187457  68.0947929 122.5518857  95.7316537
  68.6235696 122.0411312  95.1186699  68.3576149 122.2361388  96.5962070
  53.1882677 113.1388327 102.1956314  53.2266776 112.6051918 102.9893432
  52.6822969 112.6123532 101.5767291  60.5673439 107.9852867 105.6918856
  60.6314765 108.8467698 105.2796254  60.5040559 107.3726869 104.9591215
  56.8191254 111.8652429  95.2710245  57.1144695 110.9563107  95.2177299
  55.9179290 111.8440168  94.9491248  60.3485501 109.9408426 101.2537794
  59.6272087 110.5544393 101.1145267  61.1378757 110.4766190 101.1754440
  58.5479096 109.5466527  95.3949570  58.2191802 108.6663906  95.2124676
  58.9018466 109.4914195  96.2825960  61.6620919 109.8339496  95.7625048
  62.0016991 110.3625418  95.0403656  62.1093039 110.1719903  96.5383615
  64.3564360 108.2176547 105.2128116  64.0161180 107.4184360 105.6148796
  63.6503366 108.5178258 104.6404949  65.0080832 105.3025860 103.6655439
  65.8306901 104.8286338 103.5434329  65.2518895 106.0816343 104.1654125
  63.6489066 108.3314118  93.9618341  64.3697429 108.7095371  93.4582058
  63.0254370 109.0502995  94.0653319  67.7920189 109.0359267  94.8976673
  68.0083803 109.9183905  94.5965501  67.3114256 108.6445480  94.1682315
  62.5319410 111.9944980 101.4747418  62.3863991 112.3085283 102.3671699
  62.0544614 112.6129881 100.9218316  64.3915793 108.9847528 101.5228307
  64.3777362 108.0888622 101.1860605  65.1088221 108.9918192 102.1566593
  66.2441924 109.4184868 103.5681435  65.9859702 110.3401939 103.5665765
  65.7126964 109.0215303 104.2581899  57.0065073 114.5350325 104.4135079
  56.4618541 115.3110133 104.5455353  57.8844422 114.8821129 104.2554200
  63.7952689 107.8661909  96.7915877  63.9168600 106.9378555  96.9906765
  63.5054732 107.8800594  95.8794193  66.6643880 105.5516819  99.9282597
  66.6865576 105.6156152  98.9734577  67.0811939 104.7121328 100.1223103
  72.1763285 121.8402420  93.4468418  72.8714190 122.4609113  93.6655733
  72.5186435 120.9897771  93.7220796  74.0754708 119.2902126  94.9755749
  74.6006032 119.6289398  94.2505069  73.9877061 118.3549141  94.7918884
  58.2387708 121.5485650  99.3375630  59.0645728 121.2489422  98.9574274
  57.8881760 120.7793272  99.7865419  56.4396313 119.4671976 100.2964564
  55.6028221 119.0394150 100.1148565  56.4119959 119.6604419 101.2335355
  62.7682748 119.4516041  94.8831765  62.9170869 120.1351506  94.2298437
  63.5749192 119.4321131  95.3981220  60.5235381 115.4781219  95.8892833
  60.2781423 114.5743549  96.0873044  60.6931296 115.4798369  94.9472311
  59.7931029 111.2109576  93.3878995  59.1000274 111.2853931  92.7319031
  59.5482781 110.4469920  93.9100512  68.4644685 102.7705178 100.7918486
  68.7446439 102.1028367 101.4178912  69.2495292 102.9634273 100.2793149
  66.2678154 121.9464172  92.3543512  65.6952121 122.5654359  91.9013984
  66.8410947 122.4963533  92.8883434  69.4875413 122.2301322  93.4852094
  70.4206087 122.1646883  93.6884970  69.3998626 123.0657589  93.0266627
  72.1163430 121.5467192  90.4456042  72.0377062 121.2127056  91.3391800
  72.9373097 122.0388960  90.4447514  66.6524952 113.2824984  89.6959564
  67.5984057 113.1531193  89.7647982  66.2739197 112.5439646  90.1728993
  72.6246837 104.9480990  99.6586456  72.4271658 104.6396079 100.5429788
  73.2346542 105.6742629  99.7884386  64.8367869 111.2074961  89.6314450
  63.9299325 110.9108074  89.7077163  65.1143850 110.9104779  88.7648736
  55.7545810 112.5281324 100.0813496  55.4348594 111.6746632  99.7887870
  55.2079238 112.7429902 100.8371463  66.4529935 105.7511851  95.7858691
  65.6430663 105.4058935  96.1613937  67.1414352 105.4419394  96.3746302
  68.3820483 104.8289897  97.4082988  68.9351522 105.2485351  98.0673011
  68.6190570 103.9025645  97.4505944  63.6066654 108.0661896  89.7726429
  64.4685818 108.3916794  90.0322246  63.7916998 107.2793392  89.2599495
  55.6234070 116.1484236 102.0506618  54.9297541 115.7338188 101.5376572
  56.3707061 116.1904772 101.4540037  71.7599290 106.9390422  96.9161652
  71.1797959 107.5975227  96.5339704  71.4935223 106.1167767  96.5049069
  70.2102857 106.3395480  99.1182972  70.7102635 106.4512015  98.3097291
  70.8538465 106.0356533  99.7583781  57.5370812 116.0802489  99.9272632
  57.5141500 116.1790177  98.9754516  57.8471449 116.9267640 100.2489799
  70.5424168 109.0990513  95.9718000  69.6550023 109.3840163  95.7538195
  70.9578158 108.9384276  95.1245277  73.8938705 109.1237034  99.6872339
  74.6699095 109.6133486  99.9596956  73.1686839 109.5495088 100.1444209
  69.6867382 118.8635188  90.0666020  70.3903232 119.0685190  90.6823676
  68.9630031 119.4311949  90.3315104  70.5165192 114.6145049  96.1868290
  70.4600394 115.0713600  95.3475923  71.0693535 113.8535733  96.0091133
  74.3269998 110.4034781  97.0118410  74.0706932 110.0031416  97.8426617
  73.7022866 111.1178575  96.8868549  71.5954079 119.3017717  92.1164480
  72.4299683 118.8698915  91.9341955  71.4338422 119.1299730  93.0441375
  71.2499971 115.8049830  93.4820819  71.1948775 115.6394101  92.5409264
  70.6246027 116.5125863  93.6383009  56.0392486 111.0417894 107.3082242
  56.6851350 110.5316848 107.7969467  55.8309638 111.7786576 107.8825667
  64.5596097 105.3057939  93.0606138  64.5474767 106.2499779  93.2174409
  65.4519519 105.1228084  92.7665599  68.3748216 101.9000716  97.3152075
  67.6080612 101.3459202  97.4608757  68.7858921 101.9722584  98.1766226
  73.0567935 125.7555264  92.6299433  72.2205247 126.0929951  92.9508707
  72.9172704 125.6204244  91.6926570  72.9306315 125.6002491  89.8297339
  72.0535781 125.4791292  89.4659586  73.4064068 124.8088570  89.5776228
  70.6324783 126.5401494  93.3878995  69.9394028 126.6145849  92.7319031
  70.3876535 125.7761838  93.9100512  75.6761624 126.5366878  89.6314450
  74.7693079 126.2399991  89.7077163  75.9537605 126.2396697  88.7648736
  74.4460408 123.3953814  89.7726429  75.3079572 123.7208712  90.0322246
  74.6310753 122.6085310  89.2599495  75.3989851 120.6349857  93.0606138
  75.3868521 121.5791697  93.2174409  76.2913273 120.4520002  92.7665599
  15.1875829  14.8497984  88.9364964  15.8254239  14.7304732  88.2328304
  15.0696672  15.7978828  88.9952916   7.8552351  16.6560889  84.8623379
   7.2917216  16.5650826  84.0939667   7.7404746  15.8360793  85.3425872
  13.4351909  20.3231857  80.1737844  12.7839889  20.9085937  79.7871858
  14.2296272  20.8538052  80.2332882   7.3607537  17.4120994  80.5724978
   8.1338413  16.8649981  80.4337854   7.7132935  18.2765243  80.7839440
   9.6973814  13.5713660  78.2043428   9.9499335  13.0495181  77.4426891
   8.7598373  13.4079805  78.3070112  14.7417097  12.5749438  86.0118172
  15.5280186  12.1568861  85.6608589  15.0055802  13.4795530  86.1799820
  14.9127175  18.0122289  80.7106828  14.2773008  18.0856915  81.4227733
  14.5824581  18.6015887  80.0325908  20.1425524  12.5124671  86.9151150
  20.8750696  11.9423888  87.1488980  19.3864880  12.1246272  87.3557656
   9.4170103  15.4741766  80.4067803   9.3006361  14.7986669  81.0748888
   9.5272363  14.9874140  79.5899956  11.7601644  14.9351913  84.1114493
  11.3959851  14.4082534  84.8227414  12.6168760  14.5450382  83.9380978
  11.3796352  12.4199470  80.0922508  11.2595977  12.8656521  80.9307988
  10.6848940  12.7684788  79.5336046   9.1403244  25.1903112  83.7412639
   9.0627274  26.1410937  83.8201120   8.5364888  24.8448984  84.3987565
  17.0781418  12.8920943  80.9202842  17.9899274  13.1248330  80.7450539
  16.5691065  13.4757988  80.3577921  15.6851000  17.8746762  88.3116423
  15.0559863  18.0392476  87.6092491  15.2976662  18.2888371  89.0827387
  19.5640232  18.8101200  85.6660787  18.8791270  19.1900101  85.1157820
  19.6484082  19.4196526  86.3992735  11.2378962  17.6121170  85.5766508
  11.7017308  17.8908873  84.7871131  10.9735760  16.7104614  85.3939599
  10.1747848  13.7344322  82.3856074  10.8771892  14.1865366  82.8530000
   9.8428477  13.0928141  83.0135967  17.9336992  19.3333114  90.4378488
  18.7554436  18.9313301  90.1561170  17.9299395  19.2301348  91.3894604
  26.0242985  15.6771863  86.7863459  25.2706693  15.1079261  86.6307464
  26.1590526  15.6434527  87.7334094  11.4141613  20.5485265  82.4618179
  11.2787288  21.3936801  82.8903027  11.9551425  20.7504542  81.6984113
   4.8671010  18.0660703  83.0346104   5.3795531  18.8603953  83.1851669
   5.5193723  17.3686993  82.9679705   6.6765895  21.1826459  85.1168857
   6.8532523  22.1044424  84.9289841   7.4722729  20.8684878  85.5463237
   7.7997210  22.7004633  91.1179199   8.3504636  22.5721696  90.3456193
   6.9608686  22.9999522  90.7674092  14.7284359  14.0624438  79.4989507
  14.2130983  14.8329042  79.7377895  14.4561668  13.3889574  80.1222569
  19.7018633  16.8156792  81.4342681  18.9248076  16.4767952  80.9897843
  20.3810114  16.8209416  80.7597646  14.5170662  11.9351530  81.3249289
  14.2120798  12.2497679  82.1759432  15.4701105  12.0132950  81.3676622
  12.9617094  18.0941753  82.9742243  12.4338456  17.3594513  82.6615480
  12.4604597  18.8716430  82.7282211  17.9409940  16.2890774  88.0909289
  17.2833615  16.9790035  88.1789417  18.7450339  16.6787206  88.4343275
  16.7515399  14.6435146  86.1413231  17.2647281  15.2765138  86.6434940
  17.4016623  14.0436342  85.7756591  11.1069694  15.9121964  75.9777216
  10.1996756  15.6811217  76.1768365  11.6040726  15.1159583  76.1651197
  14.0137773  24.6219471  78.8973902  13.3399472  24.9251167  79.5058860
  14.4003595  25.4248551  78.5479359  14.0131278  13.5176018  83.5174251
  14.7603097  14.0297415  83.2081373  14.2822867  13.1960070  84.3778645
  12.2857928  16.0134558  80.5001206  11.3769147  15.7293591  80.5973675
  12.3153012  16.4333637  79.6404513  17.5177195  19.6241148  84.2692373
  17.0639522  18.7832058  84.3257564  16.8871162  20.2602546  84.6067153
  16.4610115  10.5533134  85.4993041  15.7232872  10.0410520  85.8303283
  16.7136888  10.1133516  84.6876318  15.9610135  21.4617645  85.2042191
  16.2533109  22.0222702  84.4854557  16.4708755  21.7546206  85.9595350
  10.8342822  13.6263179  86.6011001  10.8891432  12.6737015  86.5253478
  10.0234024  13.7822618  87.0852299  11.9834016  17.5543302  77.8389284
  11.5453446  16.8379161  77.3794922  12.7244457  17.7819417  77.2774376
  10.9243760  22.2397996  86.2935645  10.8819938  22.4658842  85.3644177
  11.8406459  22.0061370  86.4421446  20.1007130  15.8300499  83.8965603
  19.9625029  16.0202095  82.9686792  19.7443349  16.5919882  84.3533654
  20.1276510  17.8977026  88.9076874  20.5613017  17.8052315  89.7559928
  20.8408091  17.8734527  88.2696890   9.0409560  19.1161025  86.0897607
   9.8350159  18.6211345  85.8880182   8.3301253  18.5878888  85.7265313
  13.8604405  21.4979120  90.4409975  13.9141427  22.0670057  91.2087691
  12.9919186  21.6681005  90.0764012  20.9892060  17.9400727  91.4409760
  21.1827950  18.8446537  91.6869035  20.8892678  17.4808146  92.2748345
  11.6180836  19.6890047  89.7695444  11.4791922  19.3208831  90.6421383
  10.8295433  20.2037686  89.5979402  12.2128988  24.7899143  81.1120981
  12.3880744  24.3187186  81.9266604  11.5261776  25.4164909  81.3402242
  13.1686052  19.0671649  87.1584282  12.8335884  19.0272419  88.0541932
  12.6689997  18.4016365  86.6854692  16.1045243  16.4127684  77.4321342
  15.4874414  15.6874512  77.3354395  15.6361732  17.1737044  77.0888416
   6.7790074  27.9388506  87.8860841   7.0186672  28.5707030  88.5639860
   5.9359270  27.5876546  88.1726200  11.2917936  23.7467628  90.2902345
  11.2188107  24.5522600  90.8021650  10.8495329  23.9459594  89.4650366
  11.0807715  22.9839398  83.8005167  10.2975237  23.5261079  83.8943391
  11.7800460  23.5013378  84.1999408  22.2434123  14.4974393  88.0857664
  22.2323999  15.3799109  87.7151597  21.3751502  14.1445944  87.8912201
  13.7516619  23.6454462  92.4460504  14.4644591  24.2801927  92.3736405
  13.2606648  23.7418328  91.6300506  15.4734146  17.5505715  84.0177795
  14.5390425  17.6707177  83.8482500  15.6510814  16.6478182  83.7537805
  18.8606697  13.3923034  84.5527830  19.3267150  14.2251026  84.4788132
  19.3114198  12.9268016  85.2573088  16.9282928  19.7366856  81.5513982
  17.2042772  19.6223450  82.4607856  16.0587427  19.3384340  81.5126155
  13.5636992  23.9853206  85.1946795  13.7459387  23.1674862  85.6574548
  14.3869978  24.2020899  84.7571685  13.8979158  22.9121392  82.4561844
  14.4266924  22.4013846  81.8432006  14.1607378  22.5963922  83.3207377
   7.2534906  23.9636508  85.2159620   6.5845281  24.4482636  84.7323660
   7.1147776  24.2105729  86.1302998  11.3940175  25.9980252  91.8142278
  11.9458483  26.1611873  92.5791363  11.7346368  26.5884690  91.1422303
  14.5308562  23.9462227  88.8005960  14.4059701  23.1451967  88.2916906
  15.1887653  24.4408421  88.3119930  16.5943470  21.7471247  90.4285510
  15.6473806  21.6276599  90.3563837  16.9426243  20.8593745  90.5111772
  13.5989903  21.5423964  86.6289862  13.4514866  20.6140671  86.8097433
  14.4243397  21.5644054  86.1446938  17.2024025  22.3652522  87.7154735
  18.1270573  22.1595384  87.5779186  17.0339329  22.1168924  88.6244077
  16.9919342  22.8838190  83.0716827  17.1656219  22.3184612  82.3190679
  17.4848233  23.6839085  82.8896317  22.8458733  15.6474613  84.6907126
  23.2889879  14.8981938  84.2926250  21.9685243  15.6384749  84.3080858
  17.9794514  22.2004954  80.1713725  18.6745419  22.8211647  80.3901040
  18.3217664  21.3500305  80.4466103  19.8785937  19.6504660  81.7001056
  20.4037261  19.9891932  80.9750376  19.7908290  18.7151675  81.5164190
  11.5626598  25.7176643  86.0596309  11.1231588  25.2253022  86.7529166
  12.3134715  25.1749611  85.8188384   4.0418937  21.9088184  86.0620937
   4.8676957  21.6091956  85.6819581   3.6912989  21.1395806  86.5110726
   9.0100470  21.2614652  88.1318611   8.3880479  20.5985357  87.8320838
   9.6805337  21.2875784  87.4492258   8.5713977  19.8118575  81.6077071
   8.7202097  20.4954040  80.9543744   9.3780420  19.7923665  82.1226527
  22.3891597  17.1179851  87.0829574  23.2238489  17.5569655  87.2467134
  22.5250726  16.6418504  86.2637820   6.3266610  15.8383753  82.6138140
   6.0812652  14.9346083  82.8118350   6.4962524  15.8400904  81.6717618
  12.0709382  22.3066706  79.0788819  11.4983350  22.9256893  78.6259290
  12.6442176  22.8566068  79.6128740  15.2906642  22.5903856  80.2097401
  16.2237315  22.5249418  80.4130276  15.2029855  23.4260123  79.7511933
  17.9194659  21.9069726  77.1701348  17.8408290  21.5729590  78.0637106
  18.7404326  22.3991494  77.1692821  20.6172850  14.7731466  90.3777667
  20.5849170  13.8347466  90.5637351  21.2273474  14.8515502  89.6443492
  12.4556181  13.6427519  76.4204871  13.4015286  13.5133727  76.4893289
  12.0770426  12.9042181  76.8974299  26.4349400  15.8347473  89.5183704
  27.1652788  15.5732761  90.0791407  25.8256345  15.0976194  89.5585772
  24.5164697  13.9755335  90.1158155  23.7897861  13.8411300  89.5074647
  24.1011984  14.2832164  90.9214873  17.5630519   7.2992957  83.6406958
  16.9829188   7.9577761  83.2585011  17.2966452   6.4770301  83.2294376
  16.3455397   9.4593047  82.6963307  15.4581252   9.7442698  82.4783501
  16.7609386   9.2986810  81.8490584  19.6969933   9.4839568  86.4117646
  20.4730323   9.9736021  86.6842263  18.9718068   9.9097622  86.8689515
  22.1342492  10.1967187  87.4691587  22.7286983   9.9562923  86.7584895
  22.2069076   9.4774318  88.0965123   4.3539648  24.0400798  87.7834751
   4.2194116  23.2801199  87.2172749   3.9371710  24.7641698  87.3163540
  15.4898611  19.2237722  76.7911327  16.1934461  19.4287724  77.4068982
  14.7661259  19.7914484  77.0560410  16.3196421  14.9747583  82.9113597
  16.2631622  15.4316134  82.0721229  16.8724763  14.2138268  82.7336440
  20.1301227  10.7637315  83.7363716  19.8738161  10.3633951  84.5671924
  19.5054095  11.4781109  83.6113856  24.4413565  13.5033388  86.2435008
  23.8813123  13.5726577  87.0166570  23.8357068  13.3274373  85.5234504
   7.5108774  24.9370115  87.9953194   7.3941158  25.8815548  87.8931884
   6.6901220  24.6343677  88.3838993  17.3985308  19.6620251  78.8409787
  18.2330912  19.2301449  78.6587262  17.2369651  19.4902265  79.7686681
  17.0531200  16.1652364  80.2066126  16.9980004  15.9996636  79.2654570
  16.4277256  16.8728397  80.3628316   8.5363288  25.5898377  91.2109122
   9.4390534  25.6221987  91.5275617   8.3100658  24.6598828  91.2255458
  10.2916890  24.3429364  87.8719201   9.3412521  24.3431225  87.7583573
  10.5949376  23.5962098  87.3555236  26.0269583  30.1789902  88.9364964
  26.6647993  30.0596649  88.2328304  25.9090426  31.1270746  88.9952916
  22.8359289  30.1317330  88.8726488  22.4977801  30.0158395  87.9847023
  23.7049058  29.7308495  88.8527494  18.6946105  31.9852807  84.8623379
  18.1310970  31.8942744  84.0939667  18.5798500  31.1652711  85.3425872
  23.3179072  31.2852182  94.8312694  23.3067713  30.8904980  93.9593197
  23.4799712  30.5518255  95.4246465  16.2410537  33.4803998  87.7007600
  17.0331829  33.1394823  87.2853899  16.4807187  33.5898973  88.6209753
  24.2745664  35.6523774  80.1737844  23.6233644  36.2377855  79.7871858
  25.0690027  36.1829969  80.2332882  18.2001291  32.7412911  80.5724978
  18.9732167  32.1941899  80.4337854  18.5526690  33.6057161  80.7839440
  20.0386334  34.0689294  93.7791878  19.7476200  34.9734925  93.6638544
  20.6743318  34.1105821  94.4935947  20.9642540  31.4466142  90.3693237
  21.5606113  31.2222165  89.6550200  21.0217512  30.7050888  90.9718685
  20.5367569  28.9005578  78.2043428  20.7893090  28.3787099  77.4426891
  19.5992128  28.7371723  78.3070112  25.5810852  27.9041356  86.0118172
  26.3673941  27.4860779  85.6608589  25.8449556  28.8087448  86.1799820
  25.7520929  33.3414206  80.7106828  25.1166762  33.4148833  81.4227733
  25.4218335  33.9307805  80.0325908  30.9819279  27.8416589  86.9151150
  31.7144451  27.2715806  87.1488980  30.2258635  27.4538190  87.3557656
  20.2563858  30.8033684  80.4067803  20.1400116  30.1278587  81.0748888
  20.3666117  30.3166057  79.5899956  22.5995399  30.2643831  84.1114493
  22.2353606  29.7374452  84.8227414  23.4562514  29.8742300  83.9380978
  28.5044699  21.5538163  91.3745759  28.1728024  22.4233574  91.1506974
  27.9090313  21.2374447  92.0539789  22.2400886  25.2933730  79.1075841
  22.4075288  26.1613967  79.4746312  22.0498055  25.4561012  78.1837130
  24.9976219  33.7550709  90.7741671  24.6976942  34.6575748  90.6657479
  24.6527278  33.4882892  91.6262824  18.4488700  30.2064506  86.8078376
  17.5239197  30.0740720  87.0156068  18.6973113  30.9858725  87.3048318
  28.3973362  26.2733249  88.4539109  27.4890240  26.2048658  88.1597870
  28.3460958  26.7505194  89.2820934  22.2190106  27.7491388  80.0922508
  22.0989732  28.1948439  80.9307988  21.5242695  28.0976705  79.5336046
  15.8097511  29.8497780  87.6422165  15.9389892  30.1032259  88.5561577
  15.1294963  30.4425488  87.3226820  19.9796999  40.5195030  83.7412639
  19.9021028  41.4702855  83.8201120  19.3758642  40.1740902  84.3987565
  22.4714228  27.6922895  96.3974006  21.6947562  28.2516815  96.3876871
  23.1104791  28.1779678  96.9188876  30.2635009  24.4749688  90.2316983
  29.6209389  24.7682221  89.5856777  29.7589937  24.3602608  91.0370179
  27.9175173  28.2212861  80.9202842  28.8293029  28.4540248  80.7450539
  27.4084820  28.8049905  80.3577921  20.7260601  30.5008348  95.9591973
  21.4675285  31.0393392  95.6826797  20.0197586  31.1274637  96.1163525
  26.2015940  32.6437489  94.5564134  26.6099296  32.2019899  93.8118767
  25.4793202  32.0690116  94.8098327  22.5547010  27.5810096  91.9297691
  23.4008205  28.0049509  92.0732340  22.4945648  26.9243720  92.6236255
  26.5244755  33.2038679  88.3116423  25.8953617  33.3684394  87.6092491
  26.1370417  33.6180289  89.0827387  30.4033987  34.1393117  85.6660787
  29.7185025  34.5192019  85.1157820  30.4877836  34.7488444  86.3992735
  25.7046456  25.2414464  93.5878865  25.4607387  25.9956524  93.0513141
  25.9806386  25.6199812  94.4226112  27.6584918  31.7853076  92.2656131
  27.8701814  32.4284836  91.5890512  27.6114667  30.9515393  91.7978061
  25.2611147  24.3970897  89.1692703  24.3995626  24.6952151  89.4609440
  25.2873582  24.6141296  88.2373735  22.0772717  32.9413088  85.5766508
  22.5411062  33.2200791  84.7871131  21.8129515  32.0396532  85.3939599
  18.9696798  32.4884569  88.5146272  19.5398155  32.9171837  87.8763756
  19.5604910  32.2067154  89.2130457  21.0141603  29.0636240  82.3856074
  21.7165646  29.5157284  82.8530000  20.6822231  28.4220059  83.0135967
  19.4621964  27.6547997  96.7607283  18.8320625  28.3364277  96.9942680
  19.3558052  27.5431078  95.8160421  14.7566937  27.3219793  87.6873207
  13.9665991  27.5777321  87.2113318  15.2478184  28.1368130  87.7925248
  28.7730746  34.6625032  90.4378488  29.5948190  34.2605219  90.1561170
  28.7693149  34.5593266  91.3894604  16.7081682  27.6864372  84.6456684
  15.9112845  27.7983066  85.1640180  16.4807274  28.0251024  83.7797574
  22.5387350  34.2109075  92.5939199  22.6031782  34.6729482  93.4297370
  21.8298274  33.5806440  92.7221508  13.0404640  27.5750283  90.1188198
  13.2912678  28.4597293  90.3845774  13.5764188  27.3954885  89.3463290
  36.8636739  31.0063780  86.7863459  36.1100448  30.4371178  86.6307464
  36.9984281  30.9726445  87.7334094  22.2535367  35.8777183  82.4618179
  22.1181042  36.7228718  82.8903027  22.7945180  36.0796460  81.6984113
  15.7064765  33.3952621  83.0346104  16.2189285  34.1895871  83.1851669
  16.3587478  32.6978911  82.9679705  17.5159650  36.5118377  85.1168857
  17.6926278  37.4336342  84.9289841  18.3116483  36.1976796  85.5463237
  21.6570668  23.3726641  96.7152791  22.3980381  23.9733795  96.6357253
  21.8888591  22.6304279  96.1570833  16.8012006  28.5583009  94.9931020
  16.6865521  27.6568266  95.2938119  15.9456524  28.8046705  94.6415837
  23.8803844  36.5000749  96.5918521  23.4367698  35.7137128  96.2739425
  24.5421057  36.6879900  95.9262412  18.6390965  38.0296551  91.1179199
  19.1898390  37.9013614  90.3456193  17.8002441  38.3291440  90.7674092
  25.9785082  36.7803549  94.6199922  25.9603557  37.6012430  94.1280191
  26.9005002  36.6557624  94.8450063  22.4358136  34.2947678  95.4623431
  22.9686473  33.5335967  95.2322739  21.9072217  34.0021330  96.2047585
  25.6027831  19.4007744  90.9917072  25.2592100  20.2909386  90.9156183
  25.9706794  19.2109402  90.1286657  13.6713682  31.7241275  83.8105674
  14.5088904  32.1338283  83.5939382  13.8491949  30.7840717  83.7805868
  25.5678114  29.3916356  79.4989507  25.0524737  30.1620960  79.7377895
  25.2955422  28.7181492  80.1222569  23.1525225  24.2366056  84.5574746
  22.2966821  23.8472907  84.3780384  23.5652177  24.3158017  83.6974531
  24.6824371  21.7712400  88.9566306  24.1789167  21.7342535  88.1434111
  24.9754978  22.6805142  89.0162962  20.9267257  21.8551129  87.9632487
  21.7920254  21.6593938  87.6038377  20.9944766  21.6261481  88.8901844
  30.5412388  32.1448710  81.4342681  29.7641831  31.8059870  80.9897843
  31.2203869  32.1501333  80.7597646  25.3564417  27.2643448  81.3249289
  25.0514552  27.5789597  82.1759432  26.3094859  27.3424867  81.3676622
  23.8010849  33.4233671  82.9742243  23.2732210  32.6886430  82.6615480
  23.2998351  34.2008347  82.7282211  28.7803695  31.6182691  88.0909289
  28.1227369  32.3081953  88.1789417  29.5844094  32.0079123  88.4343275
  18.5329576  24.0853337  85.3348854  19.1073328  23.8628519  84.6022047
  19.1200559  24.1542032  86.0877455  27.5909154  29.9727064  86.1413231
  28.1041035  30.6057056  86.6434940  28.2410377  29.3728260  85.7756591
  18.8599163  26.1157798  79.3544739  18.0236476  26.4532485  79.6754014
  18.7203933  25.9806778  78.4171876  20.8352244  20.9594586  84.0623924
  20.1816656  20.6443603  83.4380538  20.7932718  20.3370327  84.7883746
  21.9463449  31.2413881  75.9777216  21.0390511  31.0103135  76.1768365
  22.4434481  30.4451500  76.1651197  24.8531528  39.9511388  78.8973902
  24.1793227  40.2543085  79.5058860  25.2397350  40.7540469  78.5479359
  24.0689984  27.4476520  88.3871571  23.1512546  27.6691467  88.2293259
  24.4850128  27.5222830  87.5283278  24.8525032  28.8467935  83.5174251
  25.5996851  29.3589333  83.2081373  25.1216622  28.5251988  84.3778645
  23.1251682  31.3426476  80.5001206  22.2162902  31.0585509  80.5973675
  23.1546766  31.7625555  79.6404513  28.3570950  34.9533066  84.2692373
  27.9033277  34.1123975  84.3257564  27.7264916  35.5894464  84.6067153
  27.3003869  25.8825052  85.4993041  26.5626626  25.3702438  85.8303283
  27.5530643  25.4425433  84.6876318  26.8003889  36.7909562  85.2042191
  27.0926863  37.3514619  84.4854557  27.3102510  37.0838123  85.9595350
  27.4015497  18.6601304  86.0934810  27.7074373  17.7998667  85.8060725
  28.1268101  19.2518924  85.8933804  13.6939853  29.0631990  84.4816408
  13.4964253  28.4701351  83.7567474  13.1386517  28.7584200  85.1992347
  21.6736576  28.9555097  86.6011001  21.7285186  28.0028933  86.5253478
  20.8627778  29.1114536  87.0852299  22.8227770  32.8835220  77.8389284
  22.3847200  32.1671079  77.3794922  23.5638211  33.1111335  77.2774376
  19.6128936  27.5732156  84.3601380  18.7996802  27.8726327  84.7666572
  20.1087930  27.1787845  85.0775862  21.7637514  37.5689913  86.2935645
  21.7213693  37.7950760  85.3644177  22.6800213  37.3353288  86.4421446
  25.2103148  28.0373981  93.1916274  25.5652536  28.2645454  94.0510740
  25.8575279  28.3692358  92.5693529  30.9400885  31.1592417  83.8965603
  30.8018784  31.3494013  82.9686792  30.5837104  31.9211800  84.3533654
  19.1043011  25.1450512  89.9762615  19.7442390  25.0039271  89.2785578
  18.2720542  24.8585025  89.6001217  30.9670265  33.2268944  88.9076874
  31.4006771  33.1344233  89.7559928  31.6801845  33.2026444  88.2696890
  19.8803315  34.4452942  86.0897607  20.6743913  33.9503262  85.8880182
  19.1695007  33.9170805  85.7265313  24.6998159  36.8271038  90.4409975
  24.7535182  37.3961974  91.2087691  23.8312941  36.9972923  90.0764012
  16.1886078  28.5896024  82.1657360  15.2583667  28.5280480  82.3827322
  16.2843550  28.0671977  81.3694001  16.1071627  25.1150837  84.7535602
  16.3678445  26.0296170  84.6444762  16.9288800  24.6475279  84.9032214
  17.5796553  26.5288594  91.9234426  18.2519606  26.3205956  91.2747075
  16.7526339  26.3310680  91.4839658  31.8285814  33.2692644  91.4409760
  32.0221704  34.1738455  91.6869035  31.7286432  32.8100063  92.2748345
  23.4822125  23.1550535  93.9400087  22.8350040  23.8540485  93.8464563
  24.2523140  23.5886679  94.3076335  26.8900923  33.4199387  97.0150640
  26.7386429  33.1909939  96.0980724  26.8805602  34.3769989  97.0281985
  23.6586259  30.9931300  91.9996907  24.5878319  31.1442460  91.8265874
  23.2377289  31.0815321  91.1445553  22.4574591  35.0181964  89.7695444
  22.3185677  34.6500749  90.6421383  21.6689187  35.5329604  89.5979402
  23.0522743  40.1191061  81.1120981  23.2274499  39.6479104  81.9266604
  22.3655531  40.7456827  81.3402242  24.0079806  34.3963567  87.1584282
  23.6729639  34.3564337  88.0541932  23.5083752  33.7308283  86.6854692
  17.9824050  29.8031197  92.6836863  17.8443848  29.0711436  93.2848402
  18.8928974  29.7140097  92.4021051  26.9438998  31.7419601  77.4321342
  26.3268168  31.0166430  77.3354395  26.4755486  32.5028962  77.0888416
  20.6106351  29.5151156  92.1720543  21.3205969  28.8744349  92.1307161
  20.5675659  29.7664051  93.0946724  28.5993129  36.4518510  95.0927122
  28.5405676  35.7677730  94.4257705  29.0012648  37.1937500  94.6407748
  19.3235285  26.5016374  93.9916182  18.7872642  26.0507113  94.6437779
  18.7351993  26.6362283  93.2486647  17.6183828  43.2680424  87.8860841
  17.8580426  43.8998948  88.5639860  16.7753025  42.9168464  88.1726200
  18.7337544  25.9605026  76.5542646  17.8567010  25.8393826  76.1904893
  19.2095297  25.1691104  76.3021535  28.6010537  34.4158094  93.3241102
  27.7137315  34.0784015  93.4467501  29.1709088  33.6841125  93.5609867
  10.2539684  30.7482185  86.6484153  10.9410724  30.4343915  86.0605169
  10.0987812  31.6523550  86.3751405  15.0574406  25.6372382  91.0769177
  14.9732595  25.0298052  90.3419587  14.2357112  26.1281400  91.0778673
  22.1311690  39.0759546  90.2902345  22.0581862  39.8814518  90.8021650
  21.6889083  39.2751512  89.4650366  21.9201470  38.3131316  83.8005167
  21.1368992  38.8552996  83.8943391  22.6194215  38.8305296  84.1999408
  25.2298120  24.1225945  86.4439372  25.7266819  23.3695908  86.1240442
  24.4585101  24.1590262  85.8782581  33.0827877  29.8266311  88.0857664
  33.0717753  30.7091026  87.7151597  32.2145257  29.4737862  87.8912201
  24.5910374  38.9746380  92.4460504  25.3038346  39.6093845  92.3736405
  24.1000402  39.0710246  91.6300506  26.3127901  32.8797633  84.0177795
  25.3784179  32.9999095  83.8482500  26.4904569  31.9770099  83.7537805
  21.8133089  26.2643328  86.1711057  21.4430876  25.7114369  86.8591962
  22.3092181  25.6601462  85.6186057  29.7000452  28.7214952  84.5527830
  30.1660904  29.5542944  84.4788132  30.1507952  28.2559934  85.2573088
  19.6422287  36.7240824  93.2666075  20.3431747  37.3577306  93.4195469
  19.1717402  37.0655555  92.5061714  27.7676683  35.0658773  81.5513982
  28.0436527  34.9515368  82.4607856  26.8981182  34.6676258  81.5126155
  27.6717115  21.0895539  88.5918731  26.7580194  21.3199766  88.7600938
  28.1010216  21.1733983  89.4432763  27.4423573  29.2785431  91.0918625
  26.7895023  29.5261338  90.4371078  27.8203953  28.4649569  90.7581102
  24.4030747  39.3145124  85.1946795  24.5853142  38.4966780  85.6574548
  25.2263733  39.5312816  84.7571685  24.7372912  38.2413309  82.4561844
  25.2660679  37.7305764  81.8432006  25.0001132  37.9255839  83.3207377
  23.4911146  30.0205242  97.5784662  22.8151783  29.9199371  98.2487037
  24.3138780  29.8644456  98.0420659  15.2390005  36.2577179  90.1997177
  15.8243442  35.5120866  90.3325081  15.0414844  36.5681135  91.0833841
  18.0928660  39.2928426  85.2159620  17.4239036  39.7774554  84.7323660
  17.9541530  39.5397646  86.1302998   9.8307660  28.8282779  88.9201620
   9.8691759  28.2946369  89.7138738   9.3247953  28.3017984  88.3012598
  22.2333929  41.3272169  91.8142278  22.7852237  41.4903791  92.5791363
  22.5740122  41.9176607  91.1422303  17.2098422  23.6747319  92.4164163
  17.2739749  24.5362150  92.0041560  17.1465542  23.0621321  91.6836521
  27.0844803  36.1533427  97.6690932  27.6284707  36.7663385  97.1745887
  26.5031648  36.7113005  98.1857945  13.4616238  27.5546881  81.9955552
  13.7569679  26.6457559  81.9422605  12.5604273  27.5334620  81.6736554
  25.3702316  39.2754145  88.8005960  25.2453456  38.4743885  88.2916906
  26.0281407  39.7700338  88.3119930  16.9910485  25.6302877  87.9783100
  16.2697070  26.2438845  87.8390574  17.7803740  26.1660642  87.8999746
  27.4337225  37.0763165  90.4285510  26.4867560  36.9568516  90.3563837
  27.7819998  36.1885663  90.5111772  19.7936798  22.9657304  94.2523752
  20.3171200  23.2119601  95.0150061  19.5749131  23.7977339  93.8326889
  15.1904079  25.2360979  82.1194877  14.8616785  24.3558357  81.9369983
  15.5443450  25.1808647  83.0071266  24.4383658  36.8715881  86.6289862
  24.2908620  35.9432589  86.8097433  25.2637151  36.8935972  86.1446938
  18.3045902  25.5233948  82.4870355  18.6441975  26.0519870  81.7648963
  18.7518023  25.8614354  83.2628921  28.0417780  37.6944440  87.7154735
  28.9664327  37.4887301  87.5779186  27.8733083  37.4460841  88.6244077
  20.9989343  23.9070999  91.9373423  20.6586163  23.1078812  92.3394103
  20.2928349  24.2072710  91.3650256  21.6505815  20.9920312  90.3900746
  22.4731884  20.5180790  90.2679636  21.8943878  21.7710795  90.8899432
  20.2914049  24.0208570  80.6863647  21.0122412  24.3989823  80.1827364
  19.6679354  24.7397447  80.7898625  24.4345172  24.7253719  81.6221980
  24.6508787  25.6078357  81.3210808  23.9539239  24.3339932  80.8927622
  19.1744394  27.6839432  88.1992724  19.0288974  27.9979735  89.0917006
  18.6969597  28.3024332  87.6463623  21.0340777  24.6741980  88.2473614
  21.0202345  23.7783073  87.9105912  21.7513205  24.6812644  88.8811900
  22.8866907  25.1079320  90.2926741  22.6284685  26.0296391  90.2911072
  22.3551948  24.7109755  90.9827205  27.8313096  38.2130107  83.0716827
  28.0049974  37.6476530  82.3190679  28.3241987  39.0131002  82.8896317
  13.6490056  30.2244777  91.1380385  13.1043524  31.0004585  91.2700660
  14.5269406  30.5715581  90.9799507  20.4377672  23.5556360  83.5161184
  20.5593584  22.6273007  83.7152072  20.1479715  23.5695046  82.6039499
  23.3068863  21.2411271  86.6527904  23.3290560  21.3050604  85.6979883
  23.7236922  20.4015779  86.8468410  33.6852487  30.9766530  84.6907126
  34.1283633  30.2273856  84.2926250  32.8078997  30.9676667  84.3080858
  28.8188269  37.5296872  80.1713725  29.5139173  38.1503565  80.3901040
  29.1611419  36.6792223  80.4466103  14.4356078  29.3514673  94.0310542
  13.6937814  29.4997308  94.6175173  14.1148822  29.6122938  93.1677292
  30.7179692  34.9796577  81.7001056  31.2431016  35.3183850  80.9750376
  30.6302044  34.0443593  81.5164190  22.3799740  38.8930651  93.8290932
  22.6886867  38.6479798  94.7013632  23.1775222  39.0977290  93.3409803
  22.4020352  41.0468561  86.0596309  21.9625343  40.5544939  86.7529166
  23.1528469  40.5041528  85.8188384  14.8812691  37.2380102  86.0620937
  15.7070711  36.9383873  85.6819581  14.5306743  36.4687724  86.5110726
  19.8494225  36.5906570  88.1318611  19.2274234  35.9277275  87.8320838
  20.5199091  36.6167702  87.4492258  13.0821296  35.1566428  87.0209871
  12.2453205  34.7288602  86.8393872  13.0544942  35.3498871  87.9580662
  30.4073598  35.6129481  97.0052254  29.6169141  35.5953620  96.4656753
  30.1706952  36.1517775  97.7601290  30.5271473  32.4621947  94.3184982
  30.5769478  32.2971955  95.2600505  30.4185396  31.5949206  93.9282863
  19.4107731  35.1410493  81.6077071  19.5595852  35.8245957  80.9543744
  20.2174175  35.1215583  82.1226527  27.8175235  28.4452875  95.6344289
  28.7185098  28.3059340  95.3428287  27.8923210  28.6107330  96.5742466
  22.1518040  25.8219730  94.4797475  21.2821350  26.1153296  94.2080064
  22.3877521  26.4060175  95.2004739  32.0289670  34.8818889  94.5627004
  31.7374478  35.2448869  95.3990465  31.4161801  34.1685897  94.3840336
  33.2285352  32.4471769  87.0829574  34.0632243  32.8861573  87.2467134
  33.3644481  31.9710422  86.2637820  30.2776858  30.0051504  93.0307062
  30.7530979  30.1979150  92.2225913  29.3542423  30.0610689  92.7850445
  17.1660364  31.1675671  82.6138140  16.9206406  30.2638001  82.8118350
  17.3356279  31.1692821  81.6717618  24.8557074  22.0399347  91.9962896
  25.3739018  22.7760374  91.6709384  24.5012207  22.3463340  92.8309655
  16.4356012  26.9004028  80.1124301  15.7425257  26.9748383  79.4564337
  16.1907764  26.1364372  80.6345818  25.1069668  18.4599630  87.5163792
  25.3871422  17.7922819  88.1424219  25.8920275  18.6528725  87.0038456
  22.9103137  37.6358624  79.0788819  22.3377104  38.2548811  78.6259290
  23.4835931  38.1857985  79.6128740  28.9778527  26.8817264  91.2635367
  29.9295950  26.9815361  91.2847591  28.8081977  26.0895532  91.7733452
  26.9992906  23.9672847  91.4494768  26.4042838  24.2477860  90.7541257
  26.7142603  24.4566748  92.2211509  26.1300397  37.9195774  80.2097401
  27.0631070  37.8541335  80.4130276  26.0423610  38.7552041  79.7511933
  28.7588413  37.2361644  77.1701348  28.6802045  36.9021508  78.0637106
  29.5798080  37.7283412  77.1692821  31.4566605  30.1023383  90.3777667
  31.4242925  29.1639384  90.5637351  32.0667228  30.1807420  89.6443492
  23.2949935  28.9719436  76.4204871  24.2409040  28.8425644  76.4893289
  22.9164180  28.2334098  76.8974299  31.6061093  26.8934427  90.4235950
  31.0900142  26.1092883  90.2365879  32.4901042  26.5653143  90.5882470
  29.2671820  20.6375442  86.3831763  29.0696641  20.3290531  87.2675095
  29.8771526  21.3637081  86.5129693  37.2743154  31.1639390  89.5183704
  38.0046543  30.9024678  90.0791407  36.6650100  30.4268112  89.5585772
  35.3558452  29.3047253  90.1158155  34.6291615  29.1703218  89.5074647
  34.9405738  29.6124081  90.9214873  23.1788628  33.0237182  97.8805528
  24.0991637  33.2015781  98.0745575  23.1438211  32.0793228  97.7285227
  21.4792853  26.8969413  76.3559756  20.5724308  26.6002525  76.4322470
  21.7568834  26.5999231  75.4894043  12.3970793  28.2175776  86.8058803
  12.0773577  27.3641084  86.5133177  11.8504221  28.4324354  87.5616770
  16.1750701  30.9338217  90.5228309  16.3936710  31.8655325  90.5416343
  16.5876474  30.5746192  91.3083113  23.0954918  21.4406302  82.5103998
  22.2855647  21.0953387  82.8859244  23.7839335  21.1313846  83.0991609
  25.0245467  20.5184349  84.1328294  25.5776505  20.9379803  84.7918317
  25.2615553  19.5920097  84.1751250  20.2491637  23.7556348  76.4971735
  21.1110801  24.0811246  76.7567553  20.4341981  22.9687844  75.9844801
  12.2659053  31.8378688  88.7751924  11.5722524  31.4232640  88.2621879
  13.0132044  31.8799224  88.1785343  28.4024274  22.6284874  83.6406958
  27.8222943  23.2869678  83.2585011  28.1360206  21.8062219  83.2294376
  26.8527840  22.0289932  85.8428279  27.3527618  22.1406467  85.0342598
  27.4963448  21.7250985  86.4829087  20.9109836  29.9368562  98.7296120
  20.4276918  30.7368922  98.9360009  20.9970775  29.9476507  97.7763564
  14.1795796  31.7696941  86.6517939  14.1566484  31.8684629  85.6999822
  14.4896432  32.6162092  86.9735105  16.8383173  33.8273096  90.7664554
  17.7926427  33.7957039  90.6994485  16.6395697  33.3663720  91.5814779
  17.4282556  32.3974212  93.3335351  18.2475445  32.8918291  93.3570188
  17.7019363  31.4806181  93.3052919  27.1849152  24.7884965  82.6963307
  26.2975007  25.0734615  82.4783501  27.6003141  24.6278728  81.8490584
  30.5363688  24.8131486  86.4117646  31.3124078  25.3027938  86.6842263
  29.8111822  25.2389540  86.8689515  32.9736246  25.5259105  87.4691587
  33.5680737  25.2854841  86.7584895  33.0462830  24.8066236  88.0965123
  15.1933402  39.3692716  87.7834751  15.0587870  38.6093117  87.2172749
  14.7765464  40.0933616  87.3163540  26.3292365  34.5529639  76.7911327
  27.0328215  34.7579642  77.4068982  25.6055014  35.1206401  77.0560410
  27.1590175  30.3039501  82.9113597  27.1025377  30.7608052  82.0721229
  27.7118518  29.5430185  82.7336440  30.9694981  26.0929233  83.7363716
  30.7131916  25.6925868  84.5671924  30.3447849  26.8073026  83.6113856
  35.2807319  28.8325306  86.2435008  34.7206877  28.9018495  87.0166570
  34.6750823  28.6566290  85.5234504  18.3502528  40.2662033  87.9953194
  18.2334912  41.2107465  87.8931884  17.5294974  39.9635594  88.3838993
  28.2379063  34.9912169  78.8409787  29.0724667  34.5593367  78.6587262
  28.0763406  34.8194182  79.7686681  27.8924955  31.4944282  80.2066126
  27.8373759  31.3288553  79.2654570  27.2671010  32.2020315  80.3628316
  12.6817470  26.7312346  94.0327548  13.3276333  26.2211300  94.5214773
  12.4734621  27.4681028  94.6070974  25.2070862  33.7993194  99.5319689
  26.0762022  33.9733846  99.1706324  24.7277613  34.6187611  99.4095418
  21.2021080  20.9952391  79.7851444  21.1899750  21.9394231  79.9419715
  22.0944502  20.8122536  79.4910906  19.3757042  40.9190295  91.2109122
  20.2784289  40.9513905  91.5275617  19.1494412  39.9890746  91.2255458
  21.1310644  39.6721281  87.8719201  20.1806275  39.6723143  87.7583573
  21.4343130  38.9254016  87.3555236  25.0173200  17.5895168  84.0397381
  24.2505596  17.0353654  84.1854064  25.4283905  17.6617036  84.9011533
  36.8663338  45.5081820  88.9364964  37.5041748  45.3888567  88.2328304
  36.7484181  46.4562664  88.9952916  33.6753044  45.4609248  88.8726488
  33.3371555  45.3450313  87.9847023  34.5442812  45.0600413  88.8527494
  29.5339860  47.3144724  84.8623379  28.9704725  47.2234661  84.0939667
  29.4192255  46.4944629  85.3425872  34.1572827  46.6144100  94.8312694
  34.1461468  46.2196898  93.9593197  34.3193466  45.8810172  95.4246465
  27.0804292  48.8095916  87.7007600  27.8725584  48.4686741  87.2853899
  27.3200942  48.9190891  88.6209753  35.1139418  50.9815692  80.1737844
  34.4627398  51.5669772  79.7871858  35.9083781  51.5121887  80.2332882
  29.0395046  48.0704829  80.5724978  29.8125922  47.5233816  80.4337854
  29.3920444  48.9349078  80.7839440  30.8780088  49.3981211  93.7791878
  30.5869954  50.3026842  93.6638544  31.5137072  49.4397739  94.4935947
  31.8036295  46.7758060  90.3693237  32.3999867  46.5514082  89.6550200
  31.8611266  46.0342805  90.9718685  31.3761323  44.2297495  78.2043428
  31.6286844  43.7079017  77.4426891  30.4385882  44.0663641  78.3070112
  36.4204606  43.2333274  86.0118172  37.2067695  42.8152697  85.6608589
  36.6843311  44.1379366  86.1799820  36.5914684  48.6706124  80.7106828
  35.9560517  48.7440750  81.4227733  36.2612090  49.2599723  80.0325908
  41.8213033  43.1708507  86.9151150  42.5538205  42.6007724  87.1488980
  41.0652389  42.7830107  87.3557656  31.0957612  46.1325601  80.4067803
  30.9793870  45.4570505  81.0748888  31.2059872  45.6457975  79.5899956
  33.4389153  45.5935748  84.1114493  33.0747360  45.0666369  84.8227414
  34.2956269  45.2034217  83.9380978  39.3438454  36.8830081  91.3745759
  39.0121778  37.7525492  91.1506974  38.7484067  36.5666365  92.0539789
  33.0794640  40.6225648  79.1075841  33.2469042  41.4905884  79.4746312
  32.8891809  40.7852930  78.1837130  29.2882455  45.5356424  86.8078376
  28.3632951  45.4032638  87.0156068  29.5366868  46.3150643  87.3048318
  39.2367117  41.6025167  88.4539109  38.3283994  41.5340576  88.1597870
  39.1854713  42.0797112  89.2820934  33.0583861  43.0783305  80.0922508
  32.9383486  43.5240356  80.9307988  32.3636449  43.4268623  79.5336046
  26.6491266  45.1789697  87.6422165  26.7783647  45.4324176  88.5561577
  25.9688717  45.7717405  87.3226820  30.8190753  55.8486947  83.7412639
  30.7414783  56.7994772  83.8201120  30.2152397  55.5032820  84.3987565
  33.3107983  43.0214813  96.3974006  32.5341317  43.5808733  96.3876871
  33.9498546  43.5071596  96.9188876  41.1028763  39.8041605  90.2316983
  40.4603144  40.0974139  89.5856777  40.5983692  39.6894526  91.0370179
  38.7568927  43.5504779  80.9202842  39.6686783  43.7832165  80.7450539
  38.2478574  44.1341823  80.3577921  31.5654355  45.8300266  95.9591973
  32.3069039  46.3685310  95.6826797  30.8591341  46.4566555  96.1163525
  33.3940765  42.9102013  91.9297691  34.2401960  43.3341427  92.0732340
  33.3339402  42.2535638  92.6236255  41.2427741  49.4685035  85.6660787
  40.5578779  49.8483936  85.1157820  41.3271591  50.0780362  86.3992735
  36.5440210  40.5706382  93.5878865  36.3001142  41.3248442  93.0513141
  36.8200141  40.9491729  94.4226112  36.1004902  39.7262815  89.1692703
  35.2389381  40.0244068  89.4609440  36.1267336  39.9433214  88.2373735
  32.9166471  48.2705005  85.5766508  33.3804817  48.5492708  84.7871131
  32.6523269  47.3688450  85.3939599  29.8090552  47.8176487  88.5146272
  30.3791909  48.2463755  87.8763756  30.3998664  47.5359071  89.2130457
  31.8535357  44.3928158  82.3856074  32.5559401  44.8449201  82.8530000
  31.5215986  43.7511976  83.0135967  30.3015719  42.9839914  96.7607283
  29.6714379  43.6656195  96.9942680  30.1951807  42.8722996  95.8160421
  25.5960691  42.6511710  87.6873207  24.8059745  42.9069239  87.2113318
  26.0871939  43.4660048  87.7925248  27.5475437  43.0156289  84.6456684
  26.7506600  43.1274984  85.1640180  27.3201029  43.3542942  83.7797574
  23.8798394  42.9042201  90.1188198  24.1306433  43.7889211  90.3845774
  24.4157943  42.7246802  89.3463290  33.0929122  51.2069100  82.4618179
  32.9574797  52.0520636  82.8903027  33.6338934  51.4088378  81.6984113
  29.5796462  37.2860680  99.1232534  29.1863407  36.7326879  99.7980178
  30.3962602  37.5971259  99.5139052  26.5458519  48.7244538  83.0346104
  27.0583040  49.5187788  83.1851669  27.1981232  48.0270829  82.9679705
  28.3553404  51.8410295  85.1168857  28.5320032  52.7628259  84.9289841
  29.1510238  51.5268714  85.5463237  32.4964423  38.7018559  96.7152791
  33.2374136  39.3025712  96.6357253  32.7282345  37.9596197  96.1570833
  27.6405761  43.8874926  94.9931020  27.5259276  42.9860184  95.2938119
  26.7850278  44.1338623  94.6415837  36.4421585  34.7299662  90.9917072
  36.0985855  35.6201304  90.9156183  36.8100548  34.5401320  90.1286657
  24.5107436  47.0533193  83.8105674  25.3482658  47.4630201  83.5939382
  24.6885704  46.1132635  83.7805868  36.4071868  44.7208273  79.4989507
  35.8918492  45.4912878  79.7377895  36.1349177  44.0473409  80.1222569
  33.9918979  39.5657974  84.5574746  33.1360576  39.1764824  84.3780384
  34.4045931  39.6449935  83.6974531  35.5218126  37.1004317  88.9566306
  35.0182921  37.0634452  88.1434111  35.8148733  38.0097060  89.0162962
  31.7661012  37.1843047  87.9632487  32.6314009  36.9885856  87.6038377
  31.8338521  36.9553399  88.8901844  36.1958171  42.5935365  81.3249289
  35.8908307  42.9081514  82.1759432  37.1488613  42.6716785  81.3676622
  34.6404603  48.7525589  82.9742243  34.1125965  48.0178348  82.6615480
  34.1392106  49.5300265  82.7282211  29.3723331  39.4145255  85.3348854
  29.9467083  39.1920436  84.6022047  29.9594313  39.4833949  86.0877455
  38.4302908  45.3018982  86.1413231  38.9434790  45.9348974  86.6434940
  39.0804132  44.7020177  85.7756591  29.6992918  41.4449716  79.3544739
  28.8630230  41.7824402  79.6754014  29.5597688  41.3098696  78.4171876
  31.6745999  36.2886504  84.0623924  31.0210411  35.9735521  83.4380538
  31.6326473  35.6662244  84.7883746  32.7857203  46.5705799  75.9777216
  31.8784265  46.3395052  76.1768365  33.2828235  45.7743418  76.1651197
  34.9083739  42.7768437  88.3871571  33.9906300  42.9983384  88.2293259
  35.3243883  42.8514748  87.5283278  35.6918787  44.1759853  83.5174251
  36.4390606  44.6881250  83.2081373  35.9610376  43.8543906  84.3778645
  33.9645437  46.6718394  80.5001206  33.0556656  46.3877427  80.5973675
  33.9940521  47.0917472  79.6404513  39.1964704  50.2824983  84.2692373
  38.7427031  49.4415893  84.3257564  38.5658671  50.9186382  84.6067153
  38.1397624  41.2116969  85.4993041  37.4020381  40.6994355  85.8303283
  38.3924397  40.7717351  84.6876318  37.6397643  52.1201480  85.2042191
  37.9320618  52.6806537  84.4854557  38.1496264  52.4130041  85.9595350
  38.2409251  33.9893221  86.0934810  38.5468128  33.1290585  85.8060725
  38.9661856  34.5810841  85.8933804  24.5333607  44.3923908  84.4816408
  24.3358007  43.7993269  83.7567474  23.9780271  44.0876118  85.1992347
  32.5130331  44.2847014  86.6011001  32.5678941  43.3320851  86.5253478
  31.7021533  44.4406453  87.0852299  33.6621525  48.2127137  77.8389284
  33.2240955  47.4962996  77.3794922  34.4031965  48.4403252  77.2774376
  30.4522691  42.9024074  84.3601380  29.6390556  43.2018245  84.7666572
  30.9481685  42.5079763  85.0775862  36.0496902  43.3665899  93.1916274
  36.4046290  43.5937372  94.0510740  36.6969034  43.6984275  92.5693529
  41.7794639  46.4884334  83.8965603  41.6412538  46.6785930  82.9686792
  41.4230858  47.2503717  84.3533654  29.9436766  40.4742430  89.9762615
  30.5836145  40.3331189  89.2785578  29.1114296  40.1876943  89.6001217
  30.7197069  49.7744860  86.0897607  31.5137668  49.2795180  85.8880182
  30.0088762  49.2462723  85.7265313  27.0279833  43.9187942  82.1657360
  26.0977421  43.8572397  82.3827322  27.1237305  43.3963895  81.3694001
  26.9465382  40.4442755  84.7535602  27.2072199  41.3588088  84.6444762
  27.7682554  39.9767197  84.9032214  28.4190307  41.8580512  91.9234426
  29.0913361  41.6497874  91.2747075  27.5920094  41.6602598  91.4839658
  34.3215879  38.4842453  93.9400087  33.6743794  39.1832402  93.8464563
  35.0916895  38.9178597  94.3076335  37.7294677  48.7491305  97.0150640
  37.5780184  48.5201857  96.0980724  37.7199357  49.7061906  97.0281985
  34.4980014  46.3223218  91.9996907  35.4272074  46.4734377  91.8265874
  34.0771044  46.4107238  91.1445553  28.8217805  45.1323115  92.6836863
  28.6837602  44.4003354  93.2848402  29.7322728  45.0432015  92.4021051
  37.7832752  47.0711519  77.4321342  37.1661923  46.3458347  77.3354395
  37.3149241  47.8320879  77.0888416  31.4500105  44.8443074  92.1720543
  32.1599724  44.2036266  92.1307161  31.4069413  45.0955969  93.0946724
  30.1629039  41.8308292  93.9916182  29.6266396  41.3799030  94.6437779
  29.5745748  41.9654201  93.2486647  28.4577583  58.5972341  87.8860841
  28.6974181  59.2290865  88.5639860  27.6146779  58.2460381  88.1726200
  29.5731298  41.2896943  76.5542646  28.6960764  41.1685744  76.1904893
  30.0489051  40.4983022  76.3021535  21.0933438  46.0774103  86.6484153
  21.7804478  45.7635833  86.0605169  20.9381567  46.9815468  86.3751405
  25.8968160  40.9664300  91.0769177  25.8126349  40.3589969  90.3419587
  25.0750867  41.4573318  91.0778673  32.7595224  53.6423234  83.8005167
  31.9762746  54.1844914  83.8943391  33.4587969  54.1597213  84.1999408
  36.0691874  39.4517863  86.4439372  36.5660574  38.6987825  86.1240442
  35.2978856  39.4882180  85.8782581  37.1521655  48.2089550  84.0177795
  36.2177934  48.3291013  83.8482500  37.3298323  47.3062017  83.7537805
  32.6526843  41.5935246  86.1711057  32.2824631  41.0406287  86.8591962
  33.1485936  40.9893380  85.6186057  40.5394206  44.0506870  84.5527830
  41.0054659  44.8834861  84.4788132  40.9901707  43.5851851  85.2573088
  38.5110869  36.4187457  88.5918731  37.5973949  36.6491684  88.7600938
  38.9403971  36.5025901  89.4432763  38.2817328  44.6077349  91.0918625
  37.6288778  44.8553256  90.4371078  38.6597707  43.7941487  90.7581102
  34.3304901  45.3497160  97.5784662  33.6545538  45.2491289  98.2487037
  35.1532534  45.1936373  98.0420659  26.0783760  51.5869096  90.1997177
  26.6637196  50.8412784  90.3325081  25.8808598  51.8973053  91.0833841
  28.9322415  54.6220344  85.2159620  28.2632790  55.1066471  84.7323660
  28.7935285  54.8689564  86.1302998  20.6701414  44.1574696  88.9201620
  20.7085514  43.6238287  89.7138738  20.1641707  43.6309902  88.3012598
  28.0492177  39.0039237  92.4164163  28.1133503  39.8654068  92.0041560
  27.9859297  38.3913239  91.6836521  27.5244449  41.0762369  96.0637197
  28.1516488  40.6939447  96.6774721  26.6672368  40.8576571  96.4292889
  24.3009992  42.8838799  81.9955552  24.5963433  41.9749477  81.9422605
  23.3998028  42.8626538  81.6736554  27.8304239  40.9594795  87.9783100
  27.1090825  41.5730763  87.8390574  28.6197495  41.4952560  87.8999746
  30.6330553  38.2949222  94.2523752  31.1564954  38.5411518  95.0150061
  30.4142886  39.1269256  93.8326889  26.0297834  40.5652896  82.1194877
  25.7010540  39.6850275  81.9369983  26.3837204  40.5100565  83.0071266
  29.1439657  40.8525866  82.4870355  29.4835729  41.3811787  81.7648963
  29.5911777  41.1906272  83.2628921  31.8383098  39.2362917  91.9373423
  31.4979918  38.4370730  92.3394103  31.1322104  39.5364628  91.3650256
  32.4899569  36.3212229  90.3900746  33.3125639  35.8472707  90.2679636
  32.7337633  37.1002713  90.8899432  31.1307804  39.3500488  80.6863647
  31.8516166  39.7281740  80.1827364  30.5073108  40.0689364  80.7898625
  35.2738927  40.0545637  81.6221980  35.4902541  40.9370274  81.3210808
  34.7932994  39.6631850  80.8927622  30.0138148  43.0131350  88.1992724
  29.8682729  43.3271653  89.0917006  29.5363352  43.6316250  87.6463623
  31.8734531  40.0033898  88.2473614  31.8596100  39.1074991  87.9105912
  32.5906959  40.0104562  88.8811900  33.7260662  40.4371238  90.2926741
  33.4678440  41.3588309  90.2911072  33.1945702  40.0401673  90.9827205
  24.4883810  45.5536694  91.1380385  23.9437278  46.3296502  91.2700660
  25.3663160  45.9007499  90.9799507  31.2771427  38.8848278  83.5161184
  31.3987338  37.9564924  83.7152072  30.9873469  38.8986964  82.6039499
  34.1462617  36.5703189  86.6527904  34.1684314  36.6342522  85.6979883
  34.5630676  35.7307697  86.8468410  44.5246242  46.3058448  84.6907126
  44.9677388  45.5565773  84.2926250  43.6472752  46.2968584  84.3080858
  25.2749832  44.6806590  94.0310542  24.5331568  44.8289226  94.6175173
  24.9542576  44.9414856  93.1677292  25.7206446  52.5672019  86.0620937
  26.5464466  52.2675791  85.6819581  25.3700498  51.7979642  86.5110726
  23.9215051  50.4858346  87.0209871  23.0846959  50.0580520  86.8393872
  23.8938696  50.6790789  87.9580662  30.7612507  40.3980275  97.7251117
  30.8100662  41.2742398  97.3428886  31.3035021  39.8557669  97.1522760
  30.2501486  50.4702411  81.6077071  30.3989606  51.1537875  80.9543744
  31.0567929  50.4507501  82.1226527  38.6568990  43.7744793  95.6344289
  39.5578852  43.6351258  95.3428287  38.7316964  43.9399248  96.5742466
  32.9911795  41.1511648  94.4797475  32.1215104  41.4445214  94.2080064
  33.2271275  41.7352093  95.2004739  28.0054119  46.4967588  82.6138140
  27.7600161  45.5929918  82.8118350  28.1750033  46.4984739  81.6717618
  35.6950829  37.3691265  91.9962896  36.2132773  38.1052292  91.6709384
  35.3405962  37.6755258  92.8309655  27.2749766  42.2295946  80.1124301
  26.5819011  42.3040301  79.4564337  27.0301518  41.4656290  80.6345818
  35.9463423  33.7891547  87.5163792  36.2265177  33.1214736  88.1424219
  36.7314030  33.9820643  87.0038456  33.7496891  52.9650541  79.0788819
  33.1770859  53.5840728  78.6259290  34.3229685  53.5149903  79.6128740
  39.8172281  42.2109181  91.2635367  40.7689704  42.3107279  91.2847591
  39.6475732  41.4187450  91.7733452  37.8386661  39.2964765  91.4494768
  37.2436593  39.5769777  90.7541257  37.5536357  39.7858665  92.2211509
  34.1343690  44.3011354  76.4204871  35.0802795  44.1717562  76.4893289
  33.7557935  43.5626016  76.8974299  42.4454848  42.2226344  90.4235950
  41.9293896  41.4384801  90.2365879  43.3294796  41.8945061  90.5882470
  40.1065574  35.9667360  86.3831763  39.9090396  35.6582448  87.2675095
  40.7165280  36.6928999  86.5129693  32.3186607  42.2261330  76.3559756
  31.4118062  41.9294443  76.4322470  32.5962588  41.9291148  75.4894043
  23.2364547  43.5467694  86.8058803  22.9167332  42.6933002  86.5133177
  22.6897976  43.7616272  87.5616770  27.0144455  46.2630135  90.5228309
  27.2330465  47.1947243  90.5416343  27.4270229  45.9038109  91.3083113
  33.9348673  36.7698220  82.5103998  33.1249401  36.4245305  82.8859244
  34.6233090  36.4605764  83.0991609  35.8639221  35.8476267  84.1328294
  36.4170260  36.2671720  84.7918317  36.1009307  34.9212015  84.1751250
  31.8872320  41.8363341  99.9131058  31.7869047  42.7857697  99.8443149
  31.6693862  41.5081579  99.0407128  31.0885392  39.0848266  76.4971735
  31.9504556  39.4103164  76.7567553  31.2735736  38.2979761  75.9844801
  23.1052807  47.1670605  88.7751924  22.4116279  46.7524558  88.2621879
  23.8525798  47.2091142  88.1785343  39.2418028  37.9576792  83.6406958
  38.6616697  38.6161596  83.2585011  38.9753961  37.1354137  83.2294376
  37.6921595  37.3581850  85.8428279  38.1921373  37.4698384  85.0342598
  38.3357202  37.0542903  86.4829087  31.7503590  45.2660479  98.7296120
  31.2670672  46.0660839  98.9360009  31.8364529  45.2768424  97.7763564
  25.0189550  47.0988859  86.6517939  24.9960238  47.1976546  85.6999822
  25.3290186  47.9454010  86.9735105  27.6776928  49.1565014  90.7664554
  28.6320181  49.1248956  90.6994485  27.4789451  48.6955638  91.5814779
  28.2676310  47.7266130  93.3335351  29.0869199  48.2210209  93.3570188
  28.5413118  46.8098098  93.3052919  38.0242906  40.1176882  82.6963307
  37.1368761  40.4026533  82.4783501  38.4396895  39.9570646  81.8490584
  41.3757442  40.1423403  86.4117646  42.1517832  40.6319856  86.6842263
  40.6505577  40.5681458  86.8689515  43.8130001  40.8551023  87.4691587
  44.4074492  40.6146759  86.7584895  43.8856585  40.1358153  88.0965123
  26.0327157  54.6984634  87.7834751  25.8981625  53.9385034  87.2172749
  25.6159219  55.4225533  87.3163540  37.1686120  49.8821557  76.7911327
  37.8721970  50.0871560  77.4068982  36.4448768  50.4498319  77.0560410
  37.9983930  45.6331418  82.9113597  37.9419131  46.0899970  82.0721229
  38.5512272  44.8722103  82.7336440  41.8088736  41.4221150  83.7363716
  41.5525670  41.0217786  84.5671924  41.1841604  42.1364944  83.6113856
  46.1201074  44.1617223  86.2435008  45.5600632  44.2310413  87.0166570
  45.5144577  43.9858208  85.5234504  38.7318709  46.8236200  80.2066126
  38.6767513  46.6580471  79.2654570  38.1064765  47.5312233  80.3628316
  23.5211224  42.0604264  94.0327548  24.1670088  41.5503218  94.5214773
  23.3128375  42.7972946  94.6070974  32.0414835  36.3244309  79.7851444
  32.0293505  37.2686149  79.9419715  32.9338257  36.1414454  79.4910906
  35.8566954  32.9187085  84.0397381  35.0899350  32.3645572  84.1854064
  36.2677659  32.9908954  84.9011533  27.8608715  39.2071881  98.1302563
  28.7240177  38.8508686  98.3405887  27.2874126  38.8685776  98.8177967
  50.1832208  52.2121999  91.3745759  49.8515533  53.0817410  91.1506974
  49.5877822  51.8958283  92.0539789  50.0760871  56.9317085  88.4539109
  49.1677749  56.8632493  88.1597870  50.0248467  57.4089030  89.2820934
  51.9422518  55.1333523  90.2316983  51.2996898  55.4266056  89.5856777
  51.4377446  55.0186443  91.0370179  58.5424248  61.6647616  86.7863459
  57.7887957  61.0955014  86.6307464  58.6771790  61.6310280  87.7334094
  42.6054766  52.5134965  87.9632487  43.4707763  52.3177773  87.6038377
  42.6732275  52.2845316  88.8901844  49.0803006  49.3185139  86.0934810
  49.3861882  48.4582502  85.8060725  49.8055610  49.9102759  85.8933804
  53.5073323  63.9276480  91.4409760  53.7009213  64.8322290  91.6869035
  53.4073941  63.4683899  92.2748345  48.5688432  64.0783223  97.0150640
  48.4173938  63.8493774  96.0980724  48.5593111  65.0353824  97.0281985
  50.2780638  67.1102345  95.0927122  50.2193185  66.4261565  94.4257705
  50.6800157  67.8521335  94.6407748  31.9327193  61.4066021  86.6484153
  32.6198233  61.0927751  86.0605169  31.7775321  62.3107385  86.3751405
  49.3504624  51.7479374  88.5918731  48.4367703  51.9783601  88.7600938
  49.7797725  51.8317818  89.4432763  48.7632312  66.8117262  97.6690932
  49.3072216  67.4247221  97.1745887  48.1819157  67.3696841  98.1857945
  44.9856372  51.8995106  86.6527904  45.0078069  51.9634439  85.6979883
  45.4024431  51.0599615  86.8468410  52.0861107  66.2713316  97.0052254
  51.2956650  66.2537455  96.4656753  51.8494461  66.8101610  97.7601290
  52.2058982  63.1205783  94.3184982  52.2556987  62.9555790  95.2600505
  52.0972905  62.2533042  93.9282863  49.4962744  59.1036711  95.6344289
  50.3972607  58.9643176  95.3428287  49.5710719  59.2691166  96.5742466
  53.7077179  65.5402724  94.5627004  53.4161987  65.9032705  95.3990465
  53.0949310  64.8269733  94.3840336  51.9564367  60.6635339  93.0307062
  52.4318488  60.8562985  92.2225913  51.0329932  60.7194525  92.7850445
  50.6566036  57.5401099  91.2635367  51.6083459  57.6399197  91.2847591
  50.4869486  56.7479368  91.7733452  58.9530663  61.8223226  89.5183704
  59.6834052  61.5608514  90.0791407  58.3437609  61.0851947  89.5585772
  57.0345961  59.9631088  90.1158155  56.3079124  59.8287053  89.5074647
  56.6193247  60.2707917  90.9214873  46.7032976  51.1768185  84.1328294
  47.2564014  51.5963638  84.7918317  46.9403062  50.2503933  84.1751250
  33.9446562  62.4962523  88.7751924  33.2510033  62.0816476  88.2621879
  34.6919553  62.5383059  88.1785343  46.6960709  48.2479003  84.0397381
  45.9293104  47.6937490  84.1854064  47.1071414  48.3200872  84.9011533
  55.8360336  77.2727935  94.8312694  55.8248977  76.8780733  93.9593197
  55.9980975  76.5394008  95.4246465  52.5567597  80.0565047  93.7791878
  52.2657463  80.9610678  93.6638544  53.1924581  80.0981574  94.4935947
  61.0225963  67.5413916  91.3745759  60.6909287  68.4109327  91.1506974
  60.4271576  67.2250200  92.0539789  57.5157482  79.7426462  90.7741671
  57.2158205  80.6451501  90.6657479  57.1708542  79.4758645  91.6262824
  60.9154626  72.2609002  88.4539109  60.0071503  72.1924411  88.1597870
  60.8642222  72.7380947  89.2820934  52.4978262  86.5070783  83.7412639
  52.4202292  87.4578608  83.8201120  51.8939906  86.1616655  84.3987565
  54.9895492  73.6798648  96.3974006  54.2128826  74.2392568  96.3876871
  55.6286055  74.1655431  96.9188876  62.7816272  70.4625441  90.2316983
  62.1390653  70.7557974  89.5856777  62.2771201  70.3478361  91.0370179
  58.7197204  78.6313242  94.5564134  59.1280560  78.1895652  93.8118767
  57.9974465  78.0565869  94.8098327  59.0426018  79.1914432  88.3116423
  58.4134881  79.3560147  87.6092491  58.6551680  79.6056042  89.0827387
  58.2227719  71.2290217  93.5878865  57.9788651  71.9832278  93.0513141
  58.4987650  71.6075565  94.4226112  60.1766182  77.7728829  92.2656131
  60.3883077  78.4160589  91.5890512  60.1295930  76.9391146  91.7978061
  61.2912010  80.6500785  90.4378488  62.1129454  80.2480972  90.1561170
  61.2874413  80.5469019  91.3894604  55.0568613  80.1984828  92.5939199
  55.1213046  80.6605235  93.4297370  54.3479537  79.5682193  92.7221508
  54.7716631  81.8652936  82.4618179  54.6362306  82.7104471  82.8903027
  55.3126443  82.0672213  81.6984113  51.2583971  67.9444515  99.1232534
  50.8650916  67.3910714  99.7980178  52.0750111  68.2555094  99.5139052
  50.0340913  82.4994130  85.1168857  50.2107541  83.4212095  84.9289841
  50.8297746  82.1852549  85.5463237  54.1751932  69.3602394  96.7152791
  54.9161645  69.9609548  96.6357253  54.4069854  68.6180032  96.1570833
  56.3985107  82.4876502  96.5918521  55.9548961  81.7012881  96.2739425
  57.0602321  82.6755653  95.9262412  51.1572228  84.0172304  91.1179199
  51.7079654  83.8889367  90.3456193  50.3183704  84.3167193  90.7674092
  58.4966345  82.7679302  94.6199922  58.4784821  83.5888183  94.1280191
  59.4186265  82.6433377  94.8450063  54.9539399  80.2823431  95.4623431
  55.4867736  79.5211720  95.2322739  54.4253481  79.9897083  96.2047585
  58.1209094  65.3883497  90.9917072  57.7773364  66.2785139  90.9156183
  58.4888057  65.1985155  90.1286657  59.9196760  64.6477057  86.0934810
  60.2255637  63.7874420  85.8060725  60.6449365  65.2394677  85.8933804
  54.2818778  83.5565666  86.2935645  54.2394956  83.7826513  85.3644177
  55.1981477  83.3229041  86.4421446  57.7284411  74.0249734  93.1916274
  58.0833799  74.2521207  94.0510740  58.3756543  74.3568111  92.5693529
  63.4851528  79.2144697  88.9076874  63.9188035  79.1219986  89.7559928
  64.1983109  79.1902197  88.2696890  57.2179423  82.8146791  90.4409975
  57.2716445  83.3837727  91.2087691  56.3494204  82.9848676  90.0764012
  64.3467078  79.2568397  91.4409760  64.5402968  80.1614208  91.6869035
  64.2467696  78.7975817  92.2748345  56.0003388  69.1426288  93.9400087
  55.3531303  69.8416238  93.8464563  56.7704404  69.5762432  94.3076335
  59.4082186  79.4075140  97.0150640  59.2567693  79.1785692  96.0980724
  59.3986866  80.3645742  97.0281985  54.9755854  81.0057717  89.7695444
  54.8366940  80.6376502  90.6421383  54.1870451  81.5205357  89.5979402
  55.5704006  86.1066814  81.1120981  55.7455762  85.6354857  81.9266604
  54.8836794  86.7332580  81.3402242  56.5261070  80.3839320  87.1584282
  56.1910902  80.3440090  88.0541932  56.0265015  79.7184036  86.6854692
  61.1174393  82.4394263  95.0927122  61.0586939  81.7553483  94.4257705
  61.5193911  83.1813253  94.6407748  50.1365092  89.2556177  87.8860841
  50.3761690  89.8874701  88.5639860  49.2934288  88.9044217  88.1726200
  61.1191800  80.4033847  93.3241102  60.2318579  80.0659768  93.4467501
  61.6890351  79.6716878  93.5609867  54.6492954  85.0635299  90.2902345
  54.5763125  85.8690271  90.8021650  54.2070347  85.2627265  89.4650366
  54.4382733  84.3007069  83.8005167  53.6550255  84.8428749  83.8943391
  55.1375478  84.8181049  84.1999408  57.1091637  84.9622133  92.4460504
  57.8219609  85.5969598  92.3736405  56.6181666  85.0585999  91.6300506
  52.1603551  82.7116577  93.2666075  52.8613010  83.3453059  93.4195469
  51.6898666  83.0531308  92.5061714  60.1898378  67.0771292  88.5918731
  59.2761458  67.3075519  88.7600938  60.6191480  67.1609736  89.4432763
  59.9604837  75.2661184  91.0918625  59.3076287  75.5137091  90.4371078
  60.3385216  74.4525322  90.7581102  56.9212010  85.3020877  85.1946795
  57.1034405  84.4842533  85.6574548  57.7444996  85.5188569  84.7571685
  57.2554176  84.2289062  82.4561844  57.7841942  83.7181517  81.8432006
  57.5182396  83.9131592  83.3207377  56.0092410  76.0080995  97.5784662
  55.3333047  75.9075124  98.2487037  56.8320043  75.8520209  98.0420659
  47.7571269  82.2452932  90.1997177  48.3424705  81.4996619  90.3325081
  47.5596107  82.5556888  91.0833841  50.6109924  85.2804179  85.2159620
  49.9420299  85.7650307  84.7323660  50.4722794  85.5273399  86.1302998
  54.7515192  87.3147922  91.8142278  55.3033501  87.4779544  92.5791363
  55.0921386  87.9052360  91.1422303  59.6026067  82.1409180  97.6690932
  60.1465971  82.7539138  97.1745887  59.0212912  82.6988758  98.1857945
  57.8883580  85.2629898  88.8005960  57.7634719  84.4619638  88.2916906
  58.5462671  85.7576091  88.3119930  59.9518488  83.0638918  90.4285510
  59.0048824  82.9444269  90.3563837  60.3001261  82.1761416  90.5111772
  52.3118062  68.9533057  94.2523752  52.8352463  69.1995354  95.0150061
  52.0930395  69.7853092  93.8326889  56.9564921  82.8591634  86.6289862
  56.8089884  81.9308342  86.8097433  57.7818415  82.8811725  86.1446938
  53.5170607  69.8946752  91.9373423  53.1767427  69.0954565  92.3394103
  52.8109613  70.1948463  91.3650256  54.1687078  66.9796065  90.3900746
  54.9913148  66.5056543  90.2679636  54.4125142  67.7586548  90.8899432
  54.8981004  84.8806404  93.8290932  55.2068130  84.6355551  94.7013632
  55.6956486  85.0853043  93.3409803  54.9201616  87.0344314  86.0596309
  54.4806606  86.5420692  86.7529166  55.6709733  86.4917281  85.8188384
  47.3993955  83.2255855  86.0620937  48.2251975  82.9259626  85.6819581
  47.0488007  82.4563477  86.5110726  52.3675488  82.5782323  88.1318611
  51.7455497  81.9153028  87.8320838  53.0380355  82.6043455  87.4492258
  45.6002560  81.1442181  87.0209871  44.7634468  80.7164355  86.8393872
  45.5726205  81.3374624  87.9580662  52.4400015  71.0564111  97.7251117
  52.4888171  71.9326234  97.3428886  52.9822530  70.5141504  97.1522760
  62.9254861  81.6005234  97.0052254  62.1350405  81.5829373  96.4656753
  62.6888216  82.1393528  97.7601290  63.0452736  78.4497700  94.3184982
  63.0950741  78.2847708  95.2600505  62.9366660  77.5824959  93.9282863
  60.3356499  74.4328628  95.6344289  61.2366361  74.2935093  95.3428287
  60.4104473  74.5983083  96.5742466  54.6699304  71.8095483  94.4797475
  53.8002613  72.1029049  94.2080064  54.9058784  72.3935928  95.2004739
  64.5470933  80.8694642  94.5627004  64.2555741  81.2324623  95.3990465
  63.9343064  80.1561650  94.3840336  62.7958121  75.9927257  93.0307062
  63.2712243  76.1854903  92.2225913  61.8723687  76.0486442  92.7850445
  57.3738338  68.0275100  91.9962896  57.8920282  68.7636127  91.6709384
  57.0193471  68.3339093  92.8309655  61.4959790  72.8693017  91.2635367
  62.4477213  72.9691114  91.2847591  61.3263241  72.0771285  91.7733452
  59.5174170  69.9548600  91.4494768  58.9224102  70.2353613  90.7541257
  59.2323866  70.4442501  92.2211509  63.9747868  76.0899136  90.3777667
  63.9424188  75.1515137  90.5637351  64.5848492  76.1683173  89.6443492
  64.1242357  72.8810180  90.4235950  63.6081405  72.0968636  90.2365879
  65.0082305  72.5528896  90.5882470  61.7853083  66.6251195  86.3831763
  61.5877905  66.3166284  87.2675095  62.3952789  67.3512834  86.5129693
  69.7924418  77.1515143  89.5183704  70.5227806  76.8900431  90.0791407
  69.1831363  76.4143865  89.5585772  55.6969891  79.0112935  97.8805528
  56.6172901  79.1891534  98.0745575  55.6619474  78.0668981  97.7285227
  53.5659829  72.4947176  99.9131058  53.4656556  73.4441533  99.8443149
  53.3481371  72.1665415  99.0407128  60.9205537  68.6160627  83.6406958
  60.3404206  69.2745431  83.2585011  60.6541470  67.7937972  83.2294376
  53.4291099  75.9244315  98.7296120  52.9458181  76.7244675  98.9360009
  53.5152038  75.9352260  97.7763564  59.7030415  70.7760718  82.6963307
  58.8156270  71.0610368  82.4783501  60.1184404  70.6154481  81.8490584
  63.0544951  70.8007239  86.4117646  63.8305341  71.2903691  86.6842263
  62.3293086  71.2265293  86.8689515  65.4917510  71.5134858  87.4691587
  66.0862001  71.2730594  86.7584895  65.5644094  70.7941989  88.0965123
  47.7114666  85.3568469  87.7834751  47.5769134  84.5968870  87.2172749
  47.2946728  86.0809369  87.3163540  50.8683792  86.2537786  87.9953194
  50.7516176  87.1983218  87.8931884  50.0476238  85.9511347  88.3838993
  57.7252125  79.7868947  99.5319689  58.5943285  79.9609599  99.1706324
  57.2458877  80.6063364  99.4095418  51.8938306  86.9066048  91.2109122
  52.7965552  86.9389658  91.5275617  51.6675676  85.9766499  91.2255458
  53.6491908  85.6597034  87.8719201  52.6987539  85.6598896  87.7583573
  53.9524394  84.9129769  87.3555236  69.3844601  91.4957573  88.9364964
  70.0223011  91.3764320  88.2328304  69.2665444  92.4438417  88.9952916
  66.1934307  91.4485001  88.8726488  65.8552819  91.3326066  87.9847023
  67.0624076  91.0476166  88.8527494  62.0521123  93.3020477  84.8623379
  61.4885988  93.2110414  84.0939667  61.9373518  92.4820382  85.3425872
  66.6754090  92.6019853  94.8312694  66.6642731  92.2072651  93.9593197
  66.8374730  91.8685925  95.4246465  59.5985555  94.7971669  87.7007600
  60.3906847  94.4562494  87.2853899  59.8382205  94.9066644  88.6209753
  67.6320682  96.9691445  80.1737844  66.9808662  97.5545525  79.7871858
  68.4265045  97.4997640  80.2332882  61.5576309  94.0580582  80.5724978
  62.3307185  93.5109569  80.4337854  61.9101708  94.9224831  80.7839440
  63.3961352  95.3856964  93.7791878  63.1051218  96.2902595  93.6638544
  64.0318336  95.4273492  94.4935947  64.3217558  92.7633813  90.3693237
  64.9181131  92.5389835  89.6550200  64.3792530  92.0218558  90.9718685
  63.8942587  90.2173248  78.2043428  64.1468108  89.6954770  77.4426891
  62.9567146  90.0539394  78.3070112  68.9385870  89.2209027  86.0118172
  69.7248959  88.8028450  85.6608589  69.2024574  90.1255119  86.1799820
  69.1095947  94.6581877  80.7106828  68.4741780  94.7316503  81.4227733
  68.7793353  95.2475476  80.0325908  74.3394297  89.1584260  86.9151150
  75.0719469  88.5883477  87.1488980  73.5833652  88.7705860  87.3557656
  63.6138876  92.1201354  80.4067803  63.4975134  91.4446258  81.0748888
  63.7241135  91.6333728  79.5899956  65.9570416  91.5811501  84.1114493
  65.5928624  91.0542122  84.8227414  66.8137532  91.1909970  83.9380978
  71.8619717  82.8705834  91.3745759  71.5303042  83.7401245  91.1506974
  71.2665331  82.5542118  92.0539789  68.3551237  95.0718380  90.7741671
  68.0551960  95.9743419  90.6657479  68.0102296  94.8050563  91.6262824
  61.8063718  91.5232177  86.8078376  60.8814215  91.3908391  87.0156068
  62.0548131  92.3026396  87.3048318  71.7548380  87.5900920  88.4539109
  70.8465258  87.5216329  88.1597870  71.7035976  88.0672865  89.2820934
  65.5765124  89.0659059  80.0922508  65.4564750  89.5116109  80.9307988
  64.8817713  89.4144376  79.5336046  59.1672529  91.1665450  87.6422165
  59.2964910  91.4199929  88.5561577  58.4869980  91.7593158  87.3226820
  63.3372016 101.8362700  83.7412639  63.2596046 102.7870525  83.8201120
  62.7333660 101.4908573  84.3987565  65.8289246  89.0090566  96.3974006
  65.0522580  89.5684486  96.3876871  66.4679809  89.4947349  96.9188876
  73.6210027  85.7917359  90.2316983  72.9784407  86.0849892  89.5856777
  73.1164955  85.6770279  91.0370179  71.2750191  89.5380532  80.9202842
  72.1868047  89.7707918  80.7450539  70.7659838  90.1217576  80.3577921
  64.0835619  91.8176019  95.9591973  64.8250303  92.3561063  95.6826797
  63.3772604  92.4442308  96.1163525  69.5590958  93.9605160  94.5564134
  69.9674314  93.5187570  93.8118767  68.8368220  93.3857787  94.8098327
  65.9122028  88.8977766  91.9297691  66.7583223  89.3217180  92.0732340
  65.8520666  88.2411391  92.6236255  69.8819773  94.5206350  88.3116423
  69.2528635  94.6852064  87.6092491  69.4945435  94.9347960  89.0827387
  73.7609005  95.4560788  85.6660787  73.0760043  95.8359689  85.1157820
  73.8452854  96.0656115  86.3992735  69.0621474  86.5582135  93.5878865
  68.8182405  87.3124195  93.0513141  69.3381404  86.9367482  94.4226112
  71.0159936  93.1020747  92.2656131  71.2276832  93.7452507  91.5890512
  70.9689685  92.2683064  91.7978061  68.6186165  85.7138568  89.1692703
  67.7570644  86.0119821  89.4609440  68.6448600  85.9308967  88.2373735
  65.4347735  94.2580758  85.5766508  65.8986080  94.5368461  84.7871131
  65.1704533  93.3564203  85.3939599  62.3271816  93.8052240  88.5146272
  62.8973173  94.2339508  87.8763756  62.9179928  93.5234824  89.2130457
  64.3716621  90.3803911  82.3856074  65.0740664  90.8324954  82.8530000
  64.0397249  89.7387729  83.0135967  62.8196982  88.9715667  96.7607283
  62.1895643  89.6531948  96.9942680  62.7133070  88.8598749  95.8160421
  58.1141955  88.6387463  87.6873207  57.3241009  88.8944992  87.2113318
  58.6053202  89.4535801  87.7925248  72.1305764  95.9792702  90.4378488
  72.9523208  95.5772890  90.1561170  72.1268167  95.8760937  91.3894604
  60.0656700  89.0032043  84.6456684  59.2687863  89.1150737  85.1640180
  59.8382292  89.3418695  83.7797574  65.8962368  95.5276746  92.5939199
  65.9606800  95.9897153  93.4297370  65.1873292  94.8974111  92.7221508
  56.3979658  88.8917954  90.1188198  56.6487696  89.7764964  90.3845774
  56.9339206  88.7122555  89.3463290  80.2211757  92.3231451  86.7863459
  79.4675466  91.7538849  86.6307464  80.3559299  92.2894115  87.7334094
  65.6110385  97.1944853  82.4618179  65.4756060  98.0396389  82.8903027
  66.1520198  97.3964131  81.6984113  62.0977725  83.2736433  99.1232534
  61.7044671  82.7202632  99.7980178  62.9143865  83.5847012  99.5139052
  59.0639783  94.7120291  83.0346104  59.5764303  95.5063542  83.1851669
  59.7162496  94.0146582  82.9679705  60.8734667  97.8286048  85.1168857
  61.0501296  98.7504012  84.9289841  61.6691501  97.5144467  85.5463237
  65.0145686  84.6894312  96.7152791  65.7555399  85.2901465  96.6357253
  65.2463609  83.9471950  96.1570833  60.1587024  89.8750679  94.9931020
  60.0440539  88.9735937  95.2938119  59.3031542  90.1214376  94.6415837
  67.2378862  97.8168420  96.5918521  66.7942716  97.0304798  96.2739425
  67.8996075  98.0047570  95.9262412  61.9965983  99.3464221  91.1179199
  62.5473408  99.2181285  90.3456193  61.1577459  99.6459110  90.7674092
  69.3360100  98.0971220  94.6199922  69.3178575  98.9180101  94.1280191
  70.2580020  97.9725295  94.8450063  65.7933154  95.6115349  95.4623431
  66.3261491  94.8503637  95.2322739  65.2647235  95.3189001  96.2047585
  68.9602849  80.7175415  90.9917072  68.6167118  81.6077057  90.9156183
  69.3281812  80.5277073  90.1286657  57.0288700  93.0408946  83.8105674
  57.8663922  93.4505954  83.5939382  57.2066967  92.1008388  83.7805868
  68.9253132  90.7084026  79.4989507  68.4099755  91.4788631  79.7377895
  68.6530440  90.0349162  80.1222569  66.5100243  85.5533727  84.5574746
  65.6541839  85.1640577  84.3780384  66.9227194  85.6325688  83.6974531
  68.0399389  83.0880070  88.9566306  67.5364185  83.0510205  88.1434111
  68.3329996  83.9972813  89.0162962  64.2842275  83.1718800  87.9632487
  65.1495272  82.9761609  87.6038377  64.3519784  82.9429152  88.8901844
  73.8987406  93.4616381  81.4342681  73.1216849  93.1227540  80.9897843
  74.5778887  93.4669004  80.7597646  68.7139435  88.5811118  81.3249289
  68.4089570  88.8957267  82.1759432  69.6669877  88.6592538  81.3676622
  67.1585867  94.7401342  82.9742243  66.6307228  94.0054101  82.6615480
  66.6573369  95.5176018  82.7282211  72.1378713  92.9350362  88.0909289
  71.4802387  93.6249624  88.1789417  72.9419112  93.3246794  88.4343275
  70.9484172  91.2894735  86.1413231  71.4616053  91.9224727  86.6434940
  71.5985395  90.6895930  85.7756591  65.3038467  92.5581552  75.9777216
  64.3965529  92.3270805  76.1768365  65.8009499  91.7619171  76.1651197
  68.2106546 101.2679059  78.8973902  67.5368245 101.5710756  79.5058860
  68.5972368 102.0708139  78.5479359  67.4265002  88.7644190  88.3871571
  66.5087564  88.9859137  88.2293259  67.8425146  88.8390501  87.5283278
  68.2100050  90.1635606  83.5174251  68.9571869  90.6757003  83.2081373
  68.4791640  89.8419659  84.3778645  66.4826700  92.6594147  80.5001206
  65.5737920  92.3753180  80.5973675  66.5121784  93.0793225  79.6404513
  71.7145968  96.2700736  84.2692373  71.2608295  95.4291646  84.3257564
  71.0839934  96.9062135  84.6067153  70.6578887  87.1992722  85.4993041
  69.9201644  86.6870108  85.8303283  70.9105661  86.7593104  84.6876318
  70.1578907  98.1077233  85.2042191  70.4501881  98.6682290  84.4854557
  70.6677528  98.4005794  85.9595350  70.7590515  79.9768974  86.0934810
  71.0649391  79.1166338  85.8060725  71.4843119  80.5686594  85.8933804
  57.0514871  90.3799661  84.4816408  56.8539270  89.7869022  83.7567474
  56.4961535  90.0751871  85.1992347  65.0311594  90.2722767  86.6011001
  65.0860204  89.3196604  86.5253478  64.2202796  90.4282206  87.0852299
  66.1802788  94.2002890  77.8389284  65.7422218  93.4838749  77.3794922
  66.9213229  94.4279005  77.2774376  62.9703954  88.8899827  84.3601380
  62.1571820  89.1893998  84.7666572  63.4662948  88.4955516  85.0775862
  65.1212532  98.8857584  86.2935645  65.0788711  99.1118430  85.3644177
  66.0375231  98.6520959  86.4421446  68.5678166  89.3541652  93.1916274
  68.9227554  89.5813125  94.0510740  69.2150297  89.6860028  92.5693529
  74.2975903  92.4760087  83.8965603  74.1593801  92.6661683  82.9686792
  73.9412122  93.2379470  84.3533654  62.4618029  86.4618183  89.9762615
  63.1017408  86.3206942  89.2785578  61.6295560  86.1752696  89.6001217
  74.3245282  94.5436614  88.9076874  74.7581789  94.4511904  89.7559928
  75.0376863  94.5194115  88.2696890  63.2378333  95.7620613  86.0897607
  64.0318931  95.2670933  85.8880182  62.5270025  95.2338476  85.7265313
  68.0573177  98.1438709  90.4409975  68.1110200  98.7129645  91.2087691
  67.1887959  98.3140594  90.0764012  59.5461096  89.9063695  82.1657360
  58.6158684  89.8448150  82.3827322  59.6418568  89.3839648  81.3694001
  59.4646645  86.4318508  84.7535602  59.7253463  87.3463841  84.6444762
  60.2863818  85.9642950  84.9032214  60.9371571  87.8456265  91.9234426
  61.6094624  87.6373627  91.2747075  60.1101357  87.6478351  91.4839658
  75.1860832  94.5860315  91.4409760  75.3796722  95.4906126  91.6869035
  75.0861450  94.1267734  92.2748345  66.8397143  84.4718206  93.9400087
  66.1925058  85.1708155  93.8464563  67.6098158  84.9054350  94.3076335
  70.2475941  94.7367058  97.0150640  70.0961447  94.5077610  96.0980724
  70.2380620  95.6937659  97.0281985  67.0161277  92.3098971  91.9996907
  67.9453337  92.4610130  91.8265874  66.5952307  92.3982991  91.1445553
  65.8149609  96.3349635  89.7695444  65.6760695  95.9668419  90.6421383
  65.0264205  96.8497274  89.5979402  66.4097761 101.4358731  81.1120981
  66.5849517 100.9646775  81.9266604  65.7230549 102.0624498  81.3402242
  67.3654824  95.7131238  87.1584282  67.0304657  95.6732008  88.0541932
  66.8658770  95.0475954  86.6854692  61.3399068  91.1198868  92.6836863
  61.2018866  90.3879107  93.2848402  62.2503991  91.0307768  92.4021051
  70.3014016  93.0587272  77.4321342  69.6843186  92.3334100  77.3354395
  69.8330504  93.8196632  77.0888416  63.9681369  90.8318827  92.1720543
  64.6780987  90.1912019  92.1307161  63.9250677  91.0831722  93.0946724
  71.9568147  97.7686180  95.0927122  71.8980694  97.0845401  94.4257705
  72.3587666  98.5105170  94.6407748  62.6810303  87.8184045  93.9916182
  62.1447660  87.3674783  94.6437779  62.0927011  87.9529954  93.2486647
  60.9758846 104.5848094  87.8860841  61.2155444 105.2166618  88.5639860
  60.1328043 104.2336134  88.1726200  71.9585555  95.7325764  93.3241102
  71.0712333  95.3951686  93.4467501  72.5284106  95.0008796  93.5609867
  53.6114702  92.0649856  86.6484153  54.2985742  91.7511586  86.0605169
  53.4562830  92.9691221  86.3751405  58.4149424  86.9540053  91.0769177
  58.3307613  86.3465722  90.3419587  57.5932130  87.4449071  91.0778673
  65.4886708 100.3927217  90.2902345  65.4156880 101.1982188  90.8021650
  65.0464101 100.5919183  89.4650366  65.2776488  99.6298987  83.8005167
  64.4944010 100.1720667  83.8943391  65.9769233 100.1472966  84.1999408
  68.5873138  85.4393616  86.4439372  69.0841837  84.6863579  86.1240442
  67.8160119  85.4757933  85.8782581  76.4402895  91.1433982  88.0857664
  76.4292771  92.0258697  87.7151597  75.5720275  90.7905533  87.8912201
  67.9485392 100.2914051  92.4460504  68.6613364 100.9261516  92.3736405
  67.4575420 100.3877917  91.6300506  69.6702918  94.1965303  84.0177795
  68.7359197  94.3166766  83.8482500  69.8479587  93.2937770  83.7537805
  65.1708107  87.5810999  86.1711057  64.8005894  87.0282040  86.8591962
  65.6667199  86.9769133  85.6186057  73.0575470  90.0382623  84.5527830
  73.5235922  90.8710614  84.4788132  73.5082970  89.5727604  85.2573088
  62.9997305  98.0408494  93.2666075  63.7006765  98.6744977  93.4195469
  62.5292420  98.3823226  92.5061714  71.1251701  96.3826444  81.5513982
  71.4011545  96.2683039  82.4607856  70.2556200  95.9843929  81.5126155
  71.0292133  82.4063210  88.5918731  70.1155212  82.6367437  88.7600938
  71.4585234  82.4901654  89.4432763  70.7998591  90.5953102  91.0918625
  70.1470041  90.8429009  90.4371078  71.1778971  89.7817240  90.7581102
  67.7605765 100.6312795  85.1946795  67.9428159  99.8134451  85.6574548
  68.5838751 100.8480487  84.7571685  68.0947930  99.5580980  82.4561844
  68.6235697  99.0473435  81.8432006  68.3576150  99.2423510  83.3207377
  66.8486164  91.3372913  97.5784662  66.1726801  91.2367042  98.2487037
  67.6713798  91.1812126  98.0420659  58.5965023  97.5744849  90.1997177
  59.1818460  96.8288537  90.3325081  58.3989862  97.8848806  91.0833841
  61.4503678 100.6096097  85.2159620  60.7814054 101.0942224  84.7323660
  61.3116548 100.8565317  86.1302998  53.1882678  90.1450449  88.9201620
  53.2266777  89.6114040  89.7138738  52.6822971  89.6185655  88.3012598
  65.5908947 102.6439840  91.8142278  66.1427255 102.8071462  92.5791363
  65.9315140 103.2344278  91.1422303  60.5673440  84.9914990  92.4164163
  60.6314767  85.8529821  92.0041560  60.5040560  84.3788992  91.6836521
  60.0425713  87.0638123  96.0637197  60.6697752  86.6815200  96.6774721
  59.1853632  86.8452324  96.4292889  70.4419821  97.4701098  97.6690932
  70.9859725  98.0831056  97.1745887  69.8606666  98.0280676  98.1857945
  56.8191255  88.8714552  81.9955552  57.1144697  87.9625230  81.9422605
  55.9179291  88.8502291  81.6736554  68.7277334 100.5921816  88.8005960
  68.6028474  99.7911556  88.2916906  69.3856425 101.0868009  88.3119930
  60.3485502  86.9470548  87.9783100  59.6272088  87.5606516  87.8390574
  61.1378758  87.4828313  87.8999746  70.7912243  98.3930836  90.4285510
  69.8442578  98.2736187  90.3563837  71.1395016  97.5053334  90.5111772
  63.1511816  84.2824975  94.2523752  63.6746218  84.5287271  95.0150061
  62.9324149  85.1145010  93.8326889  58.5479097  86.5528649  82.1194877
  58.2191803  85.6726028  81.9369983  58.9018468  86.4976318  83.0071266
  67.7958676  98.1883552  86.6289862  67.6483638  97.2600259  86.8097433
  68.6212169  98.2103643  86.1446938  61.6620920  86.8401619  82.4870355
  62.0016993  87.3687540  81.7648963  62.1093041  87.1782025  83.2628921
  71.3992798  99.0112111  87.7154735  72.3239345  98.8054972  87.5779186
  71.2308101  98.7628512  88.6244077  64.3564361  85.2238670  91.9373423
  64.0161181  84.4246483  92.3394103  63.6503367  85.5240381  91.3650256
  65.0080833  82.3087982  90.3900746  65.8306902  81.8348460  90.2679636
  65.2518896  83.0878466  90.8899432  62.5319412  89.0007103  88.1992724
  62.3863992  89.3147406  89.0917006  62.0544615  89.6192003  87.6463623
  64.3915794  85.9909651  88.2473614  64.3777363  85.0950744  87.9105912
  65.1088223  85.9980315  88.8811900  66.2441925  86.4246991  90.2926741
  65.9859703  87.3464062  90.2911072  65.7126966  86.0277426  90.9827205
  71.1888114  99.5297778  83.0716827  71.3624992  98.9644201  82.3190679
  71.6817005 100.3298673  82.8896317  57.0065074  91.5412447  91.1380385
  56.4618542  92.3172255  91.2700660  57.8844424  91.8883252  90.9799507
  66.6643881  82.5578942  86.6527904  66.6865578  82.6218275  85.6979883
  67.0811940  81.7183450  86.8468410  77.0427505  92.2934201  84.6907126
  77.4858651  91.5441526  84.2926250  76.1654015  92.2844337  84.3080858
  72.1763286  98.8464543  80.1713725  72.8714191  99.4671235  80.3901040
  72.5186437  97.9959894  80.4466103  57.7931096  90.6682344  94.0310542
  57.0512832  90.8164979  94.6175173  57.4723840  90.9290609  93.1677292
  74.0754710  96.2964248  81.7001056  74.6006034  96.6351521  80.9750376
  73.9877062  95.3611263  81.5164190  65.7374758 100.2098322  93.8290932
  66.0461885  99.9647469  94.7013632  66.5350240 100.4144960  93.3409803
  65.7595370 102.3636231  86.0596309  65.3200361 101.8712610  86.7529166
  66.5103487 101.8209199  85.8188384  58.2387709  98.5547772  86.0620937
  59.0645729  98.2551544  85.6819581  57.8881761  97.7855395  86.5110726
  63.2069242  97.9074240  88.1318611  62.5849252  97.2444945  87.8320838
  63.8774109  97.9335372  87.4492258  56.4396314  96.4734099  87.0209871
  55.6028223  96.0456273  86.8393872  56.4119960  96.6666542  87.9580662
  63.2793770  86.3856028  97.7251117  63.3281925  87.2618151  97.3428886
  63.8216284  85.8433422  97.1522760  73.7648616  96.9297152  97.0052254
  72.9744159  96.9121291  96.4656753  73.5281970  97.4685445  97.7601290
  73.8846491  93.7789618  94.3184982  73.9344496  93.6139626  95.2600505
  73.7760414  92.9116877  93.9282863  62.7682749  96.4578164  81.6077071
  62.9170870  97.1413628  80.9543744  63.5749193  96.4383254  82.1226527
  71.1750253  89.7620546  95.6344289  72.0760116  89.6227011  95.3428287
  71.2498228  89.9275001  96.5742466  65.5093058  87.1387401  94.4797475
  64.6396368  87.4320967  94.2080064  65.7452539  87.7227846  95.2004739
  75.3864688  96.1986560  94.5627004  75.0949496  96.5616540  95.3990465
  74.7736819  95.4853568  94.3840336  76.5860370  93.7639439  87.0829574
  77.4207261  94.2029243  87.2467134  76.7219499  93.2878093  86.2637820
  73.6351876  91.3219174  93.0307062  74.1105997  91.5146821  92.2225913
  72.7117441  91.3778360  92.7850445  60.5235382  92.4843341  82.6138140
  60.2781424  91.5805671  82.8118350  60.6931297  92.4860492  81.6717618
  68.2132092  83.3567018  91.9962896  68.7314036  84.0928045  91.6709384
  67.8587225  83.6631011  92.8309655  59.7931030  88.2171699  80.1124301
  59.1000275  88.2916054  79.4564337  59.5482782  87.4532043  80.6345818
  68.4644686  79.7767300  87.5163792  68.7446440  79.1090489  88.1424219
  69.2495293  79.9696396  87.0038456  66.2678155  98.9526294  79.0788819
  65.6952122  99.5716481  78.6259290  66.8410949  99.5025656  79.6128740
  72.3353545  88.1984934  91.2635367  73.2870968  88.2983032  91.2847591
  72.1656995  87.4063203  91.7733452  70.3567924  85.2840518  91.4494768
  69.7617856  85.5645530  90.7541257  70.0717621  85.7734418  92.2211509
  69.4875415  99.2363444  80.2097401  70.4206088  99.1709006  80.4130276
  69.3998628 100.0719711  79.7511933  72.1163431  98.5529315  77.1701348
  72.0377063  98.2189178  78.0637106  72.9373098  99.0451083  77.1692821
  74.8141623  91.4191054  90.3777667  74.7817943  90.4807055  90.5637351
  75.4242246  91.4975091  89.6443492  66.6524953  90.2887107  76.4204871
  67.5984058  90.1593315  76.4893289  66.2739198  89.5501769  76.8974299
  74.9636111  88.2102097  90.4235950  74.4475160  87.4260554  90.2365879
  75.8476060  87.8820814  90.5882470  72.6246838  81.9543113  86.3831763
  72.4271659  81.6458201  87.2675095  73.2346544  82.6804752  86.5129693
  80.6318172  92.4807061  89.5183704  81.3621561  92.2192349  90.0791407
  80.0225118  91.7435783  89.5585772  78.7133470  90.6214923  90.1158155
  77.9866633  90.4870888  89.5074647  78.2980756  90.9291752  90.9214873
  66.5363646  94.3404853  97.8805528  67.4566655  94.5183452  98.0745575
  66.5013229  93.3960898  97.7285227  55.7545811  89.5343447  86.8058803
  55.4348595  88.6808755  86.5133177  55.2079239  89.7492025  87.5616770
  59.5325718  92.2505888  90.5228309  59.7511728  93.1822996  90.5416343
  59.9451492  91.8913862  91.3083113  64.4053584  87.8239094  99.9131058
  64.3050311  88.7733451  99.8443149  64.1875126  87.4957332  99.0407128
  55.6234071  93.1546358  88.7751924  54.9297542  92.7400311  88.2621879
  56.3707062  93.1966895  88.1785343  71.7599292  83.9452545  83.6406958
  71.1797961  84.6037349  83.2585011  71.4935224  83.1229890  83.2294376
  70.2102858  83.3457603  85.8428279  70.7102636  83.4574137  85.0342598
  70.8538466  83.0418656  86.4829087  64.2684854  91.2536232  98.7296120
  63.7851936  92.0536593  98.9360009  64.3545793  91.2644177  97.7763564
  57.5370813  93.0864612  86.6517939  57.5141502  93.1852299  85.6999822
  57.8471450  93.9329763  86.9735105  60.1958191  95.1440767  90.7664554
  61.1501445  95.1124709  90.6994485  59.9970715  94.6831391  91.5814779
  60.7857573  93.7141883  93.3335351  61.6050462  94.2085962  93.3570188
  61.0594381  92.7973851  93.3052919  70.5424170  86.1052635  82.6963307
  69.6550025  86.3902286  82.4783501  70.9578159  85.9446399  81.8490584
  73.8938706  86.1299156  86.4117646  74.6699096  86.6195609  86.6842263
  73.1686840  86.5557211  86.8689515  76.3311264  86.8426776  87.4691587
  76.9255755  86.6022512  86.7584895  76.4037848  86.1233906  88.0965123
  58.5508420 100.6860387  87.7834751  58.4162888  99.9260787  87.2172749
  58.1340482 101.4101286  87.3163540  69.6867383  95.8697310  76.7911327
  70.3903233  96.0747313  77.4068982  68.9630032  96.4374072  77.0560410
  70.5165193  91.6207171  82.9113597  70.4600395  92.0775723  82.0721229
  71.0693536  90.8597856  82.7336440  74.3269999  87.4096903  83.7363716
  74.0706934  87.0093539  84.5671924  73.7022867  88.1240697  83.6113856
  78.6382337  90.1492977  86.2435008  78.0781895  90.2186166  87.0166570
  78.0325841  89.9733961  85.5234504  61.7077546 101.5829704  87.9953194
  61.5909930 102.5275136  87.8931884  60.8869992 101.2803265  88.3838993
  71.5954081  96.3079839  78.8409787  72.4299684  95.8761038  78.6587262
  71.4338423  96.1361853  79.7686681  71.2499973  92.8111953  80.2066126
  71.1948777  92.6456224  79.2654570  70.6246028  93.5187986  80.3628316
  56.0392488  88.0480017  94.0327548  56.6851351  87.5378971  94.5214773
  55.8309639  88.7848699  94.6070974  68.5645880  95.1160864  99.5319689
  69.4337040  95.2901517  99.1706324  68.0852631  95.9355281  99.4095418
  62.7332060 102.2357966  91.2109122  63.6359307 102.2681576  91.5275617
  62.5069430 101.3058416  91.2255458  64.4885662 100.9888952  87.8719201
  63.5381293 100.9890814  87.7583573  64.7918148 100.2421687  87.3555236
  60.3789979  85.1947634  98.1302563  61.2421440  84.8384439  98.3405887
  59.8055389  84.8561529  98.8177967  80.2238356 106.8249490  88.9364964
  80.8616766 106.7056238  88.2328304  80.1059199 107.7730334  88.9952916
  77.0328062 106.7776919  88.8726488  76.6946573 106.6617983  87.9847023
  77.9017830 106.3768084  88.8527494  72.8914878 108.6312395  84.8623379
  72.3279743 108.5402332  84.0939667  72.7767273 107.8112299  85.3425872
  77.5147845 107.9311770  94.8312694  77.5036486 107.5364569  93.9593197
  77.6768484 107.1977843  95.4246465  70.4379310 110.1263587  87.7007600
  71.2300601 109.7854411  87.2853899  70.6775960 110.2358562  88.6209753
  78.4714436 112.2983363  80.1737844  77.8202416 112.8837443  79.7871858
  79.2658799 112.8289558  80.2332882  72.3970063 109.3872500  80.5724978
  73.1700939 108.8401487  80.4337854  72.7495462 110.2516749  80.7839440
  74.2355106 110.7148882  93.7791878  73.9444972 111.6194513  93.6638544
  74.8712090 110.7565410  94.4935947  75.1611313 108.0925731  90.3693237
  75.7574885 107.8681753  89.6550200  75.2186284 107.3510476  90.9718685
  74.7336341 105.5465166  78.2043428  74.9861862 105.0246687  77.4426891
  73.7960900 105.3831311  78.3070112  79.7779624 104.5500944  86.0118172
  80.5642713 104.1320367  85.6608589  80.0418328 105.4547036  86.1799820
  79.9489701 109.9873795  80.7106828  79.3135534 110.0608421  81.4227733
  79.6187108 110.5767393  80.0325908  85.1788051 104.4876177  86.9151150
  85.9113223 103.9175394  87.1488980  84.4227407 104.0997778  87.3557656
  74.4532630 107.4493272  80.4067803  74.3368888 106.7738175  81.0748888
  74.5634890 106.9625646  79.5899956  76.7964171 106.9103419  84.1114493
  76.4322378 106.3834040  84.8227414  77.6531287 106.5201888  83.9380978
  82.7013472  98.1997752  91.3745759  82.3696796  99.0693163  91.1506974
  82.1059085  97.8834036  92.0539789  76.4369658 101.9393319  79.1075841
  76.6044060 102.8073555  79.4746312  76.2466827 102.1020600  78.1837130
  79.1944991 110.4010298  90.7741671  78.8945714 111.3035336  90.6657479
  78.8496051 110.1342481  91.6262824  72.6457473 106.8524094  86.8078376
  71.7207969 106.7200309  87.0156068  72.8941886 107.6318314  87.3048318
  82.5942135 102.9192838  88.4539109  81.6859012 102.8508246  88.1597870
  82.5429731 103.3964783  89.2820934  76.4158879 104.3950976  80.0922508
  76.2958504 104.8408027  80.9307988  75.7211467 104.7436294  79.5336046
  70.0066284 106.4957368  87.6422165  70.1358665 106.7491847  88.5561577
  69.3263735 107.0885076  87.3226820  74.1765771 117.1654618  83.7412639
  74.0989801 118.1162443  83.8201120  73.5727415 116.8200490  84.3987565
  76.6683001 104.3382483  96.3974006  75.8916335 104.8976404  96.3876871
  77.3073564 104.8239266  96.9188876  84.4603781 101.1209276  90.2316983
  83.8178162 101.4141809  89.5856777  83.9558710 101.0062197  91.0370179
  82.1143945 104.8672449  80.9202842  83.0261801 105.0999836  80.7450539
  81.6053592 105.4509494  80.3577921  74.9229373 107.1467937  95.9591973
  75.6644057 107.6852981  95.6826797  74.2166358 107.7734225  96.1163525
  80.3984713 109.2897077  94.5564134  80.8068069 108.8479488  93.8118767
  79.6761974 108.7149705  94.8098327  76.7515783 104.2269684  91.9297691
  77.5976978 104.6509098  92.0732340  76.6914420 103.5703308  92.6236255
  80.7213527 109.8498268  88.3116423  80.0922390 110.0143982  87.6092491
  80.3339189 110.2639877  89.0827387  84.6002759 110.7852706  85.6660787
  83.9153797 111.1651607  85.1157820  84.6846609 111.3948032  86.3992735
  79.9015228 101.8874052  93.5878865  79.6576160 102.6416113  93.0513141
  80.1775159 102.2659400  94.4226112  81.8553691 108.4312665  92.2656131
  82.0670586 109.0744425  91.5890512  81.8083439 107.5974981  91.7978061
  79.4579920 101.0430485  89.1692703  78.5964399 101.3411739  89.4609440
  79.4842354 101.2600884  88.2373735  76.2741489 109.5872676  85.5766508
  76.7379835 109.8660379  84.7871131  76.0098287 108.6856120  85.3939599
  73.1665570 109.1344157  88.5146272  73.7366927 109.5631426  87.8763756
  73.7573682 108.8526742  89.2130457  75.2110375 105.7095828  82.3856074
  75.9134419 106.1616872  82.8530000  74.8791004 105.0679647  83.0135967
  73.6590737 104.3007585  96.7607283  73.0289397 104.9823866  96.9942680
  73.5526825 104.1890667  95.8160421  68.9535709 103.9679381  87.6873207
  68.1634763 104.2236909  87.2113318  69.4446957 104.7827719  87.7925248
  82.9699519 111.3084620  90.4378488  83.7916962 110.9064807  90.1561170
  82.9661922 111.2052854  91.3894604  70.9050455 104.3323960  84.6456684
  70.1081618 104.4442654  85.1640180  70.6776047 104.6710612  83.7797574
  76.7356122 110.8568663  92.5939199  76.8000555 111.3189071  93.4297370
  76.0267046 110.2266028  92.7221508  67.2373412 104.2209871  90.1188198
  67.4881451 105.1056881  90.3845774  67.7732961 104.0414473  89.3463290
  91.0605512 107.6523369  86.7863459  90.3069220 107.0830767  86.6307464
  91.1953053 107.6186033  87.7334094  76.4504140 112.5236771  82.4618179
  76.3149815 113.3688307  82.8903027  76.9913952 112.7256049  81.6984113
  72.9371479  98.6028351  99.1232534  72.5438425  98.0494549  99.7980178
  73.7537620  98.9138929  99.5139052  69.9033537 110.0412209  83.0346104
  70.4158058 110.8355459  83.1851669  70.5556250 109.3438499  82.9679705
  71.7128422 113.1577965  85.1168857  71.8895050 114.0795930  84.9289841
  72.5085255 112.8436384  85.5463237  75.8539440 100.0186230  96.7152791
  76.5949154 100.6193383  96.6357253  76.0857363  99.2763868  96.1570833
  70.9980779 105.2042597  94.9931020  70.8834294 104.3027854  95.2938119
  70.1425296 105.4506294  94.6415837  78.0772616 113.1460337  96.5918521
  77.6336470 112.3596716  96.2739425  78.7389830 113.3339488  95.9262412
  72.8359737 114.6756139  91.1179199  73.3867163 114.5473202  90.3456193
  71.9971213 114.9751028  90.7674092  80.1753854 113.4263137  94.6199922
  80.1572330 114.2472018  94.1280191  81.0973774 113.3017213  94.8450063
  76.6326908 110.9407267  95.4623431  77.1655245 110.1795555  95.2322739
  76.1040990 110.6480919  96.2047585  79.7996603  96.0467333  90.9917072
  79.4560873  96.9368974  90.9156183  80.1675566  95.8568990  90.1286657
  67.8682454 108.3700863  83.8105674  68.7057676 108.7797872  83.5939382
  68.0460722 107.4300305  83.7805868  79.7646886 106.0375944  79.4989507
  79.2493510 106.8080549  79.7377895  79.4924195 105.3641080  80.1222569
  77.3493997 100.8825645  84.5574746  76.4935594 100.4932495  84.3780384
  77.7620949 100.9617605  83.6974531  78.8793144  98.4171988  88.9566306
  78.3757939  98.3802123  88.1434111  79.1723751  99.3264731  89.0162962
  75.1236030  98.5010718  87.9632487  75.9889026  98.3053526  87.6038377
  75.1913539  98.2721069  88.8901844  84.7381160 108.7908299  81.4342681
  83.9610603 108.4519458  80.9897843  85.4172641 108.7960922  80.7597646
  79.5533189 103.9103036  81.3249289  79.2483325 104.2249185  82.1759432
  80.5063631 103.9884456  81.3676622  77.9979621 110.0693259  82.9742243
  77.4700983 109.3346019  82.6615480  77.4967124 110.8467936  82.7282211
  82.9772467 108.2642280  88.0909289  82.3196142 108.9541541  88.1789417
  83.7812866 108.6538712  88.4343275  72.7298349 100.7312926  85.3348854
  73.3042101 100.5088107  84.6022047  73.3169331 100.8001620  86.0877455
  81.7877926 106.6186652  86.1413231  82.3009808 107.2516644  86.6434940
  82.4379150 106.0187848  85.7756591  73.0567936 102.7617387  79.3544739
  72.2205248 103.0992073  79.6754014  72.9172706 102.6266366  78.4171876
  75.0321016  97.6054174  84.0623924  74.3785429  97.2903192  83.4380538
  74.9901491  96.9829915  84.7883746  76.1432221 107.8873470  75.9777216
  75.2359283 107.6562723  76.1768365  76.6403253 107.0911089  76.1651197
  79.0500300 116.5970977  78.8973902  78.3761999 116.9002674  79.5058860
  79.4366122 117.4000057  78.5479359  78.2658757 104.0936108  88.3871571
  77.3481318 104.3151055  88.2293259  78.6818900 104.1682419  87.5283278
  79.0493805 105.4927524  83.5174251  79.7965624 106.0048921  83.2081373
  79.3185394 105.1711576  84.3778645  77.3220455 107.9886064  80.5001206
  76.4131674 107.7045097  80.5973675  77.3515539 108.4085143  79.6404513
  82.5539722 111.5992654  84.2692373  82.1002049 110.7583564  84.3257564
  81.9233689 112.2354052  84.6067153  81.4972642 102.5284640  85.4993041
  80.7595399 102.0162026  85.8303283  81.7499415 102.0885022  84.6876318
  80.9972661 113.4369151  85.2042191  81.2895636 113.9974208  84.4854557
  81.5071282 113.7297712  85.9595350  81.5984269  95.3060892  86.0934810
  81.9043146  94.4458255  85.8060725  82.3236874  95.8978512  85.8933804
  67.8908625 105.7091579  84.4816408  67.6933025 105.1160939  83.7567474
  67.3355289 105.4043789  85.1992347  75.8705349 105.6014685  86.6011001
  75.9253959 104.6488521  86.5253478  75.0596551 105.7574124  87.0852299
  77.0196543 109.5294808  77.8389284  76.5815973 108.8130667  77.3794922
  77.7606983 109.7570923  77.2774376  73.8097709 104.2191745  84.3601380
  72.9965574 104.5185915  84.7666572  74.3056703 103.8247434  85.0775862
  75.9606287 114.2149502  86.2935645  75.9182465 114.4410348  85.3644177
  76.8768985 113.9812876  86.4421446  79.4071920 104.6833569  93.1916274
  79.7621308 104.9105042  94.0510740  80.0544052 105.0151946  92.5693529
  85.1369657 107.8052005  83.8965603  84.9987556 107.9953601  82.9686792
  84.7805876 108.5671388  84.3533654  73.3011784 101.7910100  89.9762615
  73.9411163 101.6498859  89.2785578  72.4689314 101.5044614  89.6001217
  85.1639037 109.8728532  88.9076874  85.5975544 109.7803821  89.7559928
  85.8770618 109.8486033  88.2696890  74.0772087 111.0912531  86.0897607
  74.8712686 110.5962851  85.8880182  73.3663780 110.5630394  85.7265313
  78.8966932 113.4730626  90.4409975  78.9503954 114.0421563  91.2087691
  78.0281713 113.6432511  90.0764012  70.3854851 105.2355612  82.1657360
  69.4552439 105.1740068  82.3827322  70.4812323 104.7131565  81.3694001
  70.3040400 101.7610425  84.7535602  70.5647217 102.6755759  84.6444762
  71.1257572 101.2934868  84.9032214  71.7765325 103.1748182  91.9234426
  72.4488379 102.9665545  91.2747075  70.9495112 102.9770268  91.4839658
  86.0254587 109.9152233  91.4409760  86.2190477 110.8198043  91.6869035
  85.9255205 109.4559652  92.2748345  77.6790897  99.8010123  93.9400087
  77.0318812 100.5000073  93.8464563  78.4491913 100.2346267  94.3076335
  81.0869695 110.0658976  97.0150640  80.9355202 109.8369527  96.0980724
  81.0774375 111.0229577  97.0281985  77.8555032 107.6390888  91.9996907
  78.7847092 107.7902048  91.8265874  77.4346062 107.7274909  91.1445553
  76.6543363 111.6641553  89.7695444  76.5154449 111.2960337  90.6421383
  75.8657960 112.1789192  89.5979402  77.2491515 116.7650649  81.1120981
  77.4243271 116.2938692  81.9266604  76.5624303 117.3916415  81.3402242
  78.2048579 111.0423155  87.1584282  77.8698411 111.0023925  88.0541932
  77.7052524 110.3767871  86.6854692  72.1792823 106.4490785  92.6836863
  72.0412620 105.7171024  93.2848402  73.0897746 106.3599686  92.4021051
  81.1407770 108.3879190  77.4321342  80.5236941 107.6626018  77.3354395
  80.6724259 109.1488550  77.0888416  74.8075123 106.1610745  92.1720543
  75.5174742 105.5203937  92.1307161  74.7644431 106.4123640  93.0946724
  82.7961902 113.0978098  95.0927122  82.7374448 112.4137318  94.4257705
  83.1981420 113.8397088  94.6407748  73.5204057 103.1475963  93.9916182
  72.9841414 102.6966701  94.6437779  72.9320766 103.2821871  93.2486647
  71.8152601 119.9140012  87.8860841  72.0549199 120.5458536  88.5639860
  70.9721797 119.5628052  88.1726200  72.9306316 102.6064614  76.5542646
  72.0535782 102.4853415  76.1904893  73.4064069 101.8150692  76.3021535
  82.7979309 111.0617682  93.3241102  81.9106088 110.7243604  93.4467501
  83.3677860 110.3300713  93.5609867  64.4508456 107.3941774  86.6484153
  65.1379496 107.0803504  86.0605169  64.2956585 108.2983138  86.3751405
  69.2543178 102.2831970  91.0769177  69.1701367 101.6757640  90.3419587
  68.4325885 102.7740989  91.0778673  76.3280463 115.7219134  90.2902345
  76.2550634 116.5274106  90.8021650  75.8857856 115.9211100  89.4650366
  76.1170242 114.9590904  83.8005167  75.3337764 115.5012585  83.8943391
  76.8162987 115.4764884  84.1999408  79.4266892 100.7685534  86.4439372
  79.9235592 100.0155496  86.1240442  78.6553874 100.8049851  85.8782581
  87.2796650 106.4725899  88.0857664  87.2686526 107.3550615  87.7151597
  86.4114029 106.1197450  87.8912201  78.7879146 115.6205968  92.4460504
  79.5007118 116.2553433  92.3736405  78.2969175 115.7169834  91.6300506
  80.5096673 109.5257221  84.0177795  79.5752952 109.6458684  83.8482500
  80.6873341 108.6229688  83.7537805  76.0101861 102.9102917  86.1711057
  75.6399649 102.3573957  86.8591962  76.5060953 102.3061050  85.6186057
  83.8969224 105.3674540  84.5527830  84.3629677 106.2002532  84.4788132
  84.3476725 104.9019522  85.2573088  73.8391060 113.3700412  93.2666075
  74.5400519 114.0036895  93.4195469  73.3686175 113.7115143  92.5061714
  81.9645455 111.7118362  81.5513982  82.2405299 111.5974956  82.4607856
  81.0949954 111.3135847  81.5126155  81.8685887  97.7355127  88.5918731
  80.9548967  97.9659354  88.7600938  82.2978989  97.8193571  89.4432763
  81.6392346 105.9245019  91.0918625  80.9863796 106.1720927  90.4371078
  82.0172725 105.1109158  90.7581102  78.5999519 115.9604713  85.1946795
  78.7821914 115.1426368  85.6574548  79.4232505 116.1772405  84.7571685
  78.9341685 114.8872898  82.4561844  79.4629451 114.3765352  81.8432006
  79.1969905 114.5715428  83.3207377  77.6879919 106.6664830  97.5784662
  77.0120556 106.5658960  98.2487037  78.5107552 106.5104044  98.0420659
  69.4358778 112.9036767  90.1997177  70.0212214 112.1580455  90.3325081
  69.2383616 113.2140724  91.0833841  72.2897433 115.9388014  85.2159620
  71.6207808 116.4234142  84.7323660  72.1510303 116.1857235  86.1302998
  64.0276432 105.4742367  88.9201620  64.0660532 104.9405958  89.7138738
  63.5216725 104.9477573  88.3012598  76.4302701 117.9731758  91.8142278
  76.9821009 118.1363379  92.5791363  76.7708895 118.5636196  91.1422303
  71.4067195 100.3206908  92.4164163  71.4708521 101.1821739  92.0041560
  71.3434315  99.7080909  91.6836521  70.8819467 102.3930040  96.0637197
  71.5091506 102.0107118  96.6774721  70.0247386 102.1744242  96.4292889
  67.6585010 104.2006469  81.9955552  67.9538451 103.2917148  81.9422605
  66.7573046 104.1794209  81.6736554  79.5671089 115.9213733  88.8005960
  79.4422228 115.1203473  88.2916906  80.2250180 116.4159927  88.3119930
  71.1879257 102.2762466  87.9783100  70.4665843 102.8898434  87.8390574
  71.9772513 102.8120231  87.8999746  81.6305997 113.7222753  90.4285510
  80.6836333 113.6028105  90.3563837  81.9788770 112.8345251  90.5111772
  73.9905570  99.6116892  94.2523752  74.5139972  99.8579189  95.0150061
  73.7717904 100.4436927  93.8326889  69.3872852 101.8820567  82.1194877
  69.0585558 101.0017946  81.9369983  69.7412222 101.8268236  83.0071266
  78.6352430 113.5175470  86.6289862  78.4877393 112.5892177  86.8097433
  79.4605924 113.5395560  86.1446938  72.5014675 102.1693537  82.4870355
  72.8410747 102.6979458  81.7648963  72.9486795 102.5073943  83.2628921
  82.2386552 114.3404028  87.7154735  83.1633100 114.1346890  87.5779186
  82.0701856 114.0920430  88.6244077  75.1958116 100.5530587  91.9373423
  74.8554936  99.7538401  92.3394103  74.4897122 100.8532298  91.3650256
  75.8474587  97.6379900  90.3900746  76.6700657  97.1640378  90.2679636
  76.0912651  98.4170384  90.8899432  74.4882822 100.6668158  80.6863647
  75.2091184 101.0449411  80.1827364  73.8648126 101.3857035  80.7898625
  78.6313945 101.3713307  81.6221980  78.8477559 102.2537945  81.3210808
  78.1508012 100.9799521  80.8927622  73.3713166 104.3299021  88.1992724
  73.2257747 104.6439324  89.0917006  72.8938370 104.9483921  87.6463623
  75.2309549 101.3201569  88.2473614  75.2171118 100.4242662  87.9105912
  75.9481977 101.3272232  88.8811900  77.0835680 101.7538909  90.2926741
  76.8253458 102.6755979  90.2911072  76.5520720 101.3569343  90.9827205
  82.0281868 114.8589696  83.0716827  82.2018746 114.2936118  82.3190679
  82.5210760 115.6590591  82.8896317  67.8458828 106.8704365  91.1380385
  67.3012296 107.6464173  91.2700660  68.7238178 107.2175169  90.9799507
  74.6346445 100.2015949  83.5161184  74.7562356  99.2732595  83.7152072
  74.3448487 100.2154635  82.6039499  77.5037635  97.8870859  86.6527904
  77.5259332  97.9510192  85.6979883  77.9205694  97.0475368  86.8468410
  87.8821260 107.6226119  84.6907126  88.3252406 106.8733444  84.2926250
  87.0047770 107.6136255  84.3080858  83.0157041 114.1756460  80.1713725
  83.7107946 114.7963153  80.3901040  83.3580191 113.3251811  80.4466103
  68.6324850 105.9974261  94.0310542  67.8906586 106.1456897  94.6175173
  68.3117594 106.2582527  93.1677292  84.9148464 111.6256166  81.7001056
  85.4399788 111.9643439  80.9750376  84.8270817 110.6903181  81.5164190
  76.5768513 115.5390239  93.8290932  76.8855639 115.2939386  94.7013632
  77.3743995 115.7436878  93.3409803  76.5989125 117.6928149  86.0596309
  76.1594115 117.2004528  86.7529166  77.3497242 117.1501117  85.8188384
  69.0781464 113.8839690  86.0620937  69.9039484 113.5843462  85.6819581
  68.7275516 113.1147312  86.5110726  74.0462997 113.2366158  88.1318611
  73.4243006 112.5736863  87.8320838  74.7167864 113.2627290  87.4492258
  67.2790069 111.8026016  87.0209871  66.4421977 111.3748191  86.8393872
  67.2513714 111.9958460  87.9580662  74.1187524 101.7147946  97.7251117
  74.1675680 102.5910069  97.3428886  74.6610039 101.1725339  97.1522760
  84.7240245 109.1081536  94.3184982  84.7738250 108.9431543  95.2600505
  84.6154169 108.2408795  93.9282863  73.6076504 111.7870081  81.6077071
  73.7564624 112.4705546  80.9543744  74.4142947 111.7675172  82.1226527
  82.0144008 105.0912464  95.6344289  82.9153870 104.9518929  95.3428287
  82.0891982 105.2566919  96.5742466  76.3486813 102.4679319  94.4797475
  75.4790122 102.7612885  94.2080064  76.5846293 103.0519764  95.2004739
  86.2258442 111.5278477  94.5627004  85.9343250 111.8908458  95.3990465
  85.6130573 110.8145486  94.3840336  87.4254124 109.0931357  87.0829574
  88.2601016 109.5321161  87.2467134  87.5613253 108.6170010  86.2637820
  84.4745630 106.6511092  93.0307062  84.9499752 106.8438738  92.2225913
  83.5511196 106.7070278  92.7850445  71.3629137 107.8135259  82.6138140
  71.1175179 106.9097589  82.8118350  71.5325051 107.8152410  81.6717618
  79.0525847  98.6858936  91.9962896  79.5707791  99.4219962  91.6709384
  78.6980980  98.9922929  92.8309655  70.6324784 103.5463617  80.1124301
  69.9394029 103.6207972  79.4564337  70.3876536 102.7823960  80.6345818
  79.3038441  95.1059218  87.5163792  79.5840195  94.4382407  88.1424219
  80.0889048  95.2988314  87.0038456  77.1071909 114.2818212  79.0788819
  76.5345876 114.9008399  78.6259290  77.6804703 114.8317574  79.6128740
  83.1747299 103.5276852  91.2635367  84.1264722 103.6274950  91.2847591
  83.0050750 102.7355121  91.7733452  81.1961679 100.6132435  91.4494768
  80.6011611 100.8937448  90.7541257  80.9111375 101.1026336  92.2211509
  80.3269169 114.5655362  80.2097401  81.2599842 114.5000924  80.4130276
  80.2392382 115.4011629  79.7511933  82.9557186 113.8821232  77.1701348
  82.8770817 113.5481096  78.0637106  83.7766853 114.3743000  77.1692821
  85.6535377 106.7482972  90.3777667  85.6211697 105.8098972  90.5637351
  86.2636001 106.8267008  89.6443492  77.4918708 105.6179025  76.4204871
  78.4377813 105.4885233  76.4893289  77.1132953 104.8793687  76.8974299
  85.8029866 103.5394015  90.4235950  85.2868914 102.7552472  90.2365879
  86.6869814 103.2112732  90.5882470  83.4640592  97.2835031  86.3831763
  83.2665414  96.9750119  87.2675095  84.0740298  98.0096670  86.5129693
  91.4711927 107.8098979  89.5183704  92.2015315 107.5484267  90.0791407
  90.8618872 107.0727701  89.5585772  89.5527224 105.9506841  90.1158155
  88.8260388 105.8162806  89.5074647  89.1374511 106.2583670  90.9214873
  77.3757400 109.6696771  97.8805528  78.2960410 109.8475370  98.0745575
  77.3406983 108.7252816  97.7285227  75.6761625 103.5429001  76.3559756
  74.7693080 103.2462114  76.4322470  75.9537606 103.2458819  75.4894043
  66.5939565 104.8635364  86.8058803  66.2742350 104.0100673  86.5133177
  66.0472994 105.0783943  87.5616770  70.3719473 107.5797805  90.5228309
  70.5905483 108.5114913  90.5416343  70.7845247 107.2205780  91.3083113
  77.2923691  98.0865891  82.5103998  76.4824419  97.7412976  82.8859244
  77.9808108  97.7773435  83.0991609  79.2214239  97.1643938  84.1328294
  79.7745278  97.5839391  84.7918317  79.4584325  96.2379686  84.1751250
  75.2447338 103.1531011  99.9131058  75.1444065 104.1025368  99.8443149
  75.0268880 102.8249250  99.0407128  74.4460410 100.4015936  76.4971735
  75.3079574 100.7270835  76.7567553  74.6310754  99.6147432  75.9844801
  66.4627825 108.4838276  88.7751924  65.7691297 108.0692229  88.2621879
  67.2100816 108.5258812  88.1785343  82.5993046  99.2744463  83.6406958
  82.0191715  99.9329267  83.2585011  82.3328979  98.4521807  83.2294376
  81.0496613  98.6749520  85.8428279  81.5496391  98.7866055  85.0342598
  81.6932220  98.3710573  86.4829087  75.1078608 106.5828150  98.7296120
  74.6245690 107.3828510  98.9360009  75.1939547 106.5936095  97.7763564
  68.3764568 108.4156530  86.6517939  68.3535256 108.5144217  85.6999822
  68.6865204 109.2621681  86.9735105  71.0351946 110.4732685  90.7664554
  71.9895199 110.4416627  90.6994485  70.8364469 110.0123309  91.5814779
  71.6251328 109.0433801  93.3335351  72.4444217 109.5377880  93.3570188
  71.8988136 108.1265769  93.3052919  81.3817924 101.4344553  82.6963307
  80.4943779 101.7194204  82.4783501  81.7971913 101.2738317  81.8490584
  84.7332460 101.4591074  86.4117646  85.5092850 101.9487527  86.6842263
  84.0080594 101.8849128  86.8689515  87.1705019 102.1718693  87.4691587
  87.7649510 101.9314429  86.7584895  87.2431603 101.4525824  88.0965123
  69.3902175 116.0152304  87.7834751  69.2556643 115.2552705  87.2172749
  68.9734237 116.7393204  87.3163540  80.5261138 111.1989228  76.7911327
  81.2296988 111.4039230  77.4068982  79.8023786 111.7665990  77.0560410
  81.3558948 106.9499089  82.9113597  81.2994149 107.4067641  82.0721229
  81.9087290 106.1889774  82.7336440  85.1663754 102.7388821  83.7363716
  84.9100688 102.3385457  84.5671924  84.5416622 103.4532615  83.6113856
  89.4776092 105.4784894  86.2435008  88.9175650 105.5478084  87.0166570
  88.8719595 105.3025879  85.5234504  72.5471301 116.9121621  87.9953194
  72.4303685 117.8567054  87.8931884  71.7263747 116.6095183  88.3838993
  82.4347835 111.6371757  78.8409787  83.2693439 111.2052955  78.6587262
  82.2732178 111.4653771  79.7686681  82.0893727 108.1403870  80.2066126
  82.0342531 107.9748142  79.2654570  81.4639783 108.8479903  80.3628316
  66.8786242 103.3771935  94.0327548  67.5245106 102.8670889  94.5214773
  66.6703393 104.1140616  94.6070974  75.3989853  97.6411979  79.7851444
  75.3868523  98.5853819  79.9419715  76.2913275  97.4582125  79.4910906
  73.5725815 117.5649883  91.2109122  74.4753061 117.5973493  91.5275617
  73.3463185 116.6350334  91.2255458  75.3279417 116.3180870  87.8719201
  74.3775048 116.3182731  87.7583573  75.6311903 115.5713604  87.3555236
  79.2141972  94.2354756  84.0397381  78.4474368  93.6813243  84.1854064
  79.6252677  94.3076625  84.9011533  71.2183733 100.5239552  98.1302563
  72.0815195 100.1676357  98.3405887  70.6449144 100.1853447  98.8177967
  83.7308632 123.9604313  84.8623379  83.1673497 123.8694250  84.0939667
  83.6161027 123.1404217  85.3425872  81.2773064 125.4555504  87.7007600
  82.0694356 125.1146329  87.2853899  81.5169714 125.5650479  88.6209753
  83.2363818 124.7164417  80.5724978  84.0094694 124.1693405  80.4337854
  83.5889217 125.5808667  80.7839440  85.5730096 120.8757084  78.2043428
  85.8255616 120.3538605  77.4426891  84.6354655 120.7123229  78.3070112
  90.6173379 119.8792862  86.0118172  91.4036468 119.4612285  85.6608589
  90.8812083 120.7838954  86.1799820  85.2926385 122.7785190  80.4067803
  85.1762643 122.1030093  81.0748888  85.4028644 122.2917563  79.5899956
  87.6357925 122.2395337  84.1114493  87.2716133 121.7125958  84.8227414
  88.4925041 121.8493806  83.9380978  87.2763412 117.2685236  79.1075841
  87.4437815 118.1365473  79.4746312  87.0860582 117.4312518  78.1837130
  83.4851227 122.1816012  86.8078376  82.5601724 122.0492226  87.0156068
  83.7335640 122.9610231  87.3048318  87.2552633 119.7242894  80.0922508
  87.1352259 120.1699945  80.9307988  86.5605222 120.0728212  79.5336046
  80.8460038 121.8249286  87.6422165  80.9752419 122.0783765  88.5561577
  80.1657489 122.4176994  87.3226820  92.9537699 120.1964367  80.9202842
  93.8655556 120.4291754  80.7450539  92.4447347 120.7801411  80.3577921
  90.2973674 116.3722403  89.1692703  89.4358153 116.6703657  89.4609440
  90.3236109 116.5892802  88.2373735  87.1135244 124.9164594  85.5766508
  87.5773589 125.1952297  84.7871131  86.8492042 124.0148038  85.3939599
  86.0504130 121.0387746  82.3856074  86.7528173 121.4908790  82.8530000
  85.7184758 120.3971565  83.0135967  79.7929464 119.2971299  87.6873207
  79.0028518 119.5528827  87.2113318  80.2840711 120.1119636  87.7925248
  81.7444209 119.6615878  84.6456684  80.9475372 119.7734572  85.1640180
  81.5169801 120.0002530  83.7797574  78.0767167 119.5501789  90.1188198
  78.3275205 120.4348799  90.3845774  78.6126715 119.3706391  89.3463290
  80.7427292 125.3704127  83.0346104  81.2551812 126.1647377  83.1851669
  81.3950005 124.6730417  82.9679705  82.5522176 128.4869883  85.1168857
  82.7288805 129.4087848  84.9289841  83.3479010 128.1728302  85.5463237
  90.6390358 111.3759250  90.9917072  90.2954627 112.2660892  90.9156183
  91.0069321 111.1860908  90.1286657  78.7076209 123.6992781  83.8105674
  79.5451431 124.1089789  83.5939382  78.8854476 122.7592223  83.7805868
  90.6040641 121.3667862  79.4989507  90.0887264 122.1372466  79.7377895
  90.3317949 120.6932998  80.1222569  88.1887752 116.2117562  84.5574746
  87.3329348 115.8224413  84.3780384  88.6014703 116.2909523  83.6974531
  89.7186898 113.7463906  88.9566306  89.2151694 113.7094041  88.1434111
  90.0117505 114.6556648  89.0162962  85.9629784 113.8302635  87.9632487
  86.8282781 113.6345444  87.6038377  86.0307293 113.6012987  88.8901844
  90.3926944 119.2394954  81.3249289  90.0877079 119.5541103  82.1759432
  91.3457386 119.3176374  81.3676622  88.8373376 125.3985177  82.9742243
  88.3094737 124.6637937  82.6615480  88.3360878 126.1759853  82.7282211
  83.5692103 116.0604843  85.3348854  84.1435855 115.8380025  84.6022047
  84.1563086 116.1293538  86.0877455  83.8961690 118.0909304  79.3544739
  83.0599003 118.4283991  79.6754014  83.7566460 117.9558284  78.4171876
  85.8714771 112.9346092  84.0623924  85.2179183 112.6195109  83.4380538
  85.8295245 112.3121833  84.7883746  86.9825976 123.2165387  75.9777216
  86.0753038 122.9854641  76.1768365  87.4797008 122.4203006  76.1651197
  89.1052511 119.4228026  88.3871571  88.1875073 119.6442973  88.2293259
  89.5212655 119.4974336  87.5283278  89.8887559 120.8219441  83.5174251
  90.6359378 121.3340839  83.2081373  90.1579149 120.5003494  84.3778645
  88.1614209 123.3177982  80.5001206  87.2525429 123.0337015  80.5973675
  88.1909293 123.7377061  79.6404513  92.3366396 117.8576558  85.4993041
  91.5989153 117.3453944  85.8303283  92.5893170 117.4176939  84.6876318
  92.4378024 110.6352810  86.0934810  92.7436900 109.7750173  85.8060725
  93.1630628 111.2270430  85.8933804  78.7302380 121.0383496  84.4816408
  78.5326779 120.4452857  83.7567474  78.1749044 120.7335706  85.1992347
  86.7099103 120.9306603  86.6011001  86.7647713 119.9780439  86.5253478
  85.8990305 121.0866042  87.0852299  87.8590297 124.8586726  77.8389284
  87.4209727 124.1422585  77.3794922  88.6000738 125.0862841  77.2774376
  84.6491463 119.5483662  84.3601380  83.8359329 119.8477833  84.7666572
  85.1450457 119.1539351  85.0775862  84.1405538 117.1202018  89.9762615
  84.7804917 116.9790777  89.2785578  83.3083069 116.8336531  89.6001217
  84.9165842 126.4204448  86.0897607  85.7106440 125.9254769  85.8880182
  84.2057534 125.8922312  85.7265313  81.2248605 120.5647530  82.1657360
  80.2946193 120.5031986  82.3827322  81.3206077 120.0423483  81.3694001
  81.1434154 117.0902343  84.7535602  81.4040972 118.0047676  84.6444762
  81.9651327 116.6226786  84.9032214  82.6159080 118.5040100  91.9234426
  83.2882133 118.2957462  91.2747075  81.7888866 118.3062186  91.4839658
  91.9801525 123.7171107  77.4321342  91.3630695 122.9917936  77.3354395
  91.5118013 124.4780468  77.0888416  83.7700071 117.9356532  76.5542646
  82.8929537 117.8145333  76.1904893  84.2457824 117.1442610  76.3021535
  75.2902211 122.7233691  86.6484153  75.9773251 122.4095421  86.0605169
  75.1350339 123.6275056  86.3751405  80.0936933 117.6123888  91.0769177
  80.0095122 117.0049558  90.3419587  79.2719639 118.1032906  91.0778673
  90.2660647 116.0977452  86.4439372  90.7629346 115.3447414  86.1240442
  89.4947628 116.1341768  85.8782581  91.3490427 124.8549139  84.0177795
  90.4146706 124.9750601  83.8482500  91.5267096 123.9521606  83.7537805
  86.8495616 118.2394835  86.1711057  86.4793403 117.6865875  86.8591962
  87.3454708 117.6352968  85.6186057  94.7362979 120.6966458  84.5527830
  95.2023431 121.5294450  84.4788132  95.1870479 120.2311440  85.2573088
  92.7079642 113.0647045  88.5918731  91.7942721 113.2951272  88.7600938
  93.1372743 113.1485489  89.4432763  74.8670187 120.8034285  88.9201620
  74.9054286 120.2697876  89.7138738  74.3610480 120.2769490  88.3012598
  82.2460949 115.6498825  92.4164163  82.3102276 116.5113656  92.0041560
  82.1828069 115.0372827  91.6836521  78.4978764 119.5298387  81.9955552
  78.7932206 118.6209065  81.9422605  77.5966800 119.5086126  81.6736554
  82.0273011 117.6054384  87.9783100  81.3059597 118.2190351  87.8390574
  82.8166267 118.1412148  87.8999746  80.2266606 117.2112485  82.1194877
  79.8979312 116.3309864  81.9369983  80.5805977 117.1560153  83.0071266
  83.3408429 117.4985454  82.4870355  83.6804502 118.0271376  81.7648963
  83.7880550 117.8365861  83.2628921  86.0351870 115.8822505  91.9373423
  85.6948690 115.0830318  92.3394103  85.3290876 116.1824216  91.3650256
  86.6868342 112.9671818  90.3900746  87.5094411 112.4932296  90.2679636
  86.9306405 113.7462301  90.8899432  85.3276576 115.9960076  80.6863647
  86.0484939 116.3741329  80.1827364  84.7041880 116.7148953  80.7898625
  89.4707699 116.7005225  81.6221980  89.6871314 117.5829863  81.3210808
  88.9901766 116.3091438  80.8927622  84.2106921 119.6590938  88.1992724
  84.0651501 119.9731241  89.0917006  83.7332124 120.2775839  87.6463623
  86.0703303 116.6493486  88.2473614  86.0564872 115.7534580  87.9105912
  86.7875732 116.6564150  88.8811900  87.9229434 117.0830826  90.2926741
  87.6647212 118.0047897  90.2911072  87.3914475 116.6861261  90.9827205
  78.6852583 122.1996283  91.1380385  78.1406051 122.9756091  91.2700660
  79.5631933 122.5467087  90.9799507  85.4740199 115.5307866  83.5161184
  85.5956111 114.6024513  83.7152072  85.1842242 115.5446552  82.6039499
  88.3431390 113.2162777  86.6527904  88.3653087 113.2802110  85.6979883
  88.7599449 112.3767286  86.8468410  79.9175218 129.2131608  86.0620937
  80.7433238 128.9135379  85.6819581  79.5669270 128.4439230  86.5110726
  78.1183823 127.1317934  87.0209871  77.2815732 126.7040108  86.8393872
  78.0907469 127.3250377  87.9580662  84.4470258 127.1161999  81.6077071
  84.5958379 127.7997464  80.9543744  85.2536702 127.0967089  82.1226527
  82.2022891 123.1427177  82.6138140  81.9568933 122.2389507  82.8118350
  82.3718806 123.1444327  81.6717618  81.4718539 118.8755534  80.1124301
  80.7787784 118.9499889  79.4564337  81.2270291 118.1115878  80.6345818
  90.1432195 110.4351136  87.5163792  90.4233949 109.7674325  88.1424219
  90.9282802 110.6280231  87.0038456  88.3312462 120.9470942  76.4204871
  89.2771567 120.8177150  76.4893289  87.9526707 120.2085604  76.8974299
  94.3034347 112.6126948  86.3831763  94.1059168 112.3042037  87.2675095
  94.9134053 113.3388587  86.5129693  86.5155380 118.8720919  76.3559756
  85.6086835 118.5754031  76.4322470  86.7931361 118.5750737  75.4894043
  77.4333320 120.1927282  86.8058803  77.1136104 119.3392590  86.5133177
  76.8866748 120.4075860  87.5616770  88.1317445 113.4157808  82.5103998
  87.3218174 113.0704893  82.8859244  88.8201862 113.1065352  83.0991609
  90.0607994 112.4935855  84.1328294  90.6139032 112.9131309  84.7918317
  90.2978080 111.5671603  84.1751250  85.2854164 115.7307854  76.4971735
  86.1473328 116.0562752  76.7567553  85.4704508 114.9439350  75.9844801
  77.3021580 123.8130194  88.7751924  76.6085051 123.3984146  88.2621879
  78.0494571 123.8550730  88.1785343  93.4386801 114.6036380  83.6406958
  92.8585470 115.2621184  83.2585011  93.1722733 113.7813725  83.2294376
  91.8890367 114.0041438  85.8428279  92.3890145 114.1157973  85.0342598
  92.5325975 113.7002491  86.4829087  79.2158322 123.7448447  86.6517939
  79.1929011 123.8436135  85.6999822  79.5258959 124.5913598  86.9735105
  92.2211679 116.7636471  82.6963307  91.3337534 117.0486121  82.4783501
  92.6365668 116.6030234  81.8490584  95.5726215 116.7882992  86.4117646
  96.3486605 117.2779444  86.6842263  94.8474349 117.2141046  86.8689515
  92.1952702 122.2791007  82.9113597  92.1387904 122.7359558  82.0721229
  92.7481045 121.5181691  82.7336440  96.0057508 118.0680739  83.7363716
  95.7494443 117.6677374  84.5671924  95.3810376 118.7824533  83.6113856
  92.9287482 123.4695788  80.2066126  92.8736286 123.3040059  79.2654570
  92.3033537 124.1771821  80.3628316  77.7179997 118.7063852  94.0327548
  78.3638860 118.1962806  94.5214773  77.5097148 119.4432534  94.6070974
  86.2383607 112.9703897  79.7851444  86.2262277 113.9145737  79.9419715
  87.1307029 112.7874042  79.4910906  90.0535727 109.5646674  84.0397381
  89.2868122 109.0105160  84.1854064  90.4646432 109.6368542  84.9011533
  26.0269584   7.1852025  75.6610270  26.6647994   7.0658772  74.9573610
  25.9090427   8.1332869  75.7198222  22.8359291   7.1379453  75.5971795
  22.4977802   7.0220517  74.7092330  23.7049059   6.7370618  75.5772801
  18.6946106   8.9914929  71.5868686  18.1310972   8.9004866  70.8184974
  18.5798501   8.1714834  72.0671178  23.3179074   8.2914304  81.5558000
  23.3067714   7.8967103  80.6838504  23.4799713   7.5580377  82.1491772
  16.2410538  10.4866121  74.4252906  17.0331830  10.1456945  74.0099206
  16.4807189  10.5961096  75.3455060  24.2745665  12.6585897  66.8983151
  23.6233645  13.2439977  66.5117164  25.0690028  13.1892092  66.9578188
  18.2001292   9.7475034  67.2970285  18.9732168   9.2004021  67.1583161
  18.5526691  10.6119283  67.5084746  20.0386335  11.0751416  80.5037184
  19.7476201  11.9797047  80.3883851  20.6743319  11.1167944  81.2181254
  20.9642542   8.4528265  77.0938544  21.5606114   8.2284287  76.3795507
  21.0217513   7.7113010  77.6963992  20.5367570   5.9067700  64.9288735
  20.7893091   5.3849221  64.1672198  19.5992129   5.7433846  65.0315419
  25.5810853   4.9103479  72.7363478  26.3673942   4.4922902  72.3853895
  25.8449557   5.8149571  72.9045127  25.7520930  10.3476329  67.4352135
  25.1166763  10.4210955  68.1473040  25.4218337  10.9369928  66.7571214
  30.9819280   4.8478712  73.6396457  31.7144452   4.2777929  73.8734286
  30.2258636   4.4600312  74.0802962  20.2563859   7.8095806  67.1313110
  20.1400117   7.1340709  67.7994194  20.3666119   7.3228180  66.3145263
  22.5995400   7.2705953  70.8359799  22.2353607   6.7436574  71.5472721
  23.4562516   6.8804422  70.6626285  24.9976220  10.7612832  77.4986978
  24.6976943  11.6637871  77.3902785  24.6527279  10.4945015  78.3508131
  18.4488701   7.2126629  73.5323682  17.5239198   7.0802843  73.7401374
  18.6973115   7.9920848  74.0293625  28.3973364   3.2795372  75.1784415
  27.4890241   3.2110780  74.8843176  28.3460960   3.7567317  76.0066241
  22.2190108   4.7553510  66.8167814  22.0989733   5.2010561  67.6553295
  21.5242696   5.1038828  66.2581353  19.9797000  17.5257152  70.4657946
  19.9021029  18.4764977  70.5446426  19.3758643  17.1803025  71.1232872
  22.4714230   4.6985018  83.1219313  21.6947564   5.2578938  83.1122177
  23.1104793   5.1841801  83.6434183  30.2635010   1.4811810  76.9562289
  29.6209390   1.7744344  76.3102084  29.7589939   1.3664731  77.7615486
  27.9175174   5.2274984  67.6448149  28.8293030   5.4602370  67.4695846
  27.4084821   5.8112028  67.0823227  20.7260602   7.5070471  82.6837280
  21.4675286   8.0455515  82.4072103  20.0197587   8.1336760  82.8408831
  26.2015941   9.6499611  81.2809441  26.6099298   9.2082022  80.5364073
  25.4793203   9.0752239  81.5343634  22.5547012   4.5872218  78.6542998
  23.4008207   5.0111632  78.7977647  22.4945649   3.9305842  79.3481561
  26.5244756  10.2100802  75.0361730  25.8953619  10.3746516  74.3337798
  26.1370418  10.6242412  75.8072694  30.4033988  11.1455240  72.3906094
  29.7185026  11.5254141  71.8403127  30.4877837  11.7550567  73.1238042
  25.7046457   2.2476587  80.3124172  25.4607389   3.0018647  79.7758447
  25.9806387   2.6261934  81.1471419  27.6584920   8.7915199  78.9901437
  27.8701815   9.4346959  78.3135818  27.6114668   7.9577515  78.5223367
  25.2611149   1.4033020  75.8938009  24.3995628   1.7014273  76.1854747
  25.2873583   1.6203418  74.9619042  22.0772718   9.9475210  72.3011815
  22.5411064  10.2262913  71.5116438  21.8129516   9.0458655  72.1184906
  18.9696799   9.4946692  75.2391578  19.5398156   9.9233960  74.6009063
  19.5604911   9.2129276  75.9375764  21.0141604   6.0698362  69.1101380
  21.7165647   6.5219406  69.5775307  20.6822233   5.4282181  69.7381273
  28.7730748  11.6687154  77.1623795  29.5948191  11.2667342  76.8806476
  28.7693150  11.5655388  78.1139910  22.5387351  11.2171198  79.3184505
  22.6031784  11.6791605  80.1542677  21.8298275  10.5868563  79.4466815
  36.8636741   8.0125903  73.5108766  36.1100449   7.4433301  73.3552771
  36.9984282   7.9788567  74.4579401  22.2535369  12.8839305  69.1863485
  22.1181043  13.7290841  69.6148333  22.7945181  13.0858583  68.4229419
  15.7064766  10.4014743  69.7591411  16.2189287  11.1957993  69.9096975
  16.3587479   9.7041034  69.6925012  17.5159651  13.5180499  71.8414164
  17.6926279  14.4398464  71.6535148  18.3116484  13.2038919  72.2708544
  23.8803845  13.5062872  83.3163828  23.4367699  12.7199250  82.9984732
  24.5421059  13.6942022  82.6507718  18.6390966  15.0358673  77.8424506
  19.1898391  14.9075737  77.0701500  17.8002442  15.3353562  77.4919399
  25.9785083  13.7865672  81.3445229  25.9603558  14.6074553  80.8525498
  26.9005003  13.6619747  81.5695370  22.4358137  11.3009801  82.1868737
  22.9686474  10.5398089  81.9568045  21.9072218  11.0083453  82.9292892
  25.5678115   6.3978478  66.2234814  25.0524738   7.1683083  66.4623201
  25.2955423   5.7243614  66.8467875  30.5412389   9.1510833  68.1587988
  29.7641832   8.8121992  67.7143150  31.2203870   9.1563456  67.4842953
  25.3564418   4.2705570  68.0494595  25.0514554   4.5851719  68.9004738
  26.3094860   4.3486990  68.0921928  23.8010850  10.4295794  69.6987549
  23.2732212   9.6948553  69.3860787  23.2998353  11.2070470  69.4527518
  28.7803696   8.6244814  74.8154596  28.1227370   9.3144075  74.9034724
  29.5844095   9.0141246  75.1588582  27.5909155   6.9789187  72.8658537
  28.1041037   7.6119179  73.3680247  28.2410379   6.3790382  72.5001897
  21.9463450   8.2476004  62.7022522  21.0390512   8.0165257  62.9013671
  22.4434482   7.4513623  62.8896504  24.8531529  16.9573511  65.6219208
  24.1793228  17.2605208  66.2304166  25.2397351  17.7602591  65.2724665
  24.0689986   4.4538642  75.1116878  23.1512547   4.6753589  74.9538566
  24.4850129   4.5284953  74.2528585  24.8525033   5.8530058  70.2419558
  25.5996852   6.3651455  69.9326680  25.1216623   5.5314111  71.1023952
  23.1251684   8.3488599  67.2246512  22.2162903   8.0647631  67.3218982
  23.1546767   8.7687677  66.3649819  28.3570951  11.9595188  70.9937680
  27.9033278  11.1186098  71.0502870  27.7264918  12.5956587  71.3312460
  27.3003871   2.8887174  72.2238347  26.5626627   2.3764560  72.5548590
  27.5530644   2.4487556  71.4121624  26.8003890  13.7971685  71.9287498
  27.0926865  14.3576742  71.2099864  27.3102511  14.0900246  72.6840657
  21.6736578   5.9617219  73.3256308  21.7285187   5.0091056  73.2498784
  20.8627780   6.1176658  73.8097606  22.8227771   9.8897342  64.5634591
  22.3847201   9.1733201  64.1040228  23.5638212  10.1173457  64.0019682
  21.7637515  14.5752036  73.0180951  21.7213694  14.8012882  72.0889483
  22.6800214  14.3415411  73.1666752  25.2103149   5.0436103  79.9161580
  25.5652537   5.2707577  80.7756046  25.8575280   5.3754480  79.2938836
  30.9400886   8.1654539  70.6210909  30.8018785   8.3556135  69.6932099
  30.5837105   8.9273922  71.0778961  30.9670266  10.2331066  75.6322181
  31.4006772  10.1406355  76.4805235  31.6801846  10.2088567  74.9942197
  19.8803316  11.4515065  72.8142914  20.6743915  10.9565385  72.6125489
  19.1695009  10.9232928  72.4510620  24.6998161  13.8333160  77.1655282
  24.7535183  14.4024097  77.9332997  23.8312942  14.0035046  76.8009319
  31.8285815  10.2754767  78.1655066  32.0221705  11.1800578  78.4114341
  31.7286434   9.8162186  78.9993651  26.8900924  10.4261510  83.7395947
  26.7386430  10.1972061  82.8226031  26.8805603  11.3832111  83.7527292
  23.6586260   7.9993423  78.7242213  24.5878320   8.1504582  78.5511181
  23.2377290   8.0877443  77.8690860  22.4574592  12.0244087  76.4940751
  22.3185678  11.6562871  77.3666689  21.6689188  12.5391726  76.3224709
  23.0522744  17.1253183  67.8366288  23.2274500  16.6541227  68.6511910
  22.3655532  17.7518950  68.0647548  24.0079807  11.4025690  73.8829589
  23.6729640  11.3626460  74.7787239  23.5083753  10.7370406  73.4099999
  17.9824051   6.8093320  79.4082170  17.8443849   6.0773558  80.0093709
  18.8928975   6.7202220  79.1266358  26.9438999   8.7481724  64.1566648
  26.3268170   8.0228552  64.0599701  26.4755487   9.5091084  63.8133723
  20.6106352   6.5213279  78.8965850  21.3205971   5.8806471  78.8552468
  20.5675660   6.7726174  79.8192030  28.5993131  13.4580632  81.8172429
  28.5405677  12.7739852  81.1503012  29.0012649  14.1999622  81.3653055
  17.6183829  20.2742546  74.6106148  17.8580428  20.9061070  75.2885166
  16.7753026  19.9230586  74.8971507  28.6010538  11.4220216  80.0486409
  27.7137317  11.0846138  80.1712807  29.1709089  10.6903247  80.2855174
  22.1311691  16.0821669  77.0147652  22.0581863  16.8876640  77.5266956
  21.6889084  16.2813634  76.1895673  21.9201471  15.3193439  70.5250473
  21.1368993  15.8615119  70.6188698  22.6194216  15.8367418  70.9244714
  25.2298121   1.1288068  73.1684679  25.7266821   0.3758030  72.8485749
  24.4585103   1.1652385  72.6027888  33.0827878   6.8328434  74.8102970
  33.0717755   7.7153149  74.4396903  32.2145258   6.4799984  74.6157507
  24.5910375  15.9808503  79.1705810  25.3038347  16.6155967  79.0981712
  24.1000403  16.0772369  78.3545812  26.3127902   9.8859755  70.7423102
  25.3784180  10.0061218  70.5727806  26.4904570   8.9832222  70.4783112
  29.7000453   5.7277075  71.2773136  30.1660905   6.5605066  71.2033439
  30.1507954   5.2622056  71.9818395  19.6422288  13.7302946  79.9911381
  20.3431748  14.3639429  80.1440775  19.1717403  14.0717678  79.2307020
  27.7676684  12.0720896  68.2759288  28.0436528  11.9577490  69.1853162
  26.8981183  11.6738381  68.2371461  27.4423574   6.2847554  77.8163932
  26.7895025   6.5323461  77.1616384  27.8203954   5.4711692  77.4826409
  24.4030748  16.3207247  71.9192102  24.5853143  15.5028903  72.3819854
  25.2263734  16.5374939  71.4816992  24.7372914  15.2475432  69.1807150
  25.2660680  14.7367886  68.5677312  25.0001133  14.9317962  70.0452683
  23.4911147   7.0267365  84.3029969  22.8151784   6.9261494  84.9732344
  24.3138781   6.8706578  84.7665966  15.2390006  13.2639301  76.9242484
  15.8243443  12.5182989  77.0570388  15.0414845  13.5743258  77.8079148
  18.0928662  16.2990549  71.9404926  17.4239037  16.7836676  71.4568966
  17.9541531  16.5459769  72.8548305  22.2333930  18.3334292  78.5387585
  22.7852238  18.4965914  79.3036670  22.5740124  18.9238730  77.8667609
  27.0844805  13.1595550  84.3936239  27.6284709  13.7725508  83.8991194
  26.5031649  13.7175128  84.9103252  25.3702318  16.2816268  75.5251267
  25.2453457  15.4806007  75.0162212  26.0281409  16.7762461  75.0365237
  27.4337226  14.0825288  77.1530817  26.4867561  13.9630639  77.0809144
  27.7819999  13.1947786  77.2357078  24.4383659  13.8778004  73.3535169
  24.2908622  12.9494711  73.5342739  25.2637153  13.8998095  72.8692244
  28.0417781  14.7006563  74.4400042  28.9664329  14.4949424  74.3024493
  27.8733084  14.4522964  75.3489383  27.8313097  15.2192230  69.7962133
  28.0049975  14.6538653  69.0435986  28.3241989  16.0193125  69.6141623
  33.6852488   7.9828653  71.4152433  34.1283634   7.2335978  71.0171556
  32.8078999   7.9738789  71.0326165  28.8188270  14.5358994  66.8959032
  29.5139174  15.1565687  67.1146346  29.1611420  13.6854346  67.1711409
  30.7179693  11.9858700  68.4246362  31.2431017  12.3245973  67.6995682
  30.6302045  11.0505715  68.2409497  22.3799742  15.8992774  80.5536239
  22.6886868  15.6541920  81.4258939  23.1775224  16.1039412  80.0655109
  22.4020354  18.0530683  72.7841616  21.9625344  17.5607062  73.4774472
  23.1528471  17.5103651  72.5433691  14.8812693  14.2442224  72.7866244
  15.7070713  13.9445996  72.4064887  14.5306745  13.4749847  73.2356032
  19.8494226  13.5968692  74.8563917  19.2274235  12.9339397  74.5566145
  20.5199093  13.6229824  74.1737565  13.0821298  12.1628551  73.7455177
  12.2453206  11.7350725  73.5639178  13.0544943  12.3560994  74.6825968
  30.4073599  12.6191604  83.7297560  29.6169143  12.6015742  83.1902060
  30.1706954  13.1579897  84.4846597  30.5271474   9.4684070  81.0430289
  30.5769479   9.3034077  81.9845812  30.4185397   8.6011329  80.6528170
  19.4107733  12.1472616  68.3322378  19.5595853  12.8308080  67.6789050
  20.2174176  12.1277706  68.8471833  27.8175236   5.4514998  82.3589596
  28.7185099   5.3121463  82.0673593  27.8923211   5.6169453  83.2987773
  32.0289671  11.8881012  81.2872310  31.7374479  12.2510992  82.1235771
  31.4161802  11.1748020  81.1085642  33.2285353   9.4533891  73.8074881
  34.0632245   9.8923695  73.9712441  33.3644482   8.9772545  72.9883126
  30.2776859   7.0113626  79.7552368  30.7530981   7.2041272  78.9471220
  29.3542424   7.0672812  79.5095752  17.1660366   8.1737793  69.3383447
  16.9206408   7.2700123  69.5363657  17.3356280   8.1754944  68.3962925
  22.9103138  14.6420746  65.8034125  22.3377105  15.2610933  65.3504597
  23.4835932  15.1920108  66.3374047  28.9778528   3.8879386  77.9880674
  29.9295951   3.9877484  78.0092898  28.8081978   3.0957655  78.4978758
  26.9992908   0.9734969  78.1740075  26.4042840   1.2539982  77.4786564
  26.7142604   1.4628870  78.9456816  26.1300398  14.9257896  66.9342707
  27.0631071  14.8603458  67.1375583  26.0423611  15.7614163  66.4757240
  28.7588415  14.2423767  63.8946655  28.6802046  13.9083630  64.7882413
  29.5798081  14.7345535  63.8938127  31.4566606   7.1085506  77.1022974
  31.4242926   6.1701507  77.2882657  32.0667229   7.1869543  76.3688799
  23.2949937   5.9781559  63.1450178  24.2409041   5.8487767  63.2138596
  22.9164182   5.2396221  63.6219606  31.6061094   3.8996549  77.1481257
  31.0900143   3.1155006  76.9611186  32.4901043   3.5715266  77.3127776
  37.2743156   8.1701513  76.2429010  38.0046544   7.9086801  76.8036714
  36.6650101   7.4330235  76.2831078  35.3558453   6.3109375  76.8403462
  34.6291616   6.1765340  76.2319953  34.9405740   6.6186204  77.6460180
  23.1788629  10.0299305  84.6050835  24.0991639  10.2077904  84.7990881
  23.1438212   9.0855350  84.4530534  16.1750702   7.9400340  77.2473616
  16.3936712   8.8717448  77.2661650  16.5876476   7.5808314  78.0328420
  28.4024275  -0.3653003  70.3652265  27.8222944   0.2931801  69.9830318
  28.1360208  -1.1875658  69.9539683  20.9109837   6.9430684  85.4541426
  20.4276919   7.7431044  85.6605315  20.9970776   6.9538629  84.5008870
  14.1795797   8.7759064  73.3763246  14.1566485   8.8746751  72.4245129
  14.4896433   9.6224215  73.6980412  16.8383175  10.8335219  77.4909860
  17.7926428  10.8019161  77.4239792  16.6395698  10.3725843  78.3060086
  17.4282557   9.4036335  80.0580658  18.2475446   9.8980414  80.0815495
  17.7019364   8.4868303  80.0298225  27.1849153   1.7947087  69.4208613
  26.2975008   2.0796738  69.2028808  27.6003142   1.6340851  68.5735890
  30.5363689   1.8193608  73.1362953  31.3124079   2.3090061  73.4087569
  29.8111823   2.2451663  73.5934822  32.9736248   2.5321228  74.1936893
  33.5680739   2.2916964  73.4830201  33.0462831   1.8128358  74.8210430
  15.1933403  16.3754838  74.5080058  15.0587871  15.6155239  73.9418056
  14.7765466  17.0995738  74.0408847  26.3292366  11.5591762  63.5156633
  27.0328217  11.7641765  64.1314289  25.6055015  12.1268524  63.7805717
  27.1590177   7.3101623  69.6358904  27.1025378   7.7670175  68.7966536
  27.7118519   6.5492308  69.4581746  30.9694983   3.0991355  70.4609023
  30.7131917   2.6987991  71.2917231  30.3447851   3.8135149  70.3359162
  35.2807320   5.8387428  72.9680314  34.7206878   5.9080618  73.7411876
  34.6750824   5.6628413  72.2479811  18.3502529  17.2724156  74.7198501
  18.2334913  18.2169588  74.6177191  17.5294976  16.9697717  75.1084300
  28.2379064  11.9974291  65.5655093  29.0724668  11.5655490  65.3832568
  28.0763407  11.8256305  66.4931988  27.8924956   8.5006405  66.9311433
  27.8373760   8.3350676  65.9899877  27.2671011   9.2082437  67.0873622
  25.2070863  10.8055316  86.2564995  26.0762023  10.9795969  85.8951630
  24.7277615  11.6249733  86.1340725  19.3757043  17.9252417  77.9354429
  20.2784290  17.9576028  78.2520924  19.1494414  16.9952868  77.9500765
  21.1310645  16.6783404  74.5964508  20.1806276  16.6785266  74.4828880
  21.4343132  15.9316139  74.0800542  36.8663339  22.5143942  75.6610270
  37.5041749  22.3950690  74.9573610  36.7484182  23.4624786  75.7198222
  33.6753045  22.4671370  75.5971795  33.3371557  22.3512435  74.7092330
  34.5442813  22.0662536  75.5772801  29.5339861  24.3206847  71.5868686
  28.9704726  24.2296784  70.8184974  29.4192256  23.5006751  72.0671178
  34.1572828  23.6206222  81.5558000  34.1461469  23.2259020  80.6838504
  34.3193468  22.8872295  82.1491772  27.0804293  25.8158038  74.4252906
  27.8725585  25.4748863  74.0099206  27.3200943  25.9253014  75.3455060
  35.1139420  27.9877815  66.8983151  34.4627399  28.5731895  66.5117164
  35.9083782  28.5184009  66.9578188  29.0395047  25.0766952  67.2970285
  29.8125923  24.5295939  67.1583161  29.3920446  25.9411201  67.5084746
  30.8780089  26.4043334  80.5037184  30.5869955  27.3088965  80.3883851
  31.5137074  26.4459862  81.2181254  31.8036296  23.7820182  77.0938544
  32.3999868  23.5576205  76.3795507  31.8611268  23.0404928  77.6963992
  31.3761325  21.2359618  64.9288735  31.6286845  20.7141139  64.1672198
  30.4385884  21.0725763  65.0315419  36.4204607  20.2395396  72.7363478
  37.2067697  19.8214819  72.3853895  36.6843312  21.1441488  72.9045127
  36.5914685  25.6768246  67.4352135  35.9560518  25.7502873  68.1473040
  36.2612091  26.2661845  66.7571214  41.8213035  20.1770629  73.6396457
  42.5538207  19.6069846  73.8734286  41.0652390  19.7892230  74.0802962
  31.0957613  23.1387724  67.1313110  30.9793871  22.4632627  67.7994194
  31.2059873  22.6520098  66.3145263  33.4389154  22.5997871  70.8359799
  33.0747362  22.0728492  71.5472721  34.2956270  22.2096340  70.6626285
  39.3438455  13.8892203  78.0991065  39.0121780  14.7587614  77.8752280
  38.7484068  13.5728487  78.7785096  33.0794641  17.6287771  65.8321148
  33.2469044  18.4968007  66.1991619  32.8891810  17.7915052  64.9082437
  35.8369974  26.0904749  77.4986978  35.5370698  26.9929788  77.3902785
  35.4921034  25.8236933  78.3508131  29.2882456  22.5418546  73.5323682
  28.3632952  22.4094760  73.7401374  29.5366869  23.3212766  74.0293625
  39.2367118  18.6087290  75.1784415  38.3283996  18.5402698  74.8843176
  39.1854714  19.0859235  76.0066241  33.0583862  20.0845428  66.8167814
  32.9383487  20.5302479  67.6553295  32.3636451  20.4330746  66.2581353
  26.6491267  22.1851820  74.3667472  26.7783648  22.4386299  75.2806883
  25.9688718  22.7779528  74.0472127  30.8190754  32.8549070  70.4657946
  30.7414784  33.8056895  70.5446426  30.2152398  32.5094942  71.1232872
  33.3107984  20.0276935  83.1219313  32.5341318  20.5870855  83.1122177
  33.9498547  20.5133718  83.6434183  41.1028765  16.8103728  76.9562289
  40.4603145  17.1036261  76.3102084  40.5983693  16.6956648  77.7615486
  38.7568928  20.5566901  67.6448149  39.6686784  20.7894288  67.4695846
  38.2478575  21.1403945  67.0823227  31.5654356  22.8362389  82.6837280
  32.3069041  23.3747433  82.4072103  30.8591342  23.4628677  82.8408831
  37.0409696  24.9791529  81.2809441  37.4493052  24.5373940  80.5364073
  36.3186957  24.4044157  81.5343634  33.3940766  19.9164136  78.6542998
  34.2401961  20.3403549  78.7977647  33.3339404  19.2597760  79.3481561
  37.3638511  25.5392720  75.0361730  36.7347373  25.7038434  74.3337798
  36.9764173  25.9534329  75.8072694  41.2427743  26.4747158  72.3906094
  40.5578781  26.8546059  71.8403127  41.3271592  27.0842484  73.1238042
  36.5440211  17.5768504  80.3124172  36.3001143  18.3310565  79.7758447
  36.8200142  17.9553852  81.1471419  38.4978674  24.1207117  78.9901437
  38.7095569  24.7638876  78.3135818  38.4508422  23.2869433  78.5223367
  36.1004903  16.7324937  75.8938009  35.2389382  17.0306191  76.1854747
  36.1267338  16.9495336  74.9619042  32.9166472  25.2767128  72.3011815
  33.3804818  25.5554831  71.5116438  32.6523271  24.3750572  72.1184906
  29.8090554  24.8238609  75.2391578  30.3791911  25.2525878  74.6009063
  30.3998665  24.5421194  75.9375764  31.8535359  21.3990280  69.1101380
  32.5559402  21.8511324  69.5775307  31.5215987  20.7574099  69.7381273
  30.3015720  19.9902037  83.4852590  29.6714381  20.6718318  83.7187986
  30.1951808  19.8785118  82.5405728  25.5960692  19.6573833  74.4118514
  24.8059746  19.9131361  73.9358624  26.0871940  20.4722171  74.5170554
  39.6124502  26.9979072  77.1623795  40.4341946  26.5959259  76.8806476
  39.6086905  26.8947306  78.1139910  27.5475438  20.0218412  71.3701991
  26.7506601  20.1337106  71.8885486  27.3201030  20.3605064  70.5042881
  33.3781105  26.5463115  79.3184505  33.4425538  27.0083523  80.1542677
  32.6692029  25.9160480  79.4466815  23.8798395  19.9104323  76.8433505
  24.1306434  20.7951333  77.1091081  24.4157944  19.7308925  76.0708596
  47.7030495  23.3417820  73.5108766  46.9494203  22.7725219  73.3552771
  47.8378036  23.3080485  74.4579401  33.0929123  28.2131223  69.1863485
  32.9574798  29.0582759  69.6148333  33.6338936  28.4150500  68.4229419
  29.5796463  14.2922803  85.8477841  29.1863408  13.7389001  86.5225485
  30.3962603  14.6033381  86.2384358  26.5458521  25.7306661  69.7591411
  27.0583041  26.5249911  69.9096975  27.1981233  25.0332951  69.6925012
  28.3553405  28.8472417  71.8414164  28.5320034  29.7690382  71.6535148
  29.1510239  28.5330836  72.2708544  32.4964424  15.7080682  83.4398097
  33.2374137  16.3087835  83.3602560  32.7282347  14.9658320  82.8816140
  27.6405762  20.8937049  81.7176327  27.5259277  19.9922306  82.0183426
  26.7850280  21.1400746  81.3661143  34.7197600  28.8354789  83.3163828
  34.2761454  28.0491168  82.9984732  35.3814813  29.0233940  82.6507718
  29.4784721  30.3650591  77.8424506  30.0292146  30.2367654  77.0701500
  28.6396197  30.6645480  77.4919399  36.8178838  29.1157589  81.3445229
  36.7997313  29.9366470  80.8525498  37.7398758  28.9911664  81.5695370
  33.2751892  26.6301719  82.1868737  33.8080229  25.8690007  81.9568045
  32.7465973  26.3375371  82.9292892  36.4421587  11.7361785  77.7162379
  36.0985856  12.6263426  77.6401490  36.8100549  11.5463442  76.8531964
  24.5107437  24.0595315  70.5350981  25.3482659  24.4692323  70.3184689
  24.6885705  23.1194757  70.5051175  36.4071869  21.7270396  66.2234814
  35.8918493  22.4975000  66.4623201  36.1349178  21.0535532  66.8467875
  33.9918980  16.5720097  71.2820052  33.1360577  16.1826947  71.1025691
  34.4045932  16.6512057  70.4219838  35.5218127  14.1066440  75.6811612
  35.0182923  14.0696575  74.8679417  35.8148734  15.0159183  75.7408269
  31.7661013  14.1905170  74.6877794  32.6314010  13.9947978  74.3283683
  31.8338522  13.9615521  75.6147151  41.3806144  24.4802750  68.1587988
  40.6035586  24.1413910  67.7143150  42.0597625  24.4855374  67.4842953
  36.1958173  19.5997488  68.0494595  35.8908308  19.9143637  68.9004738
  37.1488615  19.6778908  68.0921928  34.6404604  25.7587711  69.6987549
  34.1125966  25.0240471  69.3860787  34.1392107  26.5362388  69.4527518
  39.6197450  23.9536732  74.8154596  38.9621125  24.6435993  74.9034724
  40.4237850  24.3433164  75.1588582  29.3723332  16.4207377  72.0594161
  29.9467084  16.1982559  71.3267354  29.9594315  16.4896072  72.8122762
  38.4302909  22.3081104  72.8658537  38.9434791  22.9411096  73.3680247
  39.0804133  21.7082300  72.5001897  29.6992919  18.4511839  66.0790046
  28.8630231  18.7886525  66.3999321  29.5597689  18.3160818  65.1417183
  31.6746000  13.2948626  70.7869230  31.0210412  12.9797644  70.1625845
  31.6326474  12.6724367  71.5129053  32.7857205  23.5767921  62.7022522
  31.8784266  23.3457175  62.9013671  33.2828237  22.7805541  62.8896504
  35.6925284  32.2865429  65.6219208  35.0186982  32.5897125  66.2304166
  36.0791105  33.0894509  65.2724665  34.9083740  19.7830560  75.1116878
  33.9906302  20.0045507  74.9538566  35.3243884  19.8576870  74.2528585
  35.6918788  21.1821976  70.2419558  36.4390607  21.6943373  69.9326680
  35.9610377  20.8606028  71.1023952  33.9645438  23.6780516  67.2246512
  33.0556657  23.3939549  67.3218982  33.9940522  24.0979595  66.3649819
  39.1964705  27.2887106  70.9937680  38.7427033  26.4478016  71.0502870
  38.5658672  27.9248504  71.3312460  38.1397625  18.2179092  72.2238347
  37.4020382  17.7056478  72.5548590  38.3924399  17.7779473  71.4121624
  37.6397645  29.1263603  71.9287498  37.9320619  29.6868660  71.2099864
  38.1496265  29.4192164  72.6840657  38.2409252  10.9955344  72.8180117
  38.5468129  10.1352707  72.5306032  38.9661857  11.5872964  72.6179111
  24.5333608  21.3986030  71.2061715  24.3358008  20.8055391  70.4812781
  23.9780272  21.0938241  71.9237653  32.5130332  21.2909137  73.3256308
  32.5678942  20.3382973  73.2498784  31.7021534  21.4468576  73.8097606
  33.6621526  25.2189260  64.5634591  33.2240956  24.5025119  64.1040228
  34.4031967  25.4465375  64.0019682  30.4522692  19.9086197  71.0846687
  29.6390558  20.2080367  71.4911879  30.9481686  19.5141885  71.8021169
  32.6031270  29.9043954  73.0180951  32.5607449  30.1304800  72.0889483
  33.5193969  29.6707328  73.1666752  36.0496904  20.3728021  79.9161580
  36.4046291  20.5999494  80.7756046  36.6969035  20.7046398  79.2938836
  41.7794641  23.4946457  70.6210909  41.6412539  23.6848053  69.6932099
  41.4230859  24.2565840  71.0778961  29.9436767  17.4804552  76.7007921
  30.5836146  17.3393311  76.0030885  29.1114297  17.1939066  76.3246523
  41.8064020  25.5622984  75.6322181  42.2400527  25.4698273  76.4805235
  42.5195601  25.5380485  74.9942197  30.7197071  26.7806983  72.8142914
  31.5137669  26.2857303  72.6125489  30.0088763  26.2524846  72.4510620
  35.5391915  29.1625078  77.1655282  35.5928937  29.7316014  77.9332997
  34.6706697  29.3326963  76.8009319  27.0279834  20.9250064  68.8902667
  26.0977422  20.8634520  69.1072629  27.1237306  20.4026017  68.0939308
  26.9465383  17.4504877  71.4780908  27.2072201  18.3650210  71.3690069
  27.7682556  16.9829320  71.6277521  28.4190309  18.8642634  78.6479733
  29.0913362  18.6559996  77.9992382  27.5920095  18.6664720  78.2084965
  42.6679570  25.6046685  78.1655066  42.8615460  26.5092495  78.4114341
  42.5680188  25.1454104  78.9993651  34.3215881  15.4904575  80.6645394
  33.6743796  16.1894525  80.5709870  35.0916896  15.9240719  81.0321642
  37.7294679  25.7553427  83.7395947  37.5780185  25.5263979  82.8226031
  37.7199358  26.7124029  83.7527292  34.4980015  23.3285340  78.7242213
  35.4272075  23.4796500  78.5511181  34.0771045  23.4169361  77.8690860
  33.2968347  27.3536005  76.4940751  33.1579432  26.9854789  77.3666689
  32.5082943  27.8683644  76.3224709  33.8916499  32.4545101  67.8366288
  34.0668254  31.9833144  68.6511910  33.2049287  33.0810867  68.0647548
  34.8473562  26.7317607  73.8829589  34.5123394  26.6918377  74.7787239
  34.3477508  26.0662323  73.4099999  28.8217806  22.1385237  79.4082170
  28.6837604  21.4065476  80.0093709  29.7322729  22.0494137  79.1266358
  37.7832753  24.0773642  64.1566648  37.1661924  23.3520470  64.0599701
  37.3149242  24.8383002  63.8133723  31.4500106  21.8505197  78.8965850
  32.1599725  21.2098389  78.8552468  31.4069415  22.1018091  79.8192030
  39.4386885  28.7872550  81.8172429  39.3799431  28.1031770  81.1503012
  39.8406404  29.5291540  81.3653055  30.1629040  18.8370415  80.7161489
  29.6266397  18.3861153  81.3683085  29.5745749  18.9716323  79.9731953
  28.4577584  35.6034464  74.6106148  28.6974182  36.2352988  75.2885166
  27.6146780  35.2522504  74.8971507  29.5731299  18.2959066  63.2787953
  28.6960766  18.1747867  62.9150199  30.0489052  17.5045144  63.0266841
  39.4404292  26.7512134  80.0486409  38.5531071  26.4138056  80.1712807
  40.0102843  26.0195165  80.2855174  21.0933440  23.0836226  73.3729460
  21.7804479  22.7697956  72.7850475  20.9381568  23.9877590  73.0996711
  25.8968162  17.9726422  77.8014484  25.8126350  17.3652092  77.0664894
  25.0750868  18.4635441  77.8023980  32.9705446  31.4113586  77.0147652
  32.8975617  32.2168558  77.5266956  32.5282839  31.6105552  76.1895673
  32.7595225  30.6485356  70.5250473  31.9762747  31.1907036  70.6188698
  33.4587971  31.1659336  70.9244714  36.0691876  16.4579986  73.1684679
  36.5660575  15.7049948  72.8485749  35.2978857  16.4944302  72.6027888
  43.9221633  22.1620351  74.8102970  43.9111509  23.0445067  74.4396903
  43.0539012  21.8091902  74.6157507  35.4304129  31.3100420  79.1705810
  36.1432102  31.9447885  79.0981712  34.9394158  31.4064286  78.3545812
  37.1521656  25.2151673  70.7423102  36.2177935  25.3353135  70.5727806
  37.3298325  24.3124140  70.4783112  32.6526844  18.5997369  72.8956363
  32.2824632  18.0468409  73.5837269  33.1485937  17.9955502  72.3431363
  40.5394208  21.0568992  71.2773136  41.0054660  21.8896984  71.2033439
  40.9901708  20.5913974  71.9818395  30.4816043  29.0594864  79.9911381
  31.1825502  29.6931347  80.1440775  30.0111158  29.4009595  79.2307020
  38.6070439  27.4012814  68.2759288  38.8830283  27.2869408  69.1853162
  37.7374937  27.0030298  68.2371461  38.5110870  13.4249579  75.3164038
  37.5973950  13.6553806  75.4846244  38.9403972  13.5088023  76.1678070
  38.2817329  21.6139471  77.8163932  37.6288779  21.8615379  77.1616384
  38.6597709  20.8003609  77.4826409  35.2424503  31.6499164  71.9192102
  35.4246897  30.8320820  72.3819854  36.0657489  31.8666857  71.4816992
  35.5766668  30.5767350  69.1807150  36.1054435  30.0659804  68.5677312
  35.8394888  30.2609880  70.0452683  34.3304902  22.3559282  84.3029969
  33.6545539  22.2553412  84.9732344  35.1532536  22.1998496  84.7665966
  26.0783761  28.5931219  76.9242484  26.6637198  27.8474907  77.0570388
  25.8808599  28.9035176  77.8079148  28.9322416  31.6282466  71.9404926
  28.2632791  32.1128594  71.4568966  28.7935286  31.8751687  72.8548305
  20.6701416  21.1636819  75.6446927  20.7085515  20.6300410  76.4384045
  20.1641708  20.6372025  75.0257904  33.0727685  33.6626210  78.5387585
  33.6245993  33.8257831  79.3036670  33.4133878  34.2530648  77.8667609
  28.0492178  16.0101360  79.1409469  28.1133504  16.8716190  78.7286867
  27.9859298  15.3975361  78.4081828  27.5244450  18.0824492  82.7882504
  28.1516489  17.7001569  83.4020028  26.6672369  17.8638694  83.1538196
  37.9238559  28.4887467  84.3936239  38.4678463  29.1017426  83.8991194
  37.3425404  29.0467046  84.9103252  24.3009993  19.8900921  68.7200858
  24.5963434  18.9811600  68.6667912  23.3998029  19.8688661  68.3981861
  36.2096072  31.6108185  75.5251267  36.0847211  30.8097925  75.0162212
  36.8675163  32.1054379  75.0365237  27.8304240  17.9656918  74.7028407
  27.1090826  18.5792885  74.5635880  28.6197496  18.5014683  74.6245053
  38.2730980  29.4117205  77.1530817  37.3261316  29.2922557  77.0809144
  38.6213754  28.5239703  77.2357078  30.6330554  15.3011344  80.9769059
  31.1564956  15.5473641  81.7395368  30.4142887  16.1331379  80.5572196
  26.0297835  17.5715019  68.8440184  25.7010541  16.6912398  68.6615289
  26.3837206  17.5162688  69.7316573  35.2777414  29.2069922  73.3535169
  35.1302376  28.2786629  73.5342739  36.1030907  29.2290012  72.8692244
  29.1439658  17.8587989  69.2115661  29.4835730  18.3873910  68.4894270
  29.5911778  18.1968395  69.9874228  38.8811536  30.0298480  74.4400042
  39.8058083  29.8241342  74.3024493  38.7126839  29.7814881  75.3489383
  31.8383099  16.2425039  78.6618729  31.4979919  15.4432852  79.0639409
  31.1322105  16.5426750  78.0895562  32.4899571  13.3274352  77.1146052
  33.3125640  12.8534830  76.9924943  32.7337634  14.1064836  77.6144739
  31.1307805  16.3562610  67.4108954  31.8516168  16.7343863  66.9072671
  30.5073109  17.0751487  67.5143932  35.2738928  17.0607759  68.3467286
  35.4902542  17.9432397  68.0456115  34.7932995  16.6693973  67.6172928
  30.0138149  20.0193472  74.9238031  29.8682730  20.3333775  75.8162312
  29.5363353  20.6378373  74.3708930  31.8734532  17.0096020  74.9718920
  31.8596101  16.1137114  74.6351218  32.5906960  17.0166684  75.6057207
  33.7260663  17.4433361  77.0172048  33.4678441  18.3650431  77.0156378
  33.1945703  17.0463795  77.7072512  38.6706852  30.5484148  69.7962133
  38.8443729  29.9830570  69.0435986  39.1635743  31.3485043  69.6141623
  24.4883812  22.5598817  77.8625692  23.9437280  23.3358625  77.9945966
  25.3663161  22.9069621  77.7044814  31.2771428  15.8910401  70.2406491
  31.3987339  14.9627047  70.4397378  30.9873471  15.9049087  69.3284806
  34.1462619  13.5765311  73.3773210  34.1684315  13.6404644  72.4225190
  34.5630678  12.7369820  73.5713717  44.5246243  23.3120571  71.4152433
  44.9677389  22.5627896  71.0171556  43.6472753  23.3030707  71.0326165
  39.6582024  29.8650912  66.8959032  40.3532929  30.4857605  67.1146346
  40.0005174  29.0146263  67.1711409  25.2749833  21.6868713  80.7555849
  24.5331569  21.8351348  81.3420479  24.9542578  21.9476979  79.8922598
  41.5573447  27.3150618  68.4246362  42.0824771  27.6537890  67.6995682
  41.4695800  26.3797633  68.2409497  33.2193496  31.2284691  80.5536239
  33.5280623  30.9833838  81.4258939  34.0168978  31.4331330  80.0655109
  33.2414108  33.3822601  72.7841616  32.8019098  32.8898980  73.4774472
  33.9922225  32.8395569  72.5433691  25.7206447  29.5734142  72.7866244
  26.5464467  29.2737914  72.4064887  25.3700499  28.8041764  73.2356032
  30.6887980  28.9260610  74.8563917  30.0667990  28.2631315  74.5566145
  31.3592847  28.9521742  74.1737565  23.9215052  27.4920468  73.7455177
  23.0846960  27.0642643  73.5639178  23.8938698  27.6852912  74.6825968
  30.7612508  17.4042398  84.4496423  30.8100663  18.2804521  84.0674193
  31.3035022  16.8619791  83.8768066  41.2467353  27.9483521  83.7297560
  40.4562897  27.9307660  83.1902060  41.0100708  28.4871815  84.4846597
  41.3665228  24.7975988  81.0430289  41.4163233  24.6325995  81.9845812
  41.2579152  23.9303247  80.6528170  30.2501487  27.4764533  68.3322378
  30.3989608  28.1599998  67.6789050  31.0567931  27.4569623  68.8471833
  38.6568991  20.7806916  82.3589596  39.5578854  20.6413381  82.0673593
  38.7316965  20.9461371  83.2987773  32.9911796  18.1573770  81.2042782
  32.1215106  18.4507337  80.9325370  33.2271277  18.7414215  81.9250046
  42.8683425  27.2172929  81.2872310  42.5768234  27.5802910  82.1235771
  42.2555557  26.5039937  81.1085642  44.0679108  24.7825809  73.8074881
  44.9025999  25.2215613  73.9712441  44.2038236  24.3064462  72.9883126
  41.1170614  22.3405544  79.7552368  41.5924735  22.5333190  78.9471220
  40.1936179  22.3964730  79.5095752  28.0054120  23.5029711  69.3383447
  27.7600162  22.5992041  69.5363657  28.1750035  23.5046861  68.3962925
  35.6950830  14.3753387  78.7208202  36.2132774  15.1114414  78.3954691
  35.3405963  14.6817381  79.5554961  27.2749768  19.2358069  66.8369608
  26.5819013  19.3102424  66.1809644  27.0301520  18.4718412  67.3591125
  35.9463424  10.7953670  74.2409099  36.2265178  10.1276859  74.8669525
  36.7314031  10.9882766  73.7283763  33.7496893  29.9712664  65.8034125
  33.1770860  30.5902851  65.3504597  34.3229686  30.5212026  66.3374047
  39.8172283  19.2171304  77.9880674  40.7689705  19.3169402  78.0092898
  39.6475733  18.4249572  78.4978758  37.8386662  16.3026887  78.1740075
  37.2436594  16.5831900  77.4786564  37.5536359  16.7920788  78.9456816
  36.9694152  30.2549814  66.9342707  37.9024826  30.1895376  67.1375583
  36.8817365  31.0906081  66.4757240  39.5982169  29.5715684  63.8946655
  39.5195801  29.2375548  64.7882413  40.4191836  30.0637452  63.8938127
  42.2960360  22.4377424  77.1022974  42.2636680  21.4993424  77.2882657
  42.9060984  22.5161460  76.3688799  34.1343691  21.3073477  63.1450178
  35.0802796  21.1779685  63.2138596  33.7557936  20.5688138  63.6219606
  42.4454849  19.2288467  77.1481257  41.9293897  18.4446924  76.9611186
  43.3294797  18.9007184  77.3127776  40.1065576  12.9729483  73.1077069
  39.9090397  12.6644571  73.9920401  40.7165281  13.6991122  73.2374999
  48.1136910  23.4993430  76.2429010  48.8440299  23.2378719  76.8036714
  47.5043856  22.7622152  76.2831078  46.1952207  21.6401293  76.8403462
  45.4685371  21.5057258  76.2319953  45.7799494  21.9478122  77.6460180
  34.0182384  25.3591223  84.6050835  34.9385393  25.5369822  84.7990881
  33.9831967  24.4147268  84.4530534  32.3186608  19.2323453  63.0805063
  31.4118064  18.9356566  63.1567777  32.5962589  18.9353271  62.2139349
  23.2364549  20.5529816  73.5304109  22.9167333  19.6995125  73.2378483
  22.6897977  20.7678395  74.2862077  27.0144456  23.2692257  77.2473616
  27.2330466  24.2009365  77.2661650  27.4270230  22.9100232  78.0328420
  33.9348674  13.7760343  69.2349304  33.1249402  13.4307428  69.6104550
  34.6233091  13.4667886  69.8236916  35.8639222  12.8538389  70.8573601
  36.4170261  13.2733843  71.5163624  36.1009309  11.9274138  70.8996557
  31.8872322  18.8425463  86.6376365  31.7869048  19.7919820  86.5688456
  31.6693864  18.5143702  85.7652435  31.0885393  16.0910388  63.2217042
  31.9504557  16.4165287  63.4812859  31.2735737  15.3041884  62.7090108
  23.1052809  24.1732728  75.4997231  22.4116280  23.7586681  74.9867185
  23.8525800  24.2153264  74.9030650  39.2418029  14.9638915  70.3652265
  38.6616699  15.6223719  69.9830318  38.9753962  14.1416259  69.9539683
  37.6921596  14.3643972  72.5673585  38.1921374  14.4760507  71.7587904
  38.3357204  14.0605025  73.2074394  31.7503592  22.2722602  85.4541426
  31.2670673  23.0722962  85.6605315  31.8364531  22.2830547  84.5008870
  25.0189551  24.1050982  73.3763246  24.9960239  24.2038669  72.4245129
  25.3290188  24.9516132  73.6980412  27.6776929  26.1627137  77.4909860
  28.6320183  26.1311079  77.4239792  27.4789453  25.7017760  78.3060086
  28.2676311  24.7328253  80.0580658  29.0869200  25.2272331  80.0815495
  28.5413119  23.8160221  80.0298225  38.0242907  17.1239005  69.4208613
  37.1368762  17.4088656  69.2028808  38.4396897  16.9632768  68.5735890
  41.3757444  17.1485526  73.1362953  42.1517834  17.6381978  73.4087569
  40.6505578  17.5743580  73.5934822  43.8130002  17.8613145  74.1936893
  44.4074493  17.6208881  73.4830201  43.8856586  17.1420276  74.8210430
  26.0327158  31.7046756  74.5080058  25.8981626  30.9447157  73.9418056
  25.6159220  32.4287656  74.0408847  37.1686121  26.8883680  63.5156633
  37.8721971  27.0933682  64.1314289  36.4448770  27.4560442  63.7805717
  37.9983931  22.6393541  69.6358904  37.9419133  23.0962092  68.7966536
  38.5512274  21.8784226  69.4581746  41.8088737  18.4283273  70.4609023
  41.5525671  18.0279908  71.2917231  41.1841605  19.1427067  70.3359162
  46.1201075  21.1679346  72.9680314  45.5600633  21.2372535  73.7411876
  45.5144578  20.9920331  72.2479811  29.1896284  32.6016073  74.7198501
  29.0728668  33.5461506  74.6177191  28.3688730  32.2989635  75.1084300
  39.0772818  27.3266209  65.5655093  39.9118422  26.8947407  65.3832568
  38.9157161  27.1548223  66.4931988  38.7318711  23.8298322  66.9311433
  38.6767514  23.6642594  65.9899877  38.1064766  24.5374355  67.0873622
  23.5211226  19.0666387  80.7572855  24.1670089  18.5565341  81.2460080
  23.3128377  19.8035068  81.3316280  36.0464618  26.1347234  86.2564995
  36.9155777  26.3087886  85.8951630  35.5671369  26.9541651  86.1340725
  32.0414836  13.3306431  66.5096751  32.0293506  14.2748271  66.6665022
  32.9338258  13.1476577  66.2156212  30.2150798  33.2544335  77.9354429
  31.1178045  33.2867945  78.2520924  29.9888168  32.3244786  77.9500765
  31.9704400  32.0075322  74.5964508  31.0200031  32.0077183  74.4828880
  32.2736886  31.2608056  74.0800542  35.8566955   9.9249208  70.7642688
  35.0899351   9.3707695  70.9099370  36.2677660   9.9971077  71.6256840
  27.8608717  16.2134004  84.8547869  28.7240178  15.8570809  85.0651194
  27.2874127  15.8747898  85.5423273  47.7057093  37.8435860  75.6610270
  48.3435503  37.7242607  74.9573610  47.5877936  38.7916704  75.7198222
  44.5146800  37.7963288  75.5971795  44.1765311  37.6804353  74.7092330
  45.3836568  37.3954453  75.5772801  40.3733615  39.6498765  71.5868686
  39.8098481  39.5588701  70.8184974  40.2586010  38.8298669  72.0671178
  44.9966583  38.9498140  81.5558000  44.9855223  38.5550938  80.6838504
  45.1587222  38.2164212  82.1491772  37.9198047  41.1449956  74.4252906
  38.7119339  40.8040781  74.0099206  38.1594698  41.2544931  75.3455060
  39.8788801  40.4058869  67.2970285  40.6519677  39.8587856  67.1583161
  40.2314200  41.2703119  67.5084746  41.7173844  41.7335252  80.5037184
  41.4263710  42.6380882  80.3883851  42.3530828  41.7751779  81.2181254
  42.6430051  39.1112100  77.0938544  43.2393623  38.8868123  76.3795507
  42.7005022  38.3696846  77.6963992  42.2155079  36.5651536  64.9288735
  42.4680600  36.0433057  64.1672198  41.2779638  36.4017681  65.0315419
  47.2598362  35.5687314  72.7363478  48.0461451  35.1506737  72.3853895
  47.5237066  36.4733406  72.9045127  52.6606789  35.5062547  73.6396457
  53.3931961  34.9361764  73.8734286  51.9046145  35.1184148  74.0802962
  41.9351368  38.4679641  67.1313110  41.8187626  37.7924545  67.7994194
  42.0453628  37.9812015  66.3145263  44.2782909  37.9289789  70.8359799
  43.9141116  37.4020410  71.5472721  45.1350025  37.5388258  70.6626285
  50.1832209  29.2184121  78.0991065  49.8515534  30.0879532  77.8752280
  49.5877823  28.9020405  78.7785096  43.9188396  32.9579688  65.8321148
  44.0862798  33.8259925  66.1991619  43.7285565  33.1206970  64.9082437
  46.6763729  41.4196667  77.4986978  46.3764452  42.3221706  77.3902785
  46.3314788  41.1528850  78.3508131  40.1276210  37.8710464  73.5323682
  39.2026707  37.7386678  73.7401374  40.3760624  38.6504683  74.0293625
  50.0760873  33.9379207  75.1784415  49.1677750  33.8694616  74.8843176
  50.0248469  34.4151152  76.0066241  43.8977617  35.4137346  66.8167814
  43.7777242  35.8594397  67.6553295  43.2030205  35.7622663  66.2581353
  37.4885021  37.5143738  74.3667472  37.6177403  37.7678216  75.2806883
  36.8082473  38.1071446  74.0472127  44.1501738  35.3568853  83.1219313
  43.3735073  35.9162773  83.1122177  44.7892302  35.8425636  83.6434183
  51.9422519  32.1395646  76.9562289  51.2996899  32.4328179  76.3102084
  51.4377448  32.0248566  77.7615486  49.5962683  35.8858819  67.6448149
  50.5080539  36.1186206  67.4695846  49.0872330  36.4695863  67.0823227
  42.4048111  38.1654306  82.6837280  43.1462795  38.7039350  82.4072103
  41.6985096  38.7920595  82.8408831  47.8803450  40.3083447  81.2809441
  48.2886806  39.8665857  80.5364073  47.1580712  39.7336074  81.5343634
  44.2334520  35.2456054  78.6542998  45.0795716  35.6695467  78.7977647
  44.1733158  34.5889678  79.3481561  48.2032265  40.8684637  75.0361730
  47.5741128  41.0330352  74.3337798  47.8157927  41.2826247  75.8072694
  52.0821497  41.8039075  72.3906094  51.3972535  42.1837977  71.8403127
  52.1665346  42.4134402  73.1238042  47.3833966  32.9060422  80.3124172
  47.1394898  33.6602482  79.7758447  47.6593896  33.2845769  81.1471419
  49.3372429  39.4499034  78.9901437  49.5489324  40.0930794  78.3135818
  49.2902177  38.6161351  78.5223367  46.9398658  32.0616855  75.8938009
  46.0783137  32.3598108  76.1854747  46.9661092  32.2787254  74.9619042
  43.7560227  40.6059045  72.3011815  44.2198573  40.8846748  71.5116438
  43.4917025  39.7042490  72.1184906  40.6484308  40.1530527  75.2391578
  41.2185665  40.5817795  74.6009063  41.2392420  39.8713112  75.9375764
  42.6929113  36.7282198  69.1101380  43.3953156  37.1803242  69.5775307
  42.3609742  36.0866017  69.7381273  41.1409475  35.3193954  83.4852590
  40.5108135  36.0010235  83.7187986  41.0345562  35.2077036  82.5405728
  36.4354447  34.9865751  74.4118514  35.6453501  35.2423279  73.9358624
  36.9265694  35.8014088  74.5170554  50.4518257  42.3270990  77.1623795
  51.2735700  41.9251177  76.8806476  50.4480659  42.2239224  78.1139910
  38.3869192  35.3510330  71.3701991  37.5900356  35.4629024  71.8885486
  38.1594785  35.6896982  70.5042881  44.2174860  41.8755033  79.3184505
  44.2819293  42.3375440  80.1542677  43.5085784  41.2452398  79.4466815
  34.7192150  35.2396241  76.8433505  34.9700188  36.1243251  77.1091081
  35.2551698  35.0600842  76.0708596  58.5424250  38.6709738  73.5108766
  57.7887958  38.1017136  73.3552771  58.6771791  38.6372403  74.4579401
  40.4190217  29.6214720  85.8477841  40.0257163  29.0680919  86.5225485
  41.2356358  29.9325299  86.2384358  37.3852275  41.0598579  69.7591411
  37.8976796  41.8541829  69.9096975  38.0374988  40.3624869  69.6925012
  39.1947160  44.1764335  71.8414164  39.3713788  45.0982299  71.6535148
  39.9903993  43.8622754  72.2708544  43.3358178  31.0372599  83.4398097
  44.0767892  31.6379753  83.3602560  43.5676101  30.2950237  82.8816140
  38.4799516  36.2228967  81.7176327  38.3653031  35.3214224  82.0183426
  37.6244034  36.4692663  81.3661143  45.5591354  44.1646707  83.3163828
  45.1155208  43.3783086  82.9984732  46.2208568  44.3525857  82.6507718
  40.3178475  45.6942509  77.8424506  40.8685900  45.5659572  77.0701500
  39.4789951  45.9937398  77.4919399  47.6572592  44.4449507  81.3445229
  47.6391067  45.2658388  80.8525498  48.5792512  44.3203582  81.5695370
  44.1145646  41.9593636  82.1868737  44.6473983  41.1981925  81.9568045
  43.5859727  41.6667288  82.9292892  47.2815341  27.0653702  77.7162379
  46.9379611  27.9555344  77.6401490  47.6494304  26.8755360  76.8531964
  35.3501192  39.3887233  70.5350981  36.1876414  39.7984241  70.3184689
  35.5279460  38.4486675  70.5051175  44.8312735  31.9012014  71.2820052
  43.9754331  31.5118865  71.1025691  45.2439687  31.9803975  70.4219838
  46.3611882  29.4358358  75.6811612  45.8576677  29.3988493  74.8679417
  46.6542488  30.3451100  75.7408269  42.6054767  29.5197087  74.6877794
  43.4707764  29.3239896  74.3283683  42.6732276  29.2907439  75.6147151
  47.0351927  34.9289406  68.0494595  46.7302063  35.2435555  68.9004738
  47.9882369  35.0070825  68.0921928  50.4591205  39.2828649  74.8154596
  49.8014879  39.9727911  74.9034724  51.2631604  39.6725081  75.1588582
  40.2117087  31.7499295  72.0594161  40.7860838  31.5274477  71.3267354
  40.7988069  31.8187990  72.8122762  49.2696664  37.6373022  72.8658537
  49.7828546  38.2703014  73.3680247  49.9197888  37.0374218  72.5001897
  40.5386674  33.7803756  66.0790046  39.7023986  34.1178443  66.3999321
  40.3991443  33.6452736  65.1417183  42.5139754  28.6240544  70.7869230
  41.8604167  28.3089561  70.1625845  42.4720228  28.0016285  71.5129053
  45.7477495  35.1122478  75.1116878  44.8300056  35.3337425  74.9538566
  46.1637638  35.1868788  74.2528585  46.5312542  36.5113893  70.2419558
  47.2784361  37.0235290  69.9326680  46.8004132  36.1897946  71.1023952
  48.9791380  33.5471010  72.2238347  48.2414136  33.0348396  72.5548590
  49.2318153  33.1071391  71.4121624  48.4791399  44.4555520  71.9287498
  48.7714374  45.0160577  71.2099864  48.9890020  44.7484081  72.6840657
  49.0803007  26.3247262  72.8180117  49.3861884  25.4644625  72.5306032
  49.8055612  26.9164882  72.6179111  35.3727363  36.7277948  71.2061715
  35.1751763  36.1347309  70.4812781  34.8174027  36.4230158  71.9237653
  43.3524087  36.6201055  73.3256308  43.4072696  35.6674891  73.2498784
  42.5415289  36.7760494  73.8097606  41.2916447  35.2378114  71.0846687
  40.4784312  35.5372285  71.4911879  41.7875441  34.8433803  71.8021169
  46.8890658  35.7019939  79.9161580  47.2440046  35.9291412  80.7756046
  47.5362789  36.0338316  79.2938836  52.6188395  38.8238375  70.6210909
  52.4806294  39.0139971  69.6932099  52.2624614  39.5857758  71.0778961
  40.7830521  32.8096470  76.7007921  41.4229901  32.6685229  76.0030885
  39.9508052  32.5230983  76.3246523  52.6457775  40.8914902  75.6322181
  53.0794281  40.7990191  76.4805235  53.3589355  40.8672402  74.9942197
  41.5590825  42.1098900  72.8142914  42.3531424  41.6149220  72.6125489
  40.8482518  41.5816763  72.4510620  37.8673589  36.2541982  68.8902667
  36.9371177  36.1926438  69.1072629  37.9631061  35.7317935  68.0939308
  37.7859138  32.7796795  71.4780908  38.0465955  33.6942128  71.3690069
  38.6076310  32.3121237  71.6277521  39.2584063  34.1934552  78.6479733
  39.9307116  33.9851914  77.9992382  38.4313850  33.9956638  78.2084965
  53.5073324  40.9338602  78.1655066  53.7009214  41.8384413  78.4114341
  53.4073942  40.4746021  78.9993651  45.1609635  30.8196493  80.6645394
  44.5137550  31.5186443  80.5709870  45.9310650  31.2532637  81.0321642
  48.5688433  41.0845345  83.7395947  48.4173939  40.8555897  82.8226031
  48.5593112  42.0415947  83.7527292  45.3373769  38.6577258  78.7242213
  46.2665829  38.8088417  78.5511181  44.9164799  38.7461279  77.8690860
  39.6611560  37.4677155  79.4082170  39.5231358  36.7357394  80.0093709
  40.5716484  37.3786055  79.1266358  42.2893861  37.1797114  78.8965850
  42.9993479  36.5390307  78.8552468  42.2463169  37.4310009  79.8192030
  50.2780640  44.1164468  81.8172429  50.2193186  43.4323688  81.1503012
  50.6800158  44.8583458  81.3653055  41.0022795  34.1662332  80.7161489
  40.4660152  33.7153071  81.3683085  40.4139503  34.3008241  79.9731953
  40.4125054  33.6250984  63.2787953  39.5354520  33.5039784  62.9150199
  40.8882807  32.8337062  63.0266841  50.2798047  42.0804052  80.0486409
  49.3924826  41.7429973  80.1712807  50.8496598  41.3487083  80.2855174
  31.9327194  38.4128143  73.3729460  32.6198234  38.0989873  72.7850475
  31.7775323  39.3169508  73.0996711  36.7361916  33.3018340  77.8014484
  36.6520105  32.6944009  77.0664894  35.9144623  33.7927358  77.8023980
  46.9085630  31.7871903  73.1684679  47.4054330  31.0341866  72.8485749
  46.1372612  31.8236220  72.6027888  54.7615387  37.4912269  74.8102970
  54.7505264  38.3736984  74.4396903  53.8932767  37.1383820  74.6157507
  43.4920599  33.9289286  72.8956363  43.1218386  33.3760327  73.5837269
  43.9879691  33.3247420  72.3431363  51.3787962  36.3860910  71.2773136
  51.8448414  37.2188902  71.2033439  51.8295463  35.9205892  71.9818395
  41.3209797  44.3886781  79.9911381  42.0219257  45.0223264  80.1440775
  40.8504912  44.7301513  79.2307020  49.3504625  28.7541497  75.3164038
  48.4367705  28.9845724  75.4846244  49.7797726  28.8379941  76.1678070
  49.1211083  36.9431389  77.8163932  48.4682534  37.1907296  77.1616384
  49.4991463  36.1295527  77.4826409  45.1698656  37.6851200  84.3029969
  44.4939293  37.5845329  84.9732344  45.9926290  37.5290414  84.7665966
  36.9177515  43.9223136  76.9242484  37.5030952  43.1766824  77.0570388
  36.7202354  44.2327093  77.8079148  31.5095170  36.4928737  75.6446927
  31.5479270  35.9592327  76.4384045  31.0035463  35.9663942  75.0257904
  38.8885932  31.3393277  79.1409469  38.9527259  32.2008108  78.7286867
  38.8253053  30.7267279  78.4081828  38.3638205  33.4116410  82.7882504
  38.9910244  33.0293487  83.4020028  37.5066124  33.1930612  83.1538196
  48.7632314  43.8179385  84.3936239  49.3072218  44.4309343  83.8991194
  48.1819158  44.3758963  84.9103252  35.1403748  35.2192839  68.7200858
  35.4357189  34.3103517  68.6667912  34.2391784  35.1980578  68.3981861
  38.6697995  33.2948835  74.7028407  37.9484580  33.9084803  74.5635880
  39.4591251  33.8306600  74.6245053  49.1124735  44.7409123  77.1530817
  48.1655070  44.6214474  77.0809144  49.4607508  43.8531621  77.2357078
  41.4724308  30.6303262  80.9769059  41.9958710  30.8765558  81.7395368
  41.2536642  31.4623297  80.5572196  36.8691589  32.9006937  68.8440184
  36.5404295  32.0204315  68.6615289  37.2230960  32.8454605  69.7316573
  39.9833412  33.1879906  69.2115661  40.3229485  33.7165828  68.4894270
  40.4305533  33.5260312  69.9874228  49.7205290  45.3590398  74.4400042
  50.6451838  45.1533259  74.3024493  49.5520593  45.1106799  75.3489383
  42.6776853  31.5716957  78.6618729  42.3373674  30.7724770  79.0639409
  41.9715860  31.8718668  78.0895562  43.3293325  28.6566269  77.1146052
  44.1519394  28.1826748  76.9924943  43.5731389  29.4356753  77.6144739
  41.9701560  31.6854528  67.4108954  42.6909922  32.0635781  66.9072671
  41.3466864  32.4043405  67.5143932  46.1132683  32.3899677  68.3467286
  46.3296297  33.2724315  68.0456115  45.6326750  31.9985890  67.6172928
  40.8531904  35.3485390  74.9238031  40.7076485  35.6625693  75.8162312
  40.3757108  35.9670290  74.3708930  42.7128287  32.3387938  74.9718920
  42.6989856  31.4429031  74.6351218  43.4300715  32.3458602  75.6057207
  44.5654417  32.7725278  77.0172048  44.3072195  33.6942349  77.0156378
  44.0339458  32.3755713  77.7072512  35.3277566  37.8890734  77.8625692
  34.7831034  38.6650542  77.9945966  36.2056916  38.2361539  77.7044814
  42.1165183  31.2202318  70.2406491  42.2381094  30.2918965  70.4397378
  41.8267225  31.2341004  69.3284806  44.9856373  28.9057229  73.3773210
  45.0078070  28.9696562  72.4225190  45.4024432  28.0661737  73.5713717
  55.3639997  38.6412488  71.4152433  55.8071143  37.8919814  71.0171556
  54.4866508  38.6322625  71.0326165  36.1143588  37.0160631  80.7555849
  35.3725324  37.1643266  81.3420479  35.7936332  37.2768896  79.8922598
  44.0587251  46.5576609  80.5536239  44.3674377  46.3125756  81.4258939
  44.8562733  46.7623247  80.0655109  36.5600202  44.9026059  72.7866244
  37.3858222  44.6029831  72.4064887  36.2094254  44.1333682  73.2356032
  34.7608807  42.8212386  73.7455177  33.9240715  42.3934560  73.5639178
  34.7332452  43.0144829  74.6825968  41.6006262  32.7334316  84.4496423
  41.6494418  33.6096439  84.0674193  42.1428776  32.1911709  83.8768066
  52.0861108  43.2775439  83.7297560  51.2956652  43.2599578  83.1902060
  51.8494462  43.8163733  84.4846597  52.2058983  40.1267905  81.0430289
  52.2556988  39.9617913  81.9845812  52.0972906  39.2595164  80.6528170
  41.0895242  42.8056451  68.3322378  41.2383362  43.4891915  67.6789050
  41.8961685  42.7861541  68.8471833  49.4962745  36.1098833  82.3589596
  50.3972608  35.9705298  82.0673593  49.5710720  36.2753288  83.2987773
  43.8305551  33.4865688  81.2042782  42.9608860  33.7799254  80.9325370
  44.0665031  34.0706133  81.9250046  53.7077180  42.5464847  81.2872310
  53.4161988  42.9094827  82.1235771  53.0949311  41.8331855  81.1085642
  54.9072862  40.1117727  73.8074881  55.7419754  40.5507531  73.9712441
  55.0431991  39.6356380  72.9883126  51.9564368  37.6697462  79.7552368
  52.4318490  37.8625108  78.9471220  51.0329933  37.7256647  79.5095752
  38.8447875  38.8321629  69.3383447  38.5993917  37.9283959  69.5363657
  39.0143789  38.8338779  68.3962925  46.5344585  29.7045305  78.7208202
  47.0526528  30.4406332  78.3954691  46.1799717  30.0109298  79.5554961
  38.1143522  34.5649986  66.8369608  37.4212767  34.6394341  66.1809644
  37.8695274  33.8010330  67.3591125  46.7857179  26.1245588  74.2409099
  47.0658932  25.4568777  74.8669525  47.5707786  26.3174683  73.7283763
  50.6566037  34.5463222  77.9880674  51.6083460  34.6461319  78.0092898
  50.4869487  33.7541490  78.4978758  48.6780417  31.6318805  78.1740075
  48.0830349  31.9123818  77.4786564  48.3930113  32.1212706  78.9456816
  53.1354115  37.7669341  77.1022974  53.1030435  36.8285342  77.2882657
  53.7454738  37.8453378  76.3688799  44.9737446  36.6365394  63.1450178
  45.9196550  36.5071602  63.2138596  44.5951691  35.8980056  63.6219606
  53.2848603  34.5580385  77.1481257  52.7687652  33.7738841  76.9611186
  54.1688552  34.2299101  77.3127776  50.9459330  28.3021400  73.1077069
  50.7484151  27.9936488  73.9920401  51.5559036  29.0283039  73.2374999
  58.9530665  38.8285348  76.2429010  59.6834053  38.5670636  76.8036714
  58.3437610  38.0914070  76.2831078  57.0345962  36.9693211  76.8403462
  56.3079125  36.8349176  76.2319953  56.6193249  37.2770039  77.6460180
  44.8576138  40.6883140  84.6050835  45.7779148  40.8661739  84.7990881
  44.8225721  39.7439186  84.4530534  43.1580363  34.5615371  63.0805063
  42.2511818  34.2648483  63.1567777  43.4356344  34.2645189  62.2139349
  34.0758303  35.8821734  73.5304109  33.7561088  35.0287042  73.2378483
  33.5291731  36.0970312  74.2862077  37.8538211  38.5984175  77.2473616
  38.0724221  39.5301283  77.2661650  38.2663985  38.2392149  78.0328420
  44.7742429  29.1052260  69.2349304  43.9643157  28.7599345  69.6104550
  45.4626845  28.7959804  69.8236916  46.7032977  28.1830307  70.8573601
  47.2564015  28.6025761  71.5163624  46.9403063  27.2566055  70.8996557
  42.7266076  34.1717381  86.6376365  42.6262803  35.1211738  86.5688456
  42.5087618  33.8435620  85.7652435  41.9279147  31.4202306  63.2217042
  42.7898311  31.7457204  63.4812859  42.1129492  30.6333802  62.7090108
  33.9446563  39.5024646  75.4997231  33.2510035  39.0878598  74.9867185
  34.6919554  39.5445182  74.9030650  50.0811784  30.2930832  70.3652265
  49.5010453  30.9515636  69.9830318  49.8147717  29.4708177  69.9539683
  48.5315350  29.6935890  72.5673585  49.0315129  29.8052425  71.7587904
  49.1750958  29.3896943  73.2074394  42.5897346  37.6014520  85.4541426
  42.1064428  38.4014880  85.6605315  42.6758285  37.6122465  84.5008870
  35.8583306  39.4342899  73.3763246  35.8353994  39.5330587  72.4245129
  36.1683942  40.2808050  73.6980412  38.5170684  41.4919054  77.4909860
  39.4713937  41.4602997  77.4239792  38.3183207  41.0309678  78.3060086
  39.1070066  40.0620170  80.0580658  39.9262955  40.5564249  80.0815495
  39.3806873  39.1452139  80.0298225  48.8636662  32.4530923  69.4208613
  47.9762517  32.7380573  69.2028808  49.2790651  32.2924686  68.5735890
  52.2151198  32.4777444  73.1362953  52.9911588  32.9673896  73.4087569
  51.4899332  32.9035498  73.5934822  54.6523757  33.1905063  74.1936893
  55.2468248  32.9500799  73.4830201  54.7250340  32.4712193  74.8210430
  36.8720912  47.0338674  74.5080058  36.7375380  46.2739075  73.9418056
  36.4552975  47.7579574  74.0408847  48.8377686  37.9685459  69.6358904
  48.7812887  38.4254010  68.7966536  49.3906028  37.2076143  69.4581746
  52.6482492  33.7575191  70.4609023  52.3919426  33.3571826  71.2917231
  52.0235360  34.4718984  70.3359162  56.9594829  36.4971264  72.9680314
  56.3994387  36.5664453  73.7411876  56.3538333  36.3212248  72.2479811
  34.3604980  34.3958304  80.7572855  35.0063844  33.8857258  81.2460080
  34.1522131  35.1326986  81.3316280  46.8858372  41.4639152  86.2564995
  47.7549532  41.6379804  85.8951630  46.4065124  42.2833569  86.1340725
  42.8808590  28.6598349  66.5096751  42.8687260  29.6040189  66.6665022
  43.7732012  28.4768494  66.2156212  46.6960710  25.2541126  70.7642688
  45.9293106  24.6999612  70.9099370  47.1071415  25.3262994  71.6256840
  38.7002471  31.5425921  84.8547869  39.5633933  31.1862726  85.0651194
  38.1267882  31.2039816  85.5423273  63.5000544  50.8354465  73.6396457
  64.2325715  50.2653682  73.8734286  62.7439899  50.4476065  74.0802962
  61.0225964  44.5476039  78.0991065  60.6909289  45.4171450  77.8752280
  60.4271577  44.2312323  78.7785096  57.5157483  56.7488585  77.4986978
  57.2158207  57.6513624  77.3902785  57.1708543  56.4820768  78.3508131
  60.9154627  49.2671125  75.1784415  60.0071505  49.1986533  74.8843176
  60.8642223  49.7443070  76.0066241  48.3278776  52.8435655  74.3667472
  48.4571157  53.0970134  75.2806883  47.6476227  53.4363363  74.0472127
  62.7816274  47.4687563  76.9562289  62.1390654  47.7620097  76.3102084
  62.2771202  47.3540484  77.7615486  58.7197205  55.6375364  81.2809441
  59.1280561  55.1957775  80.5364073  57.9974466  55.0627992  81.5343634
  59.0426020  56.1976555  75.0361730  58.4134882  56.3622269  74.3337798
  58.6551682  56.6118165  75.8072694  58.2227720  48.2352340  80.3124172
  57.9788652  48.9894400  79.7758447  58.4987651  48.6137687  81.1471419
  60.1766183  54.7790952  78.9901437  60.3883078  55.4222712  78.3135818
  60.1295931  53.9453268  78.5223367  57.7792412  47.3908773  75.8938009
  56.9176891  47.6890026  76.1854747  57.8054847  47.6079171  74.9619042
  61.2912011  57.6562907  77.1623795  62.1129455  57.2543095  76.8806476
  61.2874414  57.5531142  78.1139910  51.2583972  44.9506638  85.8477841
  50.8650917  44.3972837  86.5225485  52.0750112  45.2617216  86.2384358
  54.1751933  46.3664517  83.4398097  54.9161646  46.9671670  83.3602560
  54.4069856  45.6242155  82.8816140  58.4966347  59.7741425  81.3445229
  58.4784822  60.5950306  80.8525498  59.4186267  59.6495500  81.5695370
  58.1209096  42.3945620  77.7162379  57.7773365  43.2847262  77.6401490
  58.4888058  42.2047278  76.8531964  57.2005636  44.7650275  75.6811612
  56.6970432  44.7280410  74.8679417  57.4936243  45.6743018  75.7408269
  53.4448522  44.8489005  74.6877794  54.3101519  44.6531814  74.3283683
  53.5126031  44.6199357  75.6147151  61.2984959  54.6120567  74.8154596
  60.6408634  55.3019828  74.9034724  62.1025359  55.0016999  75.1588582
  59.9196761  41.6539179  72.8180117  60.2255638  40.7936543  72.5306032
  60.6449366  42.2456799  72.6179111  57.7284413  51.0311856  79.9161580
  58.0833800  51.2583330  80.7756046  58.3756544  51.3630233  79.2938836
  51.6224276  48.1388388  76.7007921  52.2623655  47.9977147  76.0030885
  50.7901806  47.8522901  76.3246523  63.4851529  56.2206819  75.6322181
  63.9188036  56.1282108  76.4805235  64.1983110  56.1964320  74.9942197
  57.2179424  59.8208913  77.1655282  57.2716446  60.3899850  77.9332997
  56.3494206  59.9910799  76.8009319  64.3467079  56.2630520  78.1655066
  64.5402969  57.1676331  78.4114341  64.2467697  55.8037939  78.9993651
  56.0003390  46.1488411  80.6645394  55.3531305  46.8478360  80.5709870
  56.7704405  46.5824555  81.0321642  59.4082187  56.4137263  83.7395947
  59.2567694  56.1847814  82.8226031  59.3986867  57.3707864  83.7527292
  61.1174394  59.4456385  81.8172429  61.0586940  58.7615605  81.1503012
  61.5193913  60.1875375  81.3653055  61.1191801  57.4095969  80.0486409
  60.2318580  57.0721891  80.1712807  61.6890352  56.6779001  80.2855174
  65.6009142  52.8204187  74.8102970  65.5899018  53.7028902  74.4396903
  64.7326521  52.4675737  74.6157507  60.1898379  44.0833415  75.3164038
  59.2761459  44.3137641  75.4846244  60.6191481  44.1671859  76.1678070
  59.9604838  52.2723307  77.8163932  59.3076288  52.5199214  77.1616384
  60.3385218  51.4587445  77.4826409  59.6026068  59.1471303  84.3936239
  60.1465972  59.7601261  83.8991194  59.0212913  59.7050881  84.9103252
  52.3118063  45.9595180  80.9769059  52.8352465  46.2057476  81.7395368
  52.0930396  46.7915214  80.5572196  53.5170608  46.9008875  78.6618729
  53.1767428  46.1016688  79.0639409  52.8109614  47.2010586  78.0895562
  54.1687080  43.9858187  77.1146052  54.9913149  43.5118665  76.9924943
  54.4125143  44.7648671  77.6144739  55.4048172  48.1017196  77.0172048
  55.1465950  49.0234267  77.0156378  54.8733212  47.7047631  77.7072512
  52.4400017  48.0626233  84.4496423  52.4888172  48.9388356  84.0674193
  52.9822531  47.5203626  83.8768066  62.9254862  58.6067357  83.7297560
  62.1350406  58.5891496  83.1902060  62.6888217  59.1455650  84.4846597
  63.0452737  55.4559823  81.0430289  63.0950742  55.2909830  81.9845812
  62.9366661  54.5887082  80.6528170  60.3356500  51.4390751  82.3589596
  61.2366363  51.2997216  82.0673593  60.4104474  51.6045206  83.2987773
  54.6699305  48.8157606  81.2042782  53.8002615  49.1091172  80.9325370
  54.9058786  49.3998051  81.9250046  64.5470934  57.8756765  81.2872310
  64.2555743  58.2386745  82.1235771  63.9343066  57.1623773  81.1085642
  65.7466617  55.4409644  73.8074881  66.5813508  55.8799448  73.9712441
  65.8825745  54.9648298  72.9883126  62.7958123  52.9989379  79.7552368
  63.2712244  53.1917025  78.9471220  61.8723688  53.0548565  79.5095752
  57.3738339  45.0337223  78.7208202  57.8920283  45.7698250  78.3954691
  57.0193472  45.3401216  79.5554961  57.6250933  41.4537505  74.2409099
  57.9052687  40.7860694  74.8669525  58.4101540  41.6466601  73.7283763
  61.4959792  49.8755139  77.9880674  62.4477214  49.9753237  78.0092898
  61.3263242  49.0833408  78.4978758  59.5174171  46.9610722  78.1740075
  58.9224103  47.2415735  77.4786564  59.2323868  47.4504623  78.9456816
  63.9747869  53.0961259  77.1022974  63.9424189  52.1577260  77.2882657
  64.5848493  53.1745296  76.3688799  64.1242358  49.8872302  77.1481257
  63.6081406  49.1030759  76.9611186  65.0082306  49.5591019  77.3127776
  61.7853085  43.6313318  73.1077069  61.5877906  43.3228406  73.9920401
  62.3952790  44.3574957  73.2374999  69.7924419  54.1577266  76.2429010
  70.5227808  53.8962554  76.8036714  69.1831365  53.4205988  76.2831078
  67.8739716  52.2985128  76.8403462  67.1472880  52.1641093  76.2319953
  67.4587003  52.6061957  77.6460180  53.5659831  49.5009298  86.6376365
  53.4656557  50.4503655  86.5688456  53.3481373  49.1727537  85.7652435
  63.0544953  47.8069361  73.1362953  63.8305343  48.2965814  73.4087569
  62.3293087  48.2327416  73.5934822  65.4917511  48.5196981  74.1936893
  66.0862002  48.2792717  73.4830201  65.5644095  47.8004111  74.8210430
  67.7988584  51.8263181  72.9680314  67.2388142  51.8956371  73.7411876
  67.1932087  51.6504166  72.2479811  57.7252127  56.7931069  86.2564995
  58.5943286  56.9671722  85.8951630  57.2458878  57.6125486  86.1340725
  57.5354464  40.5833043  70.7642688  56.7686860  40.0291530  70.9099370
  57.9465169  40.6554912  71.6256840  49.5396225  46.8717839  84.8547869
  50.4027687  46.5154644  85.0651194  48.9661636  46.5331734  85.5423273
  62.8196984  65.9777790  83.4852590  62.1895644  66.6594071  83.7187986
  62.7133071  65.8660871  82.5405728  62.0977726  60.2798556  85.8477841
  61.7044672  59.7264754  86.5225485  62.9143867  60.5909134  86.2384358
  65.0145687  61.6956435  83.4398097  65.7555401  62.2963588  83.3602560
  65.2463610  60.9534073  82.8816140  60.1587025  66.8812802  81.7176327
  60.0440540  65.9798059  82.0183426  59.3031543  67.1276499  81.3661143
  66.8397144  61.4780328  80.6645394  66.1925059  62.1770278  80.5709870
  67.6098159  61.9116472  81.0321642  62.6810304  64.8246168  80.7161489
  62.1447661  64.3736906  81.3683085  62.0927012  64.9592076  79.9731953
  60.5673441  61.9977113  79.1409469  60.6314768  62.8591943  78.7286867
  60.5040562  61.3851114  78.4081828  63.1511817  61.2887097  80.9769059
  63.6746219  61.5349394  81.7395368  62.9324151  62.1207132  80.5572196
  65.0080834  59.3150105  77.1146052  65.8306903  58.8410583  76.9924943
  65.2518898  60.0940589  77.6144739  63.2793771  63.3918151  84.4496423
  63.3281927  64.2680274  84.0674193  63.8216285  62.8495544  83.8768066
  73.7648617  73.9359274  83.7297560  72.9744161  73.9183413  83.1902060
  73.5281971  74.4747568  84.4846597  73.8846492  70.7851741  81.0430289
  73.9344497  70.6201748  81.9845812  73.7760415  69.9179000  80.6528170
  75.3864689  73.2048682  81.2872310  75.0949497  73.5678663  82.1235771
  74.7736820  72.4915691  81.1085642  64.4053585  64.8301216  86.6376365
  64.3050312  65.7795573  86.5688456  64.1875127  64.5019455  85.7652435
  60.3789980  62.2009757  84.8547869  61.2421442  61.8446562  85.0651194
  59.8055391  61.8623652  85.5423273  80.2238357  83.8311613  75.6610270
  80.8616767  83.7118360  74.9573610  80.1059200  84.7792457  75.7198222
  77.0328063  83.7839041  75.5971795  76.6946575  83.6680106  74.7092330
  77.9017831  83.3830206  75.5772801  77.5147846  84.9373893  81.5558000
  77.5036487  84.5426691  80.6838504  77.6768486  84.2039965  82.1491772
  78.4714438  89.3045485  66.8983151  77.8202417  89.8899566  66.5117164
  79.2658800  89.8351680  66.9578188  74.2355107  87.7211005  80.5037184
  73.9444973  88.6256636  80.3883851  74.8712092  87.7627532  81.2181254
  75.1611314  85.0987853  77.0938544  75.7574886  84.8743876  76.3795507
  75.2186286  84.3572599  77.6963992  79.7779625  81.5563067  72.7363478
  80.5642715  81.1382490  72.3853895  80.0418330  82.4609159  72.9045127
  79.9489703  86.9935917  67.4352135  79.3135536  87.0670544  68.1473040
  79.6187109  87.5829516  66.7571214  85.1788053  81.4938300  73.6396457
  85.9113224  80.9237517  73.8734286  84.4227408  81.1059901  74.0802962
  82.7013473  75.2059874  78.0991065  82.3696798  76.0755285  77.8752280
  82.1059086  74.8896158  78.7785096  79.1944992  87.4072420  77.4986978
  78.8945715  88.3097459  77.3902785  78.8496052  87.1404603  78.3508131
  82.5942136  79.9254960  75.1784415  81.6859014  79.8570369  74.8843176
  82.5429732  80.4026905  76.0066241  74.1765772  94.1716741  70.4657946
  74.0989802  95.1224566  70.5446426  73.5727416  93.8262613  71.1232872
  76.6683002  81.3444606  83.1219313  75.8916336  81.9038526  83.1122177
  77.3073565  81.8301389  83.6434183  84.4603783  78.1271399  76.9562289
  83.8178163  78.4203932  76.3102084  83.9558711  78.0124319  77.7615486
  82.1143946  81.8734572  67.6448149  83.0261802  82.1061959  67.4695846
  81.6053593  82.4571616  67.0823227  74.9229374  84.1530059  82.6837280
  75.6644059  84.6915103  82.4072103  74.2166360  84.7796348  82.8408831
  80.3984714  86.2959200  81.2809441  80.8068070  85.8541610  80.5364073
  79.6761975  85.7211827  81.5343634  76.7515784  81.2331807  78.6542998
  77.5976979  81.6571220  78.7977647  76.6914422  80.5765431  79.3481561
  80.7213529  86.8560390  75.0361730  80.0922391  87.0206105  74.3337798
  80.3339191  87.2702000  75.8072694  84.6002760  87.7914828  72.3906094
  83.9153799  88.1713730  71.8403127  84.6846610  88.4010155  73.1238042
  79.9015229  78.8936175  80.3124172  79.6576161  79.6478235  79.7758447
  80.1775160  79.2721523  81.1471419  81.8553692  85.4374787  78.9901437
  82.0670587  86.0806547  78.3135818  81.8083440  84.6037104  78.5223367
  73.6590738  81.3069708  83.4852590  73.0289399  81.9885988  83.7187986
  73.5526826  81.1952789  82.5405728  82.9699520  88.3146743  77.1623795
  83.7916964  87.9126930  76.8806476  82.9661923  88.2114977  78.1139910
  76.7356123  87.8630786  79.3184505  76.8000556  88.3251193  80.1542677
  76.0267047  87.2328151  79.4466815  76.4504141  89.5298893  69.1863485
  76.3149816  90.3750429  69.6148333  76.9913954  89.7318171  68.4229419
  72.9371481  75.6090473  85.8477841  72.5438426  75.0556672  86.5225485
  73.7537621  75.9201052  86.2384358  75.8539442  77.0248352  83.4398097
  76.5949155  77.6255506  83.3602560  76.0857365  76.2825990  82.8816140
  78.0772618  90.1522460  83.3163828  77.6336472  89.3658839  82.9984732
  78.7389831  90.3401611  82.6507718  72.8359739  91.6818262  77.8424506
  73.3867164  91.5535325  77.0701500  71.9971215  91.9813151  77.4919399
  80.1753856  90.4325260  81.3445229  80.1572331  91.2534141  80.8525498
  81.0973776  90.3079335  81.5695370  76.6326910  87.9469389  82.1868737
  77.1655247  87.1857678  81.9568045  76.1040991  87.6543041  82.9292892
  79.7646887  83.0438066  66.2234814  79.2493511  83.8142671  66.4623201
  79.4924196  82.3703203  66.8467875  77.3493998  77.8887767  71.2820052
  76.4935595  77.4994618  71.1025691  77.7620950  77.9679728  70.4219838
  84.7381162  85.7970421  68.1587988  83.9610604  85.4581581  67.7143150
  85.4172643  85.8023044  67.4842953  79.5533191  80.9165159  68.0494595
  79.2483326  81.2311308  68.9004738  80.5063633  80.9946578  68.0921928
  82.9772468  85.2704402  74.8154596  82.3196143  85.9603664  74.9034724
  83.7812868  85.6600834  75.1588582  81.7877927  83.6248775  72.8658537
  82.3009809  84.2578767  73.3680247  82.4379151  83.0249971  72.5001897
  79.0500301  93.6033099  65.6219208  78.3762000  93.9064796  66.2304166
  79.4366123  94.4062180  65.2724665  78.2658758  81.0998231  75.1116878
  77.3481319  81.3213178  74.9538566  78.6818902  81.1744541  74.2528585
  79.0493806  82.4989646  70.2419558  79.7965625  83.0111044  69.9326680
  79.3185395  82.1773699  71.1023952  82.5539723  88.6054777  70.9937680
  82.1002051  87.7645686  71.0502870  81.9233690  89.2416175  71.3312460
  81.4972643  79.5346763  72.2238347  80.7595400  79.0224149  72.5548590
  81.7499417  79.0947144  71.4121624  80.9972663  90.4431273  71.9287498
  81.2895637  91.0036330  71.2099864  81.5071283  90.7359834  72.6840657
  77.0196544  86.5356931  64.5634591  76.5815974  85.8192790  64.1040228
  77.7606985  86.7633046  64.0019682  75.9606288  91.2211624  73.0180951
  75.9182467  91.4472471  72.0889483  76.8768987  90.9874999  73.1666752
  79.4071922  81.6895692  79.9161580  79.7621309  81.9167165  80.7756046
  80.0544053  82.0214069  79.2938836  85.1369659  84.8114128  70.6210909
  84.9987557  85.0015724  69.6932099  84.7805877  85.5733511  71.0778961
  85.1639038  86.8790655  75.6322181  85.5975545  86.7865944  76.4805235
  85.8770619  86.8548155  74.9942197  78.8966933  90.4792749  77.1655282
  78.9503955  91.0483685  77.9332997  78.0281715  90.6494634  76.8009319
  86.0254588  86.9214355  78.1655066  86.2190478  87.8260166  78.4114341
  85.9255206  86.4621774  78.9993651  77.6790899  76.8072246  80.6645394
  77.0318814  77.5062196  80.5709870  78.4491914  77.2408390  81.0321642
  81.0869696  87.0721098  83.7395947  80.9355203  86.8431650  82.8226031
  81.0774376  88.0291700  83.7527292  77.8555033  84.6453011  78.7242213
  78.7847093  84.7964170  78.5511181  77.4346063  84.7337032  77.8690860
  76.6543365  88.6703675  76.4940751  76.5154450  88.3022460  77.3666689
  75.8657961  89.1851315  76.3224709  77.2491517  93.7712772  67.8366288
  77.4243272  93.3000815  68.6511910  76.5624305  94.3978538  68.0647548
  78.2048580  88.0485278  73.8829589  77.8698412  88.0086048  74.7787239
  77.7052525  87.3829994  73.4099999  81.1407771  85.3941312  64.1566648
  80.5236942  84.6688141  64.0599701  80.6724260  86.1550673  63.8133723
  74.8075124  83.1672867  78.8965850  75.5174743  82.5266060  78.8552468
  74.7644433  83.4185762  79.8192030  82.7961903  90.1040221  81.8172429
  82.7374449  89.4199441  81.1503012  83.1981422  90.8459211  81.3653055
  71.8152602  96.9202135  74.6106148  72.0549200  97.5520659  75.2885166
  70.9721798  96.5690175  74.8971507  82.7979310  88.0679805  80.0486409
  81.9106089  87.7305726  80.1712807  83.3677861  87.3362836  80.2855174
  76.3280464  92.7281257  77.0147652  76.2550635  93.5336228  77.5266956
  75.8857857  92.9273223  76.1895673  76.1170243  91.9653027  70.5250473
  75.3337765  92.5074707  70.6188698  76.8162989  92.4827007  70.9244714
  87.2796651  83.4788022  74.8102970  87.2686527  84.3612737  74.4396903
  86.4114030  83.1259573  74.6157507  78.7879147  92.6268091  79.1705810
  79.5007120  93.2615556  79.0981712  78.2969176  92.7231957  78.3545812
  80.5096674  86.5319344  70.7423102  79.5752953  86.6520806  70.5727806
  80.6873343  85.6291810  70.4783112  83.8969226  82.3736663  71.2773136
  84.3629678  83.2064655  71.2033439  84.3476726  81.9081645  71.9818395
  73.8391061  90.3762534  79.9911381  74.5400520  91.0099017  80.1440775
  73.3686176  90.7177266  79.2307020  81.9645457  88.7180484  68.2759288
  82.2405301  88.6037079  69.1853162  81.0949955  88.3197969  68.2371461
  81.6392347  82.9307142  77.8163932  80.9863797  83.1783049  77.1616384
  82.0172727  82.1171280  77.4826409  78.5999521  92.9666835  71.9192102
  78.7821915  92.1488491  72.3819854  79.4232507  93.1834527  71.4816992
  78.9341686  91.8935020  69.1807150  79.4629453  91.3827475  68.5677312
  79.1969906  91.5777550  70.0452683  77.6879920  83.6726953  84.3029969
  77.0120557  83.5721082  84.9732344  78.5107554  83.5166167  84.7665966
  72.2897434  92.9450137  71.9404926  71.6207809  93.4296265  71.4568966
  72.1510304  93.1919357  72.8548305  76.4302703  94.9793880  78.5387585
  76.9821011  95.1425502  79.3036670  76.7708896  95.5698318  77.8667609
  81.2813577  89.8055138  84.3936239  81.8253481  90.4185096  83.8991194
  80.7000422  90.3634716  84.9103252  79.5671090  92.9275856  75.5251267
  79.4422229  92.1265596  75.0162212  80.2250181  93.4222049  75.0365237
  81.6305998  90.7284876  77.1530817  80.6836334  90.6090227  77.0809144
  81.9788771  89.8407374  77.2357078  73.9905572  76.6179015  80.9769059
  74.5139974  76.8641312  81.7395368  73.7717905  77.4499050  80.5572196
  78.6352432  90.5237592  73.3535169  78.4877394  89.5954300  73.5342739
  79.4605925  90.5457683  72.8692244  82.2386554  91.3466151  74.4400042
  83.1633101  91.1409012  74.3024493  82.0701857  91.0982552  75.3489383
  75.1958117  77.5592710  78.6618729  74.8554937  76.7600523  79.0639409
  74.4897123  77.8594421  78.0895562  78.6313946  78.3775430  68.3467286
  78.8477560  79.2600068  68.0456115  78.1508013  77.9861643  67.6172928
  75.2309550  78.3263691  74.9718920  75.2171119  77.4304784  74.6351218
  75.9481978  78.3334355  75.6057207  77.0835681  78.7601031  77.0172048
  76.8253459  79.6818102  77.0156378  76.5520721  78.3631466  77.7072512
  82.0281870  91.8651818  69.7962133  82.2018747  91.2998241  69.0435986
  82.5210761  92.6652713  69.6141623  87.8821261  84.6288241  71.4152433
  88.3252407  83.8795567  71.0171556  87.0047771  84.6198378  71.0326165
  83.0157042  91.1818583  66.8959032  83.7107947  91.8025276  67.1146346
  83.3580192  90.3313934  67.1711409  84.9148465  88.6318288  68.4246362
  85.4399789  88.9705561  67.6995682  84.8270818  87.6965304  68.2409497
  76.5768514  92.5452362  80.5536239  76.8855640  92.3001509  81.4258939
  77.3743996  92.7499000  80.0655109  76.5989126  94.6990272  72.7841616
  76.1594116  94.2066650  73.4774472  77.3497243  94.1563239  72.5433691
  74.0462998  90.2428281  74.8563917  73.4243008  89.5798986  74.5566145
  74.7167865  90.2689413  74.1737565  74.1187526  78.7210069  84.4496423
  74.1675681  79.5972192  84.0674193  74.6610040  78.1787462  83.8768066
  84.6042371  89.2651192  83.7297560  83.8137915  89.2475331  83.1902060
  84.3675726  89.8039486  84.4846597  84.7240246  86.1143658  81.0430289
  84.7738251  85.9493666  81.9845812  84.6154170  85.2470917  80.6528170
  82.0144009  82.0974586  82.3589596  82.9153872  81.9581051  82.0673593
  82.0891983  82.2629041  83.2987773  76.3486814  79.4741441  81.2042782
  75.4790124  79.7675007  80.9325370  76.5846295  80.0581886  81.9250046
  86.2258443  88.5340600  81.2872310  85.9343252  88.8970580  82.1235771
  85.6130575  87.8207608  81.1085642  87.4254126  86.0993480  73.8074881
  88.2601017  86.5383284  73.9712441  87.5613254  85.6232133  72.9883126
  84.4745632  83.6573215  79.7552368  84.9499753  83.8500861  78.9471220
  83.5511197  83.7132400  79.5095752  79.0525848  75.6921058  78.7208202
  79.5707792  76.4282085  78.3954691  78.6980981  75.9985051  79.5554961
  77.1071911  91.2880335  65.8034125  76.5345878  91.9070522  65.3504597
  77.6804704  91.8379696  66.3374047  83.1747301  80.5338975  77.9880674
  84.1264723  80.6337072  78.0092898  83.0050751  79.7417243  78.4978758
  81.1961680  77.6194558  78.1740075  80.6011612  77.8999571  77.4786564
  80.9111377  78.1088459  78.9456816  80.3269170  91.5717485  66.9342707
  81.2599844  91.5063046  67.1375583  80.2392383  92.4073752  66.4757240
  82.9557187  90.8883355  63.8946655  82.8770819  90.5543219  64.7882413
  83.7766854  91.3805123  63.8938127  85.6535378  83.7545094  77.1022974
  85.6211698  82.8161095  77.2882657  86.2636002  83.8329131  76.3688799
  85.8029867  80.5456138  77.1481257  85.2868915  79.7614594  76.9611186
  86.6869815  80.2174854  77.3127776  83.4640594  74.2897153  73.1077069
  83.2665415  73.9812241  73.9920401  84.0740299  75.0158792  73.2374999
  91.4711928  84.8161101  76.2429010  92.2015317  84.5546389  76.8036714
  90.8618874  84.0789823  76.2831078  89.5527225  82.9568964  76.8403462
  88.8260389  82.8224929  76.2319953  89.1374512  83.2645792  77.6460180
  77.3757402  86.6758893  84.6050835  78.2960411  86.8537492  84.7990881
  77.3406985  85.7314939  84.4530534  77.2923692  75.0928013  69.2349304
  76.4824420  74.7475098  69.6104550  77.9808109  74.7835557  69.8236916
  75.2447340  80.1593134  86.6376365  75.1444066  81.1087491  86.5688456
  75.0268882  79.8311373  85.7652435  82.5993047  76.2806585  70.3652265
  82.0191716  76.9391389  69.9830318  82.3328980  75.4583930  69.9539683
  75.1078610  83.5890273  85.4541426  74.6245691  84.3890633  85.6605315
  75.1939549  83.5998218  84.5008870  81.3817925  78.4406676  69.4208613
  80.4943780  78.7256326  69.2028808  81.7971915  78.2800439  68.5735890
  84.7332462  78.4653197  73.1362953  85.5092852  78.9549649  73.4087569
  84.0080596  78.8911251  73.5934822  87.1705020  79.1780816  74.1936893
  87.7649511  78.9376552  73.4830201  87.2431604  78.4587947  74.8210430
  69.3902176  93.0214427  74.5080058  69.2556644  92.2614828  73.9418056
  68.9734238  93.7455327  74.0408847  80.5261139  88.2051350  63.5156633
  81.2296989  88.4101353  64.1314289  79.8023788  88.7728112  63.7805717
  81.3558949  83.9561212  69.6358904  81.2994151  84.4129763  68.7966536
  81.9087292  83.1951896  69.4581746  85.1663755  79.7450944  70.4609023
  84.9100689  79.3447579  71.2917231  84.5416623  80.4594737  70.3359162
  89.4776093  82.4847017  72.9680314  88.9175651  82.5540206  73.7411876
  88.8719596  82.3088001  72.2479811  72.5471302  93.9183744  74.7198501
  72.4303686  94.8629176  74.6177191  71.7263748  93.6157305  75.1084300
  82.4347836  88.6433880  65.5655093  83.2693440  88.2115078  65.3832568
  82.2732179  88.4715893  66.4931988  82.0893728  85.1465993  66.9311433
  82.0342532  84.9810264  65.9899877  81.4639784  85.8542026  67.0873622
  79.4039636  87.4514905  86.2564995  80.2730795  87.6255557  85.8951630
  78.9246387  88.2709322  86.1340725  73.5725816  94.5712006  77.9354429
  74.4753063  94.6035616  78.2520924  73.3463186  93.6412457  77.9500765
  75.3279418  93.3242992  74.5964508  74.3775049  93.3244854  74.4828880
  75.6311904  92.5775727  74.0800542  91.0632111  99.1603531  75.6610270
  91.7010521  99.0410278  74.9573610  90.9452954 100.1084375  75.7198222
  87.8721818  99.1130959  75.5971795  87.5340329  98.9972024  74.7092330
  88.7411586  98.7122124  75.5772801  83.7308633 100.9666435  71.5868686
  83.1673499 100.8756372  70.8184974  83.6161028 100.1466340  72.0671178
  88.3541601 100.2665811  81.5558000  88.3430241  99.8718609  80.6838504
  88.5162240  99.5331883  82.1491772  81.2773065 102.4617627  74.4252906
  82.0694357 102.1208451  74.0099206  81.5169715 102.5712602  75.3455060
  89.3108192 104.6337403  66.8983151  88.6596172 105.2191483  66.5117164
  90.1052555 105.1643598  66.9578188  83.2363819 101.7226540  67.2970285
  84.0094695 101.1755527  67.1583161  83.5889218 102.5870789  67.5084746
  85.0748862 103.0502922  80.5037184  84.7838728 103.9548553  80.3883851
  85.7105846 103.0919450  81.2181254  86.0005069 100.4279771  77.0938544
  86.5968641 100.2035793  76.3795507  86.0580040  99.6864516  77.6963992
  85.5730097  97.8819206  64.9288735  85.8255618  97.3600727  64.1672198
  84.6354656  97.7185352  65.0315419  90.6173380  96.8854985  72.7363478
  91.4036469  96.4674408  72.3853895  90.8812084  97.7901077  72.9045127
  90.7883457 102.3227835  67.4352135  90.1529290 102.3962461  68.1473040
  90.4580864 102.9121434  66.7571214  96.0181807  96.8230218  73.6396457
  96.7506979  96.2529435  73.8734286  95.2621163  96.4351818  74.0802962
  85.2926386  99.7847312  67.1313110  85.1762644  99.1092216  67.7994194
  85.4028646  99.2979686  66.3145263  87.6357927  99.2457459  70.8359799
  87.2716134  98.7188080  71.5472721  88.4925043  98.8555928  70.6626285
  93.5407227  90.5351792  78.0991065  93.2090552  91.4047203  77.8752280
  92.9452841  90.2188076  78.7785096  87.2763414  94.2747359  65.8321148
  87.4437816  95.1427595  66.1991619  87.0860583  94.4374641  64.9082437
  90.0338747 102.7364338  77.4986978  89.7339470 103.6389377  77.3902785
  89.6889806 102.4696521  78.3508131  83.4851228  99.1878135  73.5323682
  82.5601725  99.0554349  73.7401374  83.7335642  99.9672354  74.0293625
  93.4335891  95.2546878  75.1784415  92.5252768  95.1862286  74.8843176
  93.3823486  95.7318823  76.0066241  87.2552635  96.7305016  66.8167814
  87.1352260  97.1762067  67.6553295  86.5605223  97.0790334  66.2581353
  80.8460039  98.8311408  74.3667472  80.9752421  99.0845887  75.2806883
  80.1657491  99.4239116  74.0472127  85.0159527 109.5008658  70.4657946
  84.9383556 110.4516483  70.5446426  84.4121170 109.1554531  71.1232872
  87.5076756  96.6736524  83.1219313  86.7310091  97.2330444  83.1122177
  88.1467320  97.1593307  83.6434183  95.2997537  93.4563316  76.9562289
  94.6571917  93.7495850  76.3102084  94.7952466  93.3416237  77.7615486
  92.9537701  97.2026490  67.6448149  93.8655557  97.4353876  67.4695846
  92.4447348  97.7863534  67.0823227  85.7623129  99.4821977  82.6837280
  86.5037813 100.0207021  82.4072103  85.0560114 100.1088266  82.8408831
  91.2378468 101.6251117  81.2809441  91.6461824 101.1833528  80.5364073
  90.5155730 101.0503745  81.5343634  87.5909538  96.5623724  78.6542998
  88.4370734  96.9863138  78.7977647  87.5308176  95.9057349  79.3481561
  91.5607283 102.1852308  75.0361730  90.9316146 102.3498022  74.3337798
  91.1732945 102.5993918  75.8072694  95.4396515 103.1206746  72.3906094
  94.7547553 103.5005647  71.8403127  95.5240364 103.7302073  73.1238042
  90.7408984  94.2228093  80.3124172  90.4969916  94.9770153  79.7758447
  91.0168914  94.6013440  81.1471419  92.6947447 100.7666705  78.9901437
  92.9064342 101.4098465  78.3135818  92.6477195  99.9329022  78.5223367
  90.2973676  93.3784526  75.8938009  89.4358155  93.6765779  76.1854747
  90.3236110  93.5954925  74.9619042  87.1135245 101.9226716  72.3011815
  87.5773590 102.2014419  71.5116438  86.8492043 101.0210161  72.1184906
  84.0059326 101.4698198  75.2391578  84.5760683 101.8985466  74.6009063
  84.5967438 101.1880782  75.9375764  86.0504131  98.0449869  69.1101380
  86.7528174  98.4970912  69.5775307  85.7184759  97.4033687  69.7381273
  84.4984493  96.6361625  83.4852590  83.8683153  97.3177906  83.7187986
  84.3920580  96.5244707  82.5405728  79.7929465  96.3033421  74.4118514
  79.0028519  96.5590950  73.9358624  80.2840712  97.1181759  74.5170554
  93.8093275 103.6438660  77.1623795  94.6310718 103.2418848  76.8806476
  93.8055677 103.5406895  78.1139910  81.7444210  96.6678000  71.3701991
  80.9475374  96.7796695  71.8885486  81.5169803  97.0064653  70.5042881
  87.5749878 103.1922704  79.3184505  87.6394310 103.6543111  80.1542677
  86.8660802 102.5620069  79.4466815  78.0767168  96.5563912  76.8433505
  78.3275206  97.4410922  77.1091081  78.6126716  96.3768513  76.0708596
 101.8999268  99.9877409  73.5108766 101.1462976  99.4184807  73.3552771
 102.0346809  99.9540073  74.4579401  87.2897896 104.8590811  69.1863485
  87.1543570 105.7042347  69.6148333  87.8307708 105.0610089  68.4229419
  83.7765235  90.9382391  85.8477841  83.3832181  90.3848590  86.5225485
  84.5931376  91.2492969  86.2384358  80.7427293 102.3766249  69.7591411
  81.2551814 103.1709499  69.9096975  81.3950006 101.6792540  69.6925012
  82.5522178 105.4932005  71.8414164  82.7288806 106.4149970  71.6535148
  83.3479011 105.1790425  72.2708544  86.6933196  92.3540270  83.4398097
  87.4342910  92.9547423  83.3602560  86.9251119  91.6117908  82.8816140
  81.8374534  97.5396637  81.7176327  81.7228049  96.6381895  82.0183426
  80.9819052  97.7860334  81.3661143  88.9166372 105.4814378  83.3163828
  88.4730226 104.6950756  82.9984732  89.5783586 105.6693528  82.6507718
  83.6753493 107.0110179  77.8424506  84.2260918 106.8827243  77.0701500
  82.8364969 107.3105068  77.4919399  91.0147610 105.7617178  81.3445229
  90.9966085 106.5826059  80.8525498  91.9367530 105.6371253  81.5695370
  87.4720664 103.2761307  82.1868737  88.0049001 102.5149595  81.9568045
  86.9434745 102.9834959  82.9292892  90.6390359  88.3821373  77.7162379
  90.2954629  89.2723015  77.6401490  91.0069322  88.1923031  76.8531964
  78.7076210 100.7054904  70.5350981  79.5451432 101.1151912  70.3184689
  78.8854477  99.7654346  70.5051175  90.6040642  98.3729984  66.2234814
  90.0887265  99.1434589  66.4623201  90.3317950  97.6995120  66.8467875
  88.1887753  93.2179685  71.2820052  87.3329349  92.8286535  71.1025691
  88.6014705  93.2971646  70.4219838  89.7186900  90.7526028  75.6811612
  89.2151695  90.7156163  74.8679417  90.0117506  91.6618771  75.7408269
  85.9629785  90.8364758  74.6877794  86.8282782  90.6407567  74.3283683
  86.0307294  90.6075110  75.6147151  95.5774916 101.1262339  68.1587988
  94.8004359 100.7873498  67.7143150  96.2566397 101.1314962  67.4842953
  90.3926945  96.2457076  68.0494595  90.0877081  96.5603225  68.9004738
  91.3457387  96.3238496  68.0921928  88.8373377 102.4047300  69.6987549
  88.3094738 101.6700059  69.3860787  88.3360880 103.1821976  69.4527518
  93.8166223 100.5996320  74.8154596  93.1589897 101.2895581  74.9034724
  94.6206622 100.9892752  75.1588582  83.5692105  93.0666966  72.0594161
  84.1435856  92.8442147  71.3267354  84.1563087  93.1355660  72.8122762
  92.6271682  98.9540693  72.8658537  93.1403563  99.5870685  73.3680247
  93.2772906  98.3541888  72.5001897  83.8961692  95.0971427  66.0790046
  83.0599004  95.4346113  66.3999321  83.7566461  94.9620407  65.1417183
  85.8714772  89.9408215  70.7869230  85.2179185  89.6257232  70.1625845
  85.8295246  89.3183955  71.5129053  86.9825977 100.2227510  62.7022522
  86.0753039  99.9916763  62.9013671  87.4797009  99.4265129  62.8896504
  89.8894056 108.9325017  65.6219208  89.2155755 109.2356714  66.2304166
  90.2759878 109.7354097  65.2724665  89.1052513  96.4290148  75.1116878
  88.1875074  96.6505095  74.9538566  89.5212656  96.5036459  74.2528585
  89.8887560  97.8281564  70.2419558  90.6359379  98.3402961  69.9326680
  90.1579150  97.5065617  71.1023952  88.1614211 100.3240105  67.2246512
  87.2525430 100.0399138  67.3218982  88.1909294 100.7439183  66.3649819
  93.3933478 103.9346694  70.9937680  92.9395805 103.0937604  71.0502870
  92.7627445 104.5708093  71.3312460  92.3366398  94.8638680  72.2238347
  91.5989154  94.3516066  72.5548590  92.5893171  94.4239062  71.4121624
  91.8366417 105.7723191  71.9287498  92.1289392 106.3328248  71.2099864
  92.3465038 106.0651752  72.6840657  92.4378025  87.6414932  72.8180117
  92.7436902  86.7812296  72.5306032  93.1630630  88.2332552  72.6179111
  78.7302381  98.0445619  71.2061715  78.5326781  97.4514980  70.4812781
  78.1749045  97.7397829  71.9237653  86.7099105  97.9368725  73.3256308
  86.7647714  96.9842562  73.2498784  85.8990307  98.0928164  73.8097606
  87.8590298 101.8648848  64.5634591  87.4209728 101.1484707  64.1040228
  88.6000739 102.0924963  64.0019682  84.6491464  96.5545785  71.0846687
  83.8359330  96.8539956  71.4911879  85.1450459  96.1601474  71.8021169
  86.8000042 106.5503542  73.0180951  86.7576221 106.7764388  72.0889483
  87.7162741 106.3166917  73.1666752  90.2465676  97.0187610  79.9161580
  90.6015064  97.2459083  80.7756046  90.8937807  97.3505986  79.2938836
  95.9763413 100.1406045  70.6210909  95.8381312 100.3307641  69.6932099
  95.6199632 100.9025428  71.0778961  84.1405539  94.1264141  76.7007921
  84.7804919  93.9852900  76.0030885  83.3083070  93.8398654  76.3246523
  96.0032793 102.2082572  75.6322181  96.4369299 102.1157862  76.4805235
  96.7164373 102.1840073  74.9942197  84.9165843 103.4266571  72.8142914
  85.7106442 102.9316891  72.6125489  84.2057536 102.8984434  72.4510620
  89.7360688 105.8084667  77.1655282  89.7897710 106.3775603  77.9332997
  88.8675469 105.9786552  76.8009319  81.2248607  97.5709653  68.8902667
  80.2946195  97.5094108  69.1072629  81.3206079  97.0485605  68.0939308
  81.1434156  94.0964466  71.4780908  81.4040973  95.0109799  71.3690069
  81.9651328  93.6288908  71.6277521  82.6159081  95.5102223  78.6479733
  83.2882134  95.3019585  77.9992382  81.7888868  95.3124309  78.2084965
  96.8648342 102.2506273  78.1655066  97.0584232 103.1552084  78.4114341
  96.7648960 101.7913692  78.9993651  88.5184653  92.1364164  80.6645394
  87.8712568  92.8354113  80.5709870  89.2885668  92.5700308  81.0321642
  91.9263451 102.4013016  83.7395947  91.7748957 102.1723568  82.8226031
  91.9168130 103.3583617  83.7527292  88.6948787  99.9744929  78.7242213
  89.6240847 100.1256088  78.5511181  88.2739817 100.0628949  77.8690860
  87.4937119 103.9995593  76.4940751  87.3548205 103.6314377  77.3666689
  86.7051715 104.5143232  76.3224709  88.0885271 109.1004689  67.8366288
  88.2637027 108.6292733  68.6511910  87.4018059 109.7270456  68.0647548
  89.0442334 103.3777196  73.8829589  88.7092167 103.3377966  74.7787239
  88.5446280 102.7121912  73.4099999  83.0186578  98.7844826  79.4082170
  82.8806376  98.0525065  80.0093709  83.9291502  98.6953726  79.1266358
  91.9801526 100.7233230  64.1566648  91.3630697  99.9980058  64.0599701
  91.5118014 101.4842590  63.8133723  85.6468879  98.4964785  78.8965850
  86.3568497  97.8557977  78.8552468  85.6038187  98.7477680  79.8192030
  93.6355658 105.4332138  81.8172429  93.5768204 104.7491359  81.1503012
  94.0375176 106.1751128  81.3653055  84.3597813  95.4830003  80.7161489
  83.8235170  95.0320741  81.3683085  83.7714521  95.6175912  79.9731953
  82.6546356 112.2494052  74.6106148  82.8942955 112.8812576  75.2885166
  81.8115553 111.8982092  74.8971507  83.7700072  94.9418654  63.2787953
  82.8929538  94.8207455  62.9150199  84.2457825  94.1504733  63.0266841
  93.6373065 103.3971722  80.0486409  92.7499844 103.0597644  80.1712807
  94.2071616 102.6654754  80.2855174  75.2902212  99.7295814  73.3729460
  75.9773252  99.4157544  72.7850475  75.1350341 100.6337179  73.0996711
  80.0936934  94.6186011  77.8014484  80.0095123  94.0111680  77.0664894
  79.2719641  95.1095029  77.8023980  87.1674218 108.0573175  77.0147652
  87.0944390 108.8628146  77.5266956  86.7251611 108.2565140  76.1895673
  86.9563998 107.2944945  70.5250473  86.1731520 107.8366625  70.6188698
  87.6556743 107.8118924  70.9244714  90.2660648  93.1039574  73.1684679
  90.7629348  92.3509536  72.8485749  89.4947630  93.1403891  72.6027888
  98.1190405  98.8079940  74.8102970  98.1080282  99.6904655  74.4396903
  97.2507785  98.4551491  74.6157507  89.6272902 107.9560009  79.1705810
  90.3400874 108.5907474  79.0981712  89.1362930 108.0523875  78.3545812
  91.3490429 101.8611261  70.7423102  90.4146707 101.9812724  70.5727806
  91.5267097 100.9583728  70.4783112  86.8495617  95.2456957  72.8956363
  86.4793404  94.6927998  73.5837269  87.3454709  94.6415091  72.3431363
  94.7362980  97.7028581  71.2773136  95.2023432  98.5356572  71.2033439
  95.1870481  97.2373562  71.9818395  84.6784815 105.7054452  79.9911381
  85.3794275 106.3390935  80.1440775  84.2079930 106.0469184  79.2307020
  92.8039211 104.0472402  68.2759288  93.0799055 103.9328997  69.1853162
  91.9343710 103.6489887  68.2371461  92.7079643  90.0709168  75.3164038
  91.7942723  90.3013394  75.4846244  93.1372744  90.1547612  76.1678070
  92.4786101  98.2599060  77.8163932  91.8257552  98.5074967  77.1616384
  92.8566481  97.4463198  77.4826409  89.4393275 108.2958753  71.9192102
  89.6215670 107.4780409  72.3819854  90.2626261 108.5126445  71.4816992
  89.7735441 107.2226938  69.1807150  90.3023207 106.7119392  68.5677312
  90.0363660 106.9069468  70.0452683  88.5273674  99.0018871  84.3029969
  87.8514311  98.9013000  84.9732344  89.3501308  98.8458084  84.7665966
  80.2752533 105.2390807  76.9242484  80.8605970 104.4934495  77.0570388
  80.0777372 105.5494764  77.8079148  83.1291189 108.2742055  71.9404926
  82.4601564 108.7588182  71.4568966  82.9904058 108.5211275  72.8548305
  74.8670188  97.8096407  75.6446927  74.9054288  97.2759998  76.4384045
  74.3610481  97.2831613  75.0257904  87.2696457 110.3085798  78.5387585
  87.8214765 110.4717420  79.3036670  87.6102651 110.8990236  77.8667609
  82.2460950  92.6560948  79.1409469  82.3102277  93.5175779  78.7286867
  82.1828071  92.0434950  78.4081828  81.7213223  94.7284080  82.7882504
  82.3485262  94.3461158  83.4020028  80.8641142  94.5098282  83.1538196
  92.1207332 105.1347056  84.3936239  92.6647236 105.7477014  83.8991194
  91.5394176 105.6926634  84.9103252  78.4978766  96.5360510  68.7200858
  78.7932207  95.6271188  68.6667912  77.5966801  96.5148249  68.3981861
  90.4064844 108.2567774  75.5251267  90.2815984 107.4557513  75.0162212
  91.0643936 108.7513967  75.0365237  82.0273013  94.6116506  74.7028407
  81.3059598  95.2252474  74.5635880  82.8166268  95.1474271  74.6245053
  92.4699753 106.0576794  77.1530817  91.5230088 105.9382145  77.0809144
  92.8182526 105.1699292  77.2357078  84.8299326  91.9470933  80.9769059
  85.3533728  92.1933229  81.7395368  84.6111659  92.7790967  80.5572196
  80.2266607  94.2174607  68.8440184  79.8979313  93.3371986  68.6615289
  80.5805978  94.1622276  69.7316573  89.4746186 105.8529510  73.3535169
  89.3271149 104.9246217  73.5342739  90.2999680 105.8749601  72.8692244
  83.3408430  94.5047577  69.2115661  83.6804503  95.0333498  68.4894270
  83.7880551  94.8427983  69.9874228  93.0780308 106.6758069  74.4400042
  94.0026855 106.4700930  74.3024493  92.9095611 106.4274470  75.3489383
  86.0351871  92.8884628  78.6618729  85.6948692  92.0892441  79.0639409
  85.3290878  93.1886339  78.0895562  86.6868343  89.9733940  77.1146052
  87.5094412  89.4994418  76.9924943  86.9306407  90.7524424  77.6144739
  85.3276578  93.0022199  67.4108954  86.0484940  93.3803451  66.9072671
  84.7041882  93.7211075  67.5143932  89.4707700  93.7067348  68.3467286
  89.6871315  94.5891985  68.0456115  88.9901768  93.3153561  67.6172928
  84.2106922  96.6653061  74.9238031  84.0651503  96.9793364  75.8162312
  83.7332125  97.2837961  74.3708930  86.0703305  93.6555609  74.9718920
  86.0564873  92.7596702  74.6351218  86.7875733  93.6626273  75.6057207
  87.9229435  94.0892949  77.0172048  87.6647213  95.0110020  77.0156378
  87.3914476  93.6923384  77.7072512  92.8675624 107.1943736  69.7962133
  93.0412502 106.6290159  69.0435986  93.3604515 107.9944631  69.6141623
  78.6852584  99.2058405  77.8625692  78.1406052  99.9818213  77.9945966
  79.5631934  99.5529210  77.7044814  85.4740201  92.5369989  70.2406491
  85.5956112  91.6086635  70.4397378  85.1842243  92.5508675  69.3284806
  88.3431391  90.2224900  73.3773210  88.3653088  90.2864233  72.4225190
  88.7599450  89.3829408  73.5713717  98.7215015  99.9580159  71.4152433
  99.1646161  99.2087484  71.0171556  97.8441526  99.9490295  71.0326165
  93.8550797 106.5110501  66.8959032  94.5501701 107.1317193  67.1146346
  94.1973947 105.6605852  67.1711409  79.4718606  98.3328301  80.7555849
  78.7300342  98.4810937  81.3420479  79.1511350  98.5936567  79.8922598
  95.7542220 103.9610206  68.4246362  96.2793544 104.2997479  67.6995682
  95.6664572 103.0257221  68.2409497  87.4162269 107.8744280  80.5536239
  87.7249395 107.6293426  81.4258939  88.2137751 108.0790918  80.0655109
  87.4382881 110.0282189  72.7841616  86.9987871 109.5358568  73.4774472
  88.1890998 109.4855157  72.5433691  79.9175220 106.2193730  72.7866244
  80.7433239 105.9197502  72.4064887  79.5669272 105.4501353  73.2356032
  84.8856753 105.5720198  74.8563917  84.2636762 104.9090903  74.5566145
  85.5561620 105.5981330  74.1737565  78.1183825 104.1380057  73.7455177
  77.2815733 103.7102231  73.5639178  78.0907470 104.3312500  74.6825968
  84.9581280  94.0501986  84.4496423  85.0069436  94.9264109  84.0674193
  85.5003794  93.5079379  83.8768066  95.4436126 104.5943110  83.7297560
  94.6531670 104.5767249  83.1902060  95.2069480 105.1331403  84.4846597
  95.5634001 101.4435576  81.0430289  95.6132006 101.2785584  81.9845812
  95.4547924 100.5762835  80.6528170  84.4470260 104.1224122  68.3322378
  84.5958380 104.8059586  67.6789050  85.2536703 104.1029212  68.8471833
  92.8537763  97.4266504  82.3589596  93.7547626  97.2872969  82.0673593
  92.9285738  97.5920959  83.2987773  87.1880569  94.8033359  81.2042782
  86.3183878  95.0966925  80.9325370  87.4240049  95.3873804  81.9250046
  97.0652198 103.8632518  81.2872310  96.7737006 104.2262498  82.1235771
  96.4524329 103.1499526  81.1085642  98.2647880 101.4285397  73.8074881
  99.0994771 101.8675201  73.9712441  98.4007009 100.9524051  72.9883126
  95.3139386  98.9865132  79.7552368  95.7893508  99.1792779  78.9471220
  94.3904951  99.0424318  79.5095752  82.2022893 100.1489299  69.3383447
  81.9568935  99.2451629  69.5363657  82.3718807 100.1506450  68.3962925
  89.8919602  91.0212976  78.7208202  90.4101546  91.7574003  78.3954691
  89.5374735  91.3276969  79.5554961  81.4718540  95.8817657  66.8369608
  80.7787785  95.9562012  66.1809644  81.2270292  95.1178001  67.3591125
  87.9465665 106.6172252  65.8034125  87.3739632 107.2362439  65.3504597
  88.5198459 107.1671614  66.3374047  94.0141055  95.8630892  77.9880674
  94.9658478  95.9628990  78.0092898  93.8444505  95.0709161  78.4978758
  92.0355434  92.9486476  78.1740075  91.4405367  93.2291488  77.4786564
  91.7505131  93.4380376  78.9456816  91.1662925 106.9009402  66.9342707
  92.0993598 106.8354964  67.1375583  91.0786138 107.7365669  66.4757240
  93.7950942 106.2175273  63.8946655  93.7164573 105.8835136  64.7882413
  94.6160608 106.7097041  63.8938127  96.4929133  99.0837012  77.1022974
  96.4605453  98.1453013  77.2882657  97.1029756  99.1621049  76.3688799
  88.3312464  97.9533065  63.1450178  89.2771568  97.8239273  63.2138596
  87.9526709  97.2147727  63.6219606  96.6423621  95.8748055  77.1481257
  96.1262670  95.0906512  76.9611186  97.5263570  95.5466772  77.3127776
  94.3034348  89.6189071  73.1077069  94.1059169  89.3104159  73.9920401
  94.9134054  90.3450710  73.2374999 102.3105683 100.1453019  76.2429010
 103.0409071  99.8838307  76.8036714 101.7012628  99.4081741  76.2831078
 100.3920980  98.2860881  76.8403462  99.6654143  98.1516846  76.2319953
  99.9768267  98.5937710  77.6460180  88.2151156 102.0050811  84.6050835
  89.1354166 102.1829410  84.7990881  88.1800739 101.0606856  84.4530534
  86.5155381  95.8783041  63.0805063  85.6086836  95.5816154  63.1567777
  86.7931362  95.5812859  62.2139349  77.4333321  97.1989405  73.5304109
  77.1136106  96.3454713  73.2378483  76.8866749  97.4137983  74.2862077
  81.2113229  99.9151846  77.2473616  81.4299239 100.8468954  77.2661650
  81.6239003  99.5559820  78.0328420  88.1317447  90.4219931  69.2349304
  87.3218175  90.0767016  69.6104550  88.8201863  90.1127475  69.8236916
  90.0607995  89.4997978  70.8573601  90.6139033  89.9193431  71.5163624
  90.2978081  88.5733726  70.8996557  86.0841094  95.4885052  86.6376365
  85.9837821  96.4379408  86.5688456  85.8662636  95.1603290  85.7652435
  85.2854165  92.7369977  63.2217042  86.1473329  93.0624875  63.4812859
  85.4704510  91.9501472  62.7090108  77.3021581 100.8192316  75.4997231
  76.6085053 100.4046269  74.9867185  78.0494572 100.8612853  74.9030650
  93.4386802  91.6098503  70.3652265  92.8585471  92.2683307  69.9830318
  93.1722735  90.7875848  69.9539683  91.8890368  91.0103561  72.5673585
  92.3890147  91.1220095  71.7587904  92.5325976  90.7064614  73.2074394
  85.9472364  98.9182190  85.4541426  85.4639446  99.7182550  85.6605315
  86.0333303  98.9290135  84.5008870  79.2158324 100.7510570  73.3763246
  79.1929012 100.8498257  72.4245129  79.5258960 101.5975721  73.6980412
  81.8745702 102.8086725  77.4909860  82.8288955 102.7770667  77.4239792
  81.6758225 102.3477349  78.3060086  82.4645084 101.3787841  80.0580658
  83.2837973 101.8731920  80.0815495  82.7381891 100.4619809  80.0298225
  92.2211680  93.7698593  69.4208613  91.3337535  94.0548244  69.2028808
  92.6365669  93.6092357  68.5735890  95.5726216  93.7945114  73.1362953
  96.3486606  94.2841567  73.4087569  94.8474350  94.2203169  73.5934822
  98.0098775  94.5072734  74.1936893  98.6043265  94.2668470  73.4830201
  98.0825358  93.7879864  74.8210430  80.2295930 108.3506345  74.5080058
  80.0950398 107.5906745  73.9418056  79.8127993 109.0747244  74.0408847
  91.3654893 103.5343268  63.5156633  92.0690744 103.7393271  64.1314289
  90.6417542 104.1020030  63.7805717  92.1952704  99.2853129  69.6358904
  92.1387905  99.7421681  68.7966536  92.7481046  98.5243814  69.4581746
  96.0057510  95.0742861  70.4609023  95.7494444  94.6739497  71.2917231
  95.3810378  95.7886655  70.3359162 100.3169847  97.8138934  72.9680314
  99.7569405  97.8832124  73.7411876  99.7113351  97.6379919  72.2479811
  83.3865056 109.2475662  74.7198501  83.2697440 110.1921094  74.6177191
  82.5657503 108.9449223  75.1084300  93.2741591 103.9725797  65.5655093
  94.1087195 103.5406996  65.3832568  93.1125934 103.8007811  66.4931988
  92.9287483 100.4757911  66.9311433  92.8736287 100.3102182  65.9899877
  92.3033538 101.1833944  67.0873622  77.7179998  95.7125975  80.7572855
  78.3638862  95.2024929  81.2460080  77.5097149  96.4494657  81.3316280
  90.2433390 102.7806822  86.2564995  91.1124550 102.9547475  85.8951630
  89.7640142 103.6001239  86.1340725  86.2383608  89.9766020  66.5096751
  86.2262278  90.9207860  66.6665022  87.1307030  89.7936165  66.2156212
  84.4119570 109.9003923  77.9354429  85.3146817 109.9327534  78.2520924
  84.1856940 108.9704374  77.9500765  86.1673172 108.6534910  74.5964508
  85.2168803 108.6536772  74.4828880  86.4705659 107.9067645  74.0800542
  90.0535728  86.5708796  70.7642688  89.2868124  86.0167283  70.9099370
  90.4646433  86.6430665  71.6256840  82.0577489  92.8593592  84.8547869
  82.9208951  92.5030397  85.0651194  81.4842900  92.5207487  85.5423273
 101.9025866 114.4895448  75.6610270 102.5404276 114.3702196  74.9573610
 101.7846709 115.4376292  75.7198222  98.7115572 114.4422877  75.5971795
  98.3734084 114.3263941  74.7092330  99.5805340 114.0414042  75.5772801
  94.5702388 116.2958353  71.5868686  94.0067253 116.2048290  70.8184974
  94.4554783 115.4758257  72.0671178  99.1935355 115.5957728  81.5558000
  99.1823996 115.2010526  80.6838504  99.3555995 114.8623801  82.1491772
  92.1166820 117.7909545  74.4252906  92.9088112 117.4500369  74.0099206
  92.3563470 117.9004520  75.3455060  94.0757574 117.0518458  67.2970285
  94.8488450 116.5047445  67.1583161  94.4282973 117.9162707  67.5084746
  95.9142616 118.3794840  80.5037184  95.6232482 119.2840471  80.3883851
  96.5499601 118.4211368  81.2181254  96.8398823 115.7571689  77.0938544
  97.4362395 115.5327711  76.3795507  96.8973795 115.0156434  77.6963992
  96.4123852 113.2111124  64.9288735  96.6649372 112.6892645  64.1672198
  95.4748411 113.0477269  65.0315419 101.4567134 112.2146902  72.7363478
 102.2430224 111.7966325  72.3853895 101.7205839 113.1192994  72.9045127
 106.8575562 112.1522135  73.6396457 107.5900733 111.5821352  73.8734286
 106.1014917 111.7643736  74.0802962  96.1320140 115.1139230  67.1313110
  96.0156398 114.4384133  67.7994194  96.2422400 114.6271604  66.3145263
  98.4751681 114.5749377  70.8359799  98.1109888 114.0479998  71.5472721
  99.3318797 114.1847846  70.6626285 104.3800982 105.8643710  78.0991065
 104.0484307 106.7339121  77.8752280 103.7846595 105.5479994  78.7785096
  98.1157168 109.6039277  65.8321148  98.2831571 110.4719513  66.1991619
  97.9254337 109.7666558  64.9082437  94.3244983 114.5170052  73.5323682
  93.3995479 114.3846266  73.7401374  94.5729396 115.2964272  74.0293625
 104.2729645 110.5838796  75.1784415 103.3646523 110.5154204  74.8843176
 104.2217241 111.0610741  76.0066241  98.0946389 112.0596934  66.8167814
  97.9746014 112.5053985  67.6553295  97.3998977 112.4082252  66.2581353
  91.6853794 114.1603326  74.3667472  91.8146175 114.4137805  75.2806883
  91.0051245 114.7531034  74.0472127  98.3470511 112.0028441  83.1219313
  97.5703845 112.5622361  83.1122177  98.9861074 112.4885224  83.6434183
 106.1391292 108.7855234  76.9562289 105.4965672 109.0787767  76.3102084
 105.6346220 108.6708154  77.7615486 103.7931455 112.5318407  67.6448149
 104.7049311 112.7645794  67.4695846 103.2841102 113.1155452  67.0823227
  96.6016883 114.8113895  82.6837280  97.3431568 115.3498939  82.4072103
  95.8953869 115.4380183  82.8408831 102.0772223 116.9543035  81.2809441
 102.4855579 116.5125446  80.5364073 101.3549484 116.3795663  81.5343634
  98.4303293 111.8915642  78.6542998  99.2764488 112.3155055  78.7977647
  98.3701931 111.2349266  79.3481561 101.5802738 109.5520010  80.3124172
 101.3363670 110.3062071  79.7758447 101.8562669 109.9305358  81.1471419
 101.1367430 108.7076443  75.8938009 100.2751909 109.0057697  76.1854747
 101.1629865 108.9246842  74.9619042  97.9528999 117.2518634  72.3011815
  98.4167345 117.5306337  71.5116438  97.6885798 116.3502078  72.1184906
  94.8453080 116.7990115  75.2391578  95.4154438 117.2277384  74.6009063
  95.4361192 116.5172700  75.9375764  96.8897885 113.3741786  69.1101380
  97.5921929 113.8262830  69.5775307  96.5578514 112.7325605  69.7381273
  95.3378247 111.9653543  83.4852590  94.7076908 112.6469824  83.7187986
  95.2314335 111.8536624  82.5405728  90.6323219 111.6325339  74.4118514
  89.8422273 111.8882867  73.9358624  91.1234467 112.4473677  74.5170554
  92.5837965 111.9969918  71.3701991  91.7869128 112.1088612  71.8885486
  92.3563557 112.3356570  70.5042881  98.4143632 118.5214621  79.3184505
  98.4788065 118.9835029  80.1542677  97.7054556 117.8911986  79.4466815
  88.9160922 111.8855829  76.8433505  89.1668961 112.7702839  77.1091081
  89.4520471 111.7060431  76.0708596  94.6158990 106.2674309  85.8477841
  94.2225935 105.7140507  86.5225485  95.4325130 106.5784887  86.2384358
  91.5821047 117.7058167  69.7591411  92.0945568 118.5001417  69.9096975
  92.2343760 117.0084457  69.6925012  93.3915932 120.8223923  71.8414164
  93.5682561 121.7441888  71.6535148  94.1872766 120.5082342  72.2708544
  97.5326951 107.6832188  83.4398097  98.2736664 108.2839341  83.3602560
  97.7644874 106.9409826  82.8816140  92.6768289 112.8688555  81.7176327
  92.5621804 111.9673812  82.0183426  91.8212806 113.1152252  81.3661143
  94.5147248 122.3402097  77.8424506  95.0654673 122.2119160  77.0701500
  93.6758724 122.6396986  77.4919399  98.3114419 118.6053225  82.1868737
  98.8442755 117.8441513  81.9568045  97.7828500 118.3126877  82.9292892
 101.4784114 103.7113291  77.7162379 101.1348383 104.6014932  77.6401490
 101.8463076 103.5214948  76.8531964  89.5469964 116.0346821  70.5350981
  90.3845186 116.4443830  70.3184689  89.7248232 115.0946263  70.5051175
 101.4434396 113.7021902  66.2234814 100.9281020 114.4726506  66.4623201
 101.1711705 113.0287038  66.8467875  99.0281507 108.5471603  71.2820052
  98.1723104 108.1578453  71.1025691  99.4408459 108.6263563  70.4219838
 100.5580654 106.0817946  75.6811612 100.0545450 106.0448081  74.8679417
 100.8511261 106.9910689  75.7408269  96.8023540 106.1656676  74.6877794
  97.6676537 105.9699484  74.3283683  96.8701049 105.9367027  75.6147151
 101.2320700 111.5748994  68.0494595 100.9270835 111.8895143  68.9004738
 102.1851142 111.6530414  68.0921928  99.6767131 117.7339217  69.6987549
  99.1488493 116.9991977  69.3860787  99.1754634 118.5113894  69.4527518
  94.4085859 108.3958884  72.0594161  94.9829611 108.1734065  71.3267354
  94.9956841 108.4647578  72.8122762 103.4665436 114.2832610  72.8658537
 103.9797318 114.9162602  73.3680247 104.1166660 113.6833806  72.5001897
  94.7355446 110.4263345  66.0790046  93.8992758 110.7638031  66.3999321
  94.5960216 110.2912324  65.1417183  96.7108527 105.2700132  70.7869230
  96.0572939 104.9549150  70.1625845  96.6689001 104.6475873  71.5129053
  97.8219732 115.5519428  62.7022522  96.9146793 115.3208681  62.9013671
  98.3190764 114.7557047  62.8896504  99.9446267 111.7582066  75.1116878
  99.0268828 111.9797013  74.9538566 100.3606411 111.8328376  74.2528585
 100.7281315 113.1573482  70.2419558 101.4753134 113.6694879  69.9326680
 100.9972904 112.8357534  71.1023952  99.0007965 115.6532022  67.2246512
  98.0919184 115.3691055  67.3218982  99.0303049 116.0731101  66.3649819
 103.1760152 110.1930598  72.2238347 102.4382909 109.6807984  72.5548590
 103.4286926 109.7530980  71.4121624 103.2771779 102.9706850  72.8180117
 103.5830656 102.1104213  72.5306032 104.0024384 103.5624470  72.6179111
  89.5696135 113.3737537  71.2061715  89.3720535 112.7806897  70.4812781
  89.0142799 113.0689747  71.9237653  97.5492859 113.2660643  73.3256308
  97.6041469 112.3134479  73.2498784  96.7384061 113.4220082  73.8097606
  98.6984053 117.1940766  64.5634591  98.2603483 116.4776625  64.1040228
  99.4394494 117.4216881  64.0019682  95.4885219 111.8837703  71.0846687
  94.6753085 112.1831873  71.4911879  95.9844213 111.4893392  71.8021169
 101.0859431 112.3479527  79.9161580 101.4408818 112.5751000  80.7756046
 101.7331562 112.6797904  79.2938836  94.9799294 109.4556058  76.7007921
  95.6198673 109.3144817  76.0030885  94.1476824 109.1690572  76.3246523
  95.7559598 118.7558489  72.8142914  96.5500196 118.2608809  72.6125489
  95.0451290 118.2276352  72.4510620  92.0642361 112.9001570  68.8902667
  91.1339949 112.8386026  69.1072629  92.1599833 112.3777523  68.0939308
  91.9827910 109.4256383  71.4780908  92.2434727 110.3401716  71.3690069
  92.8045082 108.9580826  71.6277521  93.4552835 110.8394140  78.6479733
  94.1275889 110.6311503  77.9992382  92.6282622 110.6416226  78.2084965
  99.3578408 107.4656081  80.6645394  98.7106323 108.1646031  80.5709870
 100.1279423 107.8992225  81.0321642  99.5342542 115.3036846  78.7242213
 100.4634602 115.4548006  78.5511181  99.1133572 115.3920867  77.8690860
  98.3330874 119.3287511  76.4940751  98.1941959 118.9606295  77.3666689
  97.5445470 119.8435150  76.3224709  99.8836089 118.7069113  73.8829589
  99.5485921 118.6669883  74.7787239  99.3840034 118.0413829  73.4099999
  93.8580333 114.1136743  79.4082170  93.7200131 113.3816982  80.0093709
  94.7685256 114.0245643  79.1266358 102.8195280 116.0525148  64.1566648
 102.2024451 115.3271976  64.0599701 102.3511769 116.8134508  63.8133723
  96.4862633 113.8256703  78.8965850  97.1962252 113.1849895  78.8552468
  96.4431942 114.0769598  79.8192030  95.1991567 110.8121921  80.7161489
  94.6628924 110.3612659  81.3683085  94.6108276 110.9467829  79.9731953
  94.6093826 110.2710572  63.2787953  93.7323293 110.1499373  62.9150199
  95.0851579 109.4796650  63.0266841  86.1295966 115.0587732  73.3729460
  86.8167006 114.7449462  72.7850475  85.9744095 115.9629096  73.0996711
  90.9330689 109.9477928  77.8014484  90.8488877 109.3403598  77.0664894
  90.1113395 110.4386947  77.8023980 101.1054402 108.4331492  73.1684679
 101.6023102 107.6801454  72.8485749 100.3341384 108.4695808  72.6027888
 102.1884183 117.1903179  70.7423102 101.2540462 117.3104642  70.5727806
 102.3660852 116.2875646  70.4783112  97.6889371 110.5748875  72.8956363
  97.3187159 110.0219915  73.5837269  98.1848464 109.9707008  72.3431363
 105.5756735 113.0320498  71.2773136 106.0417187 113.8648490  71.2033439
 106.0264235 112.5665480  71.9818395  95.5178570 121.0346370  79.9911381
  96.2188029 121.6682853  80.1440775  95.0473685 121.3761101  79.2307020
 103.5473397 105.4001085  75.3164038 102.6336477 105.6305312  75.4846244
 103.9766499 105.4839529  76.1678070 103.3179856 113.5890977  77.8163932
 102.6651306 113.8366885  77.1616384 103.6960236 112.7755115  77.4826409
  99.3667429 114.3310788  84.3029969  98.6908066 114.2304918  84.9732344
 100.1895063 114.1750002  84.7665966  91.1146288 120.5682725  76.9242484
  91.6999725 119.8226413  77.0570388  90.9171126 120.8786682  77.8079148
  85.7063943 113.1388325  75.6446927  85.7448042 112.6051916  76.4384045
  85.2004235 112.6123531  75.0257904  93.0854705 107.9852866  79.1409469
  93.1496031 108.8467696  78.7286867  93.0221825 107.3726867  78.4081828
  92.5606977 110.0575998  82.7882504  93.1879016 109.6753075  83.4020028
  91.7034896 109.8390200  83.1538196  89.3372520 111.8652427  68.7200858
  89.6325961 110.9563106  68.6667912  88.4360556 111.8440167  68.3981861
  92.8666767 109.9408424  74.7028407  92.1453353 110.5544392  74.5635880
  93.6560023 110.4766189  74.6245053  95.6693081 107.2762850  80.9769059
  96.1927483 107.5225147  81.7395368  95.4505414 108.1082885  80.5572196
  91.0660362 109.5466525  68.8440184  90.7373068 108.6663904  68.6615289
  91.4199732 109.4914194  69.7316573  94.1802185 109.8339495  69.2115661
  94.5198257 110.3625416  68.4894270  94.6274305 110.1719901  69.9874228
  96.8745626 108.2176545  78.6618729  96.5342446 107.4184358  79.0639409
  96.1684632 108.5178256  78.0895562  97.5262098 105.3025858  77.1146052
  98.3488167 104.8286336  76.9924943  97.7700161 106.0816342  77.6144739
  96.1670332 108.3314116  67.4108954  96.8878695 108.7095369  66.9072671
  95.5435636 109.0502993  67.5143932 100.3101455 109.0359265  68.3467286
 100.5265069 109.9183903  68.0456115  99.8295522 108.6445479  67.6172928
  95.0500676 111.9944978  74.9238031  94.9045257 112.3085282  75.8162312
  94.5725880 112.6129879  74.3708930  96.9097059 108.9847526  74.9718920
  96.8958628 108.0888620  74.6351218  97.6269487 108.9918190  75.6057207
  98.7623190 109.4184867  77.0172048  98.5040968 110.3401937  77.0156378
  98.2308230 109.0215301  77.7072512  89.5246338 114.5350323  77.8625692
  88.9799807 115.3110131  77.9945966  90.4025688 114.8821127  77.7044814
  96.3133955 107.8661907  70.2406491  96.4349866 106.9378553  70.4397378
  96.0235998 107.8800593  69.3284806  99.1825146 105.5516817  73.3773210
  99.2046842 105.6156150  72.4225190  99.5993205 104.7121326  73.5713717
  90.3112360 113.6620219  80.7555849  89.5694096 113.8102855  81.3420479
  89.9905105 113.9228485  79.8922598  90.7568974 121.5485648  72.7866244
  91.5826994 121.2489420  72.4064887  90.4063026 120.7793270  73.2356032
  95.7250507 120.9012116  74.8563917  95.1030516 120.2382821  74.5566145
  96.3955374 120.9273248  74.1737565  88.9577579 119.4671974  73.7455177
  88.1209487 119.0394149  73.5639178  88.9301225 119.6604418  74.6825968
  95.7975035 109.3793904  84.4496423  95.8463190 110.2556027  84.0674193
  96.3397549 108.8371297  83.8768066  95.2864014 119.4516039  68.3322378
  95.4352134 120.1351504  67.6789050  96.0930458 119.4321129  68.8471833
 103.6931518 112.7558422  82.3589596 104.5941381 112.6164887  82.0673593
 103.7679492 112.9212877  83.2987773  98.0274323 110.1325277  81.2042782
  97.1577633 110.4258843  80.9325370  98.2633804 110.7165722  81.9250046
  93.0416647 115.4781217  69.3383447  92.7962689 114.5743547  69.5363657
  93.2112562 115.4798368  68.3962925 100.7313357 106.3504893  78.7208202
 101.2495301 107.0865920  78.3954691 100.3768490 106.6568887  79.5554961
  92.3112295 111.2109575  66.8369608  91.6181540 111.2853930  66.1809644
  92.0664047 110.4469918  67.3591125 100.9825951 102.7705176  74.2409099
 101.2627705 102.1028365  74.8669525 101.7676558 102.9634272  73.7283763
 104.8534809 111.1922810  77.9880674 105.8052232 111.2920908  78.0092898
 104.6838260 110.4001079  78.4978758 102.8749189 108.2778393  78.1740075
 102.2799121 108.5583406  77.4786564 102.5898886 108.7672294  78.9456816
  99.1706218 113.2824983  63.1450178 100.1165323 113.1531191  63.2138596
  98.7920463 112.5439645  63.6219606 107.4817376 111.2039973  77.1481257
 106.9656424 110.4198430  76.9611186 108.3657324 110.8758690  77.3127776
 105.1428103 104.9480989  73.1077069 104.9452924 104.6396077  73.9920401
 105.7527808 105.6742628  73.2374999  99.0544911 117.3342729  84.6050835
  99.9747920 117.5121328  84.7990881  99.0194494 116.3898774  84.4530534
  97.3549135 111.2074959  63.0805063  96.4480591 110.9108072  63.1567777
  97.6325116 110.9104777  62.2139349  88.2727076 112.5281322  73.5304109
  87.9529860 111.6746631  73.2378483  87.7260504 112.7429901  74.2862077
  92.0506983 115.2443763  77.2473616  92.2692993 116.1760871  77.2661650
  92.4632757 114.8851738  78.0328420  98.9711201 105.7511849  69.2349304
  98.1611929 105.4058934  69.6104550  99.6595618 105.4419392  69.8236916
 100.9001749 104.8289896  70.8573601 101.4532788 105.2485349  71.5163624
 101.1371836 103.9025644  70.8996557  96.9234849 110.8176969  86.6376365
  96.8231575 111.7671326  86.5688456  96.7056391 110.4895208  85.7652435
  96.1247920 108.0661894  63.2217042  96.9867084 108.3916793  63.4812859
  96.3098264 107.2793390  62.7090108  88.1415336 116.1484234  75.4997231
  87.4478807 115.7338187  74.9867185  88.8888327 116.1904770  74.9030650
 104.2780556 106.9390421  70.3652265 103.6979225 107.5975225  69.9830318
 104.0116489 106.1167765  69.9539683 102.7284123 106.3395478  72.5673585
 103.2283901 106.4512013  71.7587904 103.3719731 106.0356531  73.2074394
  96.7866119 114.2474108  85.4541426  96.3033200 115.0474468  85.6605315
  96.8727058 114.2582053  84.5008870  90.0552078 116.0802488  73.3763246
  90.0322766 116.1790175  72.4245129  90.3652715 116.9267639  73.6980412
  92.7139456 118.1378643  77.4909860  93.6682710 118.1062585  77.4239792
  92.5151980 117.6769266  78.3060086  93.3038838 116.7079759  80.0580658
  94.1231727 117.2023837  80.0815495  93.5775646 115.7911727  80.0298225
 103.0605434 109.0990511  69.4208613 102.1731289 109.3840162  69.2028808
 103.4759423 108.9384274  68.5735890 106.4119971 109.1237032  73.1362953
 107.1880361 109.6133485  73.4087569 105.6868105 109.5495086  73.5934822
 108.8492529 109.8364651  74.1936893 109.4437020 109.5960387  73.4830201
 108.9219113 109.1171782  74.8210430  91.0689685 123.6798262  74.5080058
  90.9344153 122.9198663  73.9418056  90.6521747 124.4039162  74.0408847
 103.0346458 114.6145047  69.6358904 102.9781660 115.0713598  68.7966536
 103.5874801 113.8535732  69.4581746 106.8451264 110.4034779  70.4609023
 106.5888198 110.0031415  71.2917231 106.2204132 111.1178573  70.3359162
 103.7681237 115.8049828  66.9311433 103.7130041 115.6394100  65.9899877
 103.1427293 116.5125861  67.0873622  88.5573752 111.0417893  80.7572855
  89.2032616 110.5316847  81.2460080  88.3490904 111.7786574  81.3316280
  97.0777363 105.3057937  66.5096751  97.0656033 106.2499777  66.6665022
  97.9700785 105.1228083  66.2156212 100.8929482 101.9000714  70.7642688
 100.1261878 101.3459201  70.9099370 101.3040187 101.9722583  71.6256840
  92.8971243 108.1885510  84.8547869  93.7602705 107.8322315  85.0651194
  92.3236654 107.8499405  85.5423273  36.8663340  -0.4793935  62.3855577
  37.5041750  -0.5987188  61.6818917  36.7484183   0.4686909  62.4443529
  33.6753046  -0.5266507  62.3217101  33.3371558  -0.6425442  61.4337636
  34.5442815  -0.9275342  62.3018108  29.5339862   1.3268969  58.3113992
  28.9704727   1.2358906  57.5430280  29.4192257   0.5068874  58.7916485
  34.1572829   0.6268345  68.2803307  34.1461470   0.2321143  67.4083811
  34.3193469  -0.1065583  68.8737078  27.0804294   2.8220161  61.1498213
  27.8725586   2.4810986  60.7344512  27.3200944   2.9315136  62.0700366
  35.1139421   4.9939937  53.6228457  34.4627401   5.5794018  53.2362471
  35.9083784   5.5246132  53.6823495  29.0395048   2.0829074  54.0215592
  29.8125924   1.5358061  53.8828467  29.3920447   2.9473324  54.2330053
  30.8780091   3.4105457  67.2282491  30.5869957   4.3151087  67.1129157
  31.5137075   3.4521984  67.9426561  31.8036297   0.7882305  63.8183851
  32.3999870   0.5638327  63.1040814  31.8611269   0.0467051  64.4209298
  31.3761326  -1.7578260  51.6534042  31.6286847  -2.2796738  50.8917505
  30.4385885  -1.9212114  51.7560725  36.4204609  -2.7542481  59.4608785
  37.2067698  -3.1723058  59.1099202  36.6843313  -1.8496389  59.6290433
  36.5914686   2.6830369  54.1597442  35.9560519   2.7564996  54.8718346
  36.2612092   3.2723968  53.4816521  41.8213036  -2.8167248  60.3641763
  42.5538208  -3.3868031  60.5979593  41.0652392  -3.2045648  60.8048269
  31.0957615   0.1449846  53.8558417  30.9793873  -0.5305250  54.5239501
  31.2059875  -0.3417780  53.0390570  33.4389156  -0.3940007  57.5605106
  33.0747363  -0.9209386  58.2718027  34.2956271  -0.7841537  57.3871591
  35.8369976   3.0966872  64.2232285  35.5370699   3.9991911  64.1148092
  35.4921035   2.8299055  65.0753438  29.2882457  -0.4519331  60.2568989
  28.3632954  -0.5843117  60.4646681  29.5366870   0.3274888  60.7538932
  39.2367119  -4.3850588  61.9029722  38.3283997  -4.4535179  61.6088483
  39.1854715  -3.9078643  62.7311547  33.0583863  -2.9092449  53.5413121
  32.9383489  -2.4635399  54.3798601  32.3636452  -2.5607132  52.9826659
  30.8190756   9.8611192  57.1903252  30.7414785  10.8119018  57.2691733
  30.2152399   9.5157065  57.8478179  33.3107985  -2.9660942  69.8464619
  32.5341319  -2.4067022  69.8367484  33.9498548  -2.4804159  70.3679489
  41.1028766  -6.1834149  63.6807596  40.4603146  -5.8901616  63.0347391
  40.5983694  -6.2981229  64.4860793  38.7568930  -2.4370976  54.3693455
  39.6686786  -2.2043589  54.1941153  38.2478577  -1.8533932  53.8068534
  31.5654358  -0.1575489  69.4082586  32.3069042   0.3809555  69.1317410
  30.8591343   0.4690800  69.5654138  37.0409697   1.9853652  68.0054748
  37.4493053   1.5436062  67.2609380  36.3186959   1.4106279  68.2588941
  33.3940767  -3.0773742  65.3788305  34.2401962  -2.6534328  65.5222954
  33.3339405  -3.7340117  66.0726868  37.3638512   2.5454842  61.7607037
  36.7347374   2.7100556  61.0583104  36.9764174   2.9596452  62.5318001
  41.2427744   3.4809280  59.1151400  40.5578782   3.8608182  58.5648434
  41.3271593   4.0904607  59.8483348  36.5440213  -5.4169373  67.0369478
  36.3001144  -4.6627313  66.5003754  36.8200143  -5.0384026  67.8716725
  38.4978675   1.1269239  65.7146744  38.7095571   1.7700999  65.0381125
  38.4508424   0.2931556  65.2468674  36.1004904  -6.2612940  62.6183316
  35.2389383  -5.9631687  62.9100054  36.1267339  -6.0442541  61.6864349
  32.9166474   2.2829250  59.0257122  33.3804819   2.5616953  58.2361744
  32.6523272   1.3812695  58.8430212  29.8090555   1.8300732  61.9636885
  30.3791912   2.2588000  61.3254369  30.3998667   1.5483317  62.6621071
  31.8535360  -1.5947597  55.8346687  32.5559403  -1.1426554  56.3020613
  31.5215988  -2.2363778  56.4626580  39.6124503   4.0041195  63.8869101
  40.4341947   3.6021382  63.6051783  39.6086906   3.9009429  64.8385217
  33.3781107   3.5525238  66.0429812  33.4425539   4.0145645  66.8787984
  32.6692031   2.9222603  66.1712122  47.7030496   0.3479943  60.2354073
  46.9494205  -0.2212659  60.0798077  47.8378038   0.3142608  61.1824707
  33.0929124   5.2193345  55.9108792  32.9574799   6.0644881  56.3393640
  33.6338937   5.4212623  55.1474726  26.5458522   2.7368783  56.4836717
  27.0583042   3.5312034  56.6342282  27.1981235   2.0395074  56.4170319
  28.3553407   5.8534540  58.5659470  28.5320035   6.7752504  58.3780454
  29.1510240   5.5392959  58.9953850  34.7197601   5.8416912  70.0409134
  34.2761455   5.0553290  69.7230039  35.3814814   6.0296062  69.3753025
  29.4784722   7.3712713  64.5669813  30.0292147   7.2429777  63.7946807
  28.6396198   7.6707603  64.2164705  36.8178839   6.1219712  68.0690535
  36.7997314   6.9428593  67.5770805  37.7398759   5.9973787  68.2940677
  33.2751893   3.6363841  68.9114044  33.8080230   2.8752129  68.6813352
  32.7465974   3.3437493  69.6538198  36.4071871  -1.2667482  52.9480121
  35.8918494  -0.4962877  53.1868508  36.1349179  -1.9402345  53.5713182
  41.3806145   1.4864873  54.8833294  40.6035588   1.1476033  54.4388456
  42.0597626   1.4917496  54.2088259  36.1958174  -3.3940390  54.7739902
  35.8908309  -3.0794240  55.6250045  37.1488616  -3.3158970  54.8167235
  34.6404606   2.7649834  56.4232856  34.1125967   2.0302593  56.1106093
  34.1392108   3.5424510  56.1772824  39.6197452   0.9598854  61.5399902
  38.9621126   1.6498116  61.6280031  40.4237851   1.3495286  61.8833888
  38.4302911  -0.6856773  59.5903844  38.9434792  -0.0526781  60.0925554
  39.0804134  -1.2855578  59.2247204  32.7857206   0.5830044  49.4267829
  31.8784268   0.3519298  49.6258978  33.2828238  -0.2132337  49.6141810
  35.6925285   9.2927551  52.3464515  35.0186984   9.5959248  52.9549473
  36.0791107  10.0956632  51.9969972  34.9083741  -3.2107317  61.8362184
  33.9906303  -2.9892370  61.6783872  35.3243885  -3.1361007  60.9773892
  35.6918789  -1.8115902  56.9664865  36.4390608  -1.2994505  56.6571987
  35.9610379  -2.1331849  57.8269258  33.9645439   0.6842639  53.9491819
  33.0556659   0.4001672  54.0464289  33.9940523   1.1041717  53.0895126
  39.1964707   4.2949228  57.7182987  38.7427034   3.4540138  57.7748177
  38.5658673   4.9310627  58.0557767  38.1397626  -4.7758786  58.9483654
  37.4020383  -5.2881399  59.2793897  38.3924400  -5.2158404  58.1366931
  37.6397646   6.1325725  58.6532805  37.9320620   6.6930782  57.9345170
  38.1496267   6.4254286  59.4085964  32.5130333  -1.7028740  60.0501614
  32.5678943  -2.6554904  59.9744091  31.7021535  -1.5469301  60.5342913
  33.6621527   2.2251383  51.2879898  33.2240957   1.5087242  50.8285535
  34.4031968   2.4527497  50.7264989  32.6031271   6.9106076  59.7426258
  32.5607450   7.1366923  58.8134790  33.5193970   6.6769451  59.8912059
  36.0496905  -2.6209856  66.6406887  36.4046293  -2.3938383  67.5001353
  36.6969036  -2.2891479  66.0184142  41.7794642   0.5008580  57.3456216
  41.6412541   0.6910176  56.4177405  41.4230861   1.2627962  57.8024267
  41.8064022   2.5685107  62.3567488  42.2400528   2.4760396  63.2050542
  42.5195602   2.5442607  61.7187504  30.7197072   3.7869105  59.5388221
  31.5137670   3.2919425  59.3370796  30.0088764   3.2586968  59.1755926
  35.5391916   6.1687201  63.8900588  35.5928939   6.7378137  64.6578304
  34.6706698   6.3389086  63.5254625  42.6679571   2.6108807  64.8900373
  42.8615461   3.5154618  65.1359648  42.5680189   2.1516226  65.7238958
  37.7294680   2.7615550  70.4641254  37.5780186   2.5326102  69.5471337
  37.7199359   3.7186151  70.4772599  34.4980016   0.3347463  65.4487520
  35.4272076   0.4858622  65.2756487  34.0771046   0.4231484  64.5936167
  33.2968348   4.3598127  63.2186058  33.1579434   3.9916912  64.0911996
  32.5082944   4.8745767  63.0470015  33.8916500   9.4607224  54.5611594
  34.0668256   8.9895267  55.3757217  33.2049288  10.0872990  54.7892855
  34.8473563   3.7379730  60.6074895  34.5123396   3.6980500  61.5032545
  34.3477509   3.0724446  60.1345306  28.8217807  -0.8552640  66.1327477
  28.6837605  -1.5872401  66.7339016  29.7322731  -0.9443740  65.8511664
  37.7832755   1.0835764  50.8811955  37.1661925   0.3582592  50.7845008
  37.3149243   1.8445125  50.5379029  31.4500108  -1.1432681  65.6211156
  32.1599726  -1.7839489  65.5797775  31.4069416  -0.8919786  66.5437337
  39.4386886   5.7934673  68.5417735  39.3799433   5.1093893  67.8748319
  39.8406405   6.5353663  68.0898361  28.4577585  12.6096586  61.3351454
  28.6974183  13.2415111  62.0130473  27.6146782  12.2584626  61.6216814
  39.4404294   3.7574257  66.7731715  38.5531072   3.4200178  66.8958114
  40.0102845   3.0257288  67.0100481  32.9705447   8.4175709  63.7392958
  32.8975619   9.2230680  64.2512263  32.5282840   8.6167675  62.9140980
  32.7595227   7.6547479  57.2495780  31.9762749   8.1969159  57.3434004
  33.4587972   8.1721459  57.6490021  36.0691877  -6.5357892  59.8929985
  36.5660576  -7.2887929  59.5731056  35.2978858  -6.4993575  59.3273195
  43.9221634  -0.8317526  61.5348277  43.9111510   0.0507189  61.1642210
  43.0539014  -1.1845975  61.3402814  35.4304131   8.3162543  65.8951117
  36.1432103   8.9510008  65.8227018  34.9394159   8.4126409  65.0791119
  37.1521658   2.2213796  57.4668409  36.2177936   2.3415258  57.2973113
  37.3298326   1.3186262  57.2028419  40.5394209  -1.9368885  58.0018443
  41.0054661  -1.1040894  57.9278745  40.9901709  -2.4023904  58.7063701
  30.4816044   6.0656986  66.7156688  31.1825504   6.6993469  66.8686082
  30.0111159   6.4071718  65.9552327  38.6070440   4.4074936  55.0004595
  38.8830284   4.2931531  55.9098469  37.7374939   4.0092421  54.9616768
  38.2817330  -1.3798406  64.5409238  37.6288780  -1.1322499  63.8861691
  38.6597710  -2.1934268  64.2071715  35.2424504   8.6561287  58.6437408
  35.4246899   7.8382943  59.1065161  36.0657490   8.8728979  58.2062298
  35.5766669   7.5829472  55.9052457  36.1054436   7.0721927  55.2922619
  35.8394889   7.2672002  56.7697990  34.3304903  -0.6378595  71.0275275
  33.6545540  -0.7384466  71.6977650  35.1532537  -0.7939381  71.4911272
  26.0783762   5.5993341  63.6487791  26.6637199   4.8537029  63.7815695
  25.8808601   5.9097298  64.5324454  28.9322417   8.6344589  58.6650233
  28.2632793   9.1190716  58.1814273  28.7935287   8.8813809  59.5793611
  33.0727686  10.6688332  65.2632891  33.6245994  10.8319954  66.0281976
  33.4133879  11.2592770  64.5912916  37.9238560   5.4949590  71.1181546
  38.4678464   6.1079548  70.6236500  37.3425405   6.0529168  71.6348559
  36.2096073   8.6170308  62.2496573  36.0847213   7.8160048  61.7407519
  36.8675164   9.1116501  61.7610543  38.2730982   6.4179328  63.8776124
  37.3261317   6.2984679  63.8054450  38.6213755   5.5301826  63.9602385
  35.2777415   6.2132044  60.0780476  35.1302377   5.2848752  60.2588046
  36.1030908   6.2352135  59.5937551  38.8811537   7.0360603  61.1645349
  39.8058084   6.8303464  61.0269800  38.7126840   6.7877004  62.0734690
  38.6706853   7.5546270  56.5207440  38.8443731   6.9892693  55.7681292
  39.1635744   8.3547165  56.3386930  44.5246244   0.3182693  58.1397740
  44.9677390  -0.4309982  57.7416863  43.6472754   0.3092830  57.7571472
  39.6582026   6.8713035  53.6204338  40.3532930   7.4919727  53.8391653
  40.0005176   6.0208386  53.8956716  41.5573449   4.3212740  55.1491669
  42.0824773   4.6600013  54.4240989  41.4695801   3.3859756  54.9654804
  33.2193497   8.2346814  67.2781546  33.5280624   7.9895961  68.1504245
  34.0168979   8.4393452  66.7900416  33.2414109  10.3884724  59.5086922
  32.8019100   9.8961102  60.2019779  33.9922226   9.8457691  59.2678997
  25.7206448   6.5796264  59.5111550  26.5464468   6.2800036  59.1310194
  25.3700500   5.8103887  59.9601339  30.6887982   5.9322733  61.5809224
  30.0667991   5.2693438  61.2811452  31.3592848   5.9583865  60.8982872
  23.9215053   4.4982591  60.4700484  23.0846962   4.0704765  60.2884485
  23.8938699   4.6915034  61.4071275  41.2467355   4.9545644  70.4542867
  40.4562898   4.9369783  69.9147366  41.0100709   5.4933938  71.2091904
  41.3665230   1.8038110  67.7675595  41.4163235   1.6388118  68.7091118
  41.2579153   0.9365369  67.3773476  30.2501488   4.4826656  55.0567684
  30.3989609   5.1662120  54.4034357  31.0567932   4.4631746  55.5717140
  38.6568992  -2.2130962  69.0834902  39.5578855  -2.3524497  68.7918900
  38.7316967  -2.0476507  70.0233080  42.8683427   4.2235052  68.0117617
  42.5768235   4.5865032  68.8481078  42.2555558   3.5102060  67.8330949
  44.0679109   1.7887932  60.5320187  44.9026000   2.2277736  60.6957748
  44.2038238   1.3126585  59.7128433  41.1170615  -0.6532334  66.4797675
  41.5924736  -0.4604687  65.6716526  40.1936180  -0.5973148  66.2341059
  28.0054121   0.5091834  56.0628753  27.7600163  -0.3945836  56.2608963
  28.1750036   0.5108984  55.1208231  33.7496894   6.9774786  52.5279432
  33.1770861   7.5964974  52.0749904  34.3229688   7.5274148  53.0619354
  39.8172284  -3.7766573  64.7125981  40.7689707  -3.6768476  64.7338205
  39.6475734  -4.5688305  65.2224065  37.8386663  -6.6910990  64.8985382
  37.2436595  -6.4105978  64.2031870  37.5536360  -6.2017089  65.6702123
  36.9694154   7.2611937  53.6588014  37.9024827   7.1957498  53.8620890
  36.8817367   8.0968203  53.2002547  39.5982170   6.5777807  50.6191962
  39.5195802   6.2437670  51.5127720  40.4191837   7.0699575  50.6183434
  42.2960362  -0.5560454  63.8268280  42.2636682  -1.4944453  64.0127964
  42.9060985  -0.4776417  63.0934105  34.1343692  -1.6864401  49.8695484
  35.0802797  -1.8158193  49.9383902  33.7557937  -2.4249739  50.3464912
  42.4454850  -3.7649410  63.8726563  41.9293899  -4.5490954  63.6856492
  43.3294799  -4.0930694  64.0373083  48.1136911   0.5055553  62.9674317
  48.8440300   0.2440841  63.5282020  47.5043857  -0.2315725  63.0076385
  46.1952209  -1.3536584  63.5648768  45.4685372  -1.4880619  62.9565260
  45.7799495  -1.0459756  64.3705486  34.0182385   2.3653345  71.3296141
  34.9385394   2.5431944  71.5236188  33.9831968   1.4209391  71.1775841
  27.0144458   0.2754380  63.9718922  27.2330467   1.2071488  63.9906956
  27.4270231  -0.0837646  64.7573726  39.2418031  -8.0298963  57.0897572
  38.6616700  -7.3714159  56.7075624  38.9753963  -8.8521618  56.6784989
  31.7503593  -0.7215275  72.1786733  31.2670675   0.0785085  72.3850622
  31.8364532  -0.7107331  71.2254177  25.0189553   1.1113104  60.1008552
  24.9960241   1.2100792  59.1490436  25.3290189   1.9578255  60.4225719
  27.6776930   3.1689259  64.2155167  28.6320184   3.1373202  64.1485098
  27.4789454   2.7079883  65.0305393  28.2676313   1.7390375  66.7825964
  29.0869202   2.2334454  66.8060802  28.5413120   0.8222343  66.7543532
  38.0242909  -5.8698872  56.1453920  37.1368764  -5.5849222  55.9274115
  38.4396898  -6.0305109  55.2981197  41.3757445  -5.8452351  59.8608259
  42.1517835  -5.3555899  60.1332876  40.6505579  -5.4194297  60.3180129
  43.8130003  -5.1324732  60.9182200  44.4074494  -5.3728996  60.2075508
  43.8856587  -5.8517602  61.5455736  26.0327159   8.7108879  61.2325365
  25.8981627   7.9509280  60.6663363  25.6159221   9.4349779  60.7654154
  37.1686122   3.8945802  50.2401940  37.8721972   4.0995805  50.8559596
  36.4448771   4.4622564  50.5051024  37.9983932  -0.3544336  56.3604210
  37.9419134   0.1024215  55.5211843  38.5512275  -1.1153652  56.1827053
  41.8088738  -4.5654605  57.1854330  41.5525673  -4.9657969  58.0162537
  41.1841606  -3.8510811  57.0604469  46.1201076  -1.8258531  59.6925621
  45.5600634  -1.7565342  60.4657183  45.5144580  -2.0017547  58.9725117
  29.1896285   9.6078196  61.4443807  29.0728669  10.5523628  61.3422498
  28.3688731   9.3051757  61.8329607  39.0772820   4.3328331  52.2900400
  39.9118424   3.9009530  52.1077875  38.9157163   4.1610345  53.2177295
  38.7318712   0.8360445  53.6556739  38.6767516   0.6704716  52.7145183
  38.1064767   1.5436478  53.8118929  36.0464619   3.1409357  72.9810302
  36.9155779   3.3150009  72.6196937  35.5671370   3.9603773  72.8586031
  30.2150799  10.2606458  64.6599736  31.1178046  10.2930068  64.9766231
  29.9888169   9.3306909  64.6746072  31.9704401   9.0137444  61.3209814
  31.0200032   9.0139306  61.2074187  32.2736887   8.2670179  60.8045849
  47.7057095  14.8497983  62.3855577  48.3435505  14.7304730  61.6818917
  47.5877938  15.7978827  62.4443529  44.5146801  14.8025411  62.3217101
  44.1765312  14.6866475  61.4337636  45.3836569  14.4016576  62.3018108
  40.3733617  16.6560887  58.3113992  39.8098482  16.5650824  57.5430280
  40.2586012  15.8360792  58.7916485  44.9966584  15.9560262  68.2803307
  44.9855225  15.5613061  67.4083811  45.1587223  15.2226335  68.8737078
  37.9198049  18.1512079  61.1498213  38.7119341  17.8102903  60.7344512
  38.1594699  18.2607054  62.0700366  45.9533175  20.3231855  53.6228457
  45.3021155  20.9085935  53.2362471  46.7477538  20.8538050  53.6823495
  39.8788803  17.4120992  54.0215592  40.6519679  16.8649979  53.8828467
  40.2314201  18.2765241  54.2330053  41.7173845  18.7397374  67.2282491
  41.4263711  19.6443005  67.1129157  42.3530829  18.7813902  67.9426561
  42.6430052  16.1174223  63.8183851  43.2393624  15.8930245  63.1040814
  42.7005023  15.3758968  64.4209298  42.2155080  13.5713658  51.6534042
  42.4680601  13.0495179  50.8917505  41.2779639  13.4079804  51.7560725
  47.2598363  12.5749436  59.4608785  48.0461452  12.1568860  59.1099202
  47.5237068  13.4795529  59.6290433  47.4308441  18.0122287  54.1597442
  46.7954274  18.0856913  54.8718346  47.1005847  18.6015886  53.4816521
  52.6606790  12.5124670  60.3641763  53.3931962  11.9423886  60.5979593
  51.9046146  12.1246270  60.8048269  41.9351369  15.4741764  53.8558417
  41.8187627  14.7986667  54.5239501  42.0453629  14.9874138  53.0390570
  44.2782910  14.9351911  57.5605106  43.9141117  14.4082532  58.2718027
  45.1350026  14.5450380  57.3871591  50.1832211   6.2246244  64.8236372
  49.8515535   7.0941655  64.5997587  49.5877824   5.9082528  65.5030402
  43.9188397   9.9641811  52.5566454  44.0862799  10.8322047  52.9236925
  43.7285566  10.1269093  51.6327744  46.6763730  18.4258790  64.2232285
  46.3764453  19.3283829  64.1148092  46.3314790  18.1590973  65.0753438
  40.1276212  14.8772587  60.2568989  39.2026708  14.7448801  60.4646681
  40.3760625  15.6566806  60.7538932  50.0760874  10.9441330  61.9029722
  49.1677751  10.8756738  61.6088483  50.0248470  11.4213275  62.7311547
  43.8977618  12.4199468  53.5413121  43.7777243  12.8656519  54.3798601
  43.2030206  12.7684786  52.9826659  37.4885023  14.5205860  61.0912778
  37.6177404  14.7740339  62.0052190  36.8082474  15.1133568  60.7717433
  41.6584510  25.1903110  57.1903252  41.5808540  26.1410935  57.2691733
  41.0546154  24.8448983  57.8478179  44.1501740  12.3630976  69.8464619
  43.3735074  12.9224896  69.8367484  44.7892303  12.8487759  70.3679489
  51.9422520   9.1457768  63.6807596  51.2996901   9.4390301  63.0347391
  51.4377449   9.0310689  64.4860793  49.5962684  12.8920942  54.3693455
  50.5080540  13.1248328  54.1941153  49.0872331  13.4757986  53.8068534
  42.4048112  15.1716429  69.4082586  43.1462796  15.7101473  69.1317410
  41.6985098  15.7982718  69.5654138  47.8803452  17.3145569  68.0054748
  48.2886808  16.8727980  67.2609380  47.1580713  16.7398197  68.2588941
  44.2334522  12.2518176  65.3788305  45.0795717  12.6757590  65.5222954
  44.1733159  11.5951800  66.0726868  48.2032266  17.8746760  61.7607037
  47.5741129  18.0392474  61.0583104  47.8157928  18.2888370  62.5318001
  52.0821498  18.8101198  59.1151400  51.3972536  19.1900099  58.5648434
  52.1665348  19.4196524  59.8483348  47.3833967   9.9122544  67.0369478
  47.1394899  10.6664605  66.5003754  47.6593898  10.2907892  67.8716725
  49.3372430  16.4561157  65.7146744  49.5489325  17.0992917  65.0381125
  49.2902178  15.6223473  65.2468674  46.9398659   9.0678977  62.6183316
  46.0783138   9.3660231  62.9100054  46.9661093   9.2849376  61.6864349
  43.7560228  17.6121168  59.0257122  44.2198574  17.8908871  58.2361744
  43.4917026  16.7104613  58.8430212  40.6484309  17.1592650  61.9636885
  41.2185666  17.5879918  61.3254369  41.2392421  16.8775234  62.6621071
  42.6929114  13.7344320  55.8346687  43.3953158  14.1865364  56.3020613
  42.3609743  13.0928139  56.4626580  41.1409476  12.3256077  70.2097896
  40.5108136  13.0072358  70.4433293  41.0345564  12.2139159  69.2651035
  36.4354448  11.9927873  61.1363820  35.6453502  12.2485402  60.6603931
  36.9265696  12.8076211  61.2415861  50.4518258  19.3333112  63.8869101
  51.2735702  18.9313300  63.6051783  50.4480661  19.2301346  64.8385217
  38.3869194  12.3572452  58.0947297  37.5900357  12.4691147  58.6130793
  38.1594786  12.6959105  57.2288188  44.2174861  18.8817156  66.0429812
  44.2819294  19.3437563  66.8787984  43.5085785  18.2514520  66.1712122
  34.7192151  12.2458364  63.5678811  34.9700190  13.1305373  63.8336387
  35.2551700  12.0662965  62.7953903  58.5424251  15.6771861  60.2354073
  57.7887959  15.1079259  60.0798077  58.6771792  15.6434525  61.1824707
  43.9322879  20.5485263  55.9108792  43.7968554  21.3936799  56.3393640
  44.4732691  20.7504541  55.1474726  40.4190219   6.6276843  72.5723147
  40.0257164   6.0743041  73.2470792  41.2356359   6.9387421  72.9629665
  37.3852276  18.0660701  56.4836717  37.8976797  18.8603951  56.6342282
  38.0374989  17.3686992  56.4170319  39.1947161  21.1826457  58.5659470
  39.3713789  22.1044422  58.3780454  39.9903995  20.8684877  58.9953850
  43.3358180   8.0434722  70.1643404  44.0767893   8.6441875  70.0847866
  43.5676102   7.3012360  69.6061446  38.4799518  13.2291089  68.4421634
  38.3653033  12.3276346  68.7428732  37.6244035  13.4754786  68.0906450
  45.5591355  21.1708830  70.0409134  45.1155209  20.3845208  69.7230039
  46.2208569  21.3587980  69.3753025  40.3178476  22.7004631  64.5669813
  40.8685902  22.5721695  63.7946807  39.4789952  22.9999520  64.2164705
  47.6572593  21.4511629  68.0690535  47.6391069  22.2720511  67.5770805
  48.5792513  21.3265705  68.2940677  44.1145648  18.9655759  68.9114044
  44.6473984  18.2044047  68.6813352  43.5859729  18.6729411  69.6538198
  47.2815342   4.0715825  64.4407686  46.9379612   4.9617467  64.3646796
  47.6494305   3.8817483  63.5777271  35.3501193  16.3949355  57.2596288
  36.1876415  16.8046364  57.0429995  35.5279461  15.4548798  57.2296482
  47.2465625  14.0624436  52.9480121  46.7312249  14.8329041  53.1868508
  46.9742934  13.3889572  53.5713182  44.8312736   8.9074137  58.0065359
  43.9754333   8.5180987  57.8270998  45.2439688   8.9866098  57.1465145
  46.3611883   6.4420480  62.4056919  45.8576678   6.4050615  61.5924724
  46.6542490   7.3513223  62.4653575  42.6054769   6.5259210  61.4123101
  43.4707766   6.3302019  61.0528990  42.6732278   6.2969562  62.3392457
  52.2199899  16.8156791  54.8833294  51.4429342  16.4767950  54.4388456
  52.8991380  16.8209414  54.2088259  47.0351928  11.9351528  54.7739902
  46.7302064  12.2497677  55.6250045  47.9882370  12.0132948  54.8167235
  45.4798360  18.0941751  56.4232856  44.9519722  17.3594511  56.1106093
  44.9785863  18.8716428  56.1772824  50.4591206  16.2890772  61.5399902
  49.8014881  16.9790033  61.6280031  51.2631605  16.6787204  61.8833888
  40.2117088   8.7561418  58.7839467  40.7860840   8.5336599  58.0512660
  40.7988070   8.8250112  59.5368069  49.2696665  14.6435145  59.5903844
  49.7828547  15.2765136  60.0925554  49.9197889  14.0436340  59.2247204
  40.5386675  10.7865879  52.8035353  39.7023987  11.1240565  53.1244627
  40.3991445  10.6514859  51.8662490  42.5139756   5.6302667  57.5114537
  41.8604168   5.3151684  56.8871152  42.4720230   5.0078407  58.2374360
  43.6250960  15.9121962  49.4267829  42.7178022  15.6811215  49.6258978
  44.1221992  15.1159581  49.6141810  46.5319039  24.6219469  52.3464515
  45.8580738  24.9251166  52.9549473  46.9184861  25.4248549  51.9969972
  45.7477496  12.1184600  61.8362184  44.8300057  12.3399547  61.6783872
  46.1637640  12.1930911  60.9773892  46.5312544  13.5176016  56.9664865
  47.2784363  14.0297413  56.6571987  46.8004133  13.1960069  57.8269258
  44.8039194  16.0134557  53.9491819  43.8950413  15.7293589  54.0464289
  44.8334278  16.4333635  53.0895126  50.0358461  19.6241146  57.7182987
  49.5820788  18.7832056  57.7748177  49.4052428  20.2602544  58.0557767
  48.9791381  10.5533132  58.9483654  48.2414138  10.0410518  59.2793897
  49.2318154  10.1133514  58.1366931  48.4791400  21.4617643  58.6532805
  48.7714375  22.0222700  57.9345170  48.9890021  21.7546204  59.4085964
  49.0803008   3.3309384  59.5425423  49.3861885   2.4706748  59.2551338
  49.8055613   3.9227004  59.3424417  35.3727364  13.7340071  57.9307021
  35.1751764  13.1409431  57.2058088  34.8174028  13.4292281  58.6482960
  43.3524088  13.6263177  60.0501614  43.4072698  12.6737014  59.9744091
  42.5415290  13.7822616  60.5342913  44.5015282  17.5543300  51.2879898
  44.0634712  16.8379159  50.8285535  45.2425723  17.7819415  50.7264989
  41.2916448  12.2440237  57.8091993  40.4784313  12.5434407  58.2157185
  41.7875442  11.8495926  58.5266475  43.4425026  22.2397994  59.7426258
  43.4001204  22.4658840  58.8134790  44.3587725  22.0061368  59.8912059
  46.8890659  12.7082061  66.6406887  47.2440047  12.9353535  67.5001353
  47.5362791  13.0400438  66.0184142  52.6188396  15.8300497  57.3456216
  52.4806295  16.0202093  56.4177405  52.2624615  16.5919880  57.8024267
  40.7830523   9.8158592  63.4253228  41.4229902   9.6747352  62.7276191
  39.9508053   9.5293106  63.0491830  52.6457776  17.8977024  62.3567488
  53.0794283  17.8052313  63.2050542  53.3589357  17.8734525  61.7187504
  41.5590826  19.1161023  59.5388221  42.3531425  18.6211343  59.3370796
  40.8482519  18.5878886  59.1755926  46.3785671  21.4979118  63.8900588
  46.4322693  22.0670055  64.6578304  45.5100452  21.6681003  63.5254625
  37.8673590  13.2604105  55.6147973  36.9371178  13.1988560  55.8317935
  37.9631062  12.7380057  54.8184615  37.7859139   9.7858917  58.2026215
  38.0465956  10.7004251  58.0935375  38.6076311   9.3183360  58.3522828
  39.2584064  11.1996675  65.3725039  39.9307118  10.9914037  64.7237688
  38.4313851  11.0018761  64.9330272  53.5073326  17.9400725  64.8900373
  53.7009216  18.8446535  65.1359648  53.4073944  17.4808144  65.7238958
  45.1609636   7.8258616  67.3890700  44.5137551   8.5248565  67.2955177
  45.9310652   8.2594759  67.7566949  48.5688434  18.0907468  70.4641254
  48.4173941  17.8618019  69.5471337  48.5593114  19.0478069  70.4772599
  45.3373771  15.6639380  65.4487520  46.2665831  15.8150540  65.2756487
  44.9164801  15.7523401  64.5936167  44.1362102  19.6890045  63.2186058
  43.9973188  19.3208829  64.0911996  43.3476699  20.2037684  63.0470015
  44.7310254  24.7899141  54.5611594  44.9062010  24.3187185  55.3757217
  44.0443042  25.4164908  54.7892855  45.6867318  19.0671648  60.6074895
  45.3517150  19.0272418  61.5032545  45.1871263  18.4016363  60.1345306
  39.6611562  14.4739278  66.1327477  39.5231359  13.7419516  66.7339016
  40.5716485  14.3848178  65.8511664  48.6226509  16.4127682  50.8811955
  48.0055680  15.6874510  50.7845008  48.1542998  17.1737042  50.5379029
  42.2893862  14.1859237  65.6211156  42.9993481  13.5452429  65.5797775
  42.2463170  14.4372132  66.5437337  50.2780641  21.1226590  68.5417735
  50.2193187  20.4385810  67.8748319  50.6800159  21.8645580  68.0898361
  41.0022796  11.1724455  67.4406796  40.4660153  10.7215193  68.0928392
  40.4139505  11.3070364  66.6977260  39.2971340  27.9388504  61.3351454
  39.5367938  28.5707028  62.0130473  38.4540536  27.5876544  61.6216814
  40.4125055  10.6313106  50.0033259  39.5354521  10.5101907  49.6395506
  40.8882808   9.8399185  49.7512148  50.2798048  19.0866174  66.7731715
  49.3924827  18.7492096  66.8958114  50.8496599  18.3549205  67.0100481
  31.9327195  15.4190266  60.0974767  32.6198235  15.1051996  59.5095782
  31.7775324  16.3231631  59.8242018  36.7361917  10.3080463  64.5259790
  36.6520106   9.7006132  63.7910200  35.9144624  10.7989481  64.5269287
  43.8099202  23.7467627  63.7392958  43.7369373  24.5522598  64.2512263
  43.3676595  23.9459592  62.9140980  43.5988981  22.9839397  57.2495780
  42.8156503  23.5261077  57.3434004  44.2981726  23.5013376  57.6490021
  46.9085631   8.7934026  59.8929985  47.4054331   8.0403988  59.5731056
  46.1372613   8.8298343  59.3273195  54.7615389  14.4974392  61.5348277
  54.7505265  15.3799107  61.1642210  53.8932768  14.1445942  61.3402814
  46.2697885  23.6454461  65.8951117  46.9825857  24.2801925  65.8227018
  45.7787914  23.7418327  65.0791119  47.9915412  17.5505713  57.4668409
  47.0571691  17.6707176  57.2973113  48.1692080  16.6478180  57.2028419
  43.4920600  10.9351409  59.6201670  43.1218388  10.3822449  60.3082575
  43.9879693  10.3309543  59.0676670  51.3787963  13.3923033  58.0018443
  51.8448416  14.2251024  57.9278745  51.8295464  12.9268014  58.7063701
  41.3209799  21.3948904  66.7156688  42.0219258  22.0285387  66.8686082
  40.8504914  21.7363636  65.9552327  49.4464194  19.7366854  55.0004595
  49.7224038  19.6223448  55.9098469  48.5768693  19.3384339  54.9616768
  49.3504626   5.7603620  62.0409344  48.4367706   5.9907846  62.2091551
  49.7797728   5.8442064  62.8923377  49.1211085  13.9493511  64.5409238
  48.4682535  14.1969419  63.8861691  49.4991464  13.1357650  64.2071715
  46.0818258  23.9853205  58.6437408  46.2640653  23.1674861  59.1065161
  46.9051244  24.2020897  58.2062298  46.4160424  22.9121390  55.9052457
  46.9448190  22.4013844  55.2922619  46.6788644  22.5963920  56.7697990
  45.1698658  14.6913323  71.0275275  44.4939295  14.5907452  71.6977650
  45.9926292  14.5352536  71.4911272  36.9177517  20.9285259  63.6487791
  37.5030954  20.1828947  63.7815695  36.7202355  21.2389216  64.5324454
  39.7716172  23.9636506  58.6650233  39.1026547  24.4482634  58.1814273
  39.6329042  24.2105727  59.5793611  31.5095171  13.4990859  62.3692234
  31.5479271  12.9654450  63.1629352  31.0035464  12.9726065  61.7503211
  43.9121440  25.9980250  65.2632891  44.4639749  26.1611872  66.0281976
  44.2527634  26.5884688  64.5912916  38.8885934   8.3455400  65.8654776
  38.9527260   9.2070231  65.4532174  38.8253054   7.7329401  65.1327134
  38.3638206  10.4178532  69.5127810  38.9910245  10.0355610  70.1265335
  37.5066125  10.1992734  69.8783503  48.7632315  20.8241508  71.1181546
  49.3072219  21.4371466  70.6236500  48.1819160  21.3821086  71.6348559
  35.1403749  12.2254961  55.4446165  35.4357190  11.3165640  55.3913219
  34.2391785  12.2042701  55.1227167  47.0489828  23.9462226  62.2496573
  46.9240967  23.1451965  61.7407519  47.7068919  24.4408419  61.7610543
  38.6697996  10.3010958  61.4273714  37.9484582  10.9146926  61.2881187
  39.4591252  10.8368723  61.3490360  49.1124736  21.7471246  63.8776124
  48.1655072  21.6276597  63.8054450  49.4607509  20.8593744  63.9602385
  41.4724310   7.6365385  67.7014365  41.9958711   7.8827681  68.4640675
  41.2536643   8.4685419  67.2817503  36.8691591   9.9069059  55.5685490
  36.5404297   9.0266438  55.3860596  37.2230961   9.8516728  56.4561879
  46.1171169  21.5423962  60.0780476  45.9696132  20.6140669  60.2588046
  46.9424663  21.5644053  59.5937551  39.9833414  10.1942029  55.9360968
  40.3229486  10.7227950  55.2139576  40.4305534  10.5322435  56.7119534
  49.7205291  22.3652521  61.1645349  50.6451839  22.1595382  61.0269800
  49.5520595  22.1168922  62.0734690  42.6776855   8.5779080  65.3864036
  42.3373675   7.7786893  65.7884716  41.9715861   8.8780790  64.8140869
  43.3293326   5.6628392  63.8391359  44.1519396   5.1888870  63.7170249
  43.5731390   6.4418876  64.3390045  41.9701561   8.6916651  54.1354261
  42.6909923   9.0697903  53.6317978  41.3466865   9.4105527  54.2389239
  46.1132684   9.3961799  55.0712593  46.3296298  10.2786437  54.7701421
  45.6326751   9.0048013  54.3418235  40.8531905  12.3547513  61.6483338
  40.7076486  12.6687816  62.5407619  40.3757109  12.9732413  61.0954236
  42.7128288   9.3450061  61.6964227  42.6989857   8.4491154  61.3596525
  43.4300716   9.3520724  62.3302513  44.5654419   9.7787401  63.7417355
  44.3072197  10.7004472  63.7401685  44.0339459   9.3817835  64.4317819
  49.5100608  22.8838188  56.5207440  49.6837485  22.3184610  55.7681292
  50.0029499  23.6839083  56.3386930  35.3277567  14.8952857  64.5870999
  34.7831035  15.6712665  64.7191273  36.2056917  15.2423662  64.4290120
  42.1165184   8.2264441  56.9651797  42.2381095   7.2981087  57.1642685
  41.8267226   8.2403127  56.0530113  44.9856374   5.9119351  60.1018517
  45.0078071   5.9758684  59.1470497  45.4024433   5.0723860  60.2959023
  55.3639999  15.6474611  58.1397740  55.8071145  14.8981936  57.7416863
  54.4866509  15.6384747  57.7571472  50.4975780  22.2004952  53.6204338
  51.1926685  22.8211645  53.8391653  50.8398930  21.3500304  53.8956716
  36.1143589  14.0222753  67.4801156  35.3725325  14.1705389  68.0665786
  35.7936333  14.2831019  66.6167905  52.3967203  19.6504658  55.1491669
  52.9218527  19.9891931  54.4240989  52.3089556  18.7151673  54.9654804
  44.0587252  23.5638732  67.2781546  44.3674378  23.3187878  68.1504245
  44.8562734  23.7685370  66.7900416  44.0807864  25.7176641  59.5086922
  43.6412854  25.2253020  60.2019779  44.8315981  25.1749609  59.2678997
  36.5600203  21.9088182  59.5111550  37.3858223  21.6091954  59.1310194
  36.2094255  21.1395805  59.9601339  41.5281736  21.2614650  61.5809224
  40.9061745  20.5985355  61.2811452  42.1986603  21.2875782  60.8982872
  34.7608808  19.8274509  60.4700484  33.9240716  19.3996683  60.2884485
  34.7332453  20.0206952  61.4071275  41.6006264   9.7396438  71.1741730
  41.6494419  10.6158561  70.7919499  42.1428778   9.1973831  70.6013373
  52.0861109  20.2837562  70.4542867  51.2956653  20.2661700  69.9147366
  51.8494464  20.8225855  71.2091904  52.2058984  17.1330028  67.7675595
  52.2556989  16.9680035  68.7091118  52.0972908  16.2657287  67.3773476
  41.0895243  19.8118574  55.0567684  41.2383363  20.4954038  54.4034357
  41.8961686  19.7923664  55.5717140  49.4962747  13.1160956  69.0834902
  50.3972609  12.9767421  68.7918900  49.5710721  13.2815411  70.0233080
  43.8305552  10.4927811  67.9288089  42.9608861  10.7861377  67.6570677
  44.0665032  11.0768256  68.6495352  53.7077181  19.5526969  68.0117617
  53.4161989  19.9156950  68.8481078  53.0949312  18.8393978  67.8330949
  54.9072863  17.1179849  60.5320187  55.7419755  17.5569653  60.6957748
  55.0431992  16.6418502  59.7128433  51.9564369  14.6759584  66.4797675
  52.4318491  14.8687230  65.6716526  51.0329935  14.7318770  66.2341059
  38.8447876  15.8383751  56.0628753  38.5993918  14.9346081  56.2608963
  39.0143790  15.8400902  55.1208231  46.5344586   6.7107428  65.4453509
  47.0526530   7.4468455  65.1199997  46.1799719   7.0171421  66.2800268
  38.1143523  11.5712109  53.5614915  37.4212768  11.6456464  52.9054951
  37.8695275  10.8072452  54.0836432  46.7857180   3.1307710  60.9654406
  47.0658934   2.4630899  61.5914832  47.5707787   3.3236806  60.4529069
  44.5890648  22.3066704  52.5279432  44.0164616  22.9256891  52.0749904
  45.1623442  22.8566066  53.0619354  50.6566038  11.5525344  64.7125981
  51.6083461  11.6523442  64.7338205  50.4869489  10.7603613  65.2224065
  48.6780418   8.6380927  64.8985382  48.0830350   8.9185940  64.2031870
  48.3930114   9.1274828  65.6702123  47.8087908  22.5903854  53.6588014
  48.7418581  22.5249416  53.8620890  47.7211121  23.4260121  53.2002547
  50.4375925  21.9069725  50.6191962  50.3589556  21.5729588  51.5127720
  51.2585592  22.3991492  50.6183434  53.1354116  14.7731464  63.8268280
  53.1030436  13.8347465  64.0127964  53.7454740  14.8515501  63.0934105
  44.9737447  13.6427517  49.8695484  45.9196552  13.5133725  49.9383902
  44.5951692  12.9042179  50.3464912  53.2848605  11.5642507  63.8726563
  52.7687653  10.7800964  63.6856492  54.1688553  11.2361224  64.0373083
  50.9459331   5.3083523  59.8322376  50.7484153   4.9998611  60.7165708
  51.5559037   6.0345162  59.9620306  58.9530666  15.8347471  62.9674317
  59.6834054  15.5732759  63.5282020  58.3437611  15.0976193  63.0076385
  57.0345963  13.9755333  63.5648768  56.3079127  13.8411298  62.9565260
  56.6193250  14.2832162  64.3705486  44.8576139  17.6945263  71.3296141
  45.7779149  17.8723862  71.5236188  44.8225723  16.7501308  71.1775841
  43.1580364  11.5677493  49.8050370  42.2511819  11.2710606  49.8813083
  43.4356345  11.2707311  48.9384656  34.0758304  12.8883857  60.2549416
  33.7561089  12.0349165  59.9623790  33.5291733  13.1032435  61.0107383
  37.8538212  15.6046298  63.9718922  38.0724222  16.5363405  63.9906956
  38.2663986  15.2454272  64.7573726  44.7742430   6.1114383  55.9594611
  43.9643158   5.7661468  56.3349857  45.4626847   5.8021927  56.5482222
  46.7032978   5.1892430  57.5818907  47.2564017   5.6087883  58.2408931
  46.9403064   4.2628178  57.6241863  42.7266077  11.1779503  73.3621671
  42.6262804  12.1273860  73.2933762  42.5087619  10.8497742  72.4897741
  41.9279149   8.4264428  49.9462349  42.7898313   8.7519327  50.2058166
  42.1129493   7.6395924  49.4335415  33.9446564  16.5086768  62.2242538
  33.2510036  16.0940721  61.7112492  34.6919555  16.5507305  61.6275956
  50.0811785   7.2992955  57.0897572  49.5010454   7.9577759  56.7075624
  49.8147718   6.4770300  56.6784989  48.5315352   6.6998013  59.2918892
  49.0315130   6.8114547  58.4833211  49.1750959   6.3959065  59.9319701
  42.5897347  14.6076642  72.1786733  42.1064429  15.4077002  72.3850622
  42.6758286  14.6184587  71.2254177  35.8583307  16.4405022  60.1008552
  35.8353995  16.5392709  59.1490436  36.1683944  17.2870173  60.4225719
  38.5170685  18.4981177  64.2155167  39.4713938  18.4665119  64.1485098
  38.3183208  18.0371801  65.0305393  39.1070067  17.0682293  66.7825964
  39.9262956  17.5626372  66.8060802  39.3806875  16.1514261  66.7543532
  48.8636663   9.4593045  56.1453920  47.9762518   9.7442696  55.9274115
  49.2790652   9.2986809  55.2981197  52.2151199   9.4839566  59.8608259
  52.9911589   9.9736019  60.1332876  51.4899334   9.9097620  60.3180129
  54.6523758  10.1967186  60.9182200  55.2468249   9.9562921  60.2075508
  54.7250342   9.4774316  61.5455736  36.8720914  24.0400796  61.2325365
  36.7375382  23.2801197  60.6663363  36.4552976  24.7641696  60.7654154
  48.0079877  19.2237720  50.2401940  48.7115727  19.4287722  50.8559596
  47.2842525  19.7914482  50.5051024  48.8377687  14.9747581  56.3604210
  48.7812888  15.4316133  55.5211843  49.3906029  14.2138266  56.1827053
  52.6482493  10.7637313  57.1854330  52.3919427  10.3633949  58.0162537
  52.0235361  11.4781107  57.0604469  56.9594831  13.5033386  59.6925621
  56.3994389  13.5726576  60.4657183  56.3538334  13.3274371  58.9725117
  40.0290040  24.9370113  61.4443807  39.9122424  25.8815546  61.3422498
  39.2082486  24.6343675  61.8329607  49.9166574  19.6620249  52.2900400
  50.7512178  19.2301448  52.1077875  49.7550917  19.4902263  53.2177295
  49.5712466  16.1652362  53.6556739  49.5161270  15.9996634  52.7145183
  48.9458522  16.8728395  53.8118929  34.3604981  11.4020427  67.4818162
  35.0063845  10.8919381  67.9705387  34.1522132  12.1389109  68.0561587
  46.8858373  18.4701274  72.9810302  47.7549533  18.6441927  72.6196937
  46.4065125  19.2895691  72.8586031  42.8808592   5.6660471  53.2342058
  42.8687262   6.6102311  53.3910329  43.7732014   5.4830617  52.9401519
  41.0544554  25.5898375  64.6599736  41.9571800  25.6221986  64.9766231
  40.8281924  24.6598826  64.6746072  42.8098156  24.3429362  61.3209814
  41.8593787  24.3431224  61.2074187  43.1130642  23.5962096  60.8045849
  46.6960711   2.2603248  57.4887995  45.9293107   1.7061735  57.6344677
  47.1071416   2.3325117  58.3502146  38.7002472   8.5488044  71.5793176
  39.5633934   8.1924849  71.7896500  38.1267883   8.2101939  72.2668580
  58.5450849  30.1789900  62.3855577  59.1829259  30.0596648  61.6818917
  58.4271692  31.1270744  62.4443529  55.3540555  30.1317328  62.3217101
  55.0159067  30.0158393  61.4337636  56.2230324  29.7308493  62.3018108
  51.2127371  31.9852805  58.3113992  50.6492236  31.8942742  57.5430280
  51.0979766  31.1652709  58.7916485  55.8360338  31.2852180  68.2803307
  55.8248979  30.8904978  67.4083811  55.9980978  30.5518253  68.8737078
  56.7926930  35.6523772  53.6228457  56.1414910  36.2377853  53.2362471
  57.5871293  36.1829967  53.6823495  52.5567600  34.0689292  67.2282491
  52.2657466  34.9734923  67.1129157  53.1924584  34.1105820  67.9426561
  53.4823806  31.4466140  63.8183851  54.0787379  31.2222163  63.1040814
  53.5398778  30.7050886  64.4209298  53.0548835  28.9005576  51.6534042
  53.3074356  28.3787097  50.8917505  52.1173394  28.7371721  51.7560725
  58.0992118  27.9041354  59.4608785  58.8855207  27.4860777  59.1099202
  58.3630822  28.8087446  59.6290433  58.2702195  33.3414204  54.1597442
  57.6348028  33.4148831  54.8718346  57.9399601  33.9307803  53.4816521
  63.5000545  27.8416587  60.3641763  64.2325717  27.2715804  60.5979593
  62.7439901  27.4538188  60.8048269  52.7745124  30.8033682  53.8558417
  52.6581382  30.1278585  54.5239501  52.8847383  30.3166056  53.0390570
  55.1176665  30.2643829  57.5605106  54.7534872  29.7374450  58.2718027
  55.9743780  29.8742298  57.3871591  61.0225965  21.5538161  64.8236372
  60.6909290  22.4233572  64.5997587  60.4271579  21.2374445  65.5030402
  54.7582152  25.2933729  52.5566454  54.9256554  26.1613965  52.9236925
  54.5679321  25.4561010  51.6327744  57.5157485  33.7550707  64.2232285
  57.2158208  34.6575746  64.1148092  57.1708544  33.4882891  65.0753438
  50.9669966  30.2064504  60.2568989  50.0420463  30.0740718  60.4646681
  51.2154379  30.9858724  60.7538932  60.9154628  26.2733248  61.9029722
  60.0071506  26.2048656  61.6088483  60.8642224  26.7505193  62.7311547
  54.7371372  27.7491386  53.5413121  54.6170998  28.1948437  54.3798601
  54.0423961  28.0976704  52.9826659  48.3278777  29.8497778  61.0912778
  48.4571158  30.1032257  62.0052190  47.6476229  30.4425486  60.7717433
  54.9895494  27.6922893  69.8464619  54.2128828  28.2516813  69.8367484
  55.6286057  28.1779676  70.3679489  62.7816275  24.4749686  63.6807596
  62.1390655  24.7682219  63.0347391  62.2771203  24.3602606  64.4860793
  60.4356439  28.2212859  54.3693455  61.3474295  28.4540246  54.1941153
  59.9266086  28.8049903  53.8068534  53.2441867  30.5008347  69.4082586
  53.9856551  31.0393391  69.1317410  52.5378852  31.1274635  69.5654138
  58.7197206  32.6437487  68.0054748  59.1280562  32.2019898  67.2609380
  57.9974468  32.0690115  68.2588941  55.0728276  27.5810094  65.3788305
  55.9189471  28.0049507  65.5222954  55.0126914  26.9243718  66.0726868
  59.0426021  33.2038678  61.7607037  58.4134883  33.3684392  61.0583104
  58.6551683  33.6180287  62.5318001  62.9215253  34.1393116  59.1151400
  62.2366291  34.5192017  58.5648434  63.0059102  34.7488442  59.8483348
  58.2227722  25.2414462  67.0369478  57.9788653  25.9956523  66.5003754
  58.4987652  25.6199810  67.8716725  60.1766184  31.7853075  65.7146744
  60.3883080  32.4284834  65.0381125  60.1295933  30.9515391  65.2468674
  57.7792413  24.3970895  62.6183316  56.9176892  24.6952149  62.9100054
  57.8054848  24.6141294  61.6864349  54.5953983  32.9413086  59.0257122
  55.0592328  33.2200789  58.2361744  54.3310781  32.0396530  58.8430212
  53.5322869  29.0636238  55.8346687  54.2346912  29.5157282  56.3020613
  53.2003497  28.4220057  56.4626580  51.9803230  27.6547995  70.2097896
  51.3501891  28.3364276  70.4433293  51.8739318  27.5431076  69.2651035
  47.2748203  27.3219791  61.1363820  46.4847257  27.5777319  60.6603931
  47.7659450  28.1368129  61.2415861  61.2912012  34.6625030  63.8869101
  62.1129456  34.2605217  63.6051783  61.2874415  34.5593264  64.8385217
  49.2262948  27.6864370  58.0947297  48.4294111  27.7983064  58.6130793
  48.9988540  28.0251022  57.2288188  55.0568616  34.2109073  66.0429812
  55.1213048  34.6729480  66.8787984  54.3479540  33.5806438  66.1712122
  45.5585906  27.5750281  63.5678811  45.8093944  28.4597291  63.8336387
  46.0945454  27.3954883  62.7953903  69.3818005  31.0063778  60.2354073
  68.6281714  30.4371177  60.0798077  69.5165547  30.9726443  61.1824707
  51.2583973  21.9568761  72.5723147  50.8650919  21.4034959  73.2470792
  52.0750113  22.2679339  72.9629665  54.1751934  23.3726640  70.1643404
  54.9161647  23.9733793  70.0847866  54.4069857  22.6304277  69.6061446
  49.3193272  28.5583007  68.4421634  49.2046787  27.6568264  68.7428732
  48.4637790  28.8046704  68.0906450  56.3985110  36.5000747  70.0409134
  55.9548964  35.7137126  69.7230039  57.0602323  36.6879898  69.3753025
  58.4966348  36.7803547  68.0690535  58.4784823  37.6012428  67.5770805
  59.4186268  36.6557622  68.2940677  54.9539402  34.2947677  68.9114044
  55.4867739  33.5335965  68.6813352  54.4253483  34.0021328  69.6538198
  58.1209097  19.4007743  64.4407686  57.7773366  20.2909384  64.3646796
  58.4888060  19.2109400  63.5777271  58.0859380  29.3916354  52.9480121
  57.5706003  30.1620958  53.1868508  57.8136688  28.7181490  53.5713182
  55.6706491  24.2366055  58.0065359  54.8148087  23.8472905  57.8270998
  56.0833442  24.3158015  57.1465145  57.2005637  21.7712398  62.4056919
  56.6970433  21.7342533  61.5924724  57.4936244  22.6805140  62.4653575
  53.4448523  21.8551127  61.4123101  54.3101520  21.6593936  61.0528990
  53.5126032  21.6261479  62.3392457  63.0593654  32.1448708  54.8833294
  62.2823097  31.8059868  54.4388456  63.7385135  32.1501332  54.2088259
  57.8745683  27.2643446  54.7739902  57.5695818  27.5789595  55.6250045
  58.8276125  27.3424866  54.8167235  56.3192115  33.4233669  56.4232856
  55.7913476  32.6886429  56.1106093  55.8179617  34.2008345  56.1772824
  61.2984961  31.6182690  61.5399902  60.6408635  32.3081951  61.6280031
  62.1025360  32.0079122  61.8833888  51.0510842  24.0853335  58.7839467
  51.6254594  23.8628517  58.0512660  51.6381825  24.1542030  59.5368069
  60.1090420  29.9727062  59.5903844  60.6222301  30.6057054  60.0925554
  60.7591643  29.3728258  59.2247204  51.3780429  26.1157796  52.8035353
  50.5417742  26.4532483  53.1244627  51.2385199  25.9806776  51.8662490
  53.3533510  20.9594584  57.5114537  52.6997922  20.6443601  56.8871152
  53.3113984  20.3370325  58.2374360  54.4644715  31.2413879  49.4267829
  53.5571777  31.0103133  49.6258978  54.9615747  30.4451499  49.6141810
  57.3712794  39.9511387  52.3464515  56.6974493  40.2543083  52.9549473
  57.7578616  40.7540467  51.9969972  56.5871250  27.4476518  61.8362184
  55.6693812  27.6691465  61.6783872  57.0031394  27.5222828  60.9773892
  57.3706298  28.8467934  56.9664865  58.1178117  29.3589331  56.6571987
  57.6397888  28.5251986  57.8269258  55.6432948  31.3426474  53.9491819
  54.7344168  31.0585507  54.0464289  55.6728032  31.7625553  53.0895126
  60.8752216  34.9533064  57.7182987  60.4214543  34.1123974  57.7748177
  60.2446182  35.5894462  58.0557767  59.8185135  25.8825050  58.9483654
  59.0807892  25.3702436  59.2793897  60.0711909  25.4425431  58.1366931
  59.3185155  36.7909560  58.6532805  59.6108129  37.3514618  57.9345170
  59.8283776  37.0838121  59.4085964  59.9196763  18.6601302  59.5425423
  60.2255639  17.7998665  59.2551338  60.6449367  19.2518922  59.3424417
  46.2121119  29.0631988  57.9307021  46.0145519  28.4701349  57.2058088
  45.6567783  28.7584199  58.6482960  54.1917842  28.9555095  60.0501614
  54.2466452  28.0028931  59.9744091  53.3809044  29.1114534  60.5342913
  55.3409036  32.8835218  51.2879898  54.9028466  32.1671077  50.8285535
  56.0819477  33.1111333  50.7264989  52.1310202  27.5732155  57.8091993
  51.3178068  27.8726325  58.2157185  52.6269196  27.1787843  58.5266475
  57.7284414  28.0373979  66.6406887  58.0833802  28.2645452  67.5001353
  58.3756545  28.3692356  66.0184142  63.4582151  31.1592415  57.3456216
  63.3200050  31.3494011  56.4177405  63.1018370  31.9211798  57.8024267
  51.6224277  25.1450510  63.4253228  52.2623656  25.0039269  62.7276191
  50.7901808  24.8585024  63.0491830  63.4851531  33.2268942  62.3567488
  63.9188037  33.1344231  63.2050542  64.1983111  33.2026442  61.7187504
  57.2179425  36.8271036  63.8900588  57.2716448  37.3961972  64.6578304
  56.3494207  36.9972921  63.5254625  48.7067344  28.5896022  55.6147973
  47.7764933  28.5280478  55.8317935  48.8024816  28.0671975  54.8184615
  48.6252893  25.1150835  58.2026215  48.8859711  26.0296168  58.0935375
  49.4470066  24.6475278  58.3522828  50.0977819  26.5288592  65.3725039
  50.7700872  26.3205954  64.7237688  49.2707605  26.3310678  64.9330272
  64.3467080  33.2692643  64.8900373  64.5402970  34.1738453  65.1359648
  64.2467698  32.8100062  65.7238958  56.0003391  23.1550533  67.3890700
  55.3531306  23.8540483  67.2955177  56.7704406  23.5886677  67.7566949
  59.4082189  33.4199385  70.4641254  59.2567695  33.1909937  69.5471337
  59.3986868  34.3769987  70.4772599  56.1767525  30.9931298  65.4487520
  57.1059585  31.1442458  65.2756487  55.7558555  31.0815319  64.5936167
  54.9755857  35.0181963  63.2186058  54.8366943  34.6500747  64.0911996
  54.1870453  35.5329602  63.0470015  50.5005316  29.8031195  66.1327477
  50.3625114  29.0711434  66.7339016  51.4110240  29.7140095  65.8511664
  59.4620264  31.7419600  50.8811955  58.8449434  31.0166428  50.7845008
  58.9936752  32.5028960  50.5379029  53.1287617  29.5151155  65.6211156
  53.8387235  28.8744347  65.5797775  53.0856925  29.7664049  66.5437337
  61.1174395  36.4518508  68.5417735  61.0586942  35.7677728  67.8748319
  61.5193914  37.1937498  68.0898361  51.8416551  26.5016372  67.4406796
  51.3053908  26.0507111  68.0928392  51.2533259  26.6362281  66.6977260
  51.2518810  25.9605024  50.0033259  50.3748276  25.8393825  49.6395506
  51.7276563  25.1691102  49.7512148  61.1191803  34.4158092  66.7731715
  60.2318581  34.0784014  66.8958114  61.6890354  33.6841123  67.0100481
  42.7720950  30.7482184  60.0974767  43.4591990  30.4343914  59.5095782
  42.6169078  31.6523548  59.8242018  47.5755672  25.6372380  64.5259790
  47.4913861  25.0298050  63.7910200  46.7538378  26.1281398  64.5269287
  57.7479386  24.1225944  59.8929985  58.2448085  23.3695906  59.5731056
  56.9766367  24.1590260  59.3273195  65.6009143  29.8266309  61.5348277
  65.5899019  30.7091025  61.1642210  64.7326523  29.4737860  61.3402814
  57.1091640  38.9746378  65.8951117  57.8219612  39.6093843  65.8227018
  56.6181668  39.0710244  65.0791119  58.8309166  32.8797631  57.4668409
  57.8965445  32.9999093  57.2973113  59.0085835  31.9770098  57.2028419
  54.3314355  26.2643327  59.6201670  53.9612142  25.7114367  60.3082575
  54.8273447  25.6601460  59.0676670  62.2181718  28.7214950  58.0018443
  62.6842170  29.5542942  57.9278745  62.6689218  28.2559932  58.7063701
  52.1603553  36.7240822  66.7156688  52.8613013  37.3577305  66.8686082
  51.6898668  37.0655553  65.9552327  60.2857949  35.0658772  55.0004595
  60.5617793  34.9515366  55.9098469  59.4162448  34.6676256  54.9616768
  60.1898381  21.0895537  62.0409344  59.2761460  21.3199764  62.2091551
  60.6191482  21.1733981  62.8923377  59.9604839  29.2785429  64.5409238
  59.3076289  29.5261337  63.8861691  60.3385219  28.4649567  64.2071715
  57.2554178  38.2413307  55.9052457  57.7841945  37.7305762  55.2922619
  57.5182398  37.9255838  56.7697990  56.0092412  30.0205240  71.0275275
  55.3333049  29.9199370  71.6977650  56.8320046  29.8644454  71.4911272
  42.3488926  28.8282777  62.3692234  42.3873025  28.2946368  63.1629352
  41.8429219  28.3017982  61.7503211  49.7279688  23.6747317  65.8654776
  49.7921015  24.5362148  65.4532174  49.6646808  23.0621319  65.1327134
  49.2031961  25.7470450  69.5127810  49.8304000  25.3647527  70.1265335
  48.3459880  25.5284652  69.8783503  59.6026069  36.1533425  71.1181546
  60.1465973  36.7663383  70.6236500  59.0212914  36.7113004  71.6348559
  45.9797503  27.5546879  55.4446165  46.2750945  26.6457558  55.3913219
  45.0785539  27.5334619  55.1227167  49.5091750  25.6302876  61.4273714
  48.7878336  26.2438843  61.2881187  50.2985006  26.1660641  61.3490360
  59.9518491  37.0763163  63.8776124  59.0048826  36.9568514  63.8054450
  60.3001264  36.1885661  63.9602385  52.3118064  22.9657302  67.7014365
  52.8352466  23.2119599  68.4640675  52.0930397  23.7977337  67.2817503
  47.7085345  25.2360977  55.5685490  47.3798051  24.3558356  55.3860596
  48.0624716  25.1808645  56.4561879  50.8227168  25.5233947  55.9360968
  51.1623241  26.0519868  55.2139576  51.2699289  25.8614353  56.7119534
  60.5599046  37.6944438  61.1645349  61.4845593  37.4887300  61.0269800
  60.3914349  37.4460839  62.0734690  53.5170609  23.9070997  65.3864036
  53.1767429  23.1078810  65.7884716  52.8109615  24.2072708  64.8140869
  54.1687081  20.9920310  63.8391359  54.9913150  20.5180788  63.7170249
  54.4125144  21.7710793  64.3390045  52.8095315  24.0208568  54.1354261
  53.5303678  24.3989821  53.6317978  52.1860620  24.7397445  54.2389239
  56.9526438  24.7253717  55.0712593  57.1690053  25.6078355  54.7701421
  56.4720505  24.3339931  54.3418235  51.6925660  27.6839430  61.6483338
  51.5470240  27.9979733  62.5407619  51.2150863  28.3024331  61.0954236
  53.5522043  24.6741978  61.6964227  53.5383611  23.7783072  61.3596525
  54.2694471  24.6812642  62.3302513  55.4048173  25.1079319  63.7417355
  55.1465951  26.0296389  63.7401685  54.8733214  24.7109753  64.4317819
  60.3494362  38.2130106  56.5207440  60.5231240  37.6476528  55.7681292
  60.8423253  39.0131001  56.3386930  46.1671322  30.2244775  64.5870999
  45.6224790  31.0004583  64.7191273  47.0450672  30.5715579  64.4290120
  52.9558938  23.5556359  56.9651797  53.0774850  22.6273005  57.1642685
  52.6660981  23.5695045  56.0530113  55.8250129  21.2411269  60.1018517
  55.8471826  21.3050602  59.1470497  56.2418188  20.4015778  60.2959023
  66.2033753  30.9766529  58.1397740  66.6464899  30.2273854  57.7416863
  65.3260263  30.9676665  57.7571472  61.3369534  37.5296870  53.6204338
  62.0320439  38.1503563  53.8391653  61.6792685  36.6792221  53.8956716
  46.9537344  29.3514671  67.4801156  46.2119080  29.4997306  68.0665786
  46.6330088  29.6122937  66.6167905  63.2360958  34.9796576  55.1491669
  63.7612282  35.3183848  54.4240989  63.1483310  34.0443591  54.9654804
  54.8981006  38.8930649  67.2781546  55.2068133  38.6479796  68.1504245
  55.6956488  39.0977288  66.7900416  52.4400018  25.0688356  71.1741730
  52.4888173  25.9450479  70.7919499  52.9822532  24.5265749  70.6013373
  62.9254864  35.6129479  70.4542867  62.1350407  35.5953618  69.9147366
  62.6888218  36.1517773  71.2091904  63.0452739  32.4621946  67.7675595
  63.0950744  32.2971953  68.7091118  62.9366662  31.5949205  67.3773476
  60.3356501  28.4452874  69.0834902  61.2366364  28.3059339  68.7918900
  60.4104476  28.6107328  70.0233080  54.6699306  25.8219728  67.9288089
  53.8002616  26.1153294  67.6570677  54.9058787  26.4060173  68.6495352
  64.5470936  34.8818887  68.0117617  64.2555744  35.2448868  68.8481078
  63.9343067  34.1685895  67.8330949  65.7466618  32.4471767  60.5320187
  66.5813509  32.8861571  60.6957748  65.8825747  31.9710420  59.7128433
  62.7958124  30.0051502  66.4797675  63.2712245  30.1979148  65.6716526
  61.8723689  30.0610688  66.2341059  49.6841630  31.1675669  56.0628753
  49.4387672  30.2637999  56.2608963  49.8537545  31.1692819  55.1208231
  57.3738340  22.0399345  65.4453509  57.8920284  22.7760372  65.1199997
  57.0193473  22.3463339  66.2800268  48.9537278  26.9004027  53.5614915
  48.2606523  26.9748382  52.9054951  48.7089030  26.1364370  54.0836432
  57.6250934  18.4599628  60.9654406  57.9052688  17.7922817  61.5914832
  58.4101541  18.6528723  60.4529069  55.4284403  37.6358622  52.5279432
  54.8558370  38.2548809  52.0749904  56.0017197  38.1857983  53.0619354
  61.4959793  26.8817262  64.7125981  62.4477216  26.9815360  64.7338205
  61.3263243  26.0895530  65.2224065  59.5174172  23.9672845  64.8985382
  58.9224104  24.2477858  64.2031870  59.2323869  24.4566746  65.6702123
  58.6481663  37.9195772  53.6588014  59.5812336  37.8541334  53.8620890
  58.5604876  38.7552039  53.2002547  61.2769679  37.2361642  50.6191962
  61.1983311  36.9021506  51.5127720  62.0979346  37.7283410  50.6183434
  63.9747871  30.1023382  63.8268280  63.9424191  29.1639382  64.0127964
  64.5848494  30.1807418  63.0934105  55.8131201  28.9719435  49.8695484
  56.7590306  28.8425643  49.9383902  55.4345446  28.2334096  50.3464912
  64.1242359  26.8934425  63.8726563  63.6081408  26.1092882  63.6856492
  65.0082308  26.5653142  64.0373083  61.7853086  20.6375441  59.8322376
  61.5877907  20.3290529  60.7165708  62.3952792  21.3637079  59.9620306
  69.7924420  31.1639388  62.9674317  70.5227809  30.9024677  63.5282020
  69.1831366  30.4268110  63.0076385  67.8739718  29.3047251  63.5648768
  67.1472881  29.1703216  62.9565260  67.4587004  29.6124080  64.3705486
  55.6969894  33.0237181  71.3296141  56.6172903  33.2015780  71.5236188
  55.6619477  32.0793226  71.1775841  53.9974119  26.8969411  49.8050370
  53.0905574  26.6002524  49.8813083  54.2750100  26.5999229  48.9384656
  44.9152059  28.2175774  60.2549416  44.5954843  27.3641083  59.9623790
  44.3685487  28.4324352  61.0107383  48.6931967  30.9338215  63.9718922
  48.9117976  31.8655323  63.9906956  49.1057740  30.5746190  64.7573726
  55.6136184  21.4406301  55.9594611  54.8036913  21.0953386  56.3349857
  56.3020601  21.1313844  56.5482222  57.5426733  20.5184347  57.5818907
  58.0957771  20.9379801  58.2408931  57.7796819  19.5920096  57.6241863
  53.5659832  26.5071421  73.3621671  53.4656559  27.4565778  73.2933762
  53.3481374  26.1789660  72.4897741  52.7672903  23.7556346  49.9462349
  53.6292067  24.0811244  50.2058166  52.9523247  22.9687842  49.4335415
  44.7840319  31.8378686  62.2242538  44.0903790  31.4232639  61.7112492
  45.5313310  31.8799222  61.6275956  60.9205540  22.6284873  57.0897572
  60.3404209  23.2869677  56.7075624  60.6541472  21.8062217  56.6784989
  59.3709106  22.0289930  59.2918892  59.8708884  22.1406465  58.4833211
  60.0144714  21.7250983  59.9319701  53.4291102  29.9368560  72.1786733
  52.9458184  30.7368920  72.3850622  53.5152041  29.9476505  71.2254177
  46.6977061  31.7696940  60.1008552  46.6747750  31.8684627  59.1490436
  47.0077698  32.6162090  60.4225719  49.9463822  32.3974211  66.7825964
  50.7656710  32.8918289  66.8060802  50.2200629  31.4806179  66.7543532
  59.7030418  24.7884963  56.1453920  58.8156273  25.0734614  55.9274115
  60.1184407  24.6278726  55.2981197  63.0544954  24.8131484  59.8608259
  63.8305344  25.3027936  60.1332876  62.3293088  25.2389538  60.3180129
  65.4917512  25.5259103  60.9182200  66.0862003  25.2854839  60.2075508
  65.5644096  24.8066234  61.5455736  58.8473631  34.5529638  50.2401940
  59.5509481  34.7579640  50.8559596  58.1236280  35.1206400  50.5051024
  59.6771441  30.3039499  56.3604210  59.6206643  30.7608050  55.5211843
  60.2299784  29.5430184  56.1827053  63.4876247  26.0929231  57.1854330
  63.2313182  25.6925866  58.0162537  62.8629115  26.8073025  57.0604469
  67.7988585  28.8325304  59.6925621  67.2388143  28.9018493  60.4657183
  67.1932089  28.6566289  58.9725117  60.7560329  34.9912167  52.2900400
  61.5905933  34.5593365  52.1077875  60.5944672  34.8194181  53.2177295
  60.4106221  31.4944280  53.6556739  60.3555025  31.3288552  52.7145183
  59.7852276  32.2020313  53.8118929  45.1998736  26.7312345  67.4818162
  45.8457599  26.2211299  67.9705387  44.9915887  27.4681026  68.0561587
  57.7252128  33.7993192  72.9810302  58.5943288  33.9733844  72.6196937
  57.2458879  34.6187609  72.8586031  53.7202346  20.9952389  53.2342058
  53.7081016  21.9394229  53.3910329  54.6125768  20.8122535  52.9401519
  57.5354466  17.5895166  57.4887995  56.7686861  17.0353653  57.6344677
  57.9465171  17.6617035  58.3502146  49.5396227  23.8779962  71.5793176
  50.4027688  23.5216766  71.7896500  48.9661637  23.5393856  72.2668580
  66.1934310  45.4609246  62.3217101  65.8552821  45.3450311  61.4337636
  67.0624078  45.0600411  62.3018108  62.0521126  47.3144722  58.3113992
  61.4885991  47.2234659  57.5430280  61.9373521  46.4944627  58.7916485
  66.6754093  46.6144098  68.2803307  66.6642734  46.2196896  67.4083811
  66.8374732  45.8810170  68.8737078  67.6320684  50.9815690  53.6228457
  66.9808664  51.5669771  53.2362471  68.4265047  51.5121885  53.6823495
  68.9385872  43.2333272  59.4608785  69.7248961  42.8152695  59.1099202
  69.2024576  44.1379364  59.6290433  69.1095950  48.6706122  54.1597442
  68.4741782  48.7440749  54.8718346  68.7793356  49.2599721  53.4816521
  74.3394299  43.1708505  60.3641763  75.0719471  42.6007722  60.5979593
  73.5833655  42.7830105  60.8048269  63.6138878  46.1325599  53.8558417
  63.4975136  45.4570503  54.5239501  63.7241138  45.6457973  53.0390570
  65.9570419  45.5935747  57.5605106  65.5928626  45.0666367  58.2718027
  66.8137535  45.2034216  57.3871591  71.8619720  36.8830079  64.8236372
  71.5303044  37.7525490  64.5997587  71.2665333  36.5666363  65.5030402
  65.5975906  40.6225646  52.5566454  65.7650308  41.4905883  52.9236925
  65.4073075  40.7852928  51.6327744  71.7548383  41.6025165  61.9029722
  70.8465260  41.5340574  61.6088483  71.7035979  42.0797110  62.7311547
  65.5765127  43.0783304  53.5413121  65.4564752  43.5240354  54.3798601
  64.8817715  43.4268621  52.9826659  65.8289249  43.0214811  69.8464619
  65.0522583  43.5808731  69.8367484  66.4679812  43.5071594  70.3679489
  73.6210029  39.8041604  63.6807596  72.9784410  40.0974137  63.0347391
  73.1164958  39.6894524  64.4860793  71.2750193  43.5504777  54.3693455
  72.1868049  43.7832164  54.1941153  70.7659840  44.1341821  53.8068534
  64.0835621  45.8300264  69.4082586  64.8250305  46.3685308  69.1317410
  63.3772607  46.4566553  69.5654138  65.9122031  42.9102011  65.3788305
  66.7583226  43.3341425  65.5222954  65.8520668  42.2535636  66.0726868
  73.7609007  49.4685033  59.1151400  73.0760045  49.8483935  58.5648434
  73.8452857  50.0780360  59.8483348  69.0621476  40.5706380  67.0369478
  68.8182408  41.3248440  66.5003754  69.3381407  40.9491727  67.8716725
  68.6186168  39.7262813  62.6183316  67.7570647  40.0244066  62.9100054
  68.6448602  39.9433212  61.6864349  64.3716623  44.3928156  55.8346687
  65.0740667  44.8449199  56.3020613  64.0397252  43.7511975  56.4626580
  62.8196985  42.9839912  70.2097896  62.1895645  43.6656193  70.4433293
  62.7133073  42.8722994  69.2651035  60.0656703  43.0156288  58.0947297
  59.2687866  43.1274982  58.6130793  59.8382295  43.3542940  57.2288188
  80.2211760  46.3355696  60.2354073  79.4675468  45.7663094  60.0798077
  80.3559301  46.3018361  61.1824707  62.0977728  37.2860678  72.5723147
  61.7044673  36.7326877  73.2470792  62.9143868  37.5971257  72.9629665
  65.0145689  38.7018557  70.1643404  65.7555402  39.3025710  70.0847866
  65.2463611  37.9596195  69.6061446  67.2378864  51.8292665  70.0409134
  66.7942718  51.0429043  69.7230039  67.8996078  52.0171815  69.3753025
  68.9602851  34.7299660  64.4407686  68.6167121  35.6201302  64.3646796
  69.3281814  34.5401318  63.5777271  66.5100245  39.5657972  58.0065359
  65.6541842  39.1764823  57.8270998  66.9227197  39.6449933  57.1465145
  68.0399392  37.1004315  62.4056919  67.5364187  37.0634451  61.5924724
  68.3329999  38.0097058  62.4653575  64.2842278  37.1843045  61.4123101
  65.1495275  36.9885854  61.0528990  64.3519787  36.9553397  62.3392457
  73.8987408  47.4740626  54.8833294  73.1216851  47.1351786  54.4388456
  74.5778889  47.4793249  54.2088259  68.7139437  42.5935364  54.7739902
  68.4089573  42.9081513  55.6250045  69.6669879  42.6716783  54.8167235
  67.1585869  48.7525587  56.4232856  66.6307231  48.0178346  56.1106093
  66.6573372  49.5300263  56.1772824  61.8904597  39.4145253  58.7839467
  62.4648349  39.1920435  58.0512660  62.4775579  39.4833948  59.5368069
  62.2174184  41.4449714  52.8035353  61.3811496  41.7824401  53.1244627
  62.0778954  41.3098694  51.8662490  64.1927265  36.2886502  57.5114537
  63.5391677  35.9735519  56.8871152  64.1507739  35.6662242  58.2374360
  67.4265005  42.7768436  61.8362184  66.5087566  42.9983383  61.6783872
  67.8425149  42.8514746  60.9773892  68.2100053  44.1759851  56.9664865
  68.9571872  44.6881248  56.6571987  68.4791642  43.8543904  57.8269258
  66.4826703  46.6718392  53.9491819  65.5737922  46.3877425  54.0464289
  66.5121787  47.0917471  53.0895126  70.6578890  41.2116967  58.9483654
  69.9201647  40.6994354  59.2793897  70.9105663  40.7717349  58.1366931
  70.7590517  33.9893219  59.5425423  71.0649394  33.1290583  59.2551338
  71.4843122  34.5810840  59.3424417  65.0311597  44.2847013  60.0501614
  65.0860207  43.3320849  59.9744091  64.2202799  44.4406452  60.5342913
  62.9703957  42.9024072  57.8091993  62.1571822  43.2018243  58.2157185
  63.4662951  42.5079761  58.5266475  68.5678168  43.3665897  66.6406887
  68.9227556  43.5937370  67.5001353  69.2150300  43.6984274  66.0184142
  74.2975905  46.4884333  57.3456216  74.1593804  46.6785929  56.4177405
  73.9412124  47.2503715  57.8024267  62.4618032  40.4742428  63.4253228
  63.1017411  40.3331187  62.7276191  61.6295562  40.1876941  63.0491830
  59.4646648  40.4442753  58.2026215  59.7253465  41.3588086  58.0935375
  60.2863820  39.9767195  58.3522828  60.9371573  41.8580510  65.3725039
  61.6094627  41.6497872  64.7237688  60.1101360  41.6602596  64.9330272
  66.8397145  38.4842451  67.3890700  66.1925060  39.1832401  67.2955177
  67.6098161  38.9178595  67.7566949  70.2475943  48.7491303  70.4641254
  70.0961450  48.5201855  69.5471337  70.2380623  49.7061904  70.4772599
  62.6810305  41.8308290  67.4406796  62.1447662  41.3799029  68.0928392
  62.0927014  41.9654199  66.6977260  58.4149426  40.9664298  64.5259790
  58.3307615  40.3589967  63.7910200  57.5932133  41.4573316  64.5269287
  68.5873140  39.4517861  59.8929985  69.0841840  38.6987824  59.5731056
  67.8160122  39.4882178  59.3273195  76.4402898  45.1558227  61.5348277
  76.4292774  46.0382942  61.1642210  75.5720277  44.8029778  61.3402814
  69.6702921  48.2089549  57.4668409  68.7359200  48.3291011  57.2973113
  69.8479589  47.3062015  57.2028419  65.1708109  41.5935244  59.6201670
  64.8005897  41.0406285  60.3082575  65.6667201  40.9893378  59.0676670
  73.0575472  44.0506868  58.0018443  73.5235925  44.8834859  57.9278745
  73.5082973  43.5851849  58.7063701  71.1251703  50.3950689  55.0004595
  71.4011547  50.2807284  55.9098469  70.2556202  49.9968174  54.9616768
  71.0292135  36.4187455  62.0409344  70.1155215  36.6491682  62.2091551
  71.4585237  36.5025899  62.8923377  66.8486167  45.3497158  71.0275275
  66.1726804  45.2491287  71.6977650  67.6713800  45.1936372  71.4911272
  60.5673443  39.0039235  65.8654776  60.6314769  39.8654066  65.4532174
  60.5040563  38.3913237  65.1327134  60.0425715  41.0762368  69.5127810
  60.6697754  40.6939445  70.1265335  59.1853634  40.8576570  69.8783503
  60.3485505  40.9594793  61.4273714  59.6272091  41.5730761  61.2881187
  61.1378761  41.4952558  61.3490360  63.1511819  38.2949220  67.7014365
  63.6746220  38.5411516  68.4640675  62.9324152  39.1269255  67.2817503
  58.5479100  40.5652894  55.5685490  58.2191806  39.6850273  55.3860596
  58.9018470  40.5100563  56.4561879  61.6620923  40.8525864  55.9360968
  62.0016995  41.3811786  55.2139576  62.1093043  41.1906270  56.7119534
  64.3564364  39.2362915  65.3864036  64.0161184  38.4370728  65.7884716
  63.6503370  39.5364626  64.8140869  65.0080835  36.3212227  63.8391359
  65.8306905  35.8472706  63.7170249  65.2518899  37.1002711  64.3390045
  63.6489070  39.3500486  54.1354261  64.3697432  39.7281739  53.6317978
  63.0254374  40.0689363  54.2389239  67.7920193  40.0545635  55.0712593
  68.0083807  40.9370273  54.7701421  67.3114260  39.6631848  54.3418235
  62.5319414  43.0131348  61.6483338  62.3863995  43.3271651  62.5407619
  62.0544618  43.6316248  61.0954236  64.3915797  40.0033896  61.6964227
  64.3777366  39.1074989  61.3596525  65.1088225  40.0104560  62.3302513
  66.2441928  40.4371236  63.7417355  65.9859706  41.3588307  63.7401685
  65.7126968  40.0401671  64.4317819  63.7952693  38.8848276  56.9651797
  63.9168604  37.9564922  57.1642685  63.5054735  38.8986962  56.0530113
  66.6643883  36.5703187  60.1018517  66.6865580  36.6342520  59.1470497
  67.0811942  35.7307695  60.2959023  77.0427508  46.3058446  58.1397740
  77.4858654  45.5565772  57.7416863  76.1654018  46.2968583  57.7571472
  63.2793772  40.3980274  71.1741730  63.3281928  41.2742396  70.7919499
  63.8216287  39.8557667  70.6013373  71.1750256  43.7744791  69.0834902
  72.0760118  43.6351256  68.7918900  71.2498230  43.9399246  70.0233080
  65.5093061  41.1511646  67.9288089  64.6396370  41.4445212  67.6570677
  65.7452541  41.7352091  68.6495352  76.5860372  47.7763685  60.5320187
  77.4207264  48.2153489  60.6957748  76.7219501  47.3002338  59.7128433
  73.6351878  45.3343419  66.4797675  74.1106000  45.5271066  65.6716526
  72.7117444  45.3902605  66.2341059  68.2132095  37.3691263  65.4453509
  68.7314039  38.1052290  65.1199997  67.8587228  37.6755256  66.2800268
  59.7931032  42.2295944  53.5614915  59.1000277  42.3040299  52.9054951
  59.5482784  41.4656288  54.0836432  68.4644689  33.7891546  60.9654406
  68.7446443  33.1214735  61.5914832  69.2495296  33.9820641  60.4529069
  72.3353547  42.2109180  64.7125981  73.2870970  42.3107277  64.7338205
  72.1656998  41.4187448  65.2224065  70.3567927  39.2964763  64.8985382
  69.7617859  39.5769775  64.2031870  70.0717623  39.7858664  65.6702123
  74.8141625  45.4315299  63.8268280  74.7817945  44.4931300  64.0127964
  75.4242249  45.5099336  63.0934105  74.9636114  42.2226343  63.8726563
  74.4475162  41.4384799  63.6856492  75.8476062  41.8945059  64.0373083
  72.6246840  35.9667358  59.8322376  72.4271662  35.6582446  60.7165708
  73.2346546  36.6928997  59.9620306  80.6318175  46.4931306  62.9674317
  81.3621563  46.2316594  63.5282020  80.0225120  45.7560028  63.0076385
  78.7133472  44.6339169  63.5648768  77.9866636  44.4995134  62.9565260
  78.2980759  44.9415997  64.3705486  66.5363648  48.3529098  71.3296141
  67.4566658  48.5307697  71.5236188  66.5013232  47.4085144  71.1775841
  66.4529939  36.7698218  55.9594611  65.6430667  36.4245303  56.3349857
  67.1414356  36.4605762  56.5482222  68.3820487  35.8476265  57.5818907
  68.9351526  36.2671719  58.2408931  68.6190573  34.9212013  57.6241863
  64.4053586  41.8363339  73.3621671  64.3050313  42.7857696  73.2933762
  64.1875128  41.5081578  72.4897741  63.6066658  39.0848264  49.9462349
  64.4685822  39.4103162  50.2058166  63.7917002  38.2979760  49.4335415
  71.7599294  37.9576790  57.0897572  71.1797963  38.6161594  56.7075624
  71.4935227  37.1354135  56.6784989  70.2102861  37.3581848  59.2918892
  70.7102639  37.4698383  58.4833211  70.8538468  37.0542901  59.9319701
  64.2684856  45.2660478  72.1786733  63.7851938  46.0660838  72.3850622
  64.3545795  45.2768422  71.2254177  70.5424172  40.1176881  56.1453920
  69.6550027  40.4026531  55.9274115  70.9578161  39.9570644  55.2981197
  73.8938708  40.1423402  59.8608259  74.6699098  40.6319854  60.1332876
  73.1686843  40.5681456  60.3180129  76.3311267  40.8551021  60.9182200
  76.9255758  40.6146757  60.2075508  76.4037851  40.1358151  61.5455736
  70.5165196  45.6331417  56.3604210  70.4600397  46.0899968  55.5211843
  71.0693538  44.8722101  56.1827053  74.3270002  41.4221148  57.1854330
  74.0706936  41.0217784  58.0162537  73.7022870  42.1364942  57.0604469
  78.6382340  44.1617222  59.6925621  78.0781898  44.2310411  60.4657183
  78.0325843  43.9858206  58.9725117  71.2499975  46.8236198  53.6556739
  71.1948779  46.6580469  52.7145183  70.6246031  47.5312231  53.8118929
  68.5645882  49.1285110  72.9810302  69.4337042  49.3025762  72.6196937
  68.0852634  49.9479527  72.8586031  64.5596101  36.3244307  53.2342058
  64.5474771  37.2686147  53.3910329  65.4519523  36.1414452  52.9401519
  68.3748220  32.9187083  57.4887995  67.6080616  32.3645570  57.6344677
  68.7858925  32.9908952  58.3502146  60.3789981  39.2071879  71.5793176
  61.2421443  38.8508684  71.7896500  59.8055392  38.8685774  72.2668580
  85.1788054  58.5000423  60.3641763  85.9113226  57.9299639  60.5979593
  84.4227409  58.1122023  60.8048269  82.7013474  52.2121997  64.8236372
  82.3696799  53.0817408  64.5997587  82.1059088  51.8958281  65.5030402
  82.5942137  56.9317083  61.9029722  81.6859015  56.8632491  61.6088483
  82.5429733  57.4089028  62.7311547  84.4603784  55.1333521  63.6807596
  83.8178164  55.4266055  63.0347391  83.9558712  55.0186442  64.4860793
  84.6002762  64.7976951  59.1151400  83.9153800  65.1775852  58.5648434
  84.6846611  65.4072278  59.8483348  79.4579922  55.0554731  62.6183316
  78.5964401  55.3535984  62.9100054  79.4842357  55.2725129  61.6864349
  91.0605514  61.6647614  60.2354073  90.3069223  61.0955012  60.0798077
  91.1953056  61.6310278  61.1824707  79.7996606  50.0591578  64.4407686
  79.4560875  50.9493220  64.3646796  80.1675569  49.8693236  63.5777271
  78.8793146  52.4296233  62.4056919  78.3757942  52.3926368  61.5924724
  79.1723753  53.3388976  62.4653575  84.7381163  62.8032544  54.8833294
  83.9610606  62.4643703  54.4388456  85.4172644  62.8085167  54.2088259
  82.9772470  62.2766525  61.5399902  82.3196144  62.9665786  61.6280031
  83.7812869  62.6662957  61.8833888  75.0321019  51.6178420  57.5114537
  74.3785431  51.3027437  56.8871152  74.9901493  50.9954160  58.2374360
  81.4972644  56.5408885  58.9483654  80.7595401  56.0286271  59.2793897
  81.7499418  56.1009267  58.1366931  81.5984272  49.3185137  59.5425423
  81.9043148  48.4582501  59.2551338  82.3236876  49.9102757  59.3424417
  85.1369660  61.8176250  57.3456216  84.9987558  62.0077846  56.4177405
  84.7805879  62.5795633  57.8024267  85.1639039  63.8852777  62.3567488
  85.5975546  63.7928066  63.2050542  85.8770620  63.8610278  61.7187504
  86.0254589  63.9276478  64.8900373  86.2190479  64.8322288  65.1359648
  85.9255207  63.4683897  65.7238958  81.1407773  62.4003435  50.8811955
  80.5236943  61.6750263  50.7845008  80.6724261  63.1612795  50.5379029
  79.4266895  54.7809779  59.8929985  79.9235594  54.0279741  59.5731056
  78.6553876  54.8174096  59.3273195  87.2796652  60.4850145  61.5348277
  87.2686528  61.3674860  61.1642210  86.4114032  60.1321695  61.3402814
  83.8969227  59.3798786  58.0018443  84.3629679  60.2126777  57.9278745
  84.3476727  58.9143767  58.7063701  81.8685890  51.7479373  62.0409344
  80.9548969  51.9783599  62.2091551  82.2978991  51.8317817  62.8923377
  81.6392348  59.9369265  64.5409238  80.9863798  60.1845172  63.8861691
  82.0172728  59.1233403  64.2071715  82.0281871  68.8713941  56.5207440
  82.2018749  68.3060364  55.7681292  82.5210762  69.6714836  56.3386930
  77.5037638  51.8995104  60.1018517  77.5259335  51.9634438  59.1470497
  77.9205697  51.0599613  60.2959023  87.8821262  61.6350364  58.1397740
  88.3252408  60.8857689  57.7416863  87.0047772  61.6260500  57.7571472
  83.0157043  68.1880705  53.6204338  83.7107948  68.8087398  53.8391653
  83.3580194  67.3376057  53.8956716  84.9148467  65.6380411  55.1491669
  85.4399791  65.9767684  54.4240989  84.8270819  64.7027426  54.9654804
  84.7240248  63.1205781  67.7675595  84.7738253  62.9555788  68.7091118
  84.6154171  62.2533040  67.3773476  82.0144010  59.1036709  69.0834902
  82.9153873  58.9643174  68.7918900  82.0891985  59.2691164  70.0233080
  86.2258445  65.5402723  68.0117617  85.9343253  65.9032703  68.8481078
  85.6130576  64.8269731  67.8330949  87.4254127  63.1055602  60.5320187
  88.2601018  63.5445406  60.6957748  87.5613256  62.6294255  59.7128433
  84.4745633  60.6635337  66.4797675  84.9499754  60.8562983  65.6716526
  83.5511198  60.7194523  66.2341059  79.0525849  52.6983181  65.4453509
  79.5707793  53.4344208  65.1199997  78.6980982  53.0047174  66.2800268
  79.3038443  49.1183463  60.9654406  79.5840197  48.4506652  61.5914832
  80.0889050  49.3112559  60.4529069  83.1747302  57.5401097  64.7125981
  84.1264725  57.6399195  64.7338205  83.0050752  56.7479366  65.2224065
  81.1961681  54.6256680  64.8985382  80.6011613  54.9061693  64.2031870
  80.9111378  55.1150581  65.6702123  82.9557188  67.8945478  50.6191962
  82.8770820  67.5605341  51.5127720  83.7766855  68.3867246  50.6183434
  85.6535380  60.7607217  63.8268280  85.6211700  59.8223218  64.0127964
  86.2636003  60.8391254  63.0934105  85.8029868  57.5518260  63.8726563
  85.2868917  56.7676717  63.6856492  86.6869817  57.2236977  64.0373083
  83.4640595  51.2959276  59.8322376  83.2665416  50.9874364  60.7165708
  84.0740301  52.0220915  59.9620306  91.4711929  61.8223224  62.9674317
  92.2015318  61.5608512  63.5282020  90.8618875  61.0851946  63.0076385
  89.5527227  59.9631086  63.5648768  88.8260390  59.8287051  62.9565260
  89.1374513  60.2707915  64.3705486  79.2214242  51.1768183  57.5818907
  79.7745280  51.5963636  58.2408931  79.4584328  50.2503931  57.6241863
  82.5993049  53.2868708  57.0897572  82.0191718  53.9453512  56.7075624
  82.3328981  52.4646053  56.6784989  81.0496615  52.6873766  59.2918892
  81.5496393  52.7990300  58.4833211  81.6932223  52.3834819  59.9319701
  84.7332463  55.4715319  59.8608259  85.5092853  55.9611772  60.1332876
  84.0080597  55.8973374  60.3180129  87.1705021  56.1842939  60.9182200
  87.7649512  55.9438674  60.2075508  87.2431605  55.4650069  61.5455736
  80.5261140  65.2113473  50.2401940  81.2296990  65.4163476  50.8559596
  79.8023789  65.7790235  50.5051024  85.1663756  56.7513066  57.1854330
  84.9100691  56.3509702  58.0162537  84.5416624  57.4656860  57.0604469
  89.4776094  59.4909139  59.6925621  88.9175652  59.5602329  60.4657183
  88.8719598  59.3150124  58.9725117  82.4347838  65.6496002  52.2900400
  83.2693441  65.2177201  52.1077875  82.2732180  65.4778016  53.2177295
  79.2141975  48.2479001  57.4887995  78.4474370  47.6937488  57.6344677
  79.6252680  48.3200870  58.3502146  91.0632113  76.1665653  62.3855577
  91.7010523  76.0472401  61.6818917  90.9452956  77.1146497  62.4443529
  87.8721819  76.1193081  62.3217101  87.5340330  76.0034146  61.4337636
  88.7411587  75.7184247  62.3018108  83.7308635  77.9728558  58.3113992
  83.1673500  77.8818495  57.5430280  83.6161030  77.1528462  58.7916485
  88.3541602  77.2727933  68.2803307  88.3430243  76.8780731  67.4083811
  88.5162241  76.5394006  68.8737078  81.2773067  79.4679749  61.1498213
  82.0694358  79.1270574  60.7344512  81.5169717  79.5774724  62.0700366
  89.3108193  81.6399526  53.6228457  88.6596173  82.2253606  53.2362471
  90.1052556  82.1705720  53.6823495  83.2363820  78.7288663  54.0215592
  84.0094696  78.1817650  53.8828467  83.5889219  79.5932912  54.2330053
  85.0748863  80.0565045  67.2282491  84.7838729  80.9610676  67.1129157
  85.7105847  80.0981573  67.9426561  86.0005070  77.4341893  63.8183851
  86.5968642  77.2097916  63.1040814  86.0580041  76.6926639  64.4209298
  85.5730098  74.8881329  51.6534042  85.8255619  74.3662850  50.8917505
  84.6354657  74.7247474  51.7560725  90.6173381  73.8917107  59.4608785
  91.4036470  73.4736530  59.1099202  90.8812085  74.7963199  59.6290433
  90.7883458  79.3289957  54.1597442  90.1529291  79.4024584  54.8718346
  90.4580865  79.9183556  53.4816521  96.0181808  73.8292340  60.3641763
  96.7506980  73.2591557  60.5979593  95.2621164  73.4413941  60.8048269
  85.2926387  76.7909435  53.8558417  85.1762645  76.1154338  54.5239501
  85.4028647  76.3041809  53.0390570  87.6357928  76.2519582  57.5605106
  87.2716135  75.7250203  58.2718027  88.4925044  75.8618051  57.3871591
  93.5407229  67.5413914  64.8236372  93.2090553  68.4109325  64.5997587
  92.9452842  67.2250198  65.5030402  87.2763415  71.2809482  52.5566454
  87.4437817  72.1489718  52.9236925  87.0860584  71.4436763  51.6327744
  90.0338748  79.7426460  64.2232285  89.7339471  80.6451499  64.1148092
  89.6889808  79.4758644  65.0753438  83.4851230  76.1940257  60.2568989
  82.5601726  76.0616471  60.4646681  83.7335643  76.9734477  60.7538932
  93.4335892  72.2609001  61.9029722  92.5252769  72.1924409  61.6088483
  93.3823488  72.7380946  62.7311547  87.2552636  73.7367139  53.5413121
  87.1352261  74.1824190  54.3798601  86.5605224  74.0852457  52.9826659
  80.8460041  75.8373531  61.0912778  80.9752422  76.0908010  62.0052190
  80.1657492  76.4301239  60.7717433  85.0159528  86.5070781  57.1903252
  84.9383558  87.4578606  57.2691733  84.4121172  86.1616653  57.8478179
  87.5076758  73.6798646  69.8464619  86.7310092  74.2392566  69.8367484
  88.1467321  74.1655429  70.3679489  92.9537702  74.2088612  54.3693455
  93.8655558  74.4415999  54.1941153  92.4447349  74.7925656  53.8068534
  85.7623130  76.4884100  69.4082586  86.5037814  77.0269144  69.1317410
  85.0560115  77.1150388  69.5654138  91.2378470  78.6313240  68.0054748
  91.6461826  78.1895651  67.2609380  90.5155731  78.0565868  68.2588941
  87.5909540  73.5685847  65.3788305  88.4370735  73.9925260  65.5222954
  87.5308177  72.9119471  66.0726868  91.5607284  79.1914431  61.7607037
  90.9316147  79.3560145  61.0583104  91.1732946  79.6056040  62.5318001
  95.4396516  80.1268869  59.1151400  94.7547554  80.5067770  58.5648434
  95.5240366  80.7364195  59.8483348  90.7408985  71.2290215  67.0369478
  90.4969917  71.9832276  66.5003754  91.0168916  71.6075563  67.8716725
  92.6947448  77.7728828  65.7146744  92.9064343  78.4160587  65.0381125
  92.6477196  76.9391144  65.2468674  90.2973677  70.3846648  62.6183316
  89.4358156  70.6827902  62.9100054  90.3236111  70.6017047  61.6864349
  87.1135246  78.9288839  59.0257122  87.5773592  79.2076542  58.2361744
  86.8492044  78.0272283  58.8430212  84.0059327  78.4760320  61.9636885
  84.5760684  78.9047589  61.3254369  84.5967439  78.1942905  62.6621071
  86.0504132  75.0511991  55.8346687  86.7528176  75.5033035  56.3020613
  85.7184761  74.4095810  56.4626580  84.4984494  73.6423748  70.2097896
  83.8683154  74.3240029  70.4433293  84.3920582  73.5306829  69.2651035
  93.8093276  80.6500783  63.8869101  94.6310719  80.2480970  63.6051783
  93.8055679  80.5469017  64.8385217  87.5749879  80.1984826  66.0429812
  87.6394312  80.6605234  66.8787984  86.8660803  79.5682191  66.1712122
 101.8999269  76.9939531  60.2354073 101.1462977  76.4246930  60.0798077
 102.0346810  76.9602196  61.1824707  87.2897897  81.8652934  55.9108792
  87.1543572  82.7104469  56.3393640  87.8307709  82.0672211  55.1474726
  80.7427294  79.3828372  56.4836717  81.2551815  80.1771622  56.6342282
  81.3950007  78.6854662  56.4170319  82.5522179  82.4994128  58.5659470
  82.7288807  83.4212093  58.3780454  83.3479012  82.1852547  58.9953850
  86.6933197  69.3602393  70.1643404  87.4342911  69.9609546  70.0847866
  86.9251120  68.6180031  69.6061446  81.8374536  74.5458760  68.4421634
  81.7228051  73.6444017  68.7428732  80.9819053  74.7922457  68.0906450
  88.9166373  82.4876500  70.0409134  88.4730227  81.7012879  69.7230039
  89.5783587  82.6755651  69.3753025  83.6753494  84.0172302  64.5669813
  84.2260920  83.8889365  63.7946807  82.8364970  84.3167191  64.2164705
  91.0147611  82.7679300  68.0690535  90.9966087  83.5888181  67.5770805
  91.9367531  82.6433375  68.2940677  87.4720665  80.2823430  68.9114044
  88.0049002  79.5211718  68.6813352  86.9434747  79.9897082  69.6538198
  90.6390360  65.3883496  64.4407686  90.2954630  66.2785137  64.3646796
  91.0069323  65.1985153  63.5777271  90.6040643  75.3792107  52.9480121
  90.0887267  76.1496711  53.1868508  90.3317952  74.7057243  53.5713182
  88.1887754  70.2241808  58.0065359  87.3329351  69.8348658  57.8270998
  88.6014706  70.3033768  57.1465145  89.7186901  67.7588151  62.4056919
  89.2151696  67.7218286  61.5924724  90.0117508  68.6680894  62.4653575
  85.9629787  67.8426881  61.4123101  86.8282783  67.6469689  61.0528990
  86.0307296  67.6137232  62.3392457  95.5774917  78.1324461  54.8833294
  94.8004360  77.7935621  54.4388456  96.2566398  78.1377085  54.2088259
  90.3926946  73.2519199  54.7739902  90.0877082  73.5665348  55.6250045
  91.3457388  73.3300619  54.8167235  88.8373378  79.4109422  56.4232856
  88.3094740  78.6762182  56.1106093  88.3360881  80.1884099  56.1772824
  93.8166224  77.6058443  61.5399902  93.1589899  78.2957704  61.6280031
  94.6206623  77.9954875  61.8833888  83.5692106  70.0729088  58.7839467
  84.1435858  69.8504270  58.0512660  84.1563088  70.1417783  59.5368069
  92.6271683  75.9602815  59.5903844  93.1403565  76.5932807  60.0925554
  93.2772907  75.3604011  59.2247204  83.8961693  72.1033549  52.8035353
  83.0599005  72.4408236  53.1244627  83.7566463  71.9682529  51.8662490
  85.8714773  66.9470337  57.5114537  85.2179186  66.6319355  56.8871152
  85.8295248  66.3246078  58.2374360  86.9825978  77.2289632  49.4267829
  86.0753040  76.9978886  49.6258978  87.4797010  76.4327252  49.6141810
  89.8894057  85.9387140  52.3464515  89.2155756  86.2418836  52.9549473
  90.2759879  86.7416220  51.9969972  89.1052514  73.4352271  61.8362184
  88.1875075  73.6567218  61.6783872  89.5212657  73.5098581  60.9773892
  89.8887562  74.8343687  56.9664865  90.6359381  75.3465084  56.6571987
  90.1579151  74.5127739  57.8269258  88.1614212  77.3302227  53.9491819
  87.2525431  77.0461260  54.0464289  88.1909296  77.7501306  53.0895126
  93.3933479  80.9408817  57.7182987  92.9395806  80.0999727  57.7748177
  92.7627446  81.5770215  58.0557767  92.3366399  71.8700803  58.9483654
  91.5989156  71.3578189  59.2793897  92.5893172  71.4301184  58.1366931
  91.8366418  82.7785313  58.6532805  92.1289393  83.3390371  57.9345170
  92.3465039  83.0713874  59.4085964  92.4378026  64.6477055  59.5425423
  92.7436903  63.7874418  59.2551338  93.1630631  65.2394675  59.3424417
  86.7099106  74.9430848  60.0501614  86.7647716  73.9904684  59.9744091
  85.8990308  75.0990287  60.5342913  87.8590300  78.8710971  51.2879898
  87.4209730  78.1546830  50.8285535  88.6000740  79.0987086  50.7264989
  84.6491466  73.5607908  57.8091993  83.8359331  73.8602078  58.2157185
  85.1450460  73.1663596  58.5266475  86.8000044  83.5565665  59.7426258
  86.7576222  83.7826511  58.8134790  87.7162743  83.3229039  59.8912059
  90.2465677  74.0249732  66.6406887  90.6015065  74.2521205  67.5001353
  90.8937809  74.3568109  66.0184142  95.9763414  77.1468168  57.3456216
  95.8381313  77.3369764  56.4177405  95.6199633  77.9087551  57.8024267
  96.0032794  79.2144695  62.3567488  96.4369301  79.1219984  63.2050542
  96.7164375  79.1902195  61.7187504  84.9165844  80.4328694  59.5388221
  85.7106443  79.9379014  59.3370796  84.2057537  79.9046557  59.1755926
  89.7360689  82.8146789  63.8900588  89.7897711  83.3837725  64.6578304
  88.8675470  82.9848674  63.5254625  81.2248608  74.5771775  55.6147973
  80.2946196  74.5156231  55.8317935  81.3206080  74.0547728  54.8184615
  96.8648344  79.2568396  64.8900373  97.0584234  80.1614206  65.1359648
  96.7648962  78.7975815  65.7238958  88.5184654  69.1426286  67.3890700
  87.8712569  69.8416236  67.2955177  89.2885670  69.5762430  67.7566949
  91.9263452  79.4075138  70.4641254  91.7748959  79.1785690  69.5471337
  91.9168132  80.3645740  70.4772599  88.6948789  76.9807051  65.4487520
  89.6240849  77.1318211  65.2756487  88.2739819  77.0691072  64.5936167
  87.4937120  81.0057716  63.2186058  87.3548206  80.6376500  64.0911996
  86.7051717  81.5205355  63.0470015  88.0885272  86.1066812  54.5611594
  88.2637028  85.6354855  55.3757217  87.4018060  86.7332578  54.7892855
  89.0442336  80.3839318  60.6074895  88.7092168  80.3440088  61.5032545
  88.5446281  79.7184034  60.1345306  83.0186580  75.7906948  66.1327477
  82.8806377  75.0587187  66.7339016  83.9291503  75.7015848  65.8511664
  91.9801527  77.7295353  50.8811955  91.3630698  77.0042181  50.7845008
  91.5118016  78.4904713  50.5379029  85.6468880  75.5026908  65.6211156
  86.3568499  74.8620100  65.5797775  85.6038188  75.7539802  66.5437337
  93.6355659  82.4394261  68.5417735  93.5768205  81.7553481  67.8748319
  94.0375177  83.1813251  68.0898361  84.3597814  72.4892126  67.4406796
  83.8235171  72.0382864  68.0928392  83.7714523  72.6238034  66.6977260
  82.6546358  89.2556175  61.3351454  82.8942956  89.8874699  62.0130473
  81.8115554  88.9044215  61.6216814  83.7700073  71.9480777  50.0033259
  82.8929539  71.8269578  49.6395506  84.2457826  71.1566855  49.7512148
  93.6373066  80.4033845  66.7731715  92.7499845  80.0659767  66.8958114
  94.2071617  79.6716876  67.0100481  87.1674220  85.0635297  63.7392958
  87.0944391  85.8690269  64.2512263  86.7251613  85.2627263  62.9140980
  86.9563999  84.3007067  57.2495780  86.1731521  84.8428747  57.3434004
  87.6556744  84.8181047  57.6490021  90.2660649  70.1101697  59.8929985
  90.7629349  69.3571659  59.5731056  89.4947631  70.1466013  59.3273195
  98.1190407  75.8142062  61.5348277  98.1080283  76.6966778  61.1642210
  97.2507786  75.4613613  61.3402814  89.6272903  84.9622131  65.8951117
  90.3400875  85.5969596  65.8227018  89.1362932  85.0585997  65.0791119
  91.3490430  78.8673384  57.4668409  90.4146709  78.9874846  57.2973113
  91.5267098  77.9645851  57.2028419  86.8495618  72.2519080  59.6201670
  86.4793406  71.6990120  60.3082575  87.3454710  71.6477213  59.0676670
  94.7362981  74.7090703  58.0018443  95.2023434  75.5418695  57.9278745
  95.1870482  74.2435685  58.7063701  84.6784817  82.7116575  66.7156688
  85.3794276  83.3453058  66.8686082  84.2079932  83.0531306  65.9552327
  92.8039212  81.0534525  55.0004595  93.0799056  80.9391119  55.9098469
  91.9343711  80.6552009  54.9616768  92.7079644  67.0771290  62.0409344
  91.7942724  67.3075517  62.2091551  93.1372746  67.1609734  62.8923377
  92.4786103  75.2661182  64.5409238  91.8257553  75.5137090  63.8861691
  92.8566482  74.4525320  64.2071715  89.4393276  85.3020875  58.6437408
  89.6215671  84.4842531  59.1065161  90.2626262  85.5188568  58.2062298
  89.7735442  84.2289061  55.9052457  90.3023208  83.7181515  55.2922619
  90.0363662  83.9131591  56.7697990  88.5273676  76.0080993  71.0275275
  87.8514313  75.9075123  71.6977650  89.3501309  75.8520207  71.4911272
  80.2752535  82.2452930  63.6487791  80.8605971  81.4996618  63.7815695
  80.0777373  82.5556887  64.5324454  83.1291190  85.2804177  58.6650233
  82.4601565  85.7650305  58.1814273  82.9904060  85.5273398  59.5793611
  87.2696458  87.3147921  65.2632891  87.8214766  87.4779542  66.0281976
  87.6102652  87.9052359  64.5912916  90.4064846  85.2629896  62.2496573
  90.2815985  84.4619636  61.7407519  91.0643937  85.7576090  61.7610543
  92.4699754  83.0638916  63.8776124  91.5230090  82.9444268  63.8054450
  92.8182527  82.1761414  63.9602385  89.4746187  82.8591633  60.0780476
  89.3271150  81.9308340  60.2588046  90.2999681  82.8811723  59.5937551
  83.3408432  71.5109700  55.9360968  83.6804504  72.0395621  55.2139576
  83.7880552  71.8490106  56.7119534  93.0780309  83.6820191  61.1645349
  94.0026857  83.4763053  61.0269800  92.9095613  83.4336592  62.0734690
  86.0351873  69.8946750  65.3864036  85.6948693  69.0954563  65.7884716
  85.3290879  70.1948461  64.8140869  86.6868344  66.9796063  63.8391359
  87.5094414  66.5056541  63.7170249  86.9306408  67.7586547  64.3390045
  85.3276579  70.0084321  54.1354261  86.0484941  70.3865574  53.6317978
  84.7041883  70.7273198  54.2389239  89.4707702  70.7129470  55.0712593
  89.6871316  71.5954108  54.7701421  88.9901769  70.3215684  54.3418235
  84.2106923  73.6715183  61.6483338  84.0651504  73.9855486  62.5407619
  83.7332127  74.2900084  61.0954236  86.0703306  70.6617731  61.6964227
  86.0564875  69.7658825  61.3596525  86.7875734  70.6688395  62.3302513
  87.9229437  71.0955072  63.7417355  87.6647215  72.0172142  63.7401685
  87.3914477  70.6985506  64.4317819  92.8675625  84.2005859  56.5207440
  93.0412503  83.6352281  55.7681292  93.3604517  85.0006754  56.3386930
  78.6852585  76.2120528  64.5870999  78.1406053  76.9880336  64.7191273
  79.5631935  76.5591332  64.4290120  85.4740202  69.5432112  56.9651797
  85.5956113  68.6148758  57.1642685  85.1842244  69.5570798  56.0530113
  88.3431392  67.2287022  60.1018517  88.3653089  67.2926355  59.1470497
  88.7599451  66.3891531  60.2959023  98.7215017  76.9642282  58.1397740
  99.1646163  76.2149607  57.7416863  97.8441527  76.9552418  57.7571472
  93.8550798  83.5172623  53.6204338  94.5501703  84.1379316  53.8391653
  94.1973948  82.6667974  53.8956716  79.4718607  75.3390424  67.4801156
  78.7300343  75.4873059  68.0665786  79.1511351  75.5998690  66.6167905
  95.7542221  80.9672329  55.1491669  96.2793545  81.3059601  54.4240989
  95.6664574  80.0319344  54.9654804  87.4162270  84.8806402  67.2781546
  87.7249396  84.6355549  68.1504245  88.2137752  85.0853041  66.7900416
  87.4382882  87.0344312  59.5086922  86.9987872  86.5420691  60.2019779
  88.1890999  86.4917280  59.2678997  79.9175221  83.2255853  59.5111550
  80.7433241  82.9259625  59.1310194  79.5669273  82.4563475  59.9601339
  84.8856754  82.5782321  61.5809224  84.2636763  81.9153026  61.2811452
  85.5561621  82.6043453  60.8982872  84.9581281  71.0564109  71.1741730
  85.0069437  71.9326232  70.7919499  85.5003796  70.5141502  70.6013373
  95.4436127  81.6005232  70.4542867  94.6531671  81.5829371  69.9147366
  95.2069482  82.1393526  71.2091904  95.5634002  78.4497699  67.7675595
  95.6132007  78.2847706  68.7091118  95.4547926  77.5824958  67.3773476
  84.4470261  81.1286244  55.0567684  84.5958381  81.8121709  54.4034357
  85.2536704  81.1091334  55.5717140  92.8537765  74.4328627  69.0834902
  93.7547627  74.2935092  68.7918900  92.9285739  74.5983082  70.0233080
  87.1880570  71.8095481  67.9288089  86.3183879  72.1029047  67.6570677
  87.4240050  72.3935926  68.6495352  97.0652199  80.8694640  68.0117617
  96.7737007  81.2324621  68.8481078  96.4524330  80.1561648  67.8330949
  98.2647881  78.4347520  60.5320187  99.0994773  78.8737324  60.6957748
  98.4007010  77.9586173  59.7128433  95.3139387  75.9927255  66.4797675
  95.7893509  76.1854901  65.6716526  94.3904953  76.0486441  66.2341059
  82.2022894  77.1551422  56.0628753  81.9568936  76.2513752  56.2608963
  82.3718808  77.1568572  55.1208231  89.8919604  68.0275098  65.4453509
  90.4101548  68.7636125  65.1199997  89.5374737  68.3339092  66.2800268
  81.4718541  72.8879780  53.5614915  80.7787786  72.9624135  52.9054951
  81.2270293  72.1240123  54.0836432  90.1432198  64.4475381  60.9654406
  90.4233952  63.7798570  61.5914832  90.9282805  64.6404477  60.4529069
  87.9465666  83.6234375  52.5279432  87.3739633  84.2424562  52.0749904
  88.5198460  84.1733736  53.0619354  94.0141056  72.8693015  64.7125981
  94.9658479  72.9691113  64.7338205  93.8444507  72.0771283  65.2224065
  92.0355436  69.9548598  64.8985382  91.4405368  70.2353611  64.2031870
  91.7505132  70.4442499  65.6702123  91.1662926  83.9071525  53.6588014
  92.0993599  83.8417087  53.8620890  91.0786139  84.7427792  53.2002547
  93.7950943  83.2237395  50.6191962  93.7164574  82.8897259  51.5127720
  94.6160610  83.7159163  50.6183434  96.4929134  76.0899135  63.8268280
  96.4605454  75.1515135  64.0127964  97.1029758  76.1683171  63.0934105
  88.3312465  74.9595188  49.8695484  89.2771570  74.8301396  49.9383902
  87.9526710  74.2209849  50.3464912  96.6423623  72.8810178  63.8726563
  96.1262671  72.0968635  63.6856492  97.5263571  72.5528895  64.0373083
  94.3034349  66.6251194  59.8322376  94.1059171  66.3166282  60.7165708
  94.9134055  67.3512832  59.9620306 102.3105684  77.1515141  62.9674317
 103.0409072  76.8900430  63.5282020 101.7012629  76.4143863  63.0076385
 100.3920981  75.2923004  63.5648768  99.6654145  75.1578969  62.9565260
  99.9768268  75.5999833  64.3705486  88.2151157  79.0112934  71.3296141
  89.1354167  79.1891533  71.5236188  88.1800740  78.0668979  71.1775841
  86.5155382  72.8845164  49.8050370  85.6086837  72.5878277  49.8813083
  86.7931363  72.5874982  48.9384656  81.2113230  76.9213968  63.9718922
  81.4299240  77.8531076  63.9906956  81.6239004  76.5621943  64.7573726
  88.1317448  67.4282054  55.9594611  87.3218176  67.0829139  56.3349857
  88.8201865  67.1189597  56.5482222  90.0607996  66.5060100  57.5818907
  90.6139035  66.9255554  58.2408931  90.2978082  65.5795849  57.6241863
  86.0841095  72.4947174  73.3621671  85.9837822  73.4441531  73.2933762
  85.8662637  72.1665413  72.4897741  85.2854167  69.7432099  49.9462349
  86.1473331  70.0686997  50.2058166  85.4704511  68.9563595  49.4335415
  93.4386803  68.6160626  57.0897572  92.8585472  69.2745430  56.7075624
  93.1722736  67.7937970  56.6784989  91.8890370  68.0165683  59.2918892
  92.3890148  68.1282218  58.4833211  92.5325977  67.7126736  59.9319701
  85.9472365  75.9244313  72.1786733  85.4639447  76.7244673  72.3850622
  86.0333304  75.9352258  71.2254177  81.8745703  79.8148848  64.2155167
  82.8288956  79.7832790  64.1485098  81.6758226  79.3539471  65.0305393
  82.4645085  78.3849964  66.7825964  83.2837974  78.8794042  66.8060802
  82.7381893  77.4681932  66.7543532  92.2211681  70.7760716  56.1453920
  91.3337536  71.0610367  55.9274115  92.6365670  70.6154479  55.2981197
  95.5726217  70.8007237  59.8608259  96.3486607  71.2903689  60.1332876
  94.8474351  71.2265291  60.3180129  98.0098776  71.5134856  60.9182200
  98.6043267  71.2730592  60.2075508  98.0825360  70.7941987  61.5455736
  80.2295932  85.3568467  61.2325365  80.0950400  84.5968868  60.6663363
  79.8127994  86.0809367  60.7654154  91.3654895  80.5405391  50.2401940
  92.0690745  80.7455393  50.8559596  90.6417543  81.1082153  50.5051024
  92.1952705  76.2915252  56.3604210  92.1387906  76.7483803  55.5211843
  92.7481047  75.5305937  56.1827053  96.0057511  72.0804984  57.1854330
  95.7494445  71.6801619  58.0162537  95.3810379  72.7948778  57.0604469
 100.3169849  74.8201057  59.6925621  99.7569407  74.8894246  60.4657183
  99.7113352  74.6442042  58.9725117  83.3865058  86.2537784  61.4443807
  83.2697442  87.1983217  61.3422498  82.5657504  85.9511346  61.8329607
  93.2741592  80.9787920  52.2900400  94.1087196  80.5469118  52.1077875
  93.1125935  80.8069934  53.2177295  92.9287484  77.4820033  53.6556739
  92.8736288  77.3164305  52.7145183  92.3033540  78.1896066  53.8118929
  90.2433391  79.7868945  72.9810302  91.1124551  79.9609597  72.6196937
  89.7640143  80.6063362  72.8586031  86.2383610  66.9828142  53.2342058
  86.2262280  67.9269982  53.3910329  87.1307032  66.7998288  52.9401519
  84.4119572  86.9066046  64.6599736  85.3146818  86.9389656  64.9766231
  84.1856942  85.9766497  64.6746072  86.1673174  85.6597033  61.3209814
  85.2168805  85.6598894  61.2074187  86.4705660  84.9129767  60.8045849
  90.0535729  63.5770919  57.4887995  89.2868125  63.0229406  57.6344677
  90.4646434  63.6492788  58.3502146 101.9025867  91.4957571  62.3855577
 102.5404277  91.3764318  61.6818917 101.7846710  92.4438415  62.4443529
  98.7115573  91.4484999  62.3217101  98.3734085  91.3326064  61.4337636
  99.5805342  91.0476164  62.3018108  94.5702389  93.3020476  58.3113992
  94.0067254  93.2110412  57.5430280  94.4554784  92.4820380  58.7916485
  99.1935356  92.6019851  68.2803307  99.1823997  92.2072649  67.4083811
  99.3555996  91.8685923  68.8737078  92.1166821  94.7971667  61.1498213
  92.9088113  94.4562492  60.7344512  92.3563471  94.9066642  62.0700366
 100.1501948  96.9691443  53.6228457  99.4989928  97.5545524  53.2362471
 100.9446311  97.4997638  53.6823495  94.0757575  94.0580580  54.0215592
  94.8488451  93.5109567  53.8828467  94.4282974  94.9224830  54.2330053
  95.9142618  95.3856963  67.2282491  95.6232484  96.2902593  67.1129157
  96.5499602  95.4273490  67.9426561  96.8398824  92.7633811  63.8183851
  97.4362397  92.5389834  63.1040814  96.8973796  92.0218557  64.4209298
  96.4123853  90.2173246  51.6534042  96.6649373  89.6954768  50.8917505
  95.4748412  90.0539392  51.7560725 101.4567136  89.2209025  59.4608785
 102.2430225  88.8028448  59.1099202 101.7205840  90.1255117  59.6290433
 101.6277213  94.6581875  54.1597442 100.9923046  94.7316502  54.8718346
 101.2974619  95.2475474  53.4816521 106.8575563  89.1584258  60.3641763
 107.5900735  88.5883475  60.5979593 106.1014918  88.7705858  60.8048269
  96.1320142  92.1201352  53.8558417  96.0156400  91.4446256  54.5239501
  96.2422401  91.6333726  53.0390570  98.4751682  91.5811500  57.5605106
  98.1109890  91.0542121  58.2718027  99.3318798  91.1909969  57.3871591
 104.3800983  82.8705832  64.8236372 104.0484308  83.7401243  64.5997587
 103.7846596  82.5542116  65.5030402  98.1157169  86.6101399  52.5566454
  98.2831572  87.4781636  52.9236925  97.9254339  86.7728681  51.6327744
 100.8732503  95.0718378  64.2232285 100.5733226  95.9743417  64.1148092
 100.5283562  94.8050561  65.0753438  94.3244984  91.5232175  60.2568989
  93.3995481  91.3908389  60.4646681  94.5729397  92.3026394  60.7538932
 104.2729646  87.5900918  61.9029722 103.3646524  87.5216327  61.6088483
 104.2217242  88.0672863  62.7311547  98.0946390  89.0659057  53.5413121
  97.9746016  89.5116107  54.3798601  97.3998979  89.4144374  52.9826659
  91.6853795  91.1665449  61.0912778  91.8146176  91.4199927  62.0052190
  91.0051246  91.7593157  60.7717433  95.8553282 101.8362698  57.1903252
  95.7777312 102.7870524  57.2691733  95.2514926 101.4908571  57.8478179
  98.3470512  89.0090564  69.8464619  97.5703846  89.5684484  69.8367484
  98.9861075  89.4947347  70.3679489 106.1391293  85.7917357  63.6807596
 105.4965673  86.0849890  63.0347391 105.6346221  85.6770277  64.4860793
 103.7931456  89.5380530  54.3693455 104.7049313  89.7707917  54.1941153
 103.2841104  90.1217574  53.8068534  96.6016885  91.8176017  69.4082586
  97.3431569  92.3561061  69.1317410  95.8953870  92.4442306  69.5654138
 102.0772224  93.9605158  68.0054748 102.4855580  93.5187568  67.2609380
 101.3549486  93.3857785  68.2588941  98.4303294  88.8977765  65.3788305
  99.2764489  89.3217178  65.5222954  98.3701932  88.2411389  66.0726868
 102.4001039  94.5206348  61.7607037 101.7709901  94.6852062  61.0583104
 102.0126701  94.9347958  62.5318001 106.2790271  95.4560786  59.1151400
 105.5941309  95.8359688  58.5648434 106.3634120  96.0656113  59.8483348
 101.5802740  86.5582133  67.0369478 101.3363671  87.3124193  66.5003754
 101.8562670  86.9367480  67.8716725 103.5341202  93.1020745  65.7146744
 103.7458098  93.7452505  65.0381125 103.4870951  92.2683062  65.2468674
 101.1367431  85.7138566  62.6183316 100.2751910  86.0119819  62.9100054
 101.1629866  85.9308965  61.6864349  97.9529001  94.2580756  59.0257122
  98.4167346  94.5368459  58.2361744  97.6885799  93.3564201  58.8430212
  94.8453082  93.8052238  61.9636885  95.4154439  94.2339506  61.3254369
  95.4361194  93.5234823  62.6621071  96.8897887  90.3803909  55.8346687
  97.5921930  90.8324952  56.3020613  96.5578515  89.7387728  56.4626580
  95.3378248  88.9715665  70.2097896  94.7076909  89.6531946  70.4433293
  95.2314336  88.8598747  69.2651035  90.6323221  88.6387461  61.1363820
  89.8422275  88.8944990  60.6603931  91.1234468  89.4535799  61.2415861
 104.6487030  95.9792701  63.8869101 105.4704474  95.5772888  63.6051783
 104.6449433  95.8760935  64.8385217  92.5837966  89.0032041  58.0947297
  91.7869129  89.1150735  58.6130793  92.3563558  89.3418693  57.2288188
  98.4143634  95.5276744  66.0429812  98.4788066  95.9897151  66.8787984
  97.7054558  94.8974109  66.1712122  88.9160924  88.8917952  63.5678811
  89.1668962  89.7764962  63.8336387  89.4520472  88.7122553  62.7953903
 112.7393023  92.3231449  60.2354073 111.9856732  91.7538847  60.0798077
 112.8740565  92.2894114  61.1824707  98.1291651  97.1944851  55.9108792
  97.9937326  98.0396387  56.3393640  98.6701464  97.3964129  55.1474726
  94.6158991  83.2736431  72.5723147  94.2225937  82.7202630  73.2470792
  95.4325131  83.5847010  72.9629665  91.5821049  94.7120289  56.4836717
  92.0945569  95.5063540  56.6342282  92.2343762  94.0146580  56.4170319
  93.3915933  97.8286046  58.5659470  93.5682562  98.7504010  58.3780454
  94.1872767  97.5144465  58.9953850  97.5326952  84.6894310  70.1643404
  98.2736665  85.2901464  70.0847866  97.7644875  83.9471948  69.6061446
  92.6768290  89.8750678  68.4421634  92.5621805  88.9735935  68.7428732
  91.8212808  90.1214374  68.0906450  99.7560128  97.8168418  70.0409134
  99.3123982  97.0304797  69.7230039 100.4177341  98.0047568  69.3753025
  94.5147249  99.3464220  64.5669813  95.0654674  99.2181283  63.7946807
  93.6758725  99.6459109  64.2164705 101.8541366  98.0971218  68.0690535
 101.8359841  98.9180099  67.5770805 102.7761286  97.9725293  68.2940677
  98.3114420  95.6115347  68.9114044  98.8442757  94.8503636  68.6813352
  97.7828501  95.3188999  69.6538198 101.4784115  80.7175413  64.4407686
 101.1348384  81.6077055  64.3646796 101.8463078  80.5277071  63.5777271
  89.5469966  93.0408944  57.2596288  90.3845188  93.4505952  57.0429995
  89.7248233  92.1008386  57.2296482 101.4434398  90.7084024  52.9480121
 100.9281021  91.4788629  53.1868508 101.1711706  90.0349161  53.5713182
  99.0281509  85.5533725  58.0065359  98.1723105  85.1640576  57.8270998
  99.4408460  85.6325686  57.1465145 100.5580655  83.0880068  62.4056919
 100.0545451  83.0510204  61.5924724 100.8511262  83.9972811  62.4653575
  96.8023541  83.1718798  61.4123101  97.6676538  82.9761607  61.0528990
  96.8701050  82.9429150  62.3392457 106.4168672  93.4616379  54.8833294
 105.6398115  93.1227539  54.4388456 107.0960153  93.4669002  54.2088259
 101.2320701  88.5811117  54.7739902 100.9270836  88.8957266  55.6250045
 102.1851143  88.6592536  54.8167235  99.6767133  94.7401340  56.4232856
  99.1488494  94.0054099  56.1106093  99.1754635  95.5176016  56.1772824
 104.6559979  92.9350360  61.5399902 103.9983653  93.6249622  61.6280031
 105.4600378  93.3246792  61.8833888  94.4085860  85.4021006  58.7839467
  94.9829612  85.1796188  58.0512660  94.9956843  85.4709701  59.5368069
 103.4665437  91.2894733  59.5903844 103.9797319  91.9224725  60.0925554
 104.1166661  90.6895929  59.2247204  94.7355447  87.4325467  52.8035353
  93.8992760  87.7700154  53.1244627  94.5960217  87.2974447  51.8662490
  96.7108528  82.2762255  57.5114537  96.0572940  81.9611272  56.8871152
  96.6689002  81.6537995  58.2374360  97.8219733  92.5581550  49.4267829
  96.9146795  92.3270804  49.6258978  98.3190765  91.7619169  49.6141810
 100.7287812 101.2679057  52.3464515 100.0549510 101.5710754  52.9549473
 101.1153634 102.0708138  51.9969972  99.9446268  88.7644189  61.8362184
  99.0268830  88.9859136  61.6783872 100.3606412  88.8390499  60.9773892
 100.7281316  90.1635604  56.9664865 101.4753135  90.6757001  56.6571987
 100.9972906  89.8419657  57.8269258  99.0007966  92.6594145  53.9491819
  98.0919186  92.3753178  54.0464289  99.0303050  93.0793224  53.0895126
 104.2327234  96.2700734  57.7182987 103.7789561  95.4291644  57.7748177
 103.6021200  96.9062133  58.0557767 103.1760153  87.1992721  58.9483654
 102.4382910  86.6870107  59.2793897 103.4286927  86.7593102  58.1366931
 102.6760173  98.1077231  58.6532805 102.9683147  98.6682288  57.9345170
 103.1858794  98.4005792  59.4085964 103.2771781  79.9768973  59.5425423
 103.5830657  79.1166336  59.2551338 104.0024385  80.5686593  59.3424417
  89.5696137  90.3799659  57.9307021  89.3720536  89.7869020  57.2058088
  89.0142801  90.0751869  58.6482960  97.5492860  90.2722766  60.0501614
  97.6041470  89.3196602  59.9744091  96.7384062  90.4282205  60.5342913
  98.6984054  94.2002889  51.2879898  98.2603484  93.4838748  50.8285535
  99.4394495  94.4279003  50.7264989  95.4885220  88.8899825  57.8091993
  94.6753086  89.1893996  58.2157185  95.9844214  88.4955514  58.5266475
  97.6393798  98.8857582  59.7426258  97.5969977  99.1118429  58.8134790
  98.5556497  98.6520957  59.8912059 101.0859432  89.3541650  66.6406887
 101.4408820  89.5813123  67.5001353 101.7331563  89.6860027  66.0184142
 106.8157169  92.4760086  57.3456216 106.6775067  92.6661682  56.4177405
 106.4593388  93.2379469  57.8024267  94.9799295  86.4618181  63.4253228
  95.6198674  86.3206940  62.7276191  94.1476826  86.1752694  63.0491830
 106.8426548  94.5436613  62.3567488 107.2763055  94.4511902  63.2050542
 107.5558129  94.5194113  61.7187504  95.7559599  95.7620611  59.5388221
  96.5500197  95.2670931  59.3370796  95.0451291  95.2338474  59.1755926
 100.5754443  98.1438707  63.8900588 100.6291466  98.7129643  64.6578304
  99.7069225  98.3140592  63.5254625  92.0642362  89.9063693  55.6147973
  91.1339950  89.8448148  55.8317935  92.1599834  89.3839646  54.8184615
  91.9827911  86.4318506  58.2026215  92.2434729  87.3463839  58.0935375
  92.8045084  85.9642948  58.3522828  93.4552837  87.8456263  65.3725039
  94.1275890  87.6373625  64.7237688  92.6282623  87.6478349  64.9330272
 107.7042098  94.5860313  64.8900373 107.8977988  95.4906124  65.1359648
 107.6042716  94.1267732  65.7238958  99.3578409  84.4718204  67.3890700
  98.7106324  85.1708154  67.2955177 100.1279424  84.9054348  67.7566949
 102.7657207  94.7367056  70.4641254 102.6142713  94.5077608  69.5471337
 102.7561886  95.6937658  70.4772599  99.5342543  92.3098969  65.4487520
 100.4634603  92.4610128  65.2756487  99.1133573  92.3982990  64.5936167
  98.3330875  96.3349633  63.2186058  98.1941961  95.9668418  64.0911996
  97.5445471  96.8497273  63.0470015  98.9279027 101.4358730  54.5611594
  99.1030783 100.9646773  55.3757217  98.2411815 102.0624496  54.7892855
  99.8836090  95.7131236  60.6074895  99.5485923  95.6732006  61.5032545
  99.3840036  95.0475952  60.1345306  93.8580334  91.1198866  66.1327477
  93.7200132  90.3879105  66.7339016  94.7685257  91.0307766  65.8511664
 102.8195282  93.0587270  50.8811955 102.2024452  92.3334098  50.7845008
 102.3511770  93.8196631  50.5379029  96.4862635  90.8318825  65.6211156
  97.1962253  90.1912017  65.5797775  96.4431943  91.0831720  66.5437337
 104.4749413  97.7686179  68.5417735 104.4161960  97.0845399  67.8748319
 104.8768932  98.5105169  68.0898361  95.1991569  87.8184043  67.4406796
  94.6628926  87.3674782  68.0928392  94.6108277  87.9529952  66.6977260
  93.4940112 104.5848092  61.3351454  93.7336710 105.2166617  62.0130473
  92.6509309 104.2336133  61.6216814  94.6093828  87.2772695  50.0033259
  93.7323294  87.1561495  49.6395506  95.0851581  86.4858773  49.7512148
 104.4766821  95.7325763  66.7731715 103.5893599  95.3951684  66.8958114
 105.0465372  95.0008794  67.0100481  86.1295968  92.0649854  60.0974767
  86.8167008  91.7511584  59.5095782  85.9744096  92.9691219  59.8242018
  90.9330690  86.9540051  64.5259790  90.8488879  86.3465720  63.7910200
  90.1113396  87.4449069  64.5269287  98.0067974 100.3927215  63.7392958
  97.9338146 101.1982186  64.2512263  97.5645367 100.5919181  62.9140980
  97.7957754  99.6298985  57.2495780  97.0125276 100.1720665  57.3434004
  98.4950499 100.1472965  57.6490021 101.1054404  85.4393614  59.8929985
 101.6023103  84.6863577  59.5731056 100.3341385  85.4757931  59.3273195
 108.9584161  91.1433980  61.5348277 108.9474037  92.0258695  61.1642210
 108.0901541  90.7905531  61.3402814 100.4666658 100.2914049  65.8951117
 101.1794630 100.9261514  65.8227018  99.9756686 100.3877915  65.0791119
 102.1884184  94.1965302  57.4668409 101.2540463  94.3166764  57.2973113
 102.3660853  93.2937768  57.2028419  97.6889373  87.5810997  59.6201670
  97.3187160  87.0282038  60.3082575  98.1848465  86.9769131  59.0676670
 105.5756736  90.0382621  58.0018443 106.0417188  90.8710613  57.9278745
 106.0264236  89.5727602  58.7063701  95.5178571  98.0408492  66.7156688
  96.2188031  98.6744975  66.8686082  95.0473686  98.3823224  65.9552327
 103.6432967  96.3826442  55.0004595 103.9192811  96.2683037  55.9098469
 102.7737466  95.9843927  54.9616768 103.5473399  82.4063208  62.0409344
 102.6336478  82.6367435  62.2091551 103.9766500  82.4901652  62.8923377
 103.3179857  90.5953100  64.5409238 102.6651307  90.8429007  63.8861691
 103.6960237  89.7817238  64.2071715 100.2787031 100.6312793  58.6437408
 100.4609425  99.8134449  59.1065161 101.1020017 100.8480485  58.2062298
 100.6129196  99.5580978  55.9052457 101.1416963  99.0473433  55.2922619
 100.8757416  99.2423508  56.7697990  99.3667430  91.3372911  71.0275275
  98.6908067  91.2367040  71.6977650 100.1895064  91.1812125  71.4911272
  91.1146289  97.5744847  63.6487791  91.6999726  96.8288535  63.7815695
  90.9171128  97.8848804  64.5324454  93.9684944 100.6096095  58.6650233
  93.2995320 101.0942222  58.1814273  93.8297814 100.8565315  59.5793611
  85.7063944  90.1450448  62.3692234  85.7448043  89.6114038  63.1629352
  85.2004237  89.6185653  61.7503211  98.1090213 102.6439838  65.2632891
  98.6608521 102.8071460  66.0281976  98.4496406 103.2344276  64.5912916
  93.0854706  84.9914988  65.8654776  93.1496033  85.8529819  65.4532174
  93.0221826  84.3788990  65.1327134  92.5606979  87.0638121  69.5127810
  93.1879018  86.6815198  70.1265335  91.7034898  86.8452323  69.8783503
 102.9601087  97.4701096  71.1181546 103.5040991  98.0831054  70.6236500
 102.3787932  98.0280674  71.6348559  89.3372521  88.8714550  55.4446165
  89.6325963  87.9625228  55.3913219  88.4360557  88.8502289  55.1227167
 101.2458600 100.5921814  62.2496573 101.1209740  99.7911554  61.7407519
 101.9037691 101.0868007  61.7610543  92.8666768  86.9470546  61.4273714
  92.1453354  87.5606514  61.2881187  93.6560024  87.4828311  61.3490360
 103.3093509  98.3930834  63.8776124 102.3623844  98.2736185  63.8054450
 103.6576282  97.5053332  63.9602385  95.6693082  84.2824973  67.7014365
  96.1927484  84.5287269  68.4640675  95.4505415  85.1145008  67.2817503
  91.0660363  86.5528647  55.5685490  90.7373069  85.6726026  55.3860596
  91.4199734  86.4976316  56.4561879 100.3139942  98.1883550  60.0780476
 100.1664904  97.2600258  60.2588046 101.1393435  98.2103641  59.5937551
  94.1802186  86.8401617  55.9360968  94.5198259  87.3687539  55.2139576
  94.6274307  87.1782023  56.7119534 103.9174064  99.0112109  61.1645349
 104.8420611  98.8054970  61.0269800 103.7489367  98.7628510  62.0734690
  96.8745627  85.2238668  65.3864036  96.5342447  84.4246481  65.7884716
  96.1684633  85.5240379  64.8140869  97.5262099  82.3087980  63.8391359
  98.3488168  81.8348459  63.7170249  97.7700162  83.0878464  64.3390045
  96.1670333  85.3376239  54.1354261  96.8878696  85.7157492  53.6317978
  95.5435637  86.0565116  54.2389239 100.3101456  86.0421388  55.0712593
 100.5265071  86.9246026  54.7701421  99.8295523  85.6507601  54.3418235
  95.0500678  89.0007101  61.6483338  94.9045258  89.3147404  62.5407619
  94.5725881  89.6192001  61.0954236  96.9097060  85.9909649  61.6964227
  96.8958629  85.0950742  61.3596525  97.6269489  85.9980313  62.3302513
  98.7623191  86.4246989  63.7417355  98.5040969  87.3464060  63.7401685
  98.2308232  86.0277424  64.4317819 103.7069380  99.5297776  56.5207440
 103.8806257  98.9644199  55.7681292 104.1998271 100.3298671  56.3386930
  89.5246340  91.5412445  64.5870999  88.9799808  92.3172253  64.7191273
  90.4025690  91.8883250  64.4290120  96.3133956  84.8724029  56.9651797
  96.4349868  83.9440676  57.1642685  96.0235999  84.8862715  56.0530113
  99.1825147  82.5578940  60.1018517  99.2046844  82.6218273  59.1470497
  99.5993206  81.7183448  60.2959023 109.5608771  92.2934199  58.1397740
 110.0039917  91.5441525  57.7416863 108.6835281  92.2844336  57.7571472
 104.6944552  98.8464541  53.6204338 105.3895457  99.4671233  53.8391653
 105.0367703  97.9959892  53.8956716  90.3112362  90.6682342  67.4801156
  89.5694098  90.8164977  68.0665786  89.9905106  90.9290607  66.6167905
 106.5935976  96.2964246  55.1491669 107.1187300  96.6351519  54.4240989
 106.5058328  95.3611262  54.9654804  98.2556024 100.2098320  67.2781546
  98.5643151  99.9647467  68.1504245  99.0531506 100.4144958  66.7900416
  98.2776636 102.3636230  59.5086922  97.8381627 101.8712608  60.2019779
  99.0284753 101.8209197  59.2678997  90.7568975  98.5547770  59.5111550
  91.5826995  98.2551542  59.1310194  90.4063027  97.7855393  59.9601339
  95.7250508  97.9074239  61.5809224  95.1030518  97.2444944  61.2811452
  96.3955375  97.9335371  60.8982872  88.9577580  96.4734097  60.4700484
  88.1209489  96.0456271  60.2884485  88.9301226  96.6666540  61.4071275
  95.7975036  86.3856027  71.1741730  95.8463191  87.2618150  70.7919499
  96.3397550  85.8433420  70.6013373 106.2829882  96.9297150  70.4542867
 105.4925425  96.9121289  69.9147366 106.0463236  97.4685444  71.2091904
 106.4027757  93.7789616  67.7675595 106.4525762  93.6139624  68.7091118
 106.2941680  92.9116875  67.3773476  95.2864015  96.4578162  55.0567684
  95.4352136  97.1413626  54.4034357  96.0930459  96.4383252  55.5717140
 103.6931519  89.7620544  69.0834902 104.5941382  89.6227009  68.7918900
 103.7679494  89.9274999  70.0233080  98.0274324  87.1387399  67.9288089
  97.1577634  87.4320965  67.6570677  98.2633805  87.7227844  68.6495352
 107.9045954  96.1986558  68.0117617 107.6130762  96.5616538  68.8481078
 107.2918085  95.4853566  67.8330949 109.1041636  93.7639438  60.5320187
 109.9388527  94.2029242  60.6957748 109.2400765  93.2878091  59.7128433
 106.1533142  91.3219172  66.4797675 106.6287263  91.5146819  65.6716526
 105.2298707  91.3778358  66.2341059  93.0416648  92.4843340  56.0628753
  92.7962690  91.5805670  56.2608963  93.2112563  92.4860490  55.1208231
 100.7313358  83.3567016  65.4453509 101.2495302  84.0928043  65.1199997
 100.3768491  83.6631009  66.2800268  92.3112296  88.2171697  53.5614915
  91.6181541  88.2916052  52.9054951  92.0664048  87.4532041  54.0836432
 100.9825952  79.7767299  60.9654406 101.2627706  79.1090488  61.5914832
 101.7676559  79.9696394  60.4529069  98.7859421  98.9526292  52.5279432
  98.2133388  99.5716480  52.0749904  99.3592215  99.5025654  53.0619354
 104.8534811  88.1984933  64.7125981 105.8052234  88.2983030  64.7338205
 104.6838261  87.4063201  65.2224065 102.8749190  85.2840516  64.8985382
 102.2799122  85.5645529  64.2031870 102.5898887  85.7734417  65.6702123
 102.0056681  99.2363443  53.6588014 102.9387354  99.1709004  53.8620890
 101.9179894 100.0719709  53.2002547 104.6344697  98.5529313  50.6191962
 104.5558329  98.2189177  51.5127720 105.4554364  99.0451081  50.6183434
 107.3322889  91.4191052  63.8268280 107.2999209  90.4807053  64.0127964
 107.9423512  91.4975089  63.0934105  99.1706219  90.2887105  49.8695484
 100.1165324  90.1593313  49.9383902  98.7920464  89.5501767  50.3464912
 107.4817377  88.2102096  63.8726563 106.9656426  87.4260552  63.6856492
 108.3657326  87.8820812  64.0373083 105.1428104  81.9543111  59.8322376
 104.9452925  81.6458199  60.7165708 105.7527810  82.6804750  59.9620306
 113.1499438  92.4807059  62.9674317 113.8802827  92.2192347  63.5282020
 112.5406384  91.7435781  63.0076385 111.2314736  90.6214922  63.5648768
 110.5047899  90.4870887  62.9565260 110.8162022  90.9291750  64.3705486
  99.0544912  94.3404851  71.3296141  99.9747921  94.5183450  71.5236188
  99.0194495  93.3960897  71.1775841  97.3549137  88.2137082  49.8050370
  96.4480592  87.9170194  49.8813083  97.6325118  87.9166900  48.9384656
  88.2727077  89.5343445  60.2549416  87.9529861  88.6808753  59.9623790
  87.7260505  89.7492023  61.0107383  92.0506984  92.2505886  63.9718922
  92.2692994  93.1822994  63.9906956  92.4632758  91.8913860  64.7573726
  98.9711202  82.7573971  55.9594611  98.1611931  82.4121056  56.3349857
  99.6595619  82.4481515  56.5482222 100.9001751  81.8352018  57.5818907
 101.4532789  82.2547472  58.2408931 101.1371837  80.9087766  57.6241863
  96.9234850  87.8239092  73.3621671  96.8231577  88.7733449  73.2933762
  96.7056392  87.4957331  72.4897741  96.1247921  85.0724017  49.9462349
  96.9867085  85.3978915  50.2058166  96.3098265  84.2855513  49.4335415
  88.1415337  93.1546357  62.2242538  87.4478808  92.7400309  61.7112492
  88.8888328  93.1966893  61.6275956 104.2780558  83.9452543  57.0897572
 103.6979227  84.6037347  56.7075624 104.0116490  83.1229888  56.6784989
 102.7284124  83.3457601  59.2918892 103.2283902  83.4574136  58.4833211
 103.3719732  83.0418654  59.9319701  96.7866120  91.2536231  72.1786733
  96.3033202  92.0536591  72.3850622  96.8727059  91.2644175  71.2254177
  90.0552079  93.0864610  60.1008552  90.0322768  93.1852298  59.1490436
  90.3652716  93.9329761  60.4225719  92.7139457  95.1440765  64.2155167
  93.6682711  95.1124708  64.1485098  92.5151981  94.6831389  65.0305393
  93.3038839  93.7141881  66.7825964  94.1231728  94.2085960  66.8060802
  93.5775647  92.7973850  66.7543532 103.0605436  86.1052634  56.1453920
 102.1731291  86.3902284  55.9274115 103.4759425  85.9446397  55.2981197
 106.4119972  86.1299155  59.8608259 107.1880362  86.6195607  60.1332876
 105.6868106  86.5557209  60.3180129 108.8492530  86.8426774  60.9182200
 109.4437021  86.6022510  60.2075508 108.9219114  86.1233904  61.5455736
  91.0689686 100.6860385  61.2325365  90.9344154  99.9260786  60.6663363
  90.6521748 101.4101285  60.7654154 102.2048649  95.8697308  50.2401940
 102.9084499  96.0747311  50.8559596 101.4811298  96.4374070  50.5051024
 103.0346459  91.6207170  56.3604210 102.9781661  92.0775721  55.5211843
 103.5874802  90.8597854  56.1827053 106.8451265  87.4096901  57.1854330
 106.5888200  87.0093537  58.0162537 106.2204133  88.1240695  57.0604469
 111.1563603  90.1492975  59.6925621 110.5963161  90.2186164  60.4657183
 110.5507107  89.9733959  58.9725117  94.2258812 101.5829702  61.4443807
  94.1091196 102.5275134  61.3422498  93.4051258 101.2803263  61.8329607
 104.1135347  96.3079838  52.2900400 104.9480950  95.8761036  52.1077875
 103.9519689  96.1361851  53.2177295 103.7681239  92.8111951  53.6556739
 103.7130043  92.6456222  52.7145183 103.1427294  93.5187984  53.8118929
  88.5573754  88.0480015  67.4818162  89.2032617  87.5378969  67.9705387
  88.3490905  88.7848697  68.0561587 101.0827146  95.1160863  72.9810302
 101.9518306  95.2901515  72.6196937 100.6033897  95.9355280  72.8586031
  97.0777364  82.3120060  53.2342058  97.0656034  83.2561900  53.3910329
  97.9700786  82.1290205  52.9401519  95.2513326 102.2357964  64.6599736
  96.1540573 102.2681574  64.9766231  95.0250696 101.3058415  64.6746072
  97.0066928 100.9888950  61.3209814  96.0562559 100.9890812  61.2074187
  97.3099414 100.2421685  60.8045849 100.8929484  78.9062837  57.4887995
 100.1261879  78.3521323  57.6344677 101.3040189  78.9784705  58.3502146
  92.8971245  85.1947632  71.5793176  93.7602706  84.8384437  71.7896500
  92.3236655  84.8561527  72.2668580 112.7419622 106.8249489  62.3855577
 113.3798032 106.7056236  61.6818917 112.6240465 107.7730333  62.4443529
 109.5509328 106.7776917  62.3217101 109.2127839 106.6617981  61.4337636
 110.4199096 106.3768082  62.3018108 105.4096144 108.6312393  58.3113992
 104.8461009 108.5402330  57.5430280 105.2948539 107.8112298  58.7916485
 110.0329111 107.9311768  68.2803307 110.0217752 107.5364567  67.4083811
 110.1949750 107.1977841  68.8737078 102.9560576 110.1263585  61.1498213
 103.7481867 109.7854409  60.7344512 103.1957226 110.2358560  62.0700366
 104.9151329 109.3872498  54.0215592 105.6882205 108.8401485  53.8828467
 105.2676728 110.2516747  54.2330053 106.7536372 110.7148880  67.2282491
 106.4626238 111.6194511  67.1129157 107.3893356 110.7565408  67.9426561
 107.6792579 108.0925729  63.8183851 108.2756151 107.8681751  63.1040814
 107.7367550 107.3510474  64.4209298 107.2517607 105.5465164  51.6534042
 107.5043128 105.0246685  50.8917505 106.3142166 105.3831310  51.7560725
 112.2960890 104.5500943  59.4608785 113.0823979 104.1320366  59.1099202
 112.5599594 105.4547035  59.6290433 117.6969317 104.4876176  60.3641763
 118.4294489 103.9175393  60.5979593 116.9408673 104.0997776  60.8048269
 106.9713896 107.4493270  53.8558417 106.8550154 106.7738173  54.5239501
 107.0816156 106.9625644  53.0390570 109.3145437 106.9103417  57.5605106
 108.9503644 106.3834038  58.2718027 110.1712553 106.5201886  57.3871591
 115.2194738  98.1997750  64.8236372 114.8878062  99.0693161  64.5997587
 114.6240351  97.8834034  65.5030402 108.9550924 101.9393317  52.5566454
 109.1225326 102.8073553  52.9236925 108.7648093 102.1020599  51.6327744
 105.1638739 106.8524093  60.2568989 104.2389235 106.7200307  60.4646681
 105.4123152 107.6318312  60.7538932 115.1123401 102.9192836  61.9029722
 114.2040278 102.8508244  61.6088483 115.0610997 103.3964781  62.7311547
 108.9340145 104.3950974  53.5413121 108.8139770 104.8408025  54.3798601
 108.2392733 104.7436292  52.9826659 102.5247550 106.4957366  61.0912778
 102.6539931 106.7491845  62.0052190 101.8445001 107.0885074  60.7717433
 109.1864267 104.3382482  69.8464619 108.4097601 104.8976402  69.8367484
 109.8254830 104.8239265  70.3679489 116.9785047 101.1209274  63.6807596
 116.3359428 101.4141808  63.0347391 116.4739976 101.0062195  64.4860793
 114.6325211 104.8672448  54.3693455 115.5443067 105.0999834  54.1941153
 114.1234858 105.4509492  53.8068534 107.4410639 107.1467935  69.4082586
 108.1825323 107.6852979  69.1317410 106.7347624 107.7734224  69.5654138
 112.9165979 109.2897075  68.0054748 113.3249335 108.8479486  67.2609380
 112.1943240 108.7149703  68.2588941 109.2697049 104.2269682  65.3788305
 110.1158244 104.6509096  65.5222954 109.2095686 103.5703307  66.0726868
 112.4196494 101.8874051  67.0369478 112.1757426 102.6416111  66.5003754
 112.6956425 102.2659398  67.8716725 111.9761186 101.0430484  62.6183316
 111.1145665 101.3411737  62.9100054 112.0023620 101.2600882  61.6864349
 108.7922755 109.5872674  59.0257122 109.2561101 109.8660377  58.2361744
 108.5279553 108.6856119  58.8430212 105.6846836 109.1344156  61.9636885
 106.2548193 109.5631424  61.3254369 106.2754948 108.8526740  62.6621071
 107.7291641 105.7095827  55.8346687 108.4315685 106.1616870  56.3020613
 107.3972270 105.0679645  56.4626580 106.1772003 104.3007583  70.2097896
 105.5470663 104.9823864  70.4433293 106.0708091 104.1890665  69.2651035
 101.4716975 103.9679379  61.1363820 100.6816029 104.2236908  60.6603931
 101.9628223 104.7827717  61.2415861 103.4231721 104.3323958  58.0947297
 102.6262884 104.4442653  58.6130793 103.1957313 104.6710611  57.2288188
 109.2537388 110.8568662  66.0429812 109.3181821 111.3189069  66.8787984
 108.5448312 110.2266027  66.1712122  99.7554678 104.2209870  63.5678811
 100.0062717 105.1056880  63.8336387 100.2914227 104.0414471  62.7953903
 105.4552745  98.6028349  72.5723147 105.0619691  98.0494548  73.2470792
 106.2718886  98.9138927  72.9629665 102.4214803 110.0412207  56.4836717
 102.9339324 110.8355457  56.6342282 103.0737516 109.3438498  56.4170319
 104.2309688 113.1577963  58.5659470 104.4076316 114.0795928  58.3780454
 105.0266521 112.8436383  58.9953850 108.3720706 100.0186228  70.1643404
 109.1130420 100.6193381  70.0847866 108.6038629  99.2763866  69.6061446
 103.5162044 105.2042595  68.4421634 103.4015560 104.3027853  68.7428732
 102.6606562 105.4506292  68.0906450 105.3541003 114.6756137  64.5669813
 105.9048429 114.5473201  63.7946807 104.5152479 114.9751026  64.2164705
 109.1508174 110.9407265  68.9114044 109.6836511 110.1795553  68.6813352
 108.6222256 110.6480917  69.6538198 112.3177869  96.0467331  64.4407686
 111.9742139  96.9368973  64.3646796 112.6856832  95.8568989  63.5777271
 100.3863720 108.3700861  57.2596288 101.2238942 108.7797870  57.0429995
 100.5641988 107.4300304  57.2296482 112.2828152 106.0375942  52.9480121
 111.7674776 106.8080547  53.1868508 112.0105461 105.3641078  53.5713182
 109.8675263 100.8825643  58.0065359 109.0116860 100.4932493  57.8270998
 110.2802215 100.9617604  57.1465145 111.3974410  98.4171986  62.4056919
 110.8939205  98.3802121  61.5924724 111.6905017  99.3264729  62.4653575
 107.6417296  98.5010716  61.4123101 108.5070292  98.3053525  61.0528990
 107.7094805  98.2721068  62.3392457 112.0714455 103.9103034  54.7739902
 111.7664591 104.2249183  55.6250045 113.0244897 103.9884454  54.8167235
 110.5160887 110.0693258  56.4232856 109.9882249 109.3346017  56.1106093
 110.0148390 110.8467934  56.1772824 105.2479615 100.7312924  58.7839467
 105.8223367 100.5088105  58.0512660 105.8350597 100.8001618  59.5368069
 114.3059192 106.6186651  59.5903844 114.8191074 107.2516643  60.0925554
 114.9560416 106.0187846  59.2247204 105.5749202 102.7617385  52.8035353
 104.7386514 103.0992071  53.1244627 105.4353972 102.6266365  51.8662490
 107.5502282  97.6054173  57.5114537 106.8966695  97.2903190  56.8871152
 107.5082757  96.9829913  58.2374360 108.6613487 107.8873468  49.4267829
 107.7540549 107.6562721  49.6258978 109.1584519 107.0911087  49.6141810
 110.7840023 104.0936106  61.8362184 109.8662584 104.3151053  61.6783872
 111.2000166 104.1682417  60.9773892 111.5675071 105.4927522  56.9664865
 112.3146890 106.0048919  56.6571987 111.8366660 105.1711575  57.8269258
 109.8401721 107.9886063  53.9491819 108.9312940 107.7045095  54.0464289
 109.8696805 108.4085141  53.0895126 114.0153908 102.5284638  58.9483654
 113.2776665 102.0162024  59.2793897 114.2680681 102.0885020  58.1366931
 114.1165535  95.3060890  59.5425423 114.4224412  94.4458254  59.2551338
 114.8418140  95.8978510  59.3424417 100.4089891 105.7091577  57.9307021
 100.2114291 105.1160937  57.2058088  99.8536555 105.4043787  58.6482960
 108.3886615 105.6014683  60.0501614 108.4435225 104.6488520  59.9744091
 107.5777817 105.7574122  60.5342913 109.5377809 109.5294806  51.2879898
 109.0997239 108.8130665  50.8285535 110.2788249 109.7570921  50.7264989
 106.3278975 104.2191743  57.8091993 105.5146840 104.5185914  58.2157185
 106.8237969 103.8247432  58.5266475 111.9253186 104.6833567  66.6406887
 112.2802574 104.9105041  67.5001353 112.5725318 105.0151944  66.0184142
 105.8193049 101.7910099  63.4253228 106.4592429 101.6498858  62.7276191
 104.9870580 101.5044612  63.0491830 106.5953353 111.0912529  59.5388221
 107.3893952 110.5962849  59.3370796 105.8845046 110.5630392  59.1755926
 102.9036117 105.2355611  55.6147973 101.9733705 105.1740066  55.8317935
 102.9993589 104.7131563  54.8184615 102.8221666 101.7610424  58.2026215
 103.0828483 102.6755757  58.0935375 103.6438838 101.2934866  58.3522828
 104.2946591 103.1748181  65.3725039 104.9669645 102.9665543  64.7237688
 103.4676378 102.9770267  64.9330272 110.1972163  99.8010122  67.3890700
 109.5500078 100.5000071  67.2955177 110.9673179 100.2346266  67.7566949
 110.3736298 107.6390887  65.4487520 111.3028358 107.7902046  65.2756487
 109.9527328 107.7274907  64.5936167 109.1724629 111.6641551  63.2186058
 109.0335715 111.2960335  64.0911996 108.3839226 112.1789190  63.0470015
 110.7229845 111.0423154  60.6074895 110.3879677 111.0023924  61.5032545
 110.2233790 110.3767870  60.1345306 104.6974089 106.4490784  66.1327477
 104.5593886 105.7171022  66.7339016 105.6079012 106.3599684  65.8511664
 113.6589036 108.3879188  50.8811955 113.0418207 107.6626016  50.7845008
 113.1905525 109.1488548  50.5379029 107.3256389 106.1610743  65.6211156
 108.0356008 105.5203935  65.5797775 107.2825697 106.4123638  66.5437337
 106.0385323 103.1475961  67.4406796 105.5022680 102.6966699  68.0928392
 105.4502032 103.2821870  66.6977260 105.4487582 102.6064612  50.0033259
 104.5717048 102.4853413  49.6395506 105.9245335 101.8150691  49.7512148
  96.9689722 107.3941772  60.0974767  97.6560762 107.0803502  59.5095782
  96.8137851 108.2983137  59.8242018 101.7724444 102.2831969  64.5259790
 101.6882633 101.6757638  63.7910200 100.9507151 102.7740987  64.5269287
 111.9448158 100.7685532  59.8929985 112.4416858 100.0155494  59.5731056
 111.1735140 100.8049849  59.3273195 113.0277939 109.5257219  57.4668409
 112.0934218 109.6458682  57.2973113 113.2054607 108.6229686  57.2028419
 108.5283127 102.9102915  59.6201670 108.1580915 102.3573955  60.3082575
 109.0242219 102.3061049  59.0676670 116.4150490 105.3674539  58.0018443
 116.8810942 106.2002530  57.9278745 116.8657991 104.9019520  58.7063701
 106.3572326 113.3700410  66.7156688 107.0581785 114.0036893  66.8686082
 105.8867441 113.7115142  65.9552327 114.3867153  97.7355126  62.0409344
 113.4730233  97.9659352  62.2091551 114.8160255  97.8193570  62.8923377
 114.1573612 105.9245018  64.5409238 113.5045062 106.1720925  63.8861691
 114.5353991 105.1109156  64.2071715 110.2061185 106.6664829  71.0275275
 109.5301822 106.5658958  71.6977650 111.0288818 106.5104042  71.4911272
 101.9540044 112.9036765  63.6487791 102.5393480 112.1580453  63.7815695
 101.7564882 113.2140722  64.5324454  96.5457698 105.4742365  62.3692234
  96.5841798 104.9405956  63.1629352  96.0397991 104.9477571  61.7503211
 103.9248461 100.3206906  65.8654776 103.9889787 101.1821737  65.4532174
 103.8615581  99.7080908  65.1327134 103.4000733 102.3930038  69.5127810
 104.0272772 102.0107116  70.1265335 102.5428652 102.1744240  69.8783503
 100.1766276 104.2006468  55.4446165 100.4719717 103.2917146  55.3913219
  99.2754312 104.1794207  55.1227167 103.7060523 102.2762464  61.4273714
 102.9847109 102.8898432  61.2881187 104.4953779 102.8120229  61.3490360
 106.5086836  99.6116891  67.7014365 107.0321238  99.8579187  68.4640675
 106.2899170 100.4436925  67.2817503 101.9054118 101.8820565  55.5685490
 101.5766824 101.0017944  55.3860596 102.2593488 101.8268234  56.4561879
 105.0195941 102.1693535  55.9360968 105.3592013 102.6979456  55.2139576
 105.4668061 102.5073941  56.7119534 107.7139382 100.5530586  65.3864036
 107.3736202  99.7538399  65.7884716 107.0078388 100.8532297  64.8140869
 108.3655853  97.6379898  63.8391359 109.1881923  97.1640376  63.7170249
 108.6093917  98.4170382  64.3390045 107.0064088 100.6668157  54.1354261
 107.7272450 101.0449409  53.6317978 106.3829392 101.3857033  54.2389239
 111.1495211 101.3713306  55.0712593 111.3658825 102.2537943  54.7701421
 110.6689278 100.9799519  54.3418235 105.8894432 104.3299019  61.6483338
 105.7439013 104.6439322  62.5407619 105.4119636 104.9483919  61.0954236
 107.7490815 101.3201567  61.6964227 107.7352384 100.4242660  61.3596525
 108.4663243 101.3272230  62.3302513 109.6016946 101.7538907  63.7417355
 109.3434724 102.6755978  63.7401685 109.0701986 101.3569341  64.4317819
 100.3640094 106.8704363  64.5870999  99.8193562 107.6464171  64.7191273
 101.2419444 107.2175168  64.4290120 107.1527711 100.2015947  56.9651797
 107.2743622  99.2732593  57.1642685 106.8629753 100.2154633  56.0530113
 110.0218901  97.8870857  60.1018517 110.0440598  97.9510191  59.1470497
 110.4386960  97.0475366  60.2959023 101.1506116 105.9974259  67.4801156
 100.4087852 106.1456895  68.0665786 100.8298860 106.2582525  66.6167905
 101.5962730 113.8839688  59.5111550 102.4220750 113.5843460  59.1310194
 101.2456782 113.1147311  59.9601339 106.5644263 113.2366156  61.5809224
 105.9424272 112.5736861  61.2811452 107.2349130 113.2627288  60.8982872
  99.7971335 111.8026015  60.4700484  98.9603243 111.3748189  60.2884485
  99.7694980 111.9958458  61.4071275 106.6368790 101.7147944  71.1741730
 106.6856946 102.5910067  70.7919499 107.1791305 101.1725337  70.6013373
 106.1257770 111.7870080  55.0567684 106.2745890 112.4705544  54.4034357
 106.9324213 111.7675170  55.5717140 114.5325274 105.0912462  69.0834902
 115.4335136 104.9518927  68.7918900 114.6073248 105.2566917  70.0233080
 108.8668079 102.4679317  67.9288089 107.9971388 102.7612883  67.6570677
 109.1027559 103.0519762  68.6495352 103.8810403 107.8135257  56.0628753
 103.6356445 106.9097587  56.2608963 104.0506317 107.8152408  55.1208231
 111.5707113  98.6858934  65.4453509 112.0889057  99.4219961  65.1199997
 111.2162246  98.9922927  66.2800268 103.1506050 103.5463615  53.5614915
 102.4575295 103.6207970  52.9054951 102.9057802 102.7823959  54.0836432
 111.8219707  95.1059216  60.9654406 112.1021461  94.4382405  61.5914832
 112.6070314  95.2988312  60.4529069 115.6928565 103.5276850  64.7125981
 116.6445988 103.6274948  64.7338205 115.5232016 102.7355119  65.2224065
 113.7142945 100.6132433  64.8985382 113.1192877 100.8937446  64.2031870
 113.4292641 101.1026334  65.6702123 110.0099974 105.6179023  49.8695484
 110.9559079 105.4885231  49.9383902 109.6314219 104.8793685  50.3464912
 118.3211132 103.5394013  63.8726563 117.8050180 102.7552470  63.6856492
 119.2051080 103.2112730  64.0373083 115.9821858  97.2835029  59.8322376
 115.7846680  96.9750117  60.7165708 116.5921564  98.0096668  59.9620306
 109.8938666 109.6696769  71.3296141 110.8141676 109.8475368  71.5236188
 109.8588249 108.7252814  71.1775841 108.1942891 103.5428999  49.8050370
 107.2874346 103.2462112  49.8813083 108.4718872 103.2458817  48.9384656
  99.1120831 104.8635363  60.2549416  98.7923616 104.0100671  59.9623790
  98.5654260 105.0783941  61.0107383 102.8900739 107.5797804  63.9718922
 103.1086749 108.5114912  63.9906956 103.3026513 107.2205778  64.7573726
 109.8104957  98.0865889  55.9594611 109.0005685  97.7412974  56.3349857
 110.4989374  97.7773433  56.5482222 111.7395505  97.1643936  57.5818907
 112.2926544  97.5839389  58.2408931 111.9765591  96.2379684  57.6241863
 107.7628604 103.1531009  73.3621671 107.6625331 104.1025366  73.2933762
 107.5450146 102.8249248  72.4897741 106.9641676 100.4015935  49.9462349
 107.8260840 100.7270833  50.2058166 107.1492020  99.6147430  49.4335415
  98.9809091 108.4838274  62.2242538  98.2872563 108.0692227  61.7112492
  99.7282082 108.5258811  61.6275956 115.1174312  99.2744461  57.0897572
 114.5372981  99.9329265  56.7075624 114.8510245  98.4521806  56.6784989
 113.5677879  98.6749519  59.2918892 114.0677657  98.7866053  58.4833211
 114.2113486  98.3710572  59.9319701 107.6259874 106.5828148  72.1786733
 107.1426956 107.3828508  72.3850622 107.7120813 106.5936093  71.2254177
 100.8945834 108.4156528  60.1008552 100.8716522 108.5144215  59.1490436
 101.2046470 109.2621679  60.4225719 103.5533212 110.4732683  64.2155167
 104.5076465 110.4416625  64.1485098 103.3545735 110.0123307  65.0305393
 104.1432594 109.0433799  66.7825964 104.9625483 109.5377878  66.8060802
 104.4169402 108.1265767  66.7543532 113.8999190 101.4344551  56.1453920
 113.0125045 101.7194202  55.9274115 114.3153179 101.2738315  55.2981197
 117.2513726 101.4591072  59.8608259 118.0274116 101.9487525  60.1332876
 116.5261860 101.8849127  60.3180129 119.6886285 102.1718692  60.9182200
 120.2830776 101.9314428  60.2075508 119.7612869 101.4525822  61.5455736
 101.9083441 116.0152303  61.2325365 101.7737909 115.2552703  60.6663363
 101.4915503 116.7393202  60.7654154 113.8740214 106.9499087  56.3604210
 113.8175415 107.4067639  55.5211843 114.4268556 106.1889772  56.1827053
 117.6845020 102.7388819  57.1854330 117.4281954 102.3385455  58.0162537
 117.0597888 103.4532613  57.0604469 114.6074993 108.1403869  53.6556739
 114.5523797 107.9748140  52.7145183 113.9821048 108.8479901  53.8118929
  99.3967508 103.3771933  67.4818162 100.0426372 102.8670887  67.9705387
  99.1884659 104.1140615  68.0561587 107.9171119  97.6411978  53.2342058
 107.9049789  98.5853817  53.3910329 108.8094541  97.4582123  52.9401519
 111.7323238  94.2354754  57.4887995 110.9655634  93.6813241  57.6344677
 112.1433943  94.3076623  58.3502146 103.7364999 100.5239550  71.5793176
 104.5996461 100.1676355  71.7896500 103.1630410 100.1853445  72.2668580
  44.5146802  -8.1912467  49.0462408  44.1765314  -8.3071402  48.1582943
  45.3836570  -8.5921302  49.0263414  40.3733618  -6.3376990  45.0359299
  39.8098483  -6.4287053  44.2675587  40.2586013  -7.1577086  45.5161792
  44.9966585  -7.0377615  55.0048614  44.9855226  -7.4324817  54.1329117
  45.1587225  -7.7711542  55.5982385  37.9198050  -4.8425799  47.8743520
  38.7119342  -5.1834974  47.4589819  38.1594700  -4.7330824  48.7945673
  45.9533177  -2.6706023  40.3473764  45.3021156  -2.0851942  39.9607778
  46.7477539  -2.1399828  40.4068801  39.8788804  -5.5816885  40.7460898
  40.6519680  -6.1287898  40.6073774  40.2314203  -4.7172636  40.9575360
  41.7173846  -4.2540503  53.9527798  41.4263712  -3.3494872  53.8374464
  42.3530831  -4.2123976  54.6671867  42.6430053  -6.8763655  50.5429157
  43.2393625  -7.1007632  49.8286120  42.7005025  -7.6178909  51.1454605
  47.4308442  -4.9815591  40.8842748  46.7954275  -4.9080964  41.5963653
  47.1005848  -4.3921992  40.2061828  41.9351370  -7.5196113  40.5803723
  41.8187628  -8.1951210  41.2484808  42.0453630  -8.0063739  39.7635876
  44.2782911  -8.0585966  44.2850412  43.9141119  -8.5855345  44.9963334
  45.1350027  -8.4487497  44.1116898  46.6763731  -4.5679088  50.9477591
  46.3764455  -3.6654049  50.8393399  46.3314791  -4.8346904  51.7998744
  40.1276213  -8.1165291  46.9814296  39.2026709  -8.2489077  47.1891988
  40.3760626  -7.3371072  47.4784238  41.6584511   2.1965233  43.9148559
  41.5808541   3.1473058  43.9937040  41.0546155   1.8511105  44.5723485
  42.4048113  -7.8221449  56.1327893  43.1462798  -7.2836405  55.8562717
  41.6985099  -7.1955160  56.2899445  47.8803453  -5.6792308  54.7300054
  48.2886809  -6.1209898  53.9854687  47.1580714  -6.2539681  54.9834247
  48.2032268  -5.1191117  48.4852343  47.5741130  -4.9545403  47.7828411
  47.8157930  -4.7049508  49.2563307  52.0821500  -4.1836680  45.8396707
  51.3972538  -3.8037778  45.2893740  52.1665349  -3.5741353  46.5728655
  49.3372431  -6.5376721  52.4392051  49.5489326  -5.8944961  51.7626432
  49.2902179  -7.3714404  51.9713981  43.7560229  -5.3816709  45.7502428
  44.2198575  -5.1029006  44.9607051  43.4917028  -6.2833265  45.5675519
  40.6484311  -5.8345228  48.6882192  41.2185668  -5.4057959  48.0499676
  41.2392422  -6.1162643  49.3866377  50.4518259  -3.6604765  50.6114408
  51.2735703  -4.0624578  50.3297090  50.4480662  -3.7636531  51.5630524
  44.2174863  -4.1120722  52.7675118  44.2819295  -3.6500315  53.6033290
  43.5085786  -4.7423357  52.8957428  43.9322880  -2.4452614  42.6354099
  43.7968555  -1.6001079  43.0638947  44.4732693  -2.2433337  41.8720033
  37.3852278  -4.9277176  43.2082024  37.8976798  -4.1333926  43.3587589
  38.0374990  -5.6250886  43.1415625  39.1947162  -1.8111420  45.2904777
  39.3713791  -0.8893455  45.1025761  39.9903996  -2.1253001  45.7199157
  45.5591357  -1.8229048  56.7654441  45.1155211  -2.6092669  56.4475345
  46.2208570  -1.6349897  56.0998332  40.3178478  -0.2933246  51.2915119
  40.8685903  -0.4216183  50.5192113  39.4789954   0.0061643  50.9410012
  47.6572595  -1.5426248  54.7935842  47.6391070  -0.7217367  54.3016111
  48.5792515  -1.6672173  55.0185983  44.1145649  -4.0282118  55.6359350
  44.6473986  -4.7893830  55.4058658  43.5859730  -4.3208467  56.3783505
  45.4798361  -4.8996126  43.1478162  44.9519723  -5.6343366  42.8351400
  44.9785864  -4.1221450  42.9018131  50.4591207  -6.7047105  48.2645209
  49.8014882  -6.0147844  48.3525337  51.2631607  -6.3150674  48.6079195
  43.6250962  -7.0815916  36.1513135  42.7178023  -7.3126662  36.3504284
  44.1221994  -7.8778296  36.3387117  46.5319041   1.6281592  39.0709822
  45.8580739   1.9313288  39.6794779  46.9184863   2.4310672  38.7215279
  44.8039195  -6.9803321  40.6737126  43.8950414  -7.2644288  40.7709595
  44.8334279  -6.5604242  39.8140432  50.0358463  -3.3696731  44.4428293
  49.5820790  -4.2105821  44.4993484  49.4052429  -2.7335333  44.7803073
  48.4791402  -1.5320235  45.3778111  48.7714376  -0.9715178  44.6590477
  48.9890022  -1.2391674  46.1331270  44.5015283  -5.4394577  38.0125204
  44.0634713  -6.1558718  37.5530842  45.2425724  -5.2118462  37.4510296
  43.4425027  -0.7539884  46.4671565  43.4001206  -0.5279037  45.5380097
  44.3587726  -0.9876509  46.6157366  52.6457777  -5.0960853  49.0812794
  53.0794284  -5.1885564  49.9295848  53.3589358  -5.1203353  48.4432810
  41.5590828  -3.8776855  46.2633527  42.3531426  -4.3726534  46.0616102
  40.8482520  -4.4058991  45.9001233  46.3785672  -1.4958759  50.6145895
  46.4322694  -0.9267823  51.3823611  45.5100454  -1.3256874  50.2499932
  53.5073327  -5.0537152  51.6145680  53.7009217  -4.1491342  51.8604955
  53.4073945  -5.5129733  52.4484265  48.5688436  -4.9030410  57.1886560
  48.4173942  -5.1319858  56.2716644  48.5593115  -3.9459808  57.2017905
  45.3373772  -7.3298497  52.1732827  46.2665832  -7.1787337  52.0001794
  44.9164802  -7.2414476  51.3181473  44.1362104  -3.3047833  49.9431364
  43.9973189  -3.6729048  50.8157302  43.3476700  -2.7900193  49.7715322
  44.7310256   1.7961264  41.2856901  44.9062011   1.3249307  42.1002524
  44.0443044   2.4227030  41.5138162  45.6867319  -3.9266230  47.3320202
  45.3517151  -3.9665460  48.2277852  45.1871265  -4.5921514  46.8590612
  39.6611563  -8.5198600  52.8572783  39.5231361  -9.2518361  53.4584322
  40.5716486  -8.6089700  52.5756971  48.6226511  -6.5810195  37.6057262
  48.0055681  -7.3063367  37.5090314  48.1542999  -5.8200835  37.2624336
  42.2893863  -8.8078640  52.3456463  42.9993482  -9.4485448  52.3043081
  42.2463172  -8.5565746  53.2682644  50.2780642  -1.8711287  55.2663042
  50.2193188  -2.5552067  54.5993625  50.6800161  -1.1292297  54.8143668
  39.2971341   4.9450627  48.0596761  39.5367939   5.5769151  48.7375780
  38.4540537   4.5938667  48.3462120  50.2798049  -3.9071703  53.4977022
  49.3924828  -4.2445781  53.6203421  50.8496600  -4.6388672  53.7345787
  43.8099203   0.7529749  50.4638265  43.7369374   1.5584721  50.9757570
  43.3676596   0.9521715  49.6386286  43.5988982  -0.0098481  43.9741087
  42.8156504   0.5323199  44.0679311  44.2981728   0.5075499  44.3735328
  46.2697886   0.6516583  52.6196424  46.9825859   1.2864048  52.5472325
  45.7787915   0.7480449  51.8036425  47.9915413  -5.4432164  44.1913715
  47.0571692  -5.3230702  44.0218420  48.1692082  -6.3459697  43.9273725
  41.3209800  -1.5988973  53.4401994  42.0219259  -0.9652490  53.5931389
  40.8504915  -1.2574242  52.6797634  49.4464196  -3.2571024  41.7249902
  49.7224040  -3.3714429  42.6343776  48.5768694  -3.6553539  41.6862075
  46.0818260   0.9915327  45.3682715  46.2640654   0.1736983  45.8310467
  46.9051246   1.2083020  44.9307605  46.4160425  -0.0816488  42.6297764
  46.9448192  -0.5924033  42.0167926  46.6788645  -0.3973957  43.4943297
  45.1698659  -8.3024555  57.7520582  44.4939296  -8.4030426  58.4222957
  45.9926293  -8.4585341  58.2156579  36.9177518  -2.0652618  50.3733097
  37.5030955  -2.8108930  50.5061001  36.7202356  -1.7548662  51.2569761
  39.7716173   0.9698629  45.3895540  39.1026548   1.4544757  44.9059580
  39.6329043   1.2167850  46.3038918  43.9121442   3.0042373  51.9878198
  44.4639750   3.1673994  52.7527283  44.2527635   3.5946810  51.3158223
  48.7632316  -2.1696370  57.8426852  49.3072220  -1.5566412  57.3481807
  48.1819161  -1.6116791  58.3593865  47.0489829   0.9524348  48.9741880
  46.9240968   0.1514088  48.4652826  47.7068920   1.4470541  48.4855850
  49.1124737  -1.2466632  50.6021430  48.1655073  -1.3661281  50.5299757
  49.4607511  -2.1344134  50.6847692  46.1171171  -1.4513916  46.8025782
  45.9696133  -2.3797208  46.9833352  46.9424664  -1.4293825  46.3182858
  49.7205293  -0.6285357  47.8890655  50.6451840  -0.8342496  47.7515106
  49.5520596  -0.8768956  48.7979997  49.5100609  -0.1099689  43.2452747
  49.6837486  -0.6753267  42.4926599  50.0029500   0.6901205  43.0632237
  50.4975781  -0.7932925  40.3449645  51.1926686  -0.1726232  40.5636960
  50.8398931  -1.6437574  40.6202023  52.3967204  -3.3433219  41.8736976
  52.9218528  -3.0045947  41.1486296  52.3089557  -4.2786204  41.6900110
  44.0587253   0.5700854  54.0026852  44.3674380   0.3250001  54.8749552
  44.8562735   0.7747493  53.5145723  44.0807865   2.7238764  46.2332229
  43.6412855   2.2315143  46.9265086  44.8315982   2.1811731  45.9924304
  36.5600204  -1.0849695  46.2356857  37.3858224  -1.3845923  45.8555500
  36.2094256  -1.8542073  46.6846646  41.5281737  -1.7323227  48.3054531
  40.9061747  -2.3952522  48.0056758  42.1986604  -1.7062095  47.6228178
  34.7608809  -3.1663369  47.1945791  33.9240717  -3.5941195  47.0129792
  34.7332455  -2.9730926  48.1316582  52.0861110  -2.7100316  57.1788174
  51.2956654  -2.7276177  56.6392673  51.8494465  -2.1712022  57.9337210
  41.0895244  -3.1819304  41.7812991  41.2383365  -2.4983839  41.1279664
  41.8961688  -3.2014214  42.2962447  53.7077182  -3.4410908  54.7362924
  53.4161991  -3.0780927  55.5726385  53.0949314  -4.1543900  54.5576256
  38.8447877  -7.1554126  42.7874060  38.5993919  -8.0591796  42.9854270
  39.0143792  -7.1536976  41.8453538  44.5890650  -0.6871173  39.2524738
  44.0164617  -0.0680986  38.7995210  45.1623443  -0.1371812  39.7864660
  47.8087909  -0.4034023  40.3833321  48.7418583  -0.4688461  40.5866196
  47.7211122   0.4322244  39.9247853  50.4375926  -1.0868153  37.3437268
  50.3589558  -1.4208289  38.2373026  51.2585593  -0.5946385  37.3428741
  44.8576141  -5.2992614  58.0541448  45.7779150  -5.1214015  58.2481494
  44.8225724  -6.2436569  57.9021147  37.8538213  -7.3891580  50.6964229
  38.0724223  -6.4574472  50.7152263  38.2663987  -7.7483605  51.4819033
  42.5897349  -8.3861235  58.9032040  42.1064430  -7.5860875  59.1095929
  42.6758288  -8.3753290  57.9499484  35.8583308  -6.5532855  46.8253859
  35.8353996  -6.4545168  45.8735742  36.1683945  -5.7067705  47.1471025
  38.5170686  -4.4956700  50.9400473  39.4713940  -4.5272758  50.8730405
  38.3183210  -4.9566077  51.7550699  39.1070068  -5.9255584  53.5071271
  39.9262957  -5.4311506  53.5306108  39.3806876  -6.8423616  53.4788839
  36.8720915   1.0462919  47.9570671  36.7375383   0.2863320  47.3908669
  36.4552977   1.7703819  47.4899460  48.0079878  -3.7700157  36.9647247
  48.7115728  -3.5650155  37.5804902  47.2842527  -3.2023396  37.2296330
  40.0290041   1.9432236  48.1689114  39.9122425   2.8877669  48.0667804
  39.2082487   1.6405798  48.5574913  49.9166575  -3.3317628  39.0145707
  50.7512179  -3.7636430  38.8323181  49.7550918  -3.5035615  39.9422601
  49.5712468  -6.8285515  40.3802046  49.5161271  -6.9941243  39.4390490
  48.9458523  -6.1209482  40.5364236  46.8858375  -4.5236603  59.7055609
  47.7549534  -4.3495951  59.3442244  46.4065126  -3.7042186  59.5831338
  41.0544555   2.5960498  51.3845042  41.9571802   2.6284108  51.7011537
  40.8281925   1.6660949  51.3991378  42.8098157   1.3491484  48.0455121
  41.8593788   1.3493346  47.9319493  43.1130643   0.6024219  47.5291156
  58.5450850   7.1852023  49.1100883  59.1829260   7.0658770  48.4064224
  58.4271693   8.1332867  49.1688836  55.3540557   7.1379451  49.0462408
  55.0159068   7.0220516  48.1582943  56.2230325   6.7370616  49.0263414
  51.2127372   8.9914927  45.0359299  50.6492238   8.9004864  44.2675587
  51.0979767   8.1714832  45.5161792  55.8360340   8.2914303  55.0048614
  55.8248980   7.8967101  54.1329117  55.9980979   7.5580375  55.5982385
  48.7591804  10.4866119  47.8743520  49.5513096  10.1456944  47.4589819
  48.9988455  10.5961094  48.7945673  56.7926931  12.6585895  40.3473764
  56.1414911  13.2439976  39.9607778  57.5871294  13.1892090  40.4068801
  50.7182558   9.7475032  40.7460898  51.4913434   9.2004019  40.6073774
  51.0707957  10.6119282  40.9575360  52.5567601  11.0751415  53.9527798
  52.2657467  11.9797045  53.8374464  53.1924585  11.1167942  54.6671867
  53.4823808   8.4528263  50.5429157  54.0787380   8.2284285  49.8286120
  53.5398779   7.7113009  51.1454605  53.0548836   5.9067698  38.3779348
  53.3074357   5.3849220  37.6162811  52.1173395   5.7433844  38.4806032
  58.0992119   4.9103477  46.1854091  58.8855208   4.4922900  45.8344508
  58.3630823   5.8149569  46.3535740  58.2702196  10.3476327  40.8842748
  57.6348029  10.4210954  41.5963653  57.9399603  10.9369926  40.2061828
  63.5000546   4.8478710  47.0887070  64.2325718   4.2777927  47.3224899
  62.7439902   4.4600310  47.5293576  52.7745125   7.8095804  40.5803723
  52.6581383   7.1340708  41.2484808  52.8847385   7.3228178  39.7635876
  55.1176666   7.2705951  44.2850412  54.7534873   6.7436572  44.9963334
  55.9743782   6.8804420  44.1116898  61.0225966  -1.4399716  51.5481679
  60.6909291  -0.5704305  51.3242894  60.4271580  -1.7563432  52.2275709
  54.7582153   2.2995851  39.2811761  54.9256555   3.1676088  39.6482232
  54.5679322   2.4623133  38.3573050  57.5157486  10.7612830  50.9477591
  57.2158209  11.6637869  50.8393399  57.1708545  10.4945013  51.7998744
  50.9669967   7.2126627  46.9814296  50.0420464   7.0802841  47.1891988
  51.2154381   7.9920846  47.4784238  60.9154630   3.2795370  48.6275029
  60.0071507   3.2110779  48.3333790  60.8642226   3.7567315  49.4556854
  54.7371374   4.7553509  40.2658428  54.6170999   5.2010559  41.1043908
  54.0423962   5.1038826  39.7071966  48.3278778   6.8559900  47.8158085
  48.4571160   7.1094379  48.7297497  47.6476230   7.4487608  47.4962740
  52.4978266  17.5257150  43.9148559  52.4202295  18.4764975  43.9937040
  51.8939909  17.1803023  44.5723485  54.9895496   4.6985016  56.5709926
  54.2128830   5.2578936  56.5612791  55.6286059   5.1841799  57.0924796
  62.7816276   1.4811809  50.4052903  62.1390656   1.7744342  49.7592697
  62.2771205   1.3664729  51.2106099  60.4356440   5.2274982  41.0938762
  61.3474296   5.4602369  40.9186459  59.9266087   5.8112026  40.5313840
  53.2441868   7.5070469  56.1327893  53.9856552   8.0455513  55.8562717
  52.5378853   8.1336758  56.2899445  58.7197207   9.6499610  54.7300054
  59.1280563   9.2082020  53.9854687  57.9974469   9.0752237  54.9834247
  55.0728278   4.5872216  52.1033611  55.9189473   5.0111630  52.2468260
  55.0126915   3.9305841  52.7972174  59.0426022  10.2100800  48.4852343
  58.4134885  10.3746514  47.7828411  58.6551684  10.6242410  49.2563307
  62.9215254  11.1455238  45.8396707  62.2366292  11.5254139  45.2893740
  63.0059103  11.7550565  46.5728655  58.2227723   2.2476585  53.7614785
  57.9788655   3.0018645  53.2249061  58.4987653   2.6261932  54.5962032
  60.1766186   8.7915197  52.4392051  60.3883081   9.4346957  51.7626432
  60.1295934   7.9577514  51.9713981  57.7792415   1.4033018  49.3428623
  56.9176894   1.7014271  49.6345360  57.8054849   1.6203417  48.4109655
  54.5953984   9.9475208  45.7502428  55.0592330  10.2262911  44.9607051
  54.3310782   9.0458653  45.5675519  51.4878065   9.4946690  48.6882192
  52.0579422   9.9233958  48.0499676  52.0786177   9.2129275  49.3866377
  53.5322870   6.0698361  42.5591994  54.2346913   6.5219404  43.0265920
  53.2003499   5.4282180  43.1871887  51.9803232   4.6610117  56.9343203
  51.3501892   5.3426398  57.1678600  51.8739319   4.5493199  55.9896341
  47.2748204   4.3281913  47.8609127  46.4847258   4.5839442  47.3849238
  47.7659451   5.1430251  47.9661168  61.2912014  11.6687153  50.6114408
  62.1129457  11.2667340  50.3297090  61.2874416  11.5655387  51.5630524
  49.2262949   4.6926493  44.8192604  48.4294113   4.8045187  45.3376099
  48.9988542   5.0313145  43.9533494  55.0568617  11.2171196  52.7675118
  55.1213050  11.6791603  53.6033290  54.3479541  10.5868561  52.8957428
  45.5585907   4.5812404  50.2924118  45.8093945   5.4659414  50.5581694
  46.0945455   4.4017005  49.5199210  69.3818007   8.0125901  46.9599379
  68.6281715   7.4433299  46.8043384  69.5165548   7.9788566  47.9070014
  54.7716635  12.8839303  42.6354099  54.6362309  13.7290839  43.0638947
  55.3126447  13.0858581  41.8720033  51.2583974  -1.0369117  59.2968454
  50.8650920  -1.5902918  59.9716098  52.0750115  -0.7258538  59.6874971
  48.2246032  10.4014741  43.2082024  48.7370553  11.1957992  43.3587589
  48.8768745   9.7041032  43.1415625  50.0340917  13.5180498  45.2904777
  50.2107545  14.4398462  45.1025761  50.8297750  13.2038917  45.7199157
  54.1751935   0.3788762  56.8888711  54.9161649   0.9795915  56.8093173
  54.4069858  -0.3633600  56.3306753  49.3193273   5.5645130  55.1666940
  49.2046788   4.6630387  55.4674039  48.4637791   5.8108826  54.8151757
  56.3985111  13.5062870  56.7654441  55.9548965  12.7199248  56.4475345
  57.0602325  13.6942020  56.0998332  51.1572232  15.0358671  51.2915119
  51.7079657  14.9075735  50.5192113  50.3183708  15.3353560  50.9410012
  58.4966349  13.7865670  54.7935842  58.4784824  14.6074551  54.3016111
  59.4186269  13.6619745  55.0185983  54.9539403  11.3009799  55.6359350
  55.4867740  10.5398087  55.4058658  54.4253484  11.0083451  56.3783505
  58.1209098  -3.5930135  51.1652992  57.7773368  -2.7028493  51.0892103
  58.4888061  -3.7828477  50.3022577  46.1894949   8.7303396  43.9841594
  47.0270171   9.1400404  43.7675302  46.3673217   7.7902838  43.9541788
  58.0859381   6.3978476  39.6725427  57.5706004   7.1683081  39.9113815
  57.8136689   5.7243612  40.2958489  55.6706492   1.2428177  44.7310666
  54.8148088   0.8535027  44.5516304  56.0833444   1.3220138  43.8710451
  57.2005639  -1.2225480  49.1302225  56.6970434  -1.2595344  48.3170031
  57.4936245  -0.3132737  49.1898882  53.4448524  -1.1386750  48.1368407
  54.3101521  -1.3343941  47.7774297  53.5126033  -1.3676398  49.0637764
  63.0593655   9.1510831  41.6078601  62.2823098   8.8121990  41.1633763
  63.7385136   9.1563454  40.9333566  57.8745684   4.2705568  41.4985208
  57.5695820   4.5851718  42.3495352  58.8276126   4.3486988  41.5412541
  56.3192116  10.4295792  43.1478162  55.7913478   9.6948551  42.8351400
  55.8179619  11.2070468  42.9018131  61.2984962   8.6244812  48.2645209
  60.6408636   9.3144074  48.3525337  62.1025361   9.0141244  48.6079195
  51.0510844   1.0915458  45.5084774  51.6254595   0.8690640  44.7757967
  51.6381826   1.1604153  46.2613375  60.1090421   6.9789185  46.3149151
  60.6222303   7.6119177  46.8170860  60.7591645   6.3790380  45.9492511
  51.3780431   3.1219919  39.5280659  50.5417743   3.4594606  39.8489934
  51.2385200   2.9868899  38.5907796  53.3533511  -2.0343293  44.2359843
  52.6997924  -2.3494276  43.6116458  53.3113985  -2.6567553  44.9619666
  54.4644716   8.2476002  36.1513135  53.5571778   8.0165255  36.3504284
  54.9615748   7.4513621  36.3387117  57.3712795  16.9573509  39.0709822
  56.6974494  17.2605206  39.6794779  57.7578617  17.7602590  38.7215279
  56.5871252   4.4538640  48.5607491  55.6693813   4.6753587  48.4029179
  57.0031395   4.5284951  47.7019198  57.3706299   5.8530056  43.6910171
  58.1178118   6.3651453  43.3817293  57.6397889   5.5314109  44.5514565
  55.6432950   8.3488597  40.6737126  54.7344169   8.0647630  40.7709595
  55.6728033   8.7687675  39.8140432  60.8752217  11.9595186  44.4428293
  60.4214544  11.1186096  44.4993484  60.2446184  12.5956585  44.7803073
  59.8185137   2.8887172  45.6728961  59.0807893   2.3764559  46.0039203
  60.0711910   2.4487554  44.8612237  59.3185156  13.7971683  45.3778111
  59.6108131  14.3576740  44.6590477  59.8283777  14.0900244  46.1331270
  46.2121120   6.0694111  44.6552328  46.0145520   5.4763472  43.9303394
  45.6567784   5.7646321  45.3728267  54.1917844   5.9617217  46.7746921
  54.2466453   5.0091054  46.6989398  53.3809046   6.1176657  47.2588219
  55.3409037   9.8897341  38.0125204  54.9028467   9.1733199  37.5530842
  56.0819478  10.1173455  37.4510296  52.1310204   4.5794277  44.5337300
  51.3178069   4.8788448  44.9402492  52.6269198   4.1849966  45.2511782
  54.2818781  14.5752034  46.4671565  54.2394960  14.8012880  45.5380097
  55.1981480  14.3415409  46.6157366  57.7284415   5.0436102  53.3652194
  58.0833803   5.2707575  54.2246659  58.3756546   5.3754478  52.7429449
  63.4582152   8.1654538  44.0701523  63.3200051   8.3556134  43.1422712
  63.1018371   8.9273920  44.5269574  51.6224278   2.1512633  50.1498535
  52.2623658   2.0101392  49.4521498  50.7901809   1.8647146  49.7737137
  63.4851532  10.2331065  49.0812794  63.9188038  10.1406354  49.9295848
  64.1983112  10.2088565  48.4432810  52.3984582  11.4515063  46.2633527
  53.1925181  10.9565383  46.0616102  51.6876275  10.9232926  45.9001233
  57.2179427  13.8333159  50.6145895  57.2716449  14.4024095  51.3823611
  56.3494208  14.0035044  50.2499932  48.7067346   5.5958145  42.3393280
  47.7764934   5.5342600  42.5563242  48.8024818   5.0734098  41.5429921
  48.6252895   2.1212958  44.9271522  48.8859712   3.0358291  44.8180682
  49.4470067   1.6537400  45.0768134  50.0977820   3.5350715  52.0970346
  50.7700873   3.3268077  51.4482995  49.2707607   3.3372801  51.6575578
  64.3467081  10.2754765  51.6145680  64.5402971  11.1800576  51.8604955
  64.2467699   9.8162184  52.4484265  56.0003392   0.1612656  54.1136007
  55.3531307   0.8602605  54.0200483  56.7704407   0.5948800  54.4812255
  59.4082190  10.4261508  57.1886560  59.2567696  10.1972060  56.2716644
  59.3986869  11.3832109  57.2017905  56.1767526   7.9993421  52.1732827
  57.1059586   8.1504580  52.0001794  55.7558556   8.0877442  51.3181473
  54.9755858  12.0244085  49.9431364  54.8366944  11.6562870  50.8157302
  54.1870454  12.5391725  49.7715322  55.5704010  17.1253182  41.2856901
  55.7455766  16.6541225  42.1002524  54.8836798  17.7518948  41.5138162
  56.5261073  11.4025688  47.3320202  56.1910906  11.3626458  48.2277852
  56.0265019  10.7370404  46.8590612  50.5005317   6.8093318  52.8572783
  50.3625115   6.0773557  53.4584322  51.4110241   6.7202218  52.5756971
  59.4620265   8.7481722  37.6057262  58.8449436   8.0228550  37.5090314
  58.9936753   9.5091082  37.2624336  53.1287618   6.5213277  52.3456463
  53.8387236   5.8806469  52.3043081  53.0856926   6.7726172  53.2682644
  61.1174397  13.4580631  55.2663042  61.0586943  12.7739851  54.5993625
  61.5193915  14.1999621  54.8143668  51.8416552   3.5078495  54.1652102
  51.3053909   3.0569234  54.8173699  51.2533260   3.6424404  53.4222567
  50.1365095  20.2742544  48.0596761  50.3761694  20.9061069  48.7375780
  49.2934292  19.9230584  48.3462120  51.2518811   2.9667146  36.7278566
  50.3748277   2.8455947  36.3640813  51.7276564   2.1753225  36.4757455
  61.1191804  11.4220214  53.4977022  60.2318583  11.0846136  53.6203421
  61.6890355  10.6903246  53.7345787  42.7720951   7.7544306  46.8220073
  43.4591991   7.4406036  46.2341088  42.6169080   8.6585671  46.5487325
  47.5755673   2.6434503  51.2505097  47.4913862   2.0360172  50.5155507
  46.7538380   3.1343521  51.2514593  54.6492957  16.0821667  50.4638265
  54.5763129  16.8876638  50.9757570  54.2070350  16.2813633  49.6386286
  54.4382737  15.3193437  43.9741087  53.6550259  15.8615117  44.0679311
  55.1375482  15.8367416  44.3735328  57.7479387   1.1288066  46.6175292
  58.2448087   0.3758029  46.2976362  56.9766369   1.1652383  46.0518501
  65.6009144   6.8328432  48.2593583  65.5899021   7.7153147  47.8887517
  64.7326524   6.4799983  48.0648120  57.1091641  15.9808501  52.6196424
  57.8219613  16.6155966  52.5472325  56.6181669  16.0772367  51.8036425
  58.8309168   9.8859754  44.1913715  57.8965446  10.0061216  44.0218420
  59.0085836   8.9832220  43.9273725  54.3314356   3.2705449  46.3446977
  53.9612143   2.7176490  47.0327882  54.8273448   2.6663583  45.7921977
  62.2181719   5.7277073  44.7263749  62.6842171   6.5605064  44.6524052
  62.6689220   5.2622054  45.4309008  52.1603554  13.7302944  53.4401994
  52.8613014  14.3639427  53.5931389  51.6898669  14.0717676  52.6797634
  60.2857950  12.0720894  41.7249902  60.5617794  11.9577489  42.6343776
  59.4162449  11.6738379  41.6862075  60.1898382  -1.9042340  48.7654651
  59.2761462  -1.6738113  48.9336858  60.6191483  -1.8203896  49.6168683
  59.9604840   6.2847552  51.2654545  59.3076291   6.5323459  50.6106998
  60.3385220   5.4711690  50.9317022  56.9212014  16.3207245  45.3682715
  57.1034409  15.5028901  45.8310467  57.7445000  16.5374937  44.9307605
  57.2554180  15.2475430  42.6297764  57.7841946  14.7367885  42.0167926
  57.5182399  14.9317960  43.4943297  56.0092413   7.0267363  57.7520582
  55.3333050   6.9261492  58.4222957  56.8320047   6.8706577  58.2156579
  47.7571272  13.2639299  50.3733097  48.3424709  12.5182987  50.5061001
  47.5596111  13.5743256  51.2569761  50.6109928  16.2990547  45.3895540
  49.9420303  16.7836674  44.9059580  50.4722797  16.5459767  46.3038918
  42.3488927   5.8344900  49.0937540  42.3873027   5.3008490  49.8874658
  41.8429220   5.3080105  48.4748517  54.7515196  18.3334290  51.9878198
  55.3033504  18.4965912  52.7527283  55.0921390  18.9238728  51.3158223
  49.7279689   0.6809440  52.5900083  49.7921016   1.5424271  52.1777480
  49.6646810   0.0683442  51.8572441  49.2031962   2.7532573  56.2373117
  49.8304001   2.3709650  56.8510641  48.3459881   2.5346775  56.6028809
  59.6026071  13.1595548  57.8426852  60.1465975  13.7725506  57.3481807
  59.0212915  13.7175126  58.3593865  45.9797505   4.5609002  42.1691472
  46.2750946   3.6519680  42.1158525  45.0785541   4.5396741  41.8472474
  57.8883584  16.2816266  48.9741880  57.7634723  15.4806006  48.4652826
  58.5462675  16.7762459  48.4855850  49.5091752   2.6364998  48.1519020
  48.7878338   3.2500966  48.0126494  50.2985008   3.1722763  48.0735666
  59.9518492  14.0825286  50.6021430  59.0048827  13.9630637  50.5299757
  60.3001265  13.1947784  50.6847692  52.3118065  -0.0280575  54.4259672
  52.8352467   0.2181721  55.1885981  52.0930399   0.8039460  54.0062809
  47.7085346   2.2423099  42.2930797  47.3798052   1.3620478  42.1105903
  48.0624717   2.1870768  43.1807186  56.9564925  13.8778002  46.8025782
  56.8089888  12.9494710  46.9833352  57.7818419  13.8998093  46.3182858
  50.8227169   2.5296069  42.6606275  51.1623242   3.0581990  41.9384883
  51.2699290   2.8676475  43.4364841  60.5599047  14.7006561  47.8890655
  61.4845595  14.4949422  47.7515106  60.3914350  14.4522962  48.7979997
  53.5170610   0.9133120  52.1109343  53.1767431   0.1140933  52.5130022
  52.8109617   1.2134831  51.5386176  54.1687082  -2.0017568  50.5636666
  54.9913151  -2.4757089  50.4415556  54.4125146  -1.2227084  51.0635352
  52.8095317   1.0270691  40.8599567  53.5303679   1.4051944  40.3563284
  52.1860621   1.7459568  40.9634545  56.9526440   1.7315840  41.7957900
  57.1690054   2.6140478  41.4946728  56.4720507   1.3402053  41.0663542
  51.6925661   4.6901553  48.3728644  51.5470242   5.0041856  49.2652926
  51.2150865   5.3086453  47.8199543  53.5522044   1.6804101  48.4209534
  53.5383613   0.7845194  48.0841832  54.2694472   1.6874765  49.0547820
  55.4048174   2.1141441  50.4662661  55.1465952   3.0358512  50.4646992
  54.8733215   1.7171876  51.1563125  60.3494363  15.2192228  43.2452747
  60.5231241  14.6538651  42.4926599  60.8423254  16.0193123  43.0632237
  46.1671323   7.2306897  51.3116305  45.6224791   8.0066705  51.4436580
  47.0450673   7.5777702  51.1535427  52.9558940   0.5618481  43.6897104
  53.0774851  -0.3664873  43.8887991  52.6660982   0.5757167  42.7775419
  55.8250130  -1.7526608  46.8263824  55.8471827  -1.6887275  45.8715803
  56.2418189  -2.5922100  47.0204330  66.2033754   7.9828651  44.8643046
  66.6464900   7.2335976  44.4662170  65.3260265   7.9738788  44.4816778
  61.3369536  14.5358993  40.3449645  62.0320440  15.1565685  40.5636960
  61.6792686  13.6854344  40.6202023  46.9537345   6.3576794  54.2046462
  46.2119081   6.5059429  54.7911093  46.6330089   6.6185059  53.3413212
  63.2360959  11.9858698  41.8736976  63.7612283  12.3245971  41.1486296
  63.1483311  11.0505714  41.6900110  54.8981008  15.8992772  54.0026852
  55.2068134  15.6541919  54.8749552  55.6956490  16.1039410  53.5145723
  54.9201620  18.0530681  46.2332229  54.4806610  17.5607060  46.9265086
  55.6709737  17.5103649  45.9924304  47.3993959  14.2442222  46.2356857
  48.2251979  13.9445994  45.8555500  47.0488011  13.4749845  46.6846646
  52.3675492  13.5968691  48.3054531  51.7455501  12.9339396  48.0056758
  53.0380359  13.6229822  47.6228178  45.6002564  12.1628549  47.1945791
  44.7634472  11.7350723  47.0129792  45.5726209  12.3560992  48.1316582
  52.4400019   2.0750479  57.8987037  52.4888175   2.9512601  57.5164806
  52.9822533   1.5327872  57.3258680  62.9254865  12.6191602  57.1788174
  62.1350409  12.6015741  56.6392673  62.6888220  13.1579896  57.9337210
  63.0452740   9.4684068  54.4920902  63.0950745   9.3034076  55.4336425
  62.9366663   8.6011327  54.1018783  51.9288999  12.1472614  41.7812991
  52.0777119  12.8308078  41.1279664  52.7355442  12.1277704  42.2962447
  60.3356502   5.4514996  55.8080209  61.2366365   5.3121461  55.5164207
  60.4104477   5.6169451  56.7478386  54.6699308   2.8281851  54.6533395
  53.8002617   3.1215417  54.3815984  54.9058788   3.4122296  55.3740659
  64.5470937  11.8881010  54.7362924  64.2555745  12.2510990  55.5726385
  63.9343068  11.1748018  54.5576256  65.7466619   9.4533890  47.2565494
  66.5813511   9.8923694  47.4203054  65.8825748   8.9772543  46.4373740
  62.7958125   7.0113624  53.2042982  63.2712247   7.2041271  52.3961833
  61.8723690   7.0672810  52.9586365  49.6841632   8.1737792  42.7874060
  49.4387674   7.2700122  42.9854270  49.8537546   8.1754942  41.8453538
  57.3738342  -0.9538532  52.1698816  57.8920285  -0.2177505  51.8445304
  57.0193474  -0.6474539  53.0045575  48.9537279   3.9066149  40.2860221
  48.2606524   3.9810504  39.6300257  48.7089031   3.1426493  40.8081738
  55.4284404  14.6420744  39.2524738  54.8558371  15.2610932  38.7995210
  56.0017198  15.1920106  39.7864660  61.4959794   3.8879384  51.4371287
  62.4477217   3.9877482  51.4583511  61.3263244   3.0957653  51.9469372
  59.5174174   0.9734968  51.6230688  58.9224106   1.2539980  50.9277177
  59.2323870   1.4628869  52.3947429  58.6481664  14.9257895  40.3833321
  59.5812337  14.8603456  40.5866196  58.5604877  15.7614161  39.9247853
  61.2769681  14.2423765  37.3437268  61.1983312  13.9083628  38.2373026
  62.0979347  14.7345533  37.3428741  63.9747872   7.1085504  50.5513587
  63.9424192   6.1701505  50.7373271  64.5848495   7.1869541  49.8179412
  55.8131203   5.9781557  36.5940791  56.7590307   5.8487765  36.6629209
  55.4345448   5.2396219  37.0710219  64.1242360   3.8996548  50.5971870
  63.6081409   3.1155004  50.4101799  65.0082309   3.5715264  50.7618390
  61.7853087  -2.3562437  46.5567683  61.5877908  -2.6647349  47.4411015
  62.3952793  -1.6300798  46.6865613  69.7924422   8.1701511  49.6919624
  70.5227810   7.9086799  50.2527327  69.1831367   7.4330233  49.7321692
  67.8739719   6.3109374  50.2894075  67.1472882   6.1765339  49.6810567
  67.4587006   6.6186202  51.0950793  55.6969895  10.0299303  58.0541448
  56.6172905  10.2077902  58.2481494  55.6619478   9.0855349  57.9021147
  53.9974120   3.9031534  36.5295676  53.0905575   3.6064646  36.6058390
  54.2750101   3.6061352  35.6629962  44.9152060   5.2237897  46.9794723
  44.5954845   4.3703205  46.6869097  44.3685488   5.4386475  47.7352690
  48.6931968   7.9400338  50.6964229  48.9117978   8.8717446  50.7152263
  49.1057742   7.5808312  51.4819033  55.6136186  -1.5531577  42.6839917
  54.8036914  -1.8984492  43.0595164  56.3020603  -1.8624033  43.2727529
  57.5426734  -2.4753530  44.3064214  58.0957772  -2.0558077  44.9654237
  57.7796820  -3.4017782  44.3487170  53.5659833   3.5133544  60.0866978
  53.4656560   4.4627901  60.0179069  53.3481375   3.1851783  59.2143048
  52.7672904   0.7618469  36.6707655  53.6292068   1.0873367  36.9303473
  52.9523249  -0.0250035  36.1580721  44.7840320   8.8440808  48.9487844
  44.0903792   8.4294761  48.4357799  45.5313311   8.8861345  48.3521263
  60.9205541  -0.3653005  43.8142878  60.3404210   0.2931799  43.4320931
  60.6541474  -1.1875660  43.4030296  59.3709107  -0.9647947  46.0164199
  59.8708886  -0.8531413  45.2078518  60.0144715  -1.2686894  46.6565007
  53.4291103   6.9430683  58.9032040  52.9458185   7.7431043  59.1095929
  53.5152042   6.9538627  57.9499484  46.6977063   8.7759062  46.8253859
  46.6747751   8.8746749  45.8735742  47.0077699   9.6224213  47.1471025
  49.3564441  10.8335217  50.9400473  50.3107694  10.8019160  50.8730405
  49.1576964  10.3725841  51.7550699  49.9463823   9.4036333  53.5071271
  50.7656712   9.8980412  53.5306108  50.2200630   8.4868301  53.4788839
  59.7030419   1.7947086  42.8699227  58.8156274   2.0796736  42.6519421
  60.1184408   1.6340849  42.0226504  63.0544955   1.8193607  46.5853566
  63.8305345   2.3090059  46.8578183  62.3293089   2.2451661  47.0425435
  65.4917514   2.5321226  47.6427507  66.0862005   2.2916962  46.9320815
  65.5644097   1.8128356  48.2701043  47.7114669  16.3754837  47.9570671
  47.5769137  15.6155238  47.3908669  47.2946732  17.0995737  47.4899460
  58.8473632  11.5591760  36.9647247  59.5509483  11.7641763  37.5804902
  58.1236281  12.1268522  37.2296330  59.6771443   7.3101622  43.0849517
  59.6206644   7.7670173  42.2457149  60.2299785   6.5492306  42.9072360
  63.4876249   3.0991353  43.9099636  63.2313183   2.6987989  44.7407844
  62.8629117   3.8135147  43.7849775  67.7988586   5.8387427  46.4170928
  67.2388144   5.9080616  47.1902490  67.1932090   5.6628411  45.6970424
  50.8683795  17.2724154  48.1689114  50.7516179  18.2169586  48.0667804
  50.0476242  16.9697715  48.5574913  60.7560330  11.9974289  39.0145707
  61.5905934  11.5655488  38.8323181  60.5944673  11.8256303  39.9422601
  60.4106222   8.5006403  40.3802046  60.3555026   8.3350674  39.4390490
  59.7852277   9.2082436  40.5364236  45.1998737   3.7374467  54.2063468
  45.8457601   3.2273421  54.6950693  44.9915888   4.4743149  54.7806893
  57.7252129  10.8055315  59.7055609  58.5943289  10.9795967  59.3442244
  57.2458881  11.6249731  59.5831338  53.7202347  -1.9985488  39.9587364
  53.7081017  -1.0543648  40.1155635  54.6125769  -2.1815343  39.6646826
  51.8938309  17.9252416  51.3845042  52.7965556  17.9576026  51.7011537
  51.6675679  16.9952867  51.3991378  53.6491911  16.6783402  48.0455121
  52.6987542  16.6785264  47.9319493  53.9524398  15.9316137  47.5291156
  49.5396228   0.8842084  58.3038482  50.4027690   0.5278889  58.5141807
  48.9661639   0.5455979  58.9913887  69.3844605  22.5143941  49.1100883
  70.0223015  22.3950688  48.4064224  69.2665448  23.4624785  49.1688836
  66.1934311  22.4671369  49.0462408  65.8552823  22.3512433  48.1582943
  67.0624079  22.0662534  49.0263414  62.0521127  24.3206845  45.0359299
  61.4885992  24.2296782  44.2675587  61.9373522  23.5006750  45.5161792
  66.6754094  23.6206220  55.0048614  66.6642735  23.2259019  54.1329117
  66.8374734  22.8872293  55.5982385  59.5985559  25.8158037  47.8743520
  60.3906851  25.4748861  47.4589819  59.8382209  25.9253012  48.7945673
  67.6320686  27.9877813  40.3473764  66.9808665  28.5731893  39.9607778
  68.4265048  28.5184008  40.4068801  61.5576313  25.0766950  40.7460898
  62.3307189  24.5295937  40.6073774  61.9101712  25.9411199  40.9575360
  63.3961355  26.4043332  53.9527798  63.1051221  27.3088963  53.8374464
  64.0318340  26.4459860  54.6671867  64.3217562  23.7820181  50.5429157
  64.9181134  23.5576203  49.8286120  64.3792534  23.0404926  51.1454605
  63.8942591  21.2359616  38.3779348  64.1468111  20.7141137  37.6162811
  62.9567150  21.0725761  38.4806032  68.9385873  20.2395394  46.1854091
  69.7248963  19.8214818  45.8344508  69.2024578  21.1441487  46.3535740
  69.1095951  25.6768245  40.8842748  68.4741784  25.7502871  41.5963653
  68.7793357  26.2661844  40.2061828  74.3394301  20.1770628  47.0887070
  75.0719472  19.6069844  47.3224899  73.5833656  19.7892228  47.5293576
  63.6138879  23.1387722  40.5803723  63.4975137  22.4632625  41.2484808
  63.7241139  22.6520096  39.7635876  65.9570420  22.5997869  44.2850412
  65.5928627  22.0728490  44.9963334  66.8137536  22.2096338  44.1116898
  71.8619721  13.8892202  51.5481679  71.5303046  14.7587613  51.3242894
  71.2665334  13.5728486  52.2275709  65.5975907  17.6287769  39.2811761
  65.7650310  18.4968005  39.6482232  65.4073076  17.7915051  38.3573050
  68.3551240  26.0904748  50.9477591  68.0551964  26.9929787  50.8393399
  68.0102300  25.8236931  51.7998744  61.8063722  22.5418545  46.9814296
  60.8814218  22.4094759  47.1891988  62.0548135  23.3212764  47.4784238
  71.7548384  18.6087288  48.6275029  70.8465262  18.5402696  48.3333790
  71.7035980  19.0859233  49.4556854  65.5765128  20.0845426  40.2658428
  65.4564753  20.5302477  41.1043908  64.8817717  20.4330744  39.7071966
  59.1672533  22.1851818  47.8158085  59.2964914  22.4386297  48.7297497
  58.4869984  22.7779526  47.4962740  63.3372020  32.8549068  43.9148559
  63.2596050  33.8056893  43.9937040  62.7333664  32.5094941  44.5723485
  65.8289250  20.0276933  56.5709926  65.0522584  20.5870854  56.5612791
  66.4679813  20.5133716  57.0924796  73.6210031  16.8103726  50.4052903
  72.9784411  17.1036259  49.7592697  73.1164959  16.6956647  51.2106099
  71.2750194  20.5566899  41.0938762  72.1868050  20.7894286  40.9186459
  70.7659841  21.1403944  40.5313840  64.0835622  22.8362387  56.1327893
  64.8250307  23.3747431  55.8562717  63.3772608  23.4628676  56.2899445
  69.5590962  24.9791527  54.7300054  69.9674318  24.5373938  53.9854687
  68.8368223  24.4044155  54.9834247  65.9122032  19.9164134  52.1033611
  66.7583227  20.3403548  52.2468260  65.8520670  19.2597758  52.7972174
  69.8819777  25.5392718  48.4852343  69.2528639  25.7038432  47.7828411
  69.4945439  25.9534327  49.2563307  69.0621477  17.5768502  53.7614785
  68.8182409  18.3310563  53.2249061  69.3381408  17.9553850  54.5962032
  71.0159940  24.1207115  52.4392051  71.2276835  24.7638875  51.7626432
  70.9689688  23.2869431  51.9713981  68.6186169  16.7324935  49.3428623
  67.7570648  17.0306189  49.6345360  68.6448604  16.9495334  48.4109655
  65.4347738  25.2767126  45.7502428  65.8986084  25.5554829  44.9607051
  65.1704537  24.3750571  45.5675519  62.3271820  24.8238608  48.6882192
  62.8973177  25.2525876  48.0499676  62.9179931  24.5421192  49.3866377
  64.3716625  21.3990278  42.5591994  65.0740668  21.8511322  43.0265920
  64.0397253  20.7574097  43.1871887  62.8196986  19.9902035  56.9343203
  62.1895647  20.6718316  57.1678600  62.7133074  19.8785117  55.9896341
  58.1141958  19.6573831  47.8609127  57.3241012  19.9131360  47.3849238
  58.6053206  20.4722169  47.9661168  72.1305768  26.9979070  50.6114408
  72.9523212  26.5959258  50.3297090  72.1268171  26.8947304  51.5630524
  60.0656704  20.0218410  44.8192604  59.2687867  20.1337105  45.3376099
  59.8382296  20.3605063  43.9533494  65.8962371  26.5463114  52.7675118
  65.9606804  27.0083521  53.6033290  65.1873295  25.9160478  52.8957428
  56.3979661  19.9104321  50.2924118  56.6487700  20.7951331  50.5581694
  56.9339210  19.7308923  49.5199210  80.2211761  23.3417819  46.9599379
  79.4675469  22.7725217  46.8043384  80.3559302  23.3080483  47.9070014
  65.6110389  28.2131221  42.6354099  65.4756064  29.0582757  43.0638947
  66.1520202  28.4150499  41.8720033  62.0977729  14.2922801  59.2968454
  61.7044674  13.7388999  59.9716098  62.9143869  14.6033379  59.6874971
  59.0639787  25.7306659  43.2082024  59.5764307  26.5249909  43.3587589
  59.7162499  25.0332949  43.1415625  60.8734671  28.8472415  45.2904777
  61.0501300  29.7690380  45.1025761  61.6691505  28.5330835  45.7199157
  65.0145690  15.7080680  56.8888711  65.7555403  16.3087833  56.8093173
  65.2463613  14.9658318  56.3306753  60.1587028  20.8937047  55.1666940
  60.0440543  19.9922304  55.4674039  59.3031546  21.1400744  54.8151757
  67.2378866  28.8354788  56.7654441  66.7942720  28.0491166  56.4475345
  67.8996079  29.0233938  56.0998332  61.9965987  30.3650589  51.2915119
  62.5473412  30.2367652  50.5192113  61.1577463  30.6645478  50.9410012
  69.3360104  29.1157587  54.7935842  69.3178579  29.9366468  54.3016111
  70.2580024  28.9911663  55.0185983  65.7933158  26.6301717  55.6359350
  66.3261495  25.8690005  55.4058658  65.2647239  26.3375369  56.3783505
  68.9602853  11.7361783  51.1652992  68.6167122  12.6263425  51.0892103
  69.3281815  11.5463441  50.3022577  57.0288703  24.0595313  43.9841594
  57.8663925  24.4692322  43.7675302  57.2066971  23.1194756  43.9541788
  68.9253135  21.7270394  39.6725427  68.4099759  22.4974999  39.9113815
  68.6530444  21.0535530  40.2958489  66.5100246  16.5720095  44.7310666
  65.6541843  16.1826945  44.5516304  66.9227198  16.6512056  43.8710451
  68.0399393  14.1066438  49.1302225  67.5364189  14.0696573  48.3170031
  68.3330000  15.0159181  49.1898882  64.2842279  14.1905168  48.1368407
  65.1495276  13.9947976  47.7774297  64.3519788  13.9615520  49.0637764
  68.7139439  19.5997486  41.4985208  68.4089574  19.9143635  42.3495352
  69.6669881  19.6778906  41.5412541  67.1585870  25.7587709  43.1478162
  66.6307232  25.0240469  42.8351400  66.6573373  26.5362386  42.9018131
  61.8904598  16.4207376  45.5084774  62.4648350  16.1982557  44.7757967
  62.4775581  16.4896070  46.2613375  70.9484175  22.3081103  46.3149151
  71.4616057  22.9411094  46.8170860  71.5985399  21.7082298  45.9492511
  62.2174185  18.4511837  39.5280659  61.3811497  18.7886523  39.8489934
  62.0778955  18.3160817  38.5907796  64.1927266  13.2948625  44.2359843
  63.5391678  12.9797642  43.6116458  64.1507740  12.6724365  44.9619666
  65.3038471  23.5767920  36.1513135  64.3965532  23.3457173  36.3504284
  65.8009503  22.7805539  36.3387117  67.4265006  19.7830558  48.5607491
  66.5087568  20.0045505  48.4029179  67.8425150  19.8576869  47.7019198
  68.2100054  21.1821974  43.6910171  68.9571873  21.6943371  43.3817293
  68.4791643  20.8606027  44.5514565  66.4826704  23.6780515  40.6737126
  65.5737923  23.3939547  40.7709595  66.5121788  24.0979593  39.8140432
  70.6578891  18.2179090  45.6728961  69.9201648  17.7056476  46.0039203
  70.9105665  17.7779472  44.8612237  70.7590518  10.9955342  46.2670730
  71.0649395  10.1352706  45.9796645  71.4843123  11.5872962  46.0669724
  57.0514874  21.3986029  44.6552328  56.8539274  20.8055389  43.9303394
  56.4961538  21.0938239  45.3728267  65.0311598  21.2909135  46.7746921
  65.0860208  20.3382972  46.6989398  64.2202800  21.4468574  47.2588219
  66.1802792  25.2189258  38.0125204  65.7422222  24.5025117  37.5530842
  66.9213233  25.4465373  37.4510296  62.9703958  19.9086195  44.5337300
  62.1571824  20.2080365  44.9402492  63.4662952  19.5141884  45.2511782
  65.1212536  29.9043952  46.4671565  65.0788715  30.1304798  45.5380097
  66.0375235  29.6707326  46.6157366  68.5678170  20.3728019  53.3652194
  68.9227557  20.5999492  54.2246659  69.2150301  20.7046396  52.7429449
  62.4618033  17.4804550  50.1498535  63.1017412  17.3393310  49.4521498
  61.6295563  17.1939064  49.7737137  63.2378337  26.7806981  46.2633527
  64.0318935  26.2857301  46.0616102  62.5270029  26.2524844  45.9001233
  68.0573181  29.1625076  50.6145895  68.1110203  29.7316013  51.3823611
  67.1887963  29.3326961  50.2499932  59.5461100  20.9250063  42.3393280
  58.6158688  20.8634518  42.5563242  59.6418572  20.4026015  41.5429921
  59.4646649  17.4504875  44.9271522  59.7253467  18.3650209  44.8180682
  60.2863822  16.9829318  45.0768134  60.9371575  18.8642633  52.0970346
  61.6094628  18.6559995  51.4482995  60.1101361  18.6664719  51.6575578
  75.1860836  25.6046683  51.6145680  75.3796726  26.5092493  51.8604955
  75.0861454  25.1454102  52.4484265  66.8397147  15.4904573  54.1136007
  66.1925062  16.1894523  54.0200483  67.6098162  15.9240717  54.4812255
  70.2475944  25.7553426  57.1886560  70.0961451  25.5263977  56.2716644
  70.2380624  26.7124027  57.2017905  67.0161281  23.3285338  52.1732827
  67.9453341  23.4796498  52.0001794  66.5952311  23.4169359  51.3181473
  65.8149613  27.3536003  49.9431364  65.6760698  26.9854787  50.8157302
  65.0264209  27.8683642  49.7715322  67.3654828  26.7317606  47.3320202
  67.0304660  26.6918375  48.2277852  66.8658774  26.0662321  46.8590612
  61.3399072  22.1385236  52.8572783  61.2018870  21.4065474  53.4584322
  62.2503995  22.0494136  52.5756971  70.3014019  24.0773640  37.6057262
  69.6843190  23.3520468  37.5090314  69.8330508  24.8383000  37.2624336
  63.9681372  21.8505195  52.3456463  64.6780991  21.2098387  52.3043081
  63.9250681  22.1018090  53.2682644  71.9568151  28.7872548  55.2663042
  71.8980697  28.1031768  54.5993625  72.3587670  29.5291538  54.8143668
  62.6810306  18.8370413  54.1652102  62.1447663  18.3861151  54.8173699
  62.0927015  18.9716322  53.4222567  60.9758850  35.6034462  48.0596761
  61.2155448  36.2352986  48.7375780  60.1328046  35.2522502  48.3462120
  62.0912565  18.2959064  36.7278566  61.2142032  18.1747865  36.3640813
  62.5670318  17.5045142  36.4757455  71.9585558  26.7512132  53.4977022
  71.0712337  26.4138054  53.6203421  72.5284109  26.0195163  53.7345787
  53.6114706  23.0836224  46.8220073  54.2985745  22.7697954  46.2341088
  53.4562834  23.9877589  46.5487325  58.4149428  17.9726420  51.2505097
  58.3307616  17.3652090  50.5155507  57.5932134  18.4635439  51.2514593
  65.4886712  31.4113584  50.4638265  65.4156883  32.2168556  50.9757570
  65.0464105  31.6105550  49.6386286  68.5873142  16.4579984  46.6175292
  69.0841841  15.7049946  46.2976362  67.8160123  16.4944301  46.0518501
  76.4402899  22.1620350  48.2593583  76.4292775  23.0445065  47.8887517
  75.5720278  21.8091900  48.0648120  67.9485395  31.3100419  52.6196424
  68.6613368  31.9447883  52.5472325  67.4575424  31.4064285  51.8036425
  65.1708110  18.5997367  46.3446977  64.8005898  18.0468407  47.0327882
  65.6667203  17.9955500  45.7921977  73.0575474  21.0568990  44.7263749
  73.5235926  21.8896982  44.6524052  73.5082974  20.5913972  45.4309008
  62.9997309  29.0594862  53.4401994  63.7006768  29.6931345  53.5931389
  62.5292424  29.4009594  52.6797634  71.0292136  13.4249577  48.7654651
  70.1155216  13.6553804  48.9336858  71.4585238  13.5088022  49.6168683
  70.7998595  21.6139469  51.2654545  70.1470045  21.8615377  50.6106998
  71.1778975  20.8003608  50.9317022  66.8486168  22.3559280  57.7520582
  66.1726805  22.2553410  58.4222957  67.6713802  22.1998494  58.2156579
  58.5965027  28.5931217  50.3733097  59.1818464  27.8474905  50.5061001
  58.3989865  28.9035174  51.2569761  61.4503682  31.6282464  45.3895540
  60.7814057  32.1128592  44.9059580  61.3116552  31.8751685  46.3038918
  53.1882682  21.1636817  49.0937540  53.2266781  20.6300408  49.8874658
  52.6822974  20.6372023  48.4748517  65.5908951  33.6626208  51.9878198
  66.1427259  33.8257829  52.7527283  65.9315144  34.2530646  51.3158223
  60.5673444  16.0101358  52.5900083  60.6314770  16.8716189  52.1777480
  60.5040564  15.3975359  51.8572441  60.0425716  18.0824490  56.2373117
  60.6697755  17.7001568  56.8510641  59.1853635  17.8638692  56.6028809
  70.4419825  28.4887465  57.8426852  70.9859729  29.1017424  57.3481807
  69.8606670  29.0467044  58.3593865  56.8191259  19.8900919  42.1691472
  57.1144700  18.9811598  42.1158525  55.9179295  19.8688659  41.8472474
  68.7277338  31.6108183  48.9741880  68.6028477  30.8097923  48.4652826
  69.3856429  32.1054377  48.4855850  60.3485506  17.9656916  48.1519020
  59.6272092  18.5792884  48.0126494  61.1378762  18.5014681  48.0735666
  70.7912246  29.4117204  50.6021430  69.8442582  29.2922555  50.5299757
  71.1395020  28.5239702  50.6847692  63.1511820  15.3011342  54.4259672
  63.6746222  15.5473639  55.1885981  62.9324153  16.1331377  54.0062809
  58.5479101  17.5715017  42.2930797  58.2191807  16.6912396  42.1105903
  58.9018472  17.5162686  43.1807186  61.6620924  17.8587987  42.6606275
  62.0016996  18.3873908  41.9384883  62.1093044  18.1968393  43.4364841
  64.3564365  16.2425038  52.1109343  64.0161185  15.4432851  52.5130022
  63.6503371  16.5426748  51.5386176  65.0080837  13.3274350  50.5636666
  65.8306906  12.8534828  50.4415556  65.2518900  14.1064834  51.0635352
  63.6489071  16.3562608  40.8599567  64.3697434  16.7343861  40.3563284
  63.0254375  17.0751485  40.9634545  67.7920194  17.0607757  41.7957900
  68.0083808  17.9432395  41.4946728  67.3114261  16.6693971  41.0663542
  62.5319415  20.0193471  48.3728644  62.3863996  20.3333774  49.2652926
  62.0544619  20.6378371  47.8199543  64.3915798  17.0096019  48.4209534
  64.3777367  16.1137112  48.0841832  65.1088226  17.0166682  49.0547820
  66.2441929  17.4433359  50.4662661  65.9859707  18.3650429  50.4646992
  65.7126969  17.0463793  51.1563125  57.0065078  22.5598815  51.3116305
  56.4618546  23.3358623  51.4436580  57.8844427  22.9069620  51.1535427
  63.7952694  15.8910399  43.6897104  63.9168605  14.9627045  43.8887991
  63.5054737  15.9049085  42.7775419  66.6643885  13.5765309  46.8263824
  66.6865581  13.6404642  45.8715803  67.0811944  12.7369818  47.0204330
  57.7931099  21.6868711  54.2046462  57.0512835  21.8351347  54.7911093
  57.4723844  21.9476977  53.3413212  65.7374762  31.2284690  54.0026852
  66.0461888  30.9833836  54.8749552  66.5350244  31.4331328  53.5145723
  65.7595374  33.3822599  46.2332229  65.3200364  32.8898978  46.9265086
  66.5103491  32.8395567  45.9924304  58.2387713  29.5734140  46.2356857
  59.0645733  29.2737912  45.8555500  57.8881765  28.8041762  46.6846646
  63.2069246  28.9260608  48.3054531  62.5849256  28.2631313  48.0056758
  63.8774113  28.9521740  47.6228178  56.4396318  27.4920466  47.1945791
  55.6028226  27.0642641  47.0129792  56.4119964  27.6852910  48.1316582
  63.2793774  17.4042396  57.8987037  63.3281929  18.2804519  57.5164806
  63.8216288  16.8619789  57.3258680  73.7648619  27.9483520  57.1788174
  72.9744163  27.9307658  56.6392673  73.5281974  28.4871813  57.9337210
  73.8846494  24.7975986  54.4920902  73.9344499  24.6325993  55.4336425
  73.7760418  23.9303245  54.1018783  62.7682753  27.4764532  41.7812991
  62.9170874  28.1599996  41.1279664  63.5749197  27.4569622  42.2962447
  71.1750257  20.7806914  55.8080209  72.0760120  20.6413379  55.5164207
  71.2498231  20.9461369  56.7478386  65.5093062  18.1573769  54.6533395
  64.6396372  18.4507335  54.3815984  65.7452543  18.7414214  55.3740659
  75.3864691  27.2172927  54.7362924  75.0949500  27.5802908  55.5726385
  74.7736823  26.5039936  54.5576256  73.6351880  22.3405542  53.2042982
  74.1106001  22.5333188  52.3961833  72.7117445  22.3964728  52.9586365
  60.5235386  23.5029709  42.7874060  60.2781428  22.5992039  42.9854270
  60.6931301  23.5046860  41.8453538  68.2132096  14.3753386  52.1698816
  68.7314040  15.1114413  51.8445304  67.8587229  14.6817379  53.0045575
  59.7931034  19.2358067  40.2860221  59.1000279  19.3102422  39.6300257
  59.5482786  18.4718410  40.8081738  68.4644690  10.7953668  47.6899712
  68.7446444  10.1276857  48.3160139  69.2495297  10.9882764  47.1774376
  66.2678159  29.9712662  39.2524738  65.6952126  30.5902849  38.7995210
  66.8410952  30.5212024  39.7864660  72.3353549  19.2171302  51.4371287
  73.2870971  19.3169400  51.4583511  72.1656999  18.4249571  51.9469372
  70.3567928  16.3026885  51.6230688  69.7617860  16.5831898  50.9277177
  70.0717625  16.7920786  52.3947429  74.8141626  22.4377422  50.5513587
  74.7817946  21.4993423  50.7373271  75.4242250  22.5161459  49.8179412
  66.6524957  21.3073475  36.5940791  67.5984062  21.1779683  36.6629209
  66.2739202  20.5688137  37.0710219  74.9636115  19.2288465  50.5971870
  74.4475163  18.4446922  50.4101799  75.8476063  18.9007182  50.7618390
  72.6246842  12.9729481  46.5567683  72.4271663  12.6644569  47.4411015
  73.2346547  13.6991120  46.6865613  78.7133473  21.6401291  50.2894075
  77.9866637  21.5057256  49.6810567  78.2980760  21.9478120  51.0950793
  66.5363650  25.3591221  58.0541448  67.4566659  25.5369820  58.2481494
  66.5013233  24.4147266  57.9021147  64.8367874  19.2323451  36.5295676
  63.9299330  18.9356564  36.6058390  65.1143855  18.9353269  35.6629962
  55.7545815  20.5529815  46.9794723  55.4348599  19.6995123  46.6869097
  55.2079243  20.7678393  47.7352690  59.5325722  23.2692256  50.6964229
  59.7511732  24.2009363  50.7152263  59.9451496  22.9100230  51.4819033
  66.4529940  13.7760341  42.6839917  65.6430668  13.4307426  43.0595164
  67.1414357  13.4667885  43.2727529  68.3820488  12.8538388  44.3064214
  68.9351527  13.2733841  44.9654237  68.6190575  11.9274136  44.3487170
  64.4053588  18.8425461  60.0866978  64.3050314  19.7919818  60.0179069
  64.1875130  18.5143700  59.2143048  63.6066659  16.0910386  36.6707655
  64.4685823  16.4165285  36.9303473  63.7917003  15.3041882  36.1580721
  55.6234075  24.1732726  48.9487844  54.9297546  23.7586679  48.4357799
  56.3707066  24.2153263  48.3521263  71.7599295  14.9638913  43.8142878
  71.1797964  15.6223717  43.4320931  71.4935228  14.1416257  43.4030296
  70.2102862  14.3643971  46.0164199  70.7102640  14.4760505  45.2078518
  70.8538470  14.0605023  46.6565007  64.2684858  22.2722600  58.9032040
  63.7851939  23.0722960  59.1095929  64.3545797  22.2830545  57.9499484
  57.5370817  24.1050980  46.8253859  57.5141505  24.2038667  45.8735742
  57.8471454  24.9516131  47.1471025  60.1958195  26.1627135  50.9400473
  61.1501449  26.1311077  50.8730405  59.9970719  25.7017759  51.7550699
  60.7857577  24.7328251  53.5071271  61.6050466  25.2272330  53.5306108
  61.0594385  23.8160219  53.4788839  70.5424173  17.1239003  42.8699227
  69.6550028  17.4088654  42.6519421  70.9578163  16.9632767  42.0226504
  73.8938710  17.1485524  46.5853566  74.6699100  17.6381977  46.8578183
  73.1686844  17.5743578  47.0425435  76.3311268  17.8613143  47.6427507
  76.9255759  17.6208879  46.9320815  76.4037852  17.1420274  48.2701043
  58.5508424  31.7046754  47.9570671  58.4162892  30.9447155  47.3908669
  58.1340486  32.4287654  47.4899460  69.6867387  26.8883678  36.9647247
  70.3903237  27.0933680  37.5804902  68.9630036  27.4560440  37.2296330
  70.5165197  22.6393539  43.0849517  70.4600399  23.0962091  42.2457149
  71.0693540  21.8784224  42.9072360  74.3270003  18.4283271  43.9099636
  74.0706937  18.0279907  44.7407844  73.7022871  19.1427065  43.7849775
  78.6382341  21.1679344  46.4170928  78.0781899  21.2372534  47.1902490
  78.0325844  20.9920329  45.6970424  61.7077550  32.6016071  48.1689114
  61.5909934  33.5461504  48.0667804  60.8869996  32.2989633  48.5574913
  71.2499977  23.8298320  40.3802046  71.1948780  23.6642592  39.4390490
  70.6246032  24.5374353  40.5364236  56.0392491  19.0666385  54.2063468
  56.6851355  18.5565339  54.6950693  55.8309643  19.8035066  54.7806893
  68.5645884  26.1347232  59.7055609  69.4337043  26.3087885  59.3442244
  68.0852635  26.9541649  59.5831338  64.5596102  13.3306429  39.9587364
  64.5474772  14.2748269  40.1155635  65.4519524  13.1476575  39.6646826
  62.7332064  33.2544333  51.3845042  63.6359311  33.2867944  51.7011537
  62.5069434  32.3244784  51.3991378  64.4885666  32.0075320  48.0455121
  63.5381297  32.0077181  47.9319493  64.7918152  31.2608054  47.5291156
  68.3748221   9.9249206  44.2133301  67.6080617   9.3707693  44.3589984
  68.7858926   9.9971075  45.0747453  60.3789982  16.2134002  58.3038482
  61.2421444  15.8570807  58.5141807  59.8055393  15.8747897  58.9913887
  73.6590741  35.3193953  56.9343203  73.0289401  36.0010234  57.1678600
  73.5526828  35.2077034  55.9896341  68.9535713  34.9865749  47.8609127
  68.1634767  35.2423277  47.3849238  69.4446960  35.8014087  47.9661168
  67.2373416  35.2396239  50.2924118  67.4881454  36.1243249  50.5581694
  67.7732964  35.0600841  49.5199210  72.9371483  29.6214719  59.2968454
  72.5438429  29.0680917  59.9716098  73.7537624  29.9325297  59.6874971
  75.8539444  31.0372598  56.8888711  76.5949158  31.6379751  56.8093173
  76.0857367  30.2950235  56.3306753  70.9980782  36.2228965  55.1666940
  70.8834297  35.3214222  55.4674039  70.1425300  36.4692662  54.8151757
  78.0772620  44.1646705  56.7654441  77.6336474  43.3783084  56.4475345
  78.7389834  44.3525856  56.0998332  76.6326912  41.9593635  55.6359350
  77.1655249  41.1981923  55.4058658  76.1040993  41.6667286  56.3783505
  71.7765329  34.1934550  52.0970346  72.4488382  33.9851912  51.4482995
  70.9495116  33.9956636  51.6575578  72.1792826  37.4677153  52.8572783
  72.0412624  36.7357392  53.4584322  73.0897750  37.3786053  52.5756971
  73.5204061  34.1662330  54.1652102  72.9841418  33.7153069  54.8173699
  72.9320769  34.3008239  53.4222567  69.2543182  33.3018338  51.2505097
  69.1701371  32.6944008  50.5155507  68.4325889  33.7927356  51.2514593
  64.0276436  36.4928735  49.0937540  64.0660536  35.9592326  49.8874658
  63.5216729  35.9663940  48.4748517  71.4067198  31.3393275  52.5900083
  71.4708525  32.2008106  52.1777480  71.3434319  30.7267277  51.8572441
  70.8819471  33.4116408  56.2373117  71.5091510  33.0293485  56.8510641
  70.0247390  33.1930610  56.6028809  71.1879261  33.2948834  48.1519020
  70.4665846  33.9084801  48.0126494  71.9772516  33.8306598  48.0735666
  73.9905574  30.6303260  54.4259672  74.5139976  30.8765557  55.1885981
  73.7717908  31.4623295  54.0062809  75.1958119  31.5716955  52.1109343
  74.8554940  30.7724768  52.5130022  74.4897126  31.8718666  51.5386176
  75.8474591  28.6566268  50.5636666  76.6700660  28.1826746  50.4415556
  76.0912655  29.4356751  51.0635352  67.8458832  37.8890733  51.3116305
  67.3012300  38.6650541  51.4436580  68.7238182  38.2361537  51.1535427
  68.6324854  37.0160629  54.2046462  67.8906590  37.1643264  54.7911093
  68.3117598  37.2768895  53.3413212  74.1187528  32.7334314  57.8987037
  74.1675684  33.6096437  57.5164806  74.6610042  32.1911707  57.3258680
  75.2447342  34.1717379  60.0866978  75.1444069  35.1211736  60.0179069
  75.0268884  33.8435618  59.2143048  75.1078612  37.6014518  58.9032040
  74.6245694  38.4014878  59.1095929  75.1939551  37.6122463  57.9499484
  71.6251332  40.0620169  53.5071271  72.4444221  40.5564247  53.5306108
  71.8988139  39.1452137  53.4788839  66.8786246  34.3958302  54.2063468
  67.5245110  33.8857256  54.6950693  66.6703397  35.1326984  54.7806893
  79.4039638  41.4639150  59.7055609  80.2730798  41.6379802  59.3442244
  78.9246390  42.2833567  59.5831338  71.2183737  31.5425920  58.3038482
  72.0815199  31.1862724  58.5141807  70.6449148  31.2039814  58.9913887
  91.0632114  53.1727776  49.1100883  91.7010524  53.0534523  48.4064224
  90.9452957  54.1208620  49.1688836  87.8721820  53.1255204  49.0462408
  87.5340332  53.0096269  48.1582943  88.7411588  52.7246369  49.0263414
  83.7308636  54.9790680  45.0359299  83.1673501  54.8880617  44.2675587
  83.6161031  54.1590585  45.5161792  88.3541603  54.2790056  55.0048614
  88.3430244  53.8842854  54.1329117  88.5162243  53.5456128  55.5982385
  81.2773068  56.4741872  47.8743520  82.0694360  56.1332697  47.4589819
  81.5169718  56.5836847  48.7945673  89.3108195  58.6461648  40.3473764
  88.6596174  59.2315729  39.9607778  90.1052557  59.1767843  40.4068801
  85.0748864  57.0627168  53.9527798  84.7838730  57.9672798  53.8374464
  85.7105849  57.1043695  54.6671867  86.0005071  54.4404016  50.5429157
  86.5968643  54.2160038  49.8286120  86.0580043  53.6988762  51.1454605
  90.6173382  50.8979230  46.1854091  91.4036472  50.4798653  45.8344508
  90.8812087  51.8025322  46.3535740  90.7883460  56.3352080  40.8842748
  90.1529293  56.4086707  41.5963653  90.4580866  56.9245679  40.2061828
  96.0181810  50.8354463  47.0887070  96.7506981  50.2653680  47.3224899
  95.2621165  50.4476063  47.5293576  87.6357929  53.2581704  44.2850412
  87.2716136  52.7312325  44.9963334  88.4925045  52.8680174  44.1116898
  93.5407230  44.5476037  51.5481679  93.2090555  45.4171448  51.3242894
  92.9452843  44.2312321  52.2275709  90.0338749  56.7488583  50.9477591
  89.7339472  57.6513622  50.8393399  89.6889809  56.4820766  51.7998744
  83.4851231  53.2002380  46.9814296  82.5601727  53.0678594  47.1891988
  83.7335644  53.9796599  47.4784238  93.4335893  49.2671123  48.6275029
  92.5252771  49.1986532  48.3333790  93.3823489  49.7443068  49.4556854
  80.8460042  52.8435653  47.8158085  80.9752423  53.0970132  48.7297497
  80.1657493  53.4363361  47.4962740  85.0159529  63.5132903  43.9148559
  84.9383559  64.4640728  43.9937040  84.4121173  63.1678776  44.5723485
  87.5076759  50.6860769  56.5709926  86.7310093  51.2454689  56.5612791
  88.1467322  51.1717552  57.0924796  95.2997540  47.4687562  50.4052903
  94.6571920  47.7620095  49.7592697  94.7952468  47.3540482  51.2106099
  92.9537703  51.2150735  41.0938762  93.8655559  51.4478122  40.9186459
  92.4447350  51.7987779  40.5313840  85.7623131  53.4946222  56.1327893
  86.5037816  54.0331266  55.8562717  85.0560117  54.1212511  56.2899445
  91.2378471  55.6375363  54.7300054  91.6461827  55.1957773  53.9854687
  90.5155732  55.0627990  54.9834247  87.5909541  50.5747969  52.1033611
  88.4370736  50.9987383  52.2468260  87.5308179  49.9181594  52.7972174
  91.5607286  56.1976553  48.4852343  90.9316148  56.3622267  47.7828411
  91.1732948  56.6118163  49.2563307  95.4396517  57.1330991  45.8396707
  94.7547556  57.5129892  45.2893740  95.5240367  57.7426318  46.5728655
  90.7408986  48.2352338  53.7614785  90.4969918  48.9894398  53.2249061
  91.0168917  48.6137685  54.5962032  92.6947449  54.7790950  52.4392051
  92.9064344  55.4222710  51.7626432  92.6477197  53.9453267  51.9713981
  90.2973678  47.3908771  49.3428623  89.4358157  47.6890024  49.6345360
  90.3236113  47.6079170  48.4109655  87.1135247  55.9350961  45.7502428
  87.5773593  56.2138664  44.9607051  86.8492046  55.0334406  45.5675519
  84.0059329  55.4822443  48.6882192  84.5760686  55.9109711  48.0499676
  84.5967440  55.2005028  49.3866377  86.0504134  52.0574114  42.5591994
  86.7528177  52.5095157  43.0265920  85.7184762  51.4157933  43.1871887
  84.4984495  50.6485870  56.9343203  83.8683156  51.3302151  57.1678600
  84.3920583  50.5368952  55.9896341  79.7929467  50.3157666  47.8609127
  79.0028521  50.5715195  47.3849238  80.2840715  51.1306004  47.9661168
  93.8093277  57.6562906  50.6114408  94.6310721  57.2543093  50.3297090
  93.8055680  57.5531140  51.5630524  87.5749880  57.2046949  52.7675118
  87.6394313  57.6667356  53.6033290  86.8660804  56.5744314  52.8957428
  78.0767170  50.5688157  50.2924118  78.3275209  51.4535167  50.5581694
  78.6126719  50.3892758  49.5199210 101.8999270  54.0001654  46.9599379
 101.1462978  53.4309052  46.8043384 102.0346811  53.9664319  47.9070014
  87.2897898  58.8715056  42.6354099  87.1543573  59.7166592  43.0638947
  87.8307711  59.0734334  41.8720033  83.7765238  44.9506636  59.2968454
  83.3832183  44.3972835  59.9716098  84.5931378  45.2617215  59.6874971
  86.6933199  46.3664515  56.8888711  87.4342912  46.9671668  56.8093173
  86.9251122  45.6242153  56.3306753  81.8374537  51.5520883  55.1666940
  81.7228052  50.6506140  55.4674039  80.9819055  51.7984579  54.8151757
  88.9166375  59.4938623  56.7654441  88.4730229  58.7075001  56.4475345
  89.5783588  59.6817773  56.0998332  83.6753496  61.0234424  51.2915119
  84.2260921  60.8951488  50.5192113  82.8364972  61.3229313  50.9410012
  91.0147613  59.7741423  54.7935842  90.9966088  60.5950304  54.3016111
  91.9367533  59.6495498  55.0185983  87.4720667  57.2885552  55.6359350
  88.0049004  56.5273840  55.4058658  86.9434748  56.9959204  56.3783505
  90.6040644  52.3854229  39.6725427  90.0887268  53.1558834  39.9113815
  90.3317953  51.7119366  40.2958489  95.5774919  55.1386584  41.6078601
  94.8004361  54.7997743  41.1633763  96.2566400  55.1439207  40.9333566
  90.3926948  50.2581321  41.4985208  90.0877083  50.5727471  42.3495352
  91.3457390  50.3362741  41.5412541  88.8373379  56.4171545  43.1478162
  88.3094741  55.6824304  42.8351400  88.3360882  57.1946221  42.9018131
  93.8166225  54.6120565  48.2645209  93.1589900  55.3019827  48.3525337
  94.6206625  55.0016997  48.6079195  92.6271684  52.9664938  46.3149151
  93.1403566  53.5994930  46.8170860  93.2772908  52.3666133  45.9492511
  89.8894058  62.9449262  39.0709822  89.2155757  63.2480959  39.6794779
  90.2759880  63.7478343  38.7215279  89.1052515  50.4414393  48.5607491
  88.1875076  50.6629340  48.4029179  89.5212659  50.5160704  47.7019198
  89.8887563  51.8405809  43.6910171  90.6359382  52.3527206  43.3817293
  90.1579152  51.5189862  44.5514565  88.1614213  54.3364350  40.6737126
  87.2525432  54.0523383  40.7709595  88.1909297  54.7563428  39.8140432
  93.3933480  57.9470939  44.4428293  92.9395808  57.1061849  44.4993484
  92.7627447  58.5832338  44.7803073  92.3366400  48.8762925  45.6728961
  91.5989157  48.3640312  46.0039203  92.5893174  48.4363307  44.8612237
  91.8366420  59.7847436  45.3778111  92.1289394  60.3452493  44.6590477
  92.3465040  60.0775997  46.1331270  78.7302383  52.0569864  44.6552328
  78.5326783  51.4639225  43.9303394  78.1749047  51.7522074  45.3728267
  86.7099107  51.9492970  46.7746921  86.7647717  50.9966807  46.6989398
  85.8990309  52.1052410  47.2588219  87.8590301  55.8773094  38.0125204
  87.4209731  55.1608952  37.5530842  88.6000742  56.1049208  37.4510296
  84.6491467  50.5670030  44.5337300  83.8359333  50.8664201  44.9402492
  85.1450461  50.1725719  45.2511782  86.8000045  60.5627787  46.4671565
  86.7576224  60.7888633  45.5380097  87.7162744  60.3291162  46.6157366
  90.2465679  51.0311855  53.3652194  90.6015066  51.2583328  54.2246659
  90.8937810  51.3630232  52.7429449  95.9763416  54.1530291  44.0701523
  95.8381314  54.3431887  43.1422712  95.6199634  54.9149673  44.5269574
  96.0032795  56.2206818  49.0812794  96.4369302  56.1282107  49.9295848
  96.7164376  56.1964318  48.4432810  84.9165846  57.4390816  46.2633527
  85.7106444  56.9441136  46.0616102  84.2057538  56.9108679  45.9001233
  89.7360690  59.8208912  50.6145895  89.7897712  60.3899848  51.3823611
  88.8675472  59.9910797  50.2499932  82.6159084  49.5226468  52.0970346
  83.2882137  49.3143830  51.4482995  81.7888870  49.3248554  51.6575578
  96.8648345  56.2630518  51.6145680  97.0584235  57.1676329  51.8604955
  96.7648963  55.8037937  52.4484265  91.9263453  56.4137261  57.1886560
  91.7748960  56.1847813  56.2716644  91.9168133  57.3707862  57.2017905
  88.6948790  53.9869174  52.1732827  89.6240850  54.1380333  52.0001794
  88.2739820  54.0753195  51.3181473  87.4937122  58.0119838  49.9431364
  87.3548207  57.6438623  50.8157302  86.7051718  58.5267478  49.7715322
  88.0885274  63.1128935  41.2856901  88.2637029  62.6416978  42.1002524
  87.4018062  63.7394701  41.5138162  89.0442337  57.3901441  47.3320202
  88.7092169  57.3502211  48.2277852  88.5446282  56.7246157  46.8590612
  83.0186581  52.7969071  52.8572783  82.8806379  52.0649310  53.4584322
  83.9291504  52.7077971  52.5756971  91.9801528  54.7357475  37.6057262
  91.3630699  54.0104303  37.5090314  91.5118017  55.4966835  37.2624336
  85.6468881  52.5089030  52.3456463  86.3568500  51.8682222  52.3043081
  85.6038190  52.7601925  53.2682644  93.6355660  59.4456384  55.2663042
  93.5768206  58.7615604  54.5993625  94.0375179  60.1875374  54.8143668
  82.6546359  66.2618297  48.0596761  82.8942957  66.8936822  48.7375780
  81.8115555  65.9106337  48.3462120  93.6373067  57.4095968  53.4977022
  92.7499846  57.0721889  53.6203421  94.2071618  56.6778999  53.7345787
  80.0936937  48.6310256  51.2505097  80.0095125  48.0235925  50.5155507
  79.2719643  49.1219274  51.2514593  87.1674221  62.0697420  50.4638265
  87.0944392  62.8752391  50.9757570  86.7251614  62.2689386  49.6386286
  86.9564000  61.3069190  43.9741087  86.1731522  61.8490870  44.0679311
  87.6556746  61.8243170  44.3735328  98.1190408  52.8204185  48.2593583
  98.1080284  53.7028900  47.8887517  97.2507787  52.4675736  48.0648120
  89.6272904  61.9684254  52.6196424  90.3400877  62.6031719  52.5472325
  89.1362933  62.0648120  51.8036425  91.3490431  55.8735507  44.1913715
  90.4146710  55.9936969  44.0218420  91.5267100  54.9707973  43.9273725
  86.8495619  49.2581202  46.3446977  86.4793407  48.7052243  47.0327882
  87.3454712  48.6539336  45.7921977  94.7362983  51.7152826  44.7263749
  95.2023435  52.5480817  44.6524052  95.1870483  51.2497807  45.4309008
  84.6784818  59.7178697  53.4401994  85.3794277  60.3515180  53.5931389
  84.2079933  60.0593429  52.6797634  92.8039214  58.0596647  41.7249902
  93.0799058  57.9453242  42.6343776  91.9343712  57.6614132  41.6862075
  92.4786104  52.2723305  51.2654545  91.8257554  52.5199212  50.6106998
  92.8566484  51.4587443  50.9317022  89.4393278  62.3082998  45.3682715
  89.6215672  61.4904654  45.8310467  90.2626264  62.5250690  44.9307605
  89.7735443  61.2351183  42.6297764  90.3023210  60.7243638  42.0167926
  90.0363663  60.9193713  43.4943297  88.5273677  53.0143116  57.7520582
  87.8514314  52.9137245  58.4222957  89.3501311  52.8582330  58.2156579
  83.1291191  62.2866300  45.3895540  82.4601566  62.7712427  44.9059580
  82.9904061  62.5335520  46.3038918  87.2696460  64.3210043  51.9878198
  87.8214768  64.4841665  52.7527283  87.6102653  64.9114481  51.3158223
  81.7213225  48.7408326  56.2373117  82.3485264  48.3585403  56.8510641
  80.8641144  48.5222528  56.6028809  92.1207334  59.1471301  57.8426852
  92.6647238  59.7601259  57.3481807  91.5394179  59.7050879  58.3593865
  90.4064847  62.2692019  48.9741880  90.2815986  61.4681759  48.4652826
  91.0643938  62.7638212  48.4855850  82.0273015  48.6240751  48.1519020
  81.3059601  49.2376719  48.0126494  82.8166271  49.1598516  48.0735666
  92.4699755  60.0701039  50.6021430  91.5230091  59.9506390  50.5299757
  92.8182528  59.1823537  50.6847692  89.4746189  59.8653755  46.8025782
  89.3271151  58.9370463  46.9833352  90.2999682  59.8873846  46.3182858
  93.0780311  60.6882314  47.8890655  94.0026858  60.4825175  47.7515106
  92.9095614  60.4398715  48.7979997  84.2106924  50.6777306  48.3728644
  84.0651505  50.9917609  49.2652926  83.7332128  51.2962206  47.8199543
  86.0703307  47.6679854  48.4209534  86.0564876  46.7720947  48.0841832
  86.7875735  47.6750518  49.0547820  87.9229438  48.1017194  50.4662661
  87.6647216  49.0234265  50.4646992  87.3914478  47.7047629  51.1563125
  92.8675627  61.2067981  43.2452747  93.0412504  60.6414404  42.4926599
  93.3604518  62.0068876  43.0632237  98.7215018  53.9704404  44.8643046
  99.1646164  53.2211729  44.4662170  97.8441528  53.9614541  44.4816778
  93.8550799  60.5234746  40.3449645  94.5501704  61.1441438  40.5636960
  94.1973949  59.6730097  40.6202023  95.7542222  57.9734451  41.8736976
  96.2793546  58.3121724  41.1486296  95.6664575  57.0381467  41.6900110
  87.4162271  61.8868525  54.0026852  87.7249397  61.6417672  54.8749552
  88.2137753  62.0915163  53.5145723  87.4382883  64.0406435  46.2332229
  86.9987873  63.5482813  46.9265086  88.1891000  63.4979402  45.9924304
  84.8856755  59.5844444  48.3054531  84.2636765  58.9215149  48.0056758
  85.5561622  59.6105576  47.6228178  84.9581283  48.0626232  57.8987037
  85.0069438  48.9388354  57.5164806  85.5003797  47.5203625  57.3258680
  95.4436128  58.6067355  57.1788174  94.6531672  58.5891494  56.6392673
  95.2069483  59.1455649  57.9337210  95.5634003  55.4559821  54.4920902
  95.6132008  55.2909829  55.4336425  95.4547927  54.5887080  54.1018783
  92.8537766  51.4390749  55.8080209  93.7547629  51.2997214  55.5164207
  92.9285740  51.6045204  56.7478386  97.0652200  57.8756763  54.7362924
  96.7737009  58.2386743  55.5726385  96.4524332  57.1623771  54.5576256
  98.2647883  55.4409643  47.2565494  99.0994774  55.8799447  47.4203054
  98.4007011  54.9648296  46.4373740  95.3139389  52.9989377  53.2042982
  95.7893510  53.1917024  52.3961833  94.3904954  53.0548563  52.9586365
  87.9465668  60.6296497  39.2524738  87.3739635  61.2486685  38.7995210
  88.5198461  61.1795859  39.7864660  94.0141058  49.8755137  51.4371287
  94.9658480  49.9753235  51.4583511  93.8444508  49.0833406  51.9469372
  92.0355437  46.9610721  51.6230688  91.4405369  47.2415733  50.9277177
  91.7505134  47.4504622  52.3947429  91.1662927  60.9133648  40.3833321
  92.0993601  60.8479209  40.5866196  91.0786140  61.7489914  39.9247853
  93.7950944  60.2299518  37.3437268  93.7164576  59.8959381  38.2373026
  94.6160611  60.7221286  37.3428741  96.4929135  53.0961257  50.5513587
  96.4605455  52.1577258  50.7373271  97.1029759  53.1745294  49.8179412
  88.3312466  51.9657310  36.5940791  89.2771571  51.8363518  36.6629209
  87.9526711  51.2271972  37.0710219  96.6423624  49.8872301  50.5971870
  96.1262672  49.1030757  50.4101799  97.5263572  49.5591017  50.7618390
 102.3105685  54.1577264  49.6919624 103.0409074  53.8962552  50.2527327
 101.7012631  53.4205986  49.7321692 100.3920982  52.2985127  50.2894075
  99.6654146  52.1641092  49.6810567  99.9768269  52.6061955  51.0950793
  88.2151159  56.0175056  58.0541448  89.1354168  56.1953655  58.2481494
  88.1800742  55.0731102  57.9021147  81.2113231  53.9276091  50.6964229
  81.4299241  54.8593199  50.7152263  81.6239005  53.5684065  51.4819033
  86.0841097  49.5009297  60.0866978  85.9837823  50.4503654  60.0179069
  85.8662639  49.1727536  59.2143048  85.9472367  52.9306436  58.9032040
  85.4639448  53.7306796  59.1095929  86.0333306  52.9414380  57.9499484
  95.5726219  47.8069360  46.5853566  96.3486609  48.2965812  46.8578183
  94.8474353  48.2327414  47.0425435  98.0098777  48.5196979  47.6427507
  98.6043268  48.2792715  46.9320815  98.0825361  47.8004109  48.2701043
  80.2295933  62.3630590  47.9570671  80.0950401  61.6030991  47.3908669
  79.8127995  63.0871490  47.4899460  91.3654896  57.5467513  36.9647247
  92.0690746  57.7517516  37.5804902  90.6417545  58.1144275  37.2296330
  92.1952706  53.2977375  43.0849517  92.1387908  53.7545926  42.2457149
  92.7481049  52.5368059  42.9072360  96.0057512  49.0867106  43.9099636
  95.7494446  48.6863742  44.7407844  95.3810380  49.8010900  43.7849775
 100.3169850  51.8263180  46.4170928  99.7569408  51.8956369  47.1902490
  99.7113353  51.6504164  45.6970424  83.3865059  63.2599907  48.1689114
  83.2697443  64.2045339  48.0667804  82.5657505  62.9573468  48.5574913
  93.2741593  57.9850042  39.0145707  94.1087197  57.5531241  38.8323181
  93.1125936  57.8132056  39.9422601  92.9287485  54.4882156  40.3802046
  92.8736289  54.3226427  39.4390490  92.3033541  55.1958189  40.5364236
  90.2433393  56.7931068  59.7055609  91.1124552  56.9671720  59.3442244
  89.7640144  57.6125484  59.5831338  84.4119573  63.9128169  51.3845042
  85.3146820  63.9451779  51.7011537  84.1856943  62.9828620  51.3991378
  86.1673175  62.6659155  48.0455121  85.2168806  62.6661017  47.9319493
  86.4705661  61.9191890  47.5291156  82.0577491  46.8717837  58.3038482
  82.9208953  46.5154642  58.5141807  81.4842902  46.5331732  58.9913887
 101.9025868  68.5019694  49.1100883 102.5404278  68.3826441  48.4064224
 101.7846711  69.4500538  49.1688836  98.7115575  68.4547122  49.0462408
  98.3734086  68.3388186  48.1582943  99.5805343  68.0538287  49.0263414
  94.5702390  70.3082598  45.0359299  94.0067256  70.2172535  44.2675587
  94.4554785  69.4882503  45.5161792  99.1935358  69.6081973  55.0048614
  99.1823998  69.2134772  54.1329117  99.3555997  68.8748046  55.5982385
  92.1166822  71.8033790  47.8743520  92.9088114  71.4624614  47.4589819
  92.3563472  71.9128765  48.7945673 100.1501949  73.9753566  40.3473764
  99.4989929  74.5607646  39.9607778 100.9446312  74.5059761  40.4068801
  94.0757576  71.0642703  40.7460898  94.8488452  70.5171690  40.6073774
  94.4282975  71.9286952  40.9575360  95.9142619  72.3919085  53.9527798
  95.6232485  73.2964716  53.8374464  96.5499603  72.4335613  54.6671867
  96.8398826  69.7695934  50.5429157  97.4362398  69.5451956  49.8286120
  96.8973797  69.0280679  51.1454605  96.4123854  67.2235369  38.3779348
  96.6649375  66.7016890  37.6162811  95.4748413  67.0601515  38.4806032
 101.4567137  66.2271147  46.1854091 102.2430226  65.8090571  45.8344508
 101.7205841  67.1317240  46.3535740 101.6277214  71.6643998  40.8842748
 100.9923047  71.7378624  41.5963653 101.2974621  72.2537597  40.2061828
 106.8575564  66.1646381  47.0887070 107.5900736  65.5945597  47.3224899
 106.1014920  65.7767981  47.5293576  96.1320143  69.1263475  40.5803723
  96.0156401  68.4508378  41.2484808  96.2422403  68.6395849  39.7635876
  98.4751684  68.5873622  44.2850412  98.1109891  68.0604243  44.9963334
  99.3318800  68.1972091  44.1116898 104.3800984  59.8767955  51.5481679
 104.0484309  60.7463366  51.3242894 103.7846598  59.5604239  52.2275709
  98.1157171  63.6163522  39.2811761  98.2831573  64.4843758  39.6482232
  97.9254340  63.7790804  38.3573050 100.8732504  72.0780501  50.9477591
 100.5733227  72.9805540  50.8393399 100.5283563  71.8112684  51.7998744
  94.3244985  68.5294298  46.9814296  93.3995482  68.3970512  47.1891988
  94.5729399  69.3088517  47.4784238 104.2729648  64.5963041  48.6275029
 103.3646525  64.5278449  48.3333790 104.2217243  65.0734986  49.4556854
  98.0946392  66.0721179  40.2658428  97.9746017  66.5178230  41.1043908
  97.3998980  66.4206497  39.7071966  91.6853796  68.1727571  47.8158085
  91.8146178  68.4262050  48.7297497  91.0051248  68.7655279  47.4962740
  95.8553284  78.8424821  43.9148559  95.7777313  79.7932646  43.9937040
  95.2514927  78.4970694  44.5723485  98.3470513  66.0152687  56.5709926
  97.5703848  66.5746607  56.5612791  98.9861077  66.5009469  57.0924796
 106.1391294  62.7979479  50.4052903 105.4965674  63.0912012  49.7592697
 105.6346223  62.6832400  51.2106099 103.7931458  66.5442653  41.0938762
 104.7049314  66.7770039  40.9186459 103.2841105  67.1279697  40.5313840
  96.6016886  68.8238140  56.1327893  97.3431570  69.3623184  55.8562717
  95.8953871  69.4504429  56.2899445 102.0772225  70.9667280  54.7300054
 102.4855581  70.5249691  53.9854687 101.3549487  70.3919908  54.9834247
  98.4303295  65.9039887  52.1033611  99.2764491  66.3279301  52.2468260
  98.3701933  65.2473511  52.7972174 102.4001040  71.5268471  48.4852343
 101.7709903  71.6914185  47.7828411 102.0126702  71.9410081  49.2563307
 106.2790272  72.4622909  45.8396707 105.5941310  72.8421810  45.2893740
 106.3634121  73.0718235  46.5728655 101.5802741  63.5644255  53.7614785
 101.3363673  64.3186316  53.2249061 101.8562671  63.9429603  54.5962032
 103.5341204  70.1082868  52.4392051 103.7458099  70.7514628  51.7626432
 103.4870952  69.2745184  51.9713981 101.1367433  62.7200688  49.3428623
 100.2751912  63.0181942  49.6345360 101.1629867  62.9371087  48.4109655
  97.9529002  71.2642879  45.7502428  98.4167347  71.5430582  44.9607051
  97.6885800  70.3626324  45.5675519  94.8453083  70.8114361  48.6882192
  95.4154440  71.2401629  48.0499676  95.4361195  70.5296945  49.3866377
  96.8897888  67.3866031  42.5591994  97.5921931  67.8387075  43.0265920
  96.5578516  66.7449850  43.1871887  95.3378250  65.9777788  56.9343203
  94.7076910  66.6594069  57.1678600  95.2314337  65.8660870  55.9896341
  90.6323222  65.6449584  47.8609127  89.8422276  65.9007113  47.3849238
  91.1234469  66.4597922  47.9661168 104.6487032  72.9854823  50.6114408
 105.4704475  72.5835011  50.3297090 104.6449434  72.8823057  51.5630524
  92.5837967  66.0094163  44.8192604  91.7869131  66.1212858  45.3376099
  92.3563560  66.3480816  43.9533494  98.4143635  72.5338867  52.7675118
  98.4788067  72.9959274  53.6033290  97.7054559  71.9036231  52.8957428
  88.9160925  65.8980075  50.2924118  89.1668963  66.7827084  50.5581694
  89.4520473  65.7184676  49.5199210 112.7393025  69.3293572  46.9599379
 111.9856733  68.7600970  46.8043384 112.8740566  69.2956236  47.9070014
  98.1291653  74.2006974  42.6354099  97.9937327  75.0458510  43.0638947
  98.6701465  74.4026252  41.8720033  94.6158992  60.2798554  59.2968454
  94.2225938  59.7264752  59.9716098  95.4325133  60.5909132  59.6874971
  91.5821050  71.7182412  43.2082024  92.0945571  72.5125662  43.3587589
  92.2343763  71.0208703  43.1415625  93.3915935  74.8348168  45.2904777
  93.5682563  75.7566133  45.1025761  94.1872768  74.5206588  45.7199157
  97.5326953  61.6956433  56.8888711  98.2736667  62.2963586  56.8093173
  97.7644876  60.9534071  56.3306753  92.6768291  66.8812800  55.1666940
  92.5621806  65.9798057  55.4674039  91.8212809  67.1276497  54.8151757
  99.7560129  74.8230541  56.7654441  99.3123983  74.0366919  56.4475345
 100.4177343  75.0109691  56.0998332  94.5147250  76.3526342  51.2915119
  95.0654675  76.2243406  50.5192113  93.6758726  76.6521231  50.9410012
 101.8541367  75.1033340  54.7935842 101.8359842  75.9242222  54.3016111
 102.7761287  74.9787416  55.0185983  98.3114421  72.6177470  55.6359350
  98.8442758  71.8565758  55.4058658  97.7828502  72.3251122  56.3783505
 101.4784116  57.7237536  51.1652992 101.1348386  58.6139178  51.0892103
 101.8463079  57.5339194  50.3022577  89.5469967  70.0471066  43.9841594
  90.3845189  70.4568075  43.7675302  89.7248234  69.1070509  43.9541788
 101.4434399  67.7146147  39.6725427 100.9281022  68.4850752  39.9113815
 101.1711707  67.0411283  40.2958489  99.0281510  62.5595848  44.7310666
  98.1723106  62.1702698  44.5516304  99.4408462  62.6387809  43.8710451
 100.5580657  60.0942191  49.1302225 100.0545452  60.0572326  48.3170031
 100.8511263  61.0034934  49.1898882  96.8023542  60.1780921  48.1368407
  97.6676539  59.9823729  47.7774297  96.8701051  59.9491273  49.0637764
 106.4168673  70.4678502  41.6078601 105.6398116  70.1289661  41.1633763
 107.0960154  70.4731125  40.9333566 101.2320702  65.5873239  41.4985208
 100.9270838  65.9019388  42.3495352 102.1851144  65.6654659  41.5412541
  99.6767134  71.7463462  43.1478162  99.1488495  71.0116222  42.8351400
  99.1754637  72.5238139  42.9018131 104.6559980  69.9412483  48.2645209
 103.9983654  70.6311744  48.3525337 105.4600379  70.3308915  48.6079195
  94.4085862  62.4083129  45.5084774  94.9829613  62.1858310  44.7757967
  94.9956844  62.4771823  46.2613375 103.4665439  68.2956856  46.3149151
 103.9797320  68.9286847  46.8170860 104.1166663  67.6958051  45.9492511
  94.7355449  64.4387590  39.5280659  93.8992761  64.7762276  39.8489934
  94.5960218  64.3036570  38.5907796  96.7108529  59.2824378  44.2359843
  96.0572942  58.9673395  43.6116458  96.6689003  58.6600118  44.9619666
  97.8219734  69.5643673  36.1513135  96.9146796  69.3332926  36.3504284
  98.3190766  68.7681292  36.3387117 100.7287813  78.2741180  39.0709822
 100.0549512  78.5772877  39.6794779 101.1153635  79.0770260  38.7215279
  99.9446270  65.7706311  48.5607491  99.0268831  65.9921258  48.4029179
 100.3606413  65.8452622  47.7019198 100.7281317  67.1697727  43.6910171
 101.4753136  67.6819124  43.3817293 100.9972907  66.8481780  44.5514565
  99.0007968  69.6656268  40.6737126  98.0919187  69.3815300  40.7709595
  99.0303051  70.0855346  39.8140432 104.2327235  73.2762857  44.4428293
 103.7789562  72.4353767  44.4993484 103.6021202  73.9124255  44.7803073
 103.1760155  64.2054843  45.6728961 102.4382911  63.6932229  46.0039203
 103.4286928  63.7655225  44.8612237 102.6760174  75.1139354  45.3778111
 102.9683149  75.6744411  44.6590477 103.1858795  75.4067915  46.1331270
 103.2771782  56.9831095  46.2670730 103.5830659  56.1228459  45.9796645
 104.0024387  57.5748715  46.0669724  89.5696138  67.3861782  44.6552328
  89.3720538  66.7931142  43.9303394  89.0142802  67.0813992  45.3728267
  97.5492862  67.2784888  46.7746921  97.6041471  66.3258725  46.6989398
  96.7384064  67.4344327  47.2588219  98.6984055  71.2065011  38.0125204
  98.2603485  70.4900870  37.5530842  99.4394496  71.4341126  37.4510296
  95.4885222  65.8961948  44.5337300  94.6753087  66.1956118  44.9402492
  95.9844216  65.5017637  45.2511782  97.6393799  75.8919705  46.4671565
  97.5969978  76.1180551  45.5380097  98.5556498  75.6583079  46.6157366
 101.0859433  66.3603772  53.3652194 101.4408821  66.5875246  54.2246659
 101.7331564  66.6922149  52.7429449 106.8157170  69.4822208  44.0701523
 106.6775069  69.6723804  43.1422712 106.4593389  70.2441591  44.5269574
  94.9799296  63.4680303  50.1498535  95.6198676  63.3269063  49.4521498
  94.1476827  63.1814817  49.7737137 106.8426550  71.5498735  49.0812794
 107.2763056  71.4574024  49.9295848 107.5558130  71.5256236  48.4432810
  95.7559600  72.7682734  46.2633527  96.5500199  72.2733054  46.0616102
  95.0451293  72.2400597  45.9001233 100.5754445  75.1500829  50.6145895
 100.6291467  75.7191766  51.3823611  99.7069226  75.3202714  50.2499932
  92.0642364  66.9125816  42.3393280  91.1339952  66.8510271  42.5563242
  92.1599836  66.3901768  41.5429921  91.9827913  63.4380628  44.9271522
  92.2434730  64.3525962  44.8180682  92.8045085  62.9705071  45.0768134
  93.4552838  64.8518386  52.0970346  94.1275891  64.6435748  51.4482995
  92.6282625  64.6540472  51.6575578 107.7042099  71.5922436  51.6145680
 107.8977989  72.4968246  51.8604955 107.6042717  71.1329855  52.4484265
  99.3578410  61.4780327  54.1136007  98.7106325  62.1770276  54.0200483
 100.1279425  61.9116470  54.4812255 102.7657208  71.7429179  57.1886560
 102.6142714  71.5139730  56.2716644 102.7561887  72.6999780  57.2017905
  99.5342544  69.3161091  52.1732827 100.4634604  69.4672251  52.0001794
  99.1133574  69.4045112  51.3181473  98.3330876  73.3411756  49.9431364
  98.1941962  72.9730540  50.8157302  97.5445472  73.8559395  49.7715322
  98.9279028  78.4420852  41.2856901  99.1030784  77.9708896  42.1002524
  98.2411816  79.0686619  41.5138162  99.8836091  72.7193359  47.3320202
  99.5485924  72.6794129  48.2277852  99.3840037  72.0538074  46.8590612
  93.8580335  68.1260989  52.8572783  93.7200133  67.3941227  53.4584322
  94.7685259  68.0369889  52.5756971 102.8195283  70.0649393  37.6057262
 102.2024454  69.3396221  37.5090314 102.3511771  70.8258753  37.2624336
  96.4862636  67.8380948  52.3456463  97.1962254  67.1974140  52.3043081
  96.4431944  68.0893843  53.2682644 104.4749415  74.7748301  55.2663042
 104.4161961  74.0907521  54.5993625 104.8768933  75.5167291  54.8143668
  95.1991570  64.8246166  54.1652102  94.6628927  64.3736904  54.8173699
  94.6108278  64.9592075  53.4222567  93.4940113  81.5910215  48.0596761
  93.7336712  82.2228739  48.7375780  92.6509310  81.2398255  48.3462120
  94.6093829  64.2834817  36.7278566  93.7323295  64.1623618  36.3640813
  95.0851582  63.4920895  36.4757455 104.4766822  72.7387885  53.4977022
 103.5893601  72.4013807  53.6203421 105.0465373  72.0070916  53.7345787
  86.1295969  69.0711977  46.8220073  86.8167009  68.7573707  46.2341088
  85.9744098  69.9753342  46.5487325  90.9330691  63.9602173  51.2505097
  90.8488880  63.3527843  50.5155507  90.1113398  64.4511192  51.2514593
  98.0067975  77.3989338  50.4638265  97.9338147  78.2044309  50.9757570
  97.5645368  77.5981303  49.6386286  97.7957755  76.6361108  43.9741087
  97.0125277  77.1782788  44.0679311  98.4950500  77.1535087  44.3735328
 101.1054405  62.4455737  46.6175292 101.6023105  61.6925699  46.2976362
 100.3341387  62.4820054  46.0518501 108.9584162  68.1496103  48.2593583
 108.9474039  69.0320818  47.8887517 108.0901542  67.7967653  48.0648120
 100.4666659  77.2976172  52.6196424 101.1794631  77.9323636  52.5472325
  99.9756687  77.3940038  51.8036425 102.1884186  71.2027424  44.1913715
 101.2540464  71.3228887  44.0218420 102.3660854  70.2999891  43.9273725
  97.6889374  64.5873120  46.3446977  97.3187161  64.0344160  47.0327882
  98.1848466  63.9831253  45.7921977 105.5756737  67.0444744  44.7263749
 106.0417189  67.8772735  44.6524052 106.0264238  66.5789725  45.4309008
  95.5178572  75.0470615  53.4401994  96.2188032  75.6807098  53.5931389
  95.0473687  75.3885347  52.6797634 103.6432968  73.3888565  41.7249902
 103.9192812  73.2745159  42.6343776 102.7737467  72.9906050  41.6862075
 103.5473400  59.4125331  48.7654651 102.6336480  59.6429557  48.9336858
 103.9766501  59.4963775  49.6168683 103.3179858  67.6015222  51.2654545
 102.6651309  67.8491130  50.6106998 103.6960238  66.7879361  50.9317022
 100.2787032  77.6374916  45.3682715 100.4609427  76.8196572  45.8310467
 101.1020018  77.8542608  44.9307605 100.6129198  76.5643101  42.6297764
 101.1416964  76.0535555  42.0167926 100.8757417  76.2485631  43.4943297
  99.3667431  68.3435034  57.7520582  98.6908068  68.2429163  58.4222957
 100.1895065  68.1874247  58.2156579  91.1146290  74.5806970  50.3733097
  91.6999727  73.8350658  50.5061001  90.9171129  74.8910927  51.2569761
  93.9684946  77.6158217  45.3895540  93.2995321  78.1004345  44.9059580
  93.8297815  77.8627438  46.3038918  85.7063945  67.1512570  49.0937540
  85.7448045  66.6176161  49.8874658  85.2004238  66.6247776  48.4748517
  98.1090214  79.6501961  51.9878198  98.6608522  79.8133582  52.7527283
  98.4496408  80.2406399  51.3158223  93.0854707  61.9977111  52.5900083
  93.1496034  62.8591942  52.1777480  93.0221828  61.3851112  51.8572441
  92.5606980  64.0700243  56.2373117  93.1879019  63.6877321  56.8510641
  91.7034899  63.8514445  56.6028809 102.9601089  74.4763218  57.8426852
 103.5040993  75.0893177  57.3481807 102.3787933  75.0342797  58.3593865
  89.3372523  65.8776672  42.1691472  89.6325964  64.9687351  42.1158525
  88.4360558  65.8564412  41.8472474 101.2458601  77.5983937  48.9741880
 101.1209741  76.7973676  48.4652826 101.9037693  78.0930130  48.4855850
  92.8666770  63.9532669  48.1519020  92.1453355  64.5668637  48.0126494
  93.6560025  64.4890434  48.0735666 103.3093510  75.3992957  50.6021430
 102.3623845  75.2798308  50.5299757 103.6576283  74.5115455  50.6847692
  95.6693083  61.2887096  54.4259672  96.1927485  61.5349392  55.1885981
  95.4505417  62.1207130  54.0062809  91.0660364  63.5590770  42.2930797
  90.7373070  62.6788149  42.1105903  91.4199735  63.5038439  43.1807186
 100.3139943  75.1945673  46.8025782 100.1664906  74.2662380  46.9833352
 101.1393437  75.2165764  46.3182858  94.1802187  63.8463740  42.6606275
  94.5198260  64.3749661  41.9384883  94.6274308  64.1844146  43.4364841
 103.9174065  76.0174232  47.8890655 104.8420612  75.8117093  47.7515106
 103.7489368  75.7690633  48.7979997  96.8745628  62.2300791  52.1109343
  96.5342449  61.4308604  52.5130022  96.1684635  62.5302501  51.5386176
  97.5262100  59.3150103  50.5636666  98.3488169  58.8410581  50.4415556
  97.7700164  60.0940587  51.0635352  96.1670335  62.3438361  40.8599567
  96.8878697  62.7219614  40.3563284  95.5435639  63.0627238  40.9634545
 100.3101457  63.0483510  41.7957900 100.5265072  63.9308148  41.4946728
  99.8295525  62.6569724  41.0663542  95.0500679  66.0069224  48.3728644
  94.9045260  66.3209527  49.2652926  94.5725882  66.6254124  47.8199543
  96.9097062  62.9971772  48.4209534  96.8958630  62.1012865  48.0841832
  97.6269490  63.0042435  49.0547820  98.7623192  63.4309112  50.4662661
  98.5040970  64.3526183  50.4646992  98.2308233  63.0339546  51.1563125
 103.7069381  76.5359899  43.2452747 103.8806259  75.9706321  42.4926599
 104.1998272  77.3360794  43.0632237  89.5246341  68.5474568  51.3116305
  88.9799809  69.3234376  51.4436580  90.4025691  68.8945373  51.1535427
  96.3133958  61.8786152  43.6897104  96.4349869  60.9502798  43.8887991
  96.0236000  61.8924838  42.7775419  99.1825148  59.5641062  46.8263824
  99.2046845  59.6280395  45.8715803  99.5993207  58.7245571  47.0204330
 109.5608772  69.2996322  44.8643046 110.0039918  68.5503647  44.4662170
 108.6835283  69.2906458  44.4816778 104.6944554  75.8526663  40.3449645
 105.3895458  76.4733356  40.5636960 105.0367704  75.0022015  40.6202023
  90.3112363  67.6744464  54.2046462  89.5694099  67.8227100  54.7911093
  89.9905107  67.9352730  53.3413212 106.5935977  73.3026369  41.8736976
 107.1187301  73.6413642  41.1486296 106.5058329  72.3673384  41.6900110
  98.2556026  77.2160443  54.0026852  98.5643152  76.9709589  54.8749552
  99.0531508  77.4207081  53.5145723  98.2776638  79.3698352  46.2332229
  97.8381628  78.8774731  46.9265086  99.0284755  78.8271320  45.9924304
  90.7568977  75.5609893  46.2356857  91.5826996  75.2613665  45.8555500
  90.4063029  74.7917515  46.6846646  95.7250510  74.9136361  48.3054531
  95.1030519  74.2507066  48.0056758  96.3955377  74.9397493  47.6228178
  88.9577582  73.4796220  47.1945791  88.1209490  73.0518394  47.0129792
  88.9301227  73.6728663  48.1316582  95.7975037  63.3918149  57.8987037
  95.8463193  64.2680272  57.5164806  96.3397551  62.8495542  57.3258680
 106.2829883  73.9359273  57.1788174 105.4925427  73.9183411  56.6392673
 106.0463237  74.4747566  57.9337210 106.4027758  70.7851739  54.4920902
 106.4525763  70.6201746  55.4336425 106.2941681  69.9178998  54.1018783
  95.2864017  73.4640285  41.7812991  95.4352137  74.1475749  41.1279664
  96.0930460  73.4445375  42.2962447 103.6931520  66.7682667  55.8080209
 104.5941383  66.6289132  55.5164207 103.7679495  66.9337122  56.7478386
  98.0274326  64.1449522  54.6533395  97.1577635  64.4383088  54.3815984
  98.2633806  64.7289967  55.3740659 107.9045955  73.2048680  54.7362924
 107.6130763  73.5678661  55.5726385 107.2918086  72.4915689  54.5576256
 109.1041637  70.7701560  47.2565494 109.9388528  71.2091364  47.4203054
 109.2400766  70.2940213  46.4373740 106.1533143  68.3281295  53.2042982
 106.6287265  68.5208941  52.3961833 105.2298708  68.3840481  52.9586365
  93.0416650  69.4905462  42.7874060  92.7962692  68.5867792  42.9854270
  93.2112564  69.4922613  41.8453538 100.7313359  60.3629139  52.1698816
 101.2495303  61.0990166  51.8445304 100.3768492  60.6693132  53.0045575
  92.3112297  65.2233820  40.2860221  91.6181542  65.2978175  39.6300257
  92.0664049  64.4594163  40.8081738 100.9825954  56.7829421  47.6899712
 101.2627707  56.1152610  48.3160139 101.7676561  56.9758517  47.1774376
  98.7859422  75.9588415  39.2524738  98.2133389  76.5778602  38.7995210
  99.3592216  76.5087777  39.7864660 104.8534812  65.2047055  51.4371287
 105.8052235  65.3045153  51.4583511 104.6838262  64.4125324  51.9469372
 102.8749191  62.2902638  51.6230688 102.2799124  62.5707651  50.9277177
 102.5898888  62.7796539  52.3947429 102.0056682  76.2425565  40.3833321
 102.9387355  76.1771127  40.5866196 101.9179895  77.0781832  39.9247853
 104.6344699  75.5591436  37.3437268 104.5558330  75.2251299  38.2373026
 105.4554365  76.0513203  37.3428741 107.3322890  68.4253175  50.5513587
 107.2999210  67.4869176  50.7373271 107.9423513  68.5037212  49.8179412
  99.1706221  67.2949228  36.5940791 100.1165325  67.1655436  36.6629209
  98.7920466  66.5563890  37.0710219 107.4817378  65.2164218  50.5971870
 106.9656427  64.4322675  50.4101799 108.3657327  64.8882935  50.7618390
 105.1428105  58.9605234  46.5567683 104.9452926  58.6520322  47.4411015
 105.7527811  59.6866873  46.6865613 113.1499440  69.4869182  49.6919624
 113.8802828  69.2254470  50.2527327 112.5406385  68.7497904  49.7321692
 111.2314737  67.6277044  50.2894075 110.5047900  67.4933009  49.6810567
 110.8162024  67.9353873  51.0950793  99.0544913  71.3466974  58.0541448
  99.9747923  71.5245573  58.2481494  99.0194496  70.4023019  57.9021147
  97.3549138  65.2199204  36.5295676  96.4480593  64.9232317  36.6058390
  97.6325119  64.9229022  35.6629962  88.2727078  66.5405568  46.9794723
  87.9529863  65.6870876  46.6869097  87.7260506  66.7554146  47.7352690
  92.0506986  69.2568009  50.6964229  92.2692996  70.1885116  50.7152263
  92.4632760  68.8975983  51.4819033  98.9711204  59.7636094  42.6839917
  98.1611932  59.4183179  43.0595164  99.6595620  59.4543638  43.2727529
 100.9001752  58.8414141  44.3064214 101.4532790  59.2609594  44.9654237
 101.1371838  57.9149889  44.3487170  96.9234851  64.8301214  60.0866978
  96.8231578  65.7795571  60.0179069  96.7056393  64.5019453  59.2143048
  96.1247922  62.0786139  36.6707655  96.9867086  62.4041038  36.9303473
  96.3098267  61.2917635  36.1580721  88.1415338  70.1608479  48.9487844
  87.4478810  69.7462432  48.4357799  88.8888329  70.2029016  48.3521263
 104.2780559  60.9514666  43.8142878 103.6979228  61.6099470  43.4320931
 104.0116492  60.1292010  43.4030296 102.7284125  60.3519724  46.0164199
 103.2283904  60.4636258  45.2078518 103.3719733  60.0480776  46.6565007
  96.7866121  68.2598353  58.9032040  96.3033203  69.0598713  59.1095929
  96.8727060  68.2706298  57.9499484  90.0552081  70.0926733  46.8253859
  90.0322769  70.1914420  45.8735742  90.3652717  70.9391884  47.1471025
  92.7139459  72.1502888  50.9400473  93.6682712  72.1186830  50.8730405
  92.5151982  71.6893512  51.7550699  93.3038841  70.7204004  53.5071271
  94.1231730  71.2148083  53.5306108  93.5775648  69.8035972  53.4788839
 103.0605437  63.1114756  42.8699227 102.1731292  63.3964407  42.6519421
 103.4759426  62.9508520  42.0226504 106.4119973  63.1361277  46.5853566
 107.1880363  63.6257730  46.8578183 105.6868107  63.5619331  47.0425435
 108.8492532  63.8488896  47.6427507 109.4437022  63.6084632  46.9320815
 108.9219115  63.1296027  48.2701043  91.0689687  77.6922507  47.9570671
  90.9344155  76.9322908  47.3908669  90.6521750  78.4163407  47.4899460
 102.2048650  72.8759431  36.9647247 102.9084501  73.0809433  37.5804902
 101.4811299  73.4436193  37.2296330 103.0346461  68.6269292  43.0849517
 102.9781662  69.0837844  42.2457149 103.5874803  67.8659977  42.9072360
 106.8451267  64.4159024  43.9099636 106.5888201  64.0155660  44.7407844
 106.2204135  65.1302818  43.7849775 111.1563604  67.1555097  46.4170928
 110.5963162  67.2248287  47.1902490 110.5507108  66.9796082  45.6970424
  94.2258813  78.5891824  48.1689114  94.1091197  79.5337257  48.0667804
  93.4051260  78.2865386  48.5574913 104.1135348  73.3141960  39.0145707
 104.9480952  72.8823159  38.8323181 103.9519691  73.1423974  39.9422601
 103.7681240  69.8174073  40.3802046 103.7130044  69.6518345  39.4390490
 103.1427295  70.5250106  40.5364236  88.5573755  65.0542138  54.2063468
  89.2032619  64.5441092  54.6950693  88.3490906  65.7910819  54.7806893
 101.0827147  72.1222985  59.7055609 101.9518307  72.2963638  59.3442244
 100.6033899  72.9417402  59.5831338  97.0777365  59.3182182  39.9587364
  97.0656035  60.2624022  40.1155635  97.9700787  59.1352328  39.6646826
  95.2513327  79.2420086  51.3845042  96.1540574  79.2743697  51.7011537
  95.0250697  78.3120537  51.3991378  97.0066929  77.9951073  48.0455121
  96.0562560  77.9952934  47.9319493  97.3099416  77.2483807  47.5291156
 100.8929485  55.9124959  44.2133301 100.1261881  55.3583446  44.3589984
 101.3040190  55.9846828  45.0747453  92.8971246  62.2009755  58.3038482
  93.7602708  61.8446560  58.5141807  92.3236657  61.8623650  58.9913887
 112.7419623  83.8311611  49.1100883 113.3798033  83.7118359  48.4064224
 112.6240466  84.7792455  49.1688836 109.5509329  83.7839039  49.0462408
 109.2127841  83.6680104  48.1582943 110.4199097  83.3830204  49.0263414
 105.4096145  85.6374516  45.0359299 104.8461010  85.5464453  44.2675587
 105.2948540  84.8174420  45.5161792 110.0329112  84.9373891  55.0048614
 110.0217753  84.5426689  54.1329117 110.1949752  84.2039964  55.5982385
 102.9560577  87.1325707  47.8743520 103.7481869  86.7916532  47.4589819
 103.1957227  87.2420682  48.7945673 110.9895704  89.3045483  40.3473764
 110.3383683  89.8899564  39.9607778 111.7840066  89.8351678  40.4068801
 104.9151331  86.3934621  40.7460898 105.6882207  85.8463608  40.6073774
 105.2676730  87.2578870  40.9575360 106.7536373  87.7211003  53.9527798
 106.4626239  88.6256634  53.8374464 107.3893358  87.7627531  54.6671867
 107.6792580  85.0987851  50.5429157 108.2756152  84.8743874  49.8286120
 107.7367552  84.3572597  51.1454605 107.2517609  82.5527287  38.3779348
 107.5043129  82.0308808  37.6162811 106.3142168  82.3893432  38.4806032
 112.2960891  81.5563065  46.1854091 113.0823981  81.1382488  45.8344508
 112.5599596  82.4609157  46.3535740 112.4670969  86.9935915  40.8842748
 111.8316802  87.0670542  41.5963653 112.1368375  87.5829514  40.2061828
 117.6969319  81.4938298  47.0887070 118.4294490  80.9237515  47.3224899
 116.9408674  81.1059899  47.5293576 106.9713897  84.4555393  40.5803723
 106.8550155  83.7800296  41.2484808 107.0816157  83.9687767  39.7635876
 109.3145438  83.9165540  44.2850412 108.9503645  83.3896161  44.9963334
 110.1712554  83.5264009  44.1116898 115.2194739  75.2059872  51.5481679
 114.8878064  76.0755283  51.3242894 114.6240352  74.8896156  52.2275709
 108.9550925  78.9455440  39.2811761 109.1225328  79.8135676  39.6482232
 108.7648094  79.1082721  38.3573050 111.7126258  87.4072418  50.9477591
 111.4126981  88.3097457  50.8393399 111.3677318  87.1404602  51.7998744
 105.1638740  83.8586215  46.9814296 104.2389236  83.7262429  47.1891988
 105.4123153  84.6380434  47.4784238 115.1123402  79.9254959  48.6275029
 114.2040280  79.8570367  48.3333790 115.0610998  80.4026904  49.4556854
 108.9340146  81.4013097  40.2658428 108.8139771  81.8470148  41.1043908
 108.2392734  81.7498415  39.7071966 102.5247551  83.5019489  47.8158085
 102.6539932  83.7553968  48.7297497 101.8445002  84.0947197  47.4962740
 106.6947038  94.1716739  43.9148559 106.6171068  95.1224564  43.9937040
 106.0908682  93.8262611  44.5723485 109.1864268  81.3444604  56.5709926
 108.4097602  81.9038524  56.5612791 109.8254831  81.8301387  57.0924796
 116.9785049  78.1271397  50.4052903 116.3359429  78.4203930  49.7592697
 116.4739977  78.0124317  51.2106099 114.6325212  81.8734570  41.0938762
 115.5443068  82.1061957  40.9186459 114.1234859  82.4571614  40.5313840
 107.4410640  84.1530058  56.1327893 108.1825325  84.6915102  55.8562717
 106.7347626  84.7796346  56.2899445 112.9165980  86.2959198  54.7300054
 113.3249336  85.8541609  53.9854687 112.1943241  85.7211826  54.9834247
 109.2697050  81.2331805  52.1033611 110.1158245  81.6571218  52.2468260
 109.2095688  80.5765429  52.7972174 113.2394795  86.8560389  48.4852343
 112.6103657  87.0206103  47.7828411 112.8520457  87.2701998  49.2563307
 117.1184026  87.7914826  45.8396707 116.4335065  88.1713728  45.2893740
 117.2027876  88.4010153  46.5728655 112.4196495  78.8936173  53.7614785
 112.1757427  79.6478234  53.2249061 112.6956426  79.2721521  54.5962032
 114.3734958  85.4374786  52.4392051 114.5851853  86.0806545  51.7626432
 114.3264706  84.6037102  51.9713981 111.9761187  78.0492606  49.3428623
 111.1145666  78.3473860  49.6345360 112.0023622  78.2663005  48.4109655
 108.7922756  86.5934797  45.7502428 109.2561102  86.8722500  44.9607051
 108.5279555  85.6918241  45.5675519 105.6846837  86.1406278  48.6882192
 106.2548195  86.5693547  48.0499676 106.2754949  85.8588863  49.3866377
 107.7291642  82.7157949  42.5591994 108.4315686  83.1678993  43.0265920
 107.3972271  82.0741768  43.1871887 106.1772004  81.3069706  56.9343203
 105.5470665  81.9885987  57.1678600 106.0708092  81.1952787  55.9896341
 101.4716976  80.9741502  47.8609127 100.6816030  81.2299030  47.3849238
 101.9628224  81.7889840  47.9661168 115.4880786  88.3146741  50.6114408
 116.3098230  87.9126928  50.3297090 115.4843189  88.2114975  51.5630524
 103.4231722  81.3386081  44.8192604 102.6262885  81.4504775  45.3376099
 103.1957314  81.6772733  43.9533494 109.2537389  87.8630784  52.7675118
 109.3181822  88.3251191  53.6033290 108.5448313  87.2328149  52.8957428
  99.7554679  81.2271992  50.2924118 100.0062718  82.1119002  50.5581694
 100.2914228  81.0476594  49.5199210 108.9685407  89.5298892  42.6354099
 108.8331082  90.3750427  43.0638947 109.5095220  89.7318169  41.8720033
 105.4552747  75.6090472  59.2968454 105.0619692  75.0556670  59.9716098
 106.2718887  75.9201050  59.6874971 102.4214804  87.0474330  43.2082024
 102.9339325  87.8417580  43.3587589 103.0737517  86.3500620  43.1415625
 104.2309689  90.1640086  45.2904777 104.4076318  91.0858051  45.1025761
 105.0266523  89.8498505  45.7199157 108.3720708  77.0248351  56.8888711
 109.1130421  77.6255504  56.8093173 108.6038631  76.2825988  56.3306753
 103.5162046  82.2104718  55.1666940 103.4015561  81.3089975  55.4674039
 102.6606563  82.4568415  54.8151757 110.5953883  90.1522458  56.7654441
 110.1517738  89.3658837  56.4475345 111.2571097  90.3401609  56.0998332
 105.3541005  91.6818260  51.2915119 105.9048430  91.5535323  50.5192113
 104.5152481  91.9813149  50.9410012 112.6935122  90.4325258  54.7935842
 112.6753597  91.2534139  54.3016111 113.6155042  90.3079333  55.0185983
 109.1508176  87.9469388  55.6359350 109.6836513  87.1857676  55.4058658
 108.6222257  87.6543039  56.3783505 112.3177871  73.0529454  51.1652992
 111.9742140  73.9431095  51.0892103 112.6856833  72.8631111  50.3022577
 100.3863721  85.3762984  43.9841594 101.2238943  85.7859992  43.7675302
 100.5641989  84.4362426  43.9541788 112.2828153  83.0438065  39.6725427
 111.7674777  83.8142669  39.9113815 112.0105462  82.3703201  40.2958489
 109.8675264  77.8887765  44.7310666 109.0116861  77.4994616  44.5516304
 110.2802216  77.9679726  43.8710451 111.3974411  75.4234109  49.1302225
 110.8939207  75.3864244  48.3170031 111.6905018  76.3326851  49.1898882
 107.6417297  75.5072838  48.1368407 108.5070294  75.3115647  47.7774297
 107.7094806  75.2783190  49.0637764 117.2562428  85.7970419  41.6078601
 116.4791870  85.4581579  41.1633763 117.9353909  85.8023043  40.9333566
 112.0714457  80.9165157  41.4985208 111.7664592  81.2311306  42.3495352
 113.0244899  80.9946577  41.5412541 110.5160888  87.0755380  43.1478162
 109.9882250  86.3408140  42.8351400 110.0148391  87.8530056  42.9018131
 115.4953734  85.2704401  48.2645209 114.8377409  85.9603662  48.3525337
 116.2994134  85.6600833  48.6079195 105.2479616  77.7375046  45.5084774
 105.8223368  77.5150228  44.7757967 105.8350598  77.8063741  46.2613375
 114.3059193  83.6248773  46.3149151 114.8191075  84.2578765  46.8170860
 114.9560417  83.0249969  45.9492511 105.5749203  79.7679507  39.5280659
 104.7386515  80.1054194  39.8489934 105.4353973  79.6328487  38.5907796
 107.5502284  74.6116295  44.2359843 106.8966696  74.2965312  43.6116458
 107.5082758  73.9892036  44.9619666 108.6613489  84.8935590  36.1513135
 107.7540550  84.6624844  36.3504284 109.1584521  84.0973210  36.3387117
 111.5681567  93.6033098  39.0709822 110.8943266  93.9064794  39.6794779
 111.9547389  94.4062178  38.7215279 110.7840024  81.0998229  48.5607491
 109.8662585  81.3213176  48.4029179 111.2000168  81.1744539  47.7019198
 111.5675072  82.4989645  43.6910171 112.3146891  83.0111042  43.3817293
 111.8366661  82.1773697  44.5514565 109.8401722  84.9948185  40.6737126
 108.9312941  84.7107218  40.7709595 109.8696806  85.4147264  39.8140432
 115.0720989  88.6054775  44.4428293 114.6183317  87.7645685  44.4993484
 114.4414956  89.2416173  44.7803073 114.0153909  79.5346761  45.6728961
 113.2776666  79.0224147  46.0039203 114.2680683  79.0947142  44.8612237
 113.5153929  90.4431271  45.3778111 113.8076903  91.0036329  44.6590477
 114.0252549  90.7359832  46.1331270 114.1165536  72.3123013  46.2670730
 114.4224413  71.4520376  45.9796645 114.8418141  72.9040633  46.0669724
 100.4089892  82.7153699  44.6552328 100.2114292  82.1223060  43.9303394
  99.8536556  82.4105910  45.3728267 108.3886616  82.6076806  46.7746921
 108.4435226  81.6550642  46.6989398 107.5777818  82.7636245  47.2588219
 109.5377810  86.5356929  38.0125204 109.0997240  85.8192788  37.5530842
 110.2788251  86.7633044  37.4510296 106.3278976  81.2253866  44.5337300
 105.5146842  81.5248036  44.9402492 106.8237970  80.8309554  45.2511782
 108.4787554  91.2211623  46.4671565 108.4363733  91.4472469  45.5380097
 109.3950253  90.9874997  46.6157366 111.9253188  81.6895690  53.3652194
 112.2802575  81.9167163  54.2246659 112.5725319  82.0214067  52.7429449
 117.6550925  84.8114126  44.0701523 117.5168823  85.0015722  43.1422712
 117.2987143  85.5733509  44.5269574 105.8193051  78.7972221  50.1498535
 106.4592430  78.6560980  49.4521498 104.9870581  78.5106735  49.7737137
 117.6820304  86.8790653  49.0812794 118.1156811  86.7865942  49.9295848
 118.3951885  86.8548153  48.4432810 106.5953355  88.0974652  46.2633527
 107.3893953  87.6024972  46.0616102 105.8845047  87.5692515  45.9001233
 111.4148199  90.4792747  50.6145895 111.4685221  91.0483683  51.3823611
 110.5462980  90.6494632  50.2499932 102.9036118  82.2417733  42.3393280
 101.9733706  82.1802189  42.5563242 102.9993590  81.7193686  41.5429921
 102.8221667  78.7672546  44.9271522 103.0828484  79.6817879  44.8180682
 103.6438839  78.2996989  45.0768134 104.2946593  80.1810303  52.0970346
 104.9669646  79.9727665  51.4482995 103.4676379  79.9832389  51.6575578
 118.5435854  86.9214354  51.6145680 118.7371744  87.8260164  51.8604955
 118.4436472  86.4621773  52.4484265 110.1972165  76.8072244  54.1136007
 109.5500080  77.5062194  54.0200483 110.9673180  77.2408388  54.4812255
 113.6050962  87.0721096  57.1886560 113.4536469  86.8431648  56.2716644
 113.5955642  88.0291698  57.2017905 110.3736299  84.6453009  52.1732827
 111.3028359  84.7964169  52.0001794 109.9527329  84.7337030  51.3181473
 109.1724631  88.6703674  49.9431364 109.0335716  88.3022458  50.8157302
 108.3839227  89.1851313  49.7715322 109.7672783  93.7712770  41.2856901
 109.9424538  93.3000813  42.1002524 109.0805571  94.3978536  41.5138162
 110.7229846  88.0485276  47.3320202 110.3879678  88.0086046  48.2277852
 110.2233791  87.3829992  46.8590612 104.6974090  83.4552906  52.8572783
 104.5593888  82.7233145  53.4584322 105.6079013  83.3661806  52.5756971
 113.6589037  85.3941311  37.6057262 113.0418208  84.6688139  37.5090314
 113.1905526  86.1550671  37.2624336 107.3256390  83.1672866  52.3456463
 108.0356009  82.5266058  52.3043081 107.2825699  83.4185760  53.2682644
 115.3143169  90.1040219  55.2663042 115.2555715  89.4199439  54.5993625
 115.7162687  90.8459209  54.8143668 106.0385324  80.1538083  54.1652102
 105.5022681  79.7028822  54.8173699 105.4502033  80.2883992  53.4222567
 104.3333868  96.9202133  48.0596761 104.5730466  97.5520657  48.7375780
 103.4903064  96.5690173  48.3462120 105.4487583  79.6126735  36.7278566
 104.5717050  79.4915536  36.3640813 105.9245336  78.8212813  36.4757455
 115.3160576  88.0679803  53.4977022 114.4287355  87.7305725  53.6203421
 115.8859127  87.3362834  53.7345787  96.9689723  84.4003895  46.8220073
  97.6560763  84.0865625  46.2341088  96.8137852  85.3045259  46.5487325
 101.7724446  79.2894091  51.2505097 101.6882634  78.6819761  50.5155507
 100.9507152  79.7803109  51.2514593 108.8461730  92.7281255  50.4638265
 108.7731901  93.5336227  50.9757570 108.4039123  92.9273221  49.6386286
 108.6351509  91.9653025  43.9741087 107.8519031  92.5074705  44.0679311
 109.3344255  92.4827005  44.3735328 111.9448160  77.7747655  46.6175292
 112.4416859  77.0217617  46.2976362 111.1735141  77.8111971  46.0518501
 119.7977917  83.4788020  48.2593583 119.7867793  84.3612736  47.8887517
 118.9295296  83.1259571  48.0648120 111.3060413  92.6268089  52.6196424
 112.0188385  93.2615554  52.5472325 110.8150442  92.7231955  51.8036425
 113.0277940  86.5319342  44.1913715 112.0934219  86.6520804  44.0218420
 113.2054609  85.6291809  43.9273725 108.5283128  79.9165038  46.3446977
 108.1580916  79.3636078  47.0327882 109.0242221  79.3123171  45.7921977
 116.4150492  82.3736661  44.7263749 116.8810944  83.2064653  44.6524052
 116.8657992  81.9081643  45.4309008 106.3572327  90.3762533  53.4401994
 107.0581786  91.0099016  53.5931389 105.8867442  90.7177264  52.6797634
 114.4826723  88.7180482  41.7249902 114.7586567  88.6037077  42.6343776
 113.6131221  88.3197967  41.6862075 114.3867154  74.7417248  48.7654651
 113.4730234  74.9721475  48.9336858 114.8160256  74.8255692  49.6168683
 114.1573613  82.9307140  51.2654545 113.5045063  83.1783048  50.6106998
 114.5353993  82.1171278  50.9317022 111.1180787  92.9666833  45.3682715
 111.3003181  92.1488489  45.8310467 111.9413773  93.1834526  44.9307605
 111.4522952  91.8935018  42.6297764 111.9810719  91.3827473  42.0167926
 111.7151172  91.5777549  43.4943297 110.2061186  83.6726951  57.7520582
 109.5301823  83.5721081  58.4222957 111.0288820  83.5166165  58.2156579
 101.9540045  89.9098888  50.3733097 102.5393482  89.1642576  50.5061001
 101.7564883  90.2202844  51.2569761 104.8078700  92.9450135  45.3895540
 104.1389075  93.4296263  44.9059580 104.6691570  93.1919356  46.3038918
  96.5457700  82.4804488  49.0937540  96.5841799  81.9468079  49.8874658
  96.0397992  81.9539693  48.4748517 108.9483969  94.9793879  51.9878198
 109.5002277  95.1425500  52.7527283 109.2890162  95.5698316  51.3158223
 103.9248462  77.3269028  52.5900083 103.9889788  78.1883859  52.1777480
 103.8615582  76.7143030  51.8572441 103.4000734  79.3992161  56.2373117
 104.0272773  79.0169238  56.8510641 102.5428653  79.1806363  56.6028809
 113.7994843  89.8055136  57.8426852 114.3434747  90.4185094  57.3481807
 113.2181688  90.3634715  58.3593865 100.1766277  81.2068590  42.1691472
 100.4719718  80.2979269  42.1158525  99.2754313  81.1856330  41.8472474
 112.0852356  92.9275854  48.9741880 111.9603495  92.1265594  48.4652826
 112.7431447  93.4222048  48.4855850 103.7060524  79.2824587  48.1519020
 102.9847110  79.8960554  48.0126494 104.4953780  79.8182352  48.0735666
 114.1487264  90.7284874  50.6021430 113.2017600  90.6090225  50.5299757
 114.4970037  89.8407372  50.6847692 106.5086838  76.6179013  54.4259672
 107.0321240  76.8641310  55.1885981 106.2899171  77.4499048  54.0062809
 101.9054119  78.8882688  42.2930797 101.5766825  78.0080067  42.1105903
 102.2593489  78.8330356  43.1807186 111.1533698  90.5237590  46.8025782
 111.0058660  89.5954298  46.9833352 111.9787191  90.5457681  46.3182858
 105.0195942  79.1755658  42.6606275 105.3592014  79.7041579  41.9384883
 105.4668062  79.5136064  43.4364841 114.7567819  91.3466149  47.8890655
 115.6814367  91.1409011  47.7515106 114.5883123  91.0982550  48.7979997
 107.7139383  77.5592708  52.1109343 107.3736203  76.7600521  52.5130022
 107.0078389  77.8594419  51.5386176 108.3655855  74.6442021  50.5636666
 109.1881924  74.1702499  50.4415556 108.6093918  75.4232504  51.0635352
 107.0064089  77.6730279  40.8599567 107.7272452  78.0511532  40.3563284
 106.3829393  78.3919156  40.9634545 111.1495212  78.3775428  41.7957900
 111.3658826  79.2600066  41.4946728 110.6689279  77.9861642  41.0663542
 105.8894433  81.3361141  48.3728644 105.7439014  81.6501444  49.2652926
 105.4119637  81.9546042  47.8199543 107.7490816  78.3263689  48.4209534
 107.7352385  77.4304783  48.0841832 108.4663244  78.3334353  49.0547820
 109.6016947  78.7601030  50.4662661 109.3434725  79.6818100  50.4646992
 109.0701987  78.3631464  51.1563125 114.5463136  91.8651817  43.2452747
 114.7200013  91.2998239  42.4926599 115.0392027  92.6652712  43.0632237
 100.3640096  83.8766486  51.3116305  99.8193564  84.6526294  51.4436580
 101.2419445  84.2237290  51.1535427 107.1527712  77.2078070  43.6897104
 107.2743623  76.2794716  43.8887991 106.8629755  77.2216756  42.7775419
 110.0218903  74.8932980  46.8263824 110.0440599  74.9572313  45.8715803
 110.4386962  74.0537489  47.0204330 120.4002527  84.6288240  44.8643046
 120.8433673  83.8795565  44.4662170 119.5229037  84.6198376  44.4816778
 115.5338308  91.1818581  40.3449645 116.2289213  91.8025274  40.5636960
 115.8761458  90.3313932  40.6202023 101.1506117  83.0036382  54.2046462
 100.4087853  83.1519017  54.7911093 100.8298862  83.2644648  53.3413212
 117.4329731  88.6318287  41.8736976 117.9581055  88.9705559  41.1486296
 117.3452084  87.6965302  41.6900110 109.0949780  92.5452360  54.0026852
 109.4036906  92.3001507  54.8749552 109.8925262  92.7498999  53.5145723
 109.1170392  94.6990270  46.2332229 108.6775382  94.2066649  46.9265086
 109.8678509  94.1563238  45.9924304 101.5962731  90.8901811  46.2356857
 102.4220751  90.5905583  45.8555500 101.2456783  90.1209433  46.6846646
 106.5644264  90.2428279  48.3054531 105.9424273  89.5798984  48.0056758
 107.2349131  90.2689411  47.6228178  99.7971336  88.8088137  47.1945791
  98.9603244  88.3810312  47.0129792  99.7694982  89.0020581  48.1316582
 106.6368792  78.7210067  57.8987037 106.6856947  79.5972190  57.5164806
 107.1791306  78.1787460  57.3258680 117.1223637  89.2651190  57.1788174
 116.3319181  89.2475329  56.6392673 116.8856992  89.8039484  57.9337210
 117.2421512  86.1143657  54.4920902 117.2919517  85.9493664  55.4336425
 117.1335436  85.2470916  54.1018783 106.1257771  88.7932202  41.7812991
 106.2745891  89.4767667  41.1279664 106.9324215  88.7737292  42.2962447
 114.5325275  82.0974585  55.8080209 115.4335138  81.9581049  55.5164207
 114.6073249  82.2629039  56.7478386 108.8668080  79.4741439  54.6533395
 107.9971390  79.7675005  54.3815984 109.1027561  80.0581884  55.3740659
 118.7439709  88.5340598  54.7362924 118.4524518  88.8970579  55.5726385
 118.1311841  87.8207606  54.5576256 119.9435392  86.0993478  47.2565494
 120.7782283  86.5383282  47.4203054 120.0794520  85.6232131  46.4373740
 116.9926898  83.6573213  53.2042982 117.4681019  83.8500859  52.3961833
 116.0692463  83.7132399  52.9586365 103.8810404  84.8197380  42.7874060
 103.6356446  83.9159710  42.9854270 104.0506319  84.8214530  41.8453538
 111.5707114  75.6921056  52.1698816 112.0889058  76.4282083  51.8445304
 111.2162247  75.9985050  53.0045575 103.1506052  80.5525738  40.2860221
 102.4575297  80.6270093  39.6300257 102.9057804  79.7886081  40.8081738
 111.8219708  72.1121339  47.6899712 112.1021462  71.4444528  48.3160139
 112.6070315  72.3050434  47.1774376 109.6253177  91.2880333  39.2524738
 109.0527144  91.9070520  38.7995210 110.1985970  91.8379694  39.7864660
 115.6928567  80.5338973  51.4371287 116.6445989  80.6337071  51.4583511
 115.5232017  79.7417241  51.9469372 113.7142946  77.6194556  51.6230688
 113.1192878  77.8999569  50.9277177 113.4292643  78.1088457  52.3947429
 112.8450436  91.5717483  40.3833321 113.7781110  91.5063045  40.5866196
 112.7573649  92.4073750  39.9247853 115.4738453  90.8883353  37.3437268
 115.3952085  90.5543217  38.2373026 116.2948120  91.3805121  37.3428741
 118.1716644  83.7545093  50.5513587 118.1392964  82.8161093  50.7373271
 118.7817268  83.8329129  49.8179412 110.0099975  82.6241146  36.5940791
 110.9559080  82.4947354  36.6629209 109.6314220  81.8855807  37.0710219
 118.3211133  80.5456136  50.5971870 117.8050181  79.7614593  50.4101799
 119.2051081  80.2174853  50.7618390 115.9821860  74.2897152  46.5567683
 115.7846681  73.9812240  47.4411015 116.5921565  75.0158790  46.6865613
 109.8938668  86.6758892  58.0541448 110.8141677  86.8537491  58.2481494
 109.8588251  85.7314937  57.9021147 108.1942892  80.5491122  36.5295676
 107.2874348  80.2524235  36.6058390 108.4718873  80.2520940  35.6629962
  99.1120833  81.8697485  46.9794723  98.7923617  81.0162793  46.6869097
  98.5654261  82.0846063  47.7352690 102.8900740  84.5859926  50.6964229
 103.1086750  85.5177034  50.7152263 103.3026514  84.2267901  51.4819033
 109.8104958  75.0928012  42.6839917 109.0005686  74.7475097  43.0595164
 110.4989375  74.7835555  43.2727529 111.7395506  74.1706058  44.3064214
 112.2926545  74.5901512  44.9654237 111.9765593  73.2441807  44.3487170
 107.7628606  80.1593132  60.0866978 107.6625332  81.1087489  60.0179069
 107.5450148  79.8311371  59.2143048 106.9641677  77.4078057  36.6707655
 107.8260841  77.7332955  36.9303473 107.1492021  76.6209553  36.1580721
  98.9809093  85.4900397  48.9487844  98.2872564  85.0754350  48.4357799
  99.7282084  85.5320933  48.3521263 115.1174313  76.2806584  43.8142878
 114.5372982  76.9391388  43.4320931 114.8510246  75.4583928  43.4030296
 113.5677880  75.6811641  46.0164199 114.0677658  75.7928176  45.2078518
 114.2113488  75.3772694  46.6565007 107.6259876  83.5890271  58.9032040
 107.1426957  84.3890631  59.1095929 107.7120815  83.5998216  57.9499484
 100.8945835  85.4218651  46.8253859 100.8716523  85.5206338  45.8735742
 101.2046472  86.2683801  47.1471025 103.5533213  87.4794806  50.9400473
 104.5076467  87.4478748  50.8730405 103.3545737  87.0185429  51.7550699
 104.1432595  86.0495922  53.5071271 104.9625484  86.5440000  53.5306108
 104.4169403  85.1327890  53.4788839 113.8999191  78.4406674  42.8699227
 113.0125046  78.7256325  42.6519421 114.3153180  78.2800437  42.0226504
 117.2513728  78.4653195  46.5853566 118.0274118  78.9549647  46.8578183
 116.5261862  78.8911249  47.0425435 119.6886286  79.1780814  47.6427507
 120.2830777  78.9376550  46.9320815 119.7612870  78.4587945  48.2701043
 101.9083442  93.0214425  47.9570671 101.7737910  92.2614826  47.3908669
 101.4915504  93.7455325  47.4899460 113.0442405  88.2051349  36.9647247
 113.7478255  88.4101351  37.5804902 112.3205054  88.7728111  37.2296330
 113.8740215  83.9561210  43.0849517 113.8175417  84.4129761  42.2457149
 114.4268558  83.1951894  42.9072360 117.6845021  79.7450942  43.9099636
 117.4281955  79.3447577  44.7407844 117.0597889  80.4594736  43.7849775
 105.0652568  93.9183742  48.1689114 104.9484952  94.8629175  48.0667804
 104.2445014  93.6157304  48.5574913 114.9529102  88.6433878  39.0145707
 115.7874706  88.2115076  38.8323181 114.7913445  88.4715892  39.9422601
 114.6074994  85.1465991  40.3802046 114.5523798  84.9810263  39.4390490
 113.9821050  85.8542024  40.5364236  99.3967509  80.3834056  54.2063468
 100.0426373  79.8733009  54.6950693  99.1884661  81.1202737  54.7806893
 111.9220902  87.4514903  59.7055609 112.7912061  87.6255555  59.3442244
 111.4427653  88.2709320  59.5831338 107.9171120  74.6474100  39.9587364
 107.9049790  75.5915940  40.1155635 108.8094542  74.4644246  39.6646826
 106.0907082  94.5712004  51.3845042 106.9934329  94.6035614  51.7011537
 105.8644452  93.6412455  51.3991378 107.8460684  93.3242991  48.0455121
 106.8956315  93.3244852  47.9319493 108.1493170  92.5775725  47.5291156
 111.7323239  71.2416877  44.2133301 110.9655635  70.6875363  44.3589984
 112.1433944  71.3138746  45.0747453 103.7365000  77.5301673  58.3038482
 104.5996462  77.1738477  58.5141807 103.1630411  77.1915567  58.9913887
 120.3903084  99.1130957  49.0462408 120.0521595  98.9972022  48.1582943
 121.2592852  98.7122122  49.0263414 116.2489899 100.9666433  45.0359299
 115.6854764 100.8756370  44.2675587 116.1342294 100.1466338  45.5161792
 120.8722867 100.2665809  55.0048614 120.8611507  99.8718607  54.1329117
 121.0343506  99.5331881  55.5982385 113.7954331 102.4617625  47.8743520
 114.5875623 102.1208450  47.4589819 114.0350981 102.5712600  48.7945673
 115.7545085 101.7226538  40.7460898 116.5275961 101.1755525  40.6073774
 116.1070484 102.5870788  40.9575360 117.5930128 103.0502921  53.9527798
 117.3019994 103.9548551  53.8374464 118.2287112 103.0919448  54.6671867
 118.5186335 100.4279769  50.5429157 119.1149907 100.2035791  49.8286120
 118.5761306  99.6864515  51.1454605 118.0911363  97.8819204  38.3779348
 118.3436884  97.3600726  37.6162811 117.1535922  97.7185350  38.4806032
 117.8107652  99.7847310  40.5803723 117.6943910  99.1092214  41.2484808
 117.9209912  99.2979684  39.7635876 120.1539193  99.2457457  44.2850412
 119.7897400  98.7188078  44.9963334 121.0106309  98.8555927  44.1116898
 119.7944680  94.2747357  39.2811761 119.9619082  95.1427594  39.6482232
 119.6041849  94.4374639  38.3573050 116.0032494  99.1878133  46.9814296
 115.0782991  99.0554347  47.1891988 116.2516908  99.9672352  47.4784238
 119.7733901  96.7305015  40.2658428 119.6533526  97.1762065  41.1043908
 119.0786489  97.0790332  39.7071966 113.3641305  98.8311406  47.8158085
 113.4933687  99.0845885  48.7297497 112.6838757  99.4239114  47.4962740
 120.0258022  96.6736522  56.5709926 119.2491357  97.2330442  56.5612791
 120.6648586  97.1593305  57.0924796 118.2804395  99.4821975  56.1327893
 119.0219079 100.0207019  55.8562717 117.5741380 100.1088264  56.2899445
 120.1090804  96.5623722  52.1033611 120.9552000  96.9863136  52.2468260
 120.0489442  95.9057347  52.7972174 119.6316511 101.9226714  45.7502428
 120.0954856 102.2014417  44.9607051 119.3673309 101.0210159  45.5675519
 116.5240592 101.4698196  48.6882192 117.0941949 101.8985464  48.0499676
 117.1148704 101.1880781  49.3866377 118.5685397  98.0449867  42.5591994
 119.2709440  98.4970910  43.0265920 118.2366025  97.4033686  43.1871887
 117.0165759  96.6361623  56.9343203 116.3864419  97.3177904  57.1678600
 116.9101846  96.5244705  55.9896341 112.3110731  96.3033419  47.8609127
 111.5209785  96.5590948  47.3849238 112.8021978  97.1181757  47.9661168
 114.2625476  96.6677999  44.8192604 113.4656640  96.7796693  45.3376099
 114.0351069  97.0064651  43.9533494 120.0931144 103.1922702  52.7675118
 120.1575576 103.6543109  53.6033290 119.3842068 102.5620067  52.8957428
 110.5948434  96.5563910  50.2924118 110.8456472  97.4410920  50.5581694
 111.1307982  96.3768511  49.5199210 116.2946501  90.9382389  59.2968454
 115.9013447  90.3848588  59.9716098 117.1112642  91.2492968  59.6874971
 113.2608559 102.3766247  43.2082024 113.7733080 103.1709498  43.3587589
 113.9131272 101.6792538  43.1415625 115.0703444 105.4932004  45.2904777
 115.2470072 106.4149968  45.1025761 115.8660277 105.1790423  45.7199157
 119.2114462  92.3540268  56.8888711 119.9524176  92.9547421  56.8093173
 119.4432385  91.6117906  56.3306753 114.3555800  97.5396636  55.1666940
 114.2409315  96.6381893  55.4674039 113.5000318  97.7860332  54.8151757
 116.1934759 107.0110177  51.2915119 116.7442184 106.8827241  50.5192113
 115.3546235 107.3105067  50.9410012 119.9901930 103.2761305  55.6359350
 120.5230267 102.5149593  55.4058658 119.4616011 102.9834957  56.3783505
 111.2257476 100.7054902  43.9841594 112.0632698 101.1151910  43.7675302
 111.4035743  99.7654344  43.9541788 120.7069019  93.2179683  44.7310666
 119.8510615  92.8286534  44.5516304 121.1195971  93.2971644  43.8710451
 118.4811051  90.8364756  48.1368407 119.3464048  90.6407565  47.7774297
 118.5488560  90.6075108  49.0637764 121.3554643 102.4047298  43.1478162
 120.8276004 101.6700057  42.8351400 120.8542146 103.1821974  42.9018131
 116.0873371  93.0666964  45.5084774 116.6617122  92.8442146  44.7757967
 116.6744353  93.1355659  46.2613375 116.4142958  95.0971425  39.5280659
 115.5780270  95.4346112  39.8489934 116.2747727  94.9620405  38.5907796
 118.3896038  89.9408213  44.2359843 117.7360451  89.6257230  43.6116458
 118.3476512  89.3183953  44.9619666 119.5007243 100.2227508  36.1513135
 118.5934305  99.9916762  36.3504284 119.9978275  99.4265127  36.3387117
 120.6795477 100.3240103  40.6737126 119.7706696 100.0399136  40.7709595
 120.7090560 100.7439181  39.8140432 111.2483647  98.0445617  44.6552328
 111.0508047  97.4514978  43.9303394 110.6930311  97.7397827  45.3728267
 119.2280371  97.9368724  46.7746921 119.2828980  96.9842560  46.6989398
 118.4171573  98.0928163  47.2588219 120.3771564 101.8648847  38.0125204
 119.9390994 101.1484706  37.5530842 121.1182005 102.0924961  37.4510296
 117.1672730  96.5545783  44.5337300 116.3540596  96.8539954  44.9402492
 117.6631725  96.1601472  45.2511782 116.6586805  94.1264139  50.1498535
 117.2986185  93.9852898  49.4521498 115.8264336  93.8398652  49.7737137
 117.4347109 103.4266569  46.2633527 118.2287708 102.9316889  46.0616102
 116.7238802 102.8984432  45.9001233 113.7429873  97.5709651  42.3393280
 112.8127461  97.5094106  42.5563242 113.8387345  97.0485604  41.5429921
 113.6615422  94.0964464  44.9271522 113.9222239  95.0109797  44.8180682
 114.4832594  93.6288906  45.0768134 115.1340347  95.5102221  52.0970346
 115.8063400  95.3019583  51.4482995 114.3070134  95.3124307  51.6575578
 120.0118385 103.9995591  49.9431364 119.8729471 103.6314376  50.8157302
 119.2232981 104.5143231  49.7715322 121.5623600 103.3777194  47.3320202
 121.2273433 103.3377964  48.2277852 121.0627546 102.7121910  46.8590612
 115.5367844  98.7844824  52.8572783 115.3987642  98.0525063  53.4584322
 116.4472768  98.6953724  52.5756971 118.1650145  98.4964783  52.3456463
 118.8749763  97.8557975  52.3043081 118.1219453  98.7477678  53.2682644
 116.8779079  95.4830001  54.1652102 116.3416436  95.0320740  54.8173699
 116.2895787  95.6175910  53.4222567 116.2881338  94.9418653  36.7278566
 115.4110804  94.8207453  36.3640813 116.7639091  94.1504731  36.4757455
 107.8083478  99.7295812  46.8220073 108.4954518  99.4157542  46.2341088
 107.6531607 100.6337177  46.5487325 112.6118200  94.6186009  51.2505097
 112.5276389  94.0111678  50.5155507 111.7900907  95.1095027  51.2514593
 119.3676883  95.2456955  46.3446977 118.9974670  94.6927996  47.0327882
 119.8635975  94.6415089  45.7921977 117.1966081 105.7054450  53.4401994
 117.8975541 106.3390933  53.5931389 116.7261196 106.0469182  52.6797634
 112.7933799 105.2390805  50.3733097 113.3787236 104.4934493  50.5061001
 112.5958638 105.5494762  51.2569761 107.3851454  97.8096406  49.0937540
 107.4235554  97.2759996  49.8874658 106.8791747  97.2831611  48.4748517
 114.7642216  92.6560946  52.5900083 114.8283543  93.5175777  52.1777480
 114.7009337  92.0434948  51.8572441 114.2394489  94.7284079  56.2373117
 114.8666528  94.3461156  56.8510641 113.3822408  94.5098281  56.6028809
 111.0160032  96.5360508  42.1691472 111.3113473  95.6271186  42.1158525
 110.1148067  96.5148247  41.8472474 114.5454279  94.6116504  48.1519020
 113.8240864  95.2252472  48.0126494 115.3347534  95.1474269  48.0735666
 117.3480592  91.9470931  54.4259672 117.8714994  92.1933227  55.1885981
 117.1292925  92.7790966  54.0062809 112.7447873  94.2174605  42.2930797
 112.4160579  93.3371984  42.1105903 113.0987244  94.1622274  43.1807186
 115.8589696  94.5047575  42.6606275 116.1985769  95.0333496  41.9384883
 116.3061817  94.8427981  43.4364841 118.5533137  92.8884626  52.1109343
 118.2129958  92.0892439  52.5130022 117.8472144  93.1886337  51.5386176
 119.2049609  89.9733938  50.5636666 120.0275678  89.4994417  50.4415556
 119.4487673  90.7524422  51.0635352 117.8457844  93.0022197  40.8599567
 118.5666206  93.3803450  40.3563284 117.2223148  93.7211074  40.9634545
 116.7288188  96.6653059  48.3728644 116.5832769  96.9793362  49.2652926
 116.2513391  97.2837959  47.8199543 118.5884571  93.6555607  48.4209534
 118.5746139  92.7596700  48.0841832 119.3056999  93.6626271  49.0547820
 120.4410701  94.0892947  50.4662661 120.1828479  95.0110018  50.4646992
 119.9095742  93.6923382  51.1563125 111.2033850  99.2058403  51.3116305
 110.6587318  99.9818211  51.4436580 112.0813200  99.5529208  51.1535427
 117.9921467  92.5369987  43.6897104 118.1137378  91.6086633  43.8887991
 117.7023509  92.5508673  42.7775419 120.8612657  90.2224898  46.8263824
 120.8834354  90.2864231  45.8715803 121.2780716  89.3829406  47.0204330
 111.9899872  98.3328300  54.2046462 111.2481608  98.4810935  54.7911093
 111.6692616  98.5936565  53.3413212 112.4356486 106.2193728  46.2356857
 113.2614505 105.9197500  45.8555500 112.0850538 105.4501351  46.6846646
 117.4038019 105.5720197  48.3054531 116.7818028 104.9090902  48.0056758
 118.0742886 105.5981329  47.6228178 110.6365091 104.1380055  47.1945791
 109.7996999 103.7102229  47.0129792 110.6088736 104.3312498  48.1316582
 117.4762546  94.0501985  57.8987037 117.5250702  94.9264107  57.5164806
 118.0185060  93.5079378  57.3258680 116.9651526 104.1224120  41.7812991
 117.1139646 104.8059584  41.1279664 117.7717969 104.1029210  42.2962447
 119.7061835  94.8033357  54.6533395 118.8365144  95.0966923  54.3815984
 119.9421315  95.3873802  55.3740659 114.7204159 100.1489298  42.7874060
 114.4750201  99.2451628  42.9854270 114.8900073 100.1506448  41.8453538
 113.9899806  95.8817655  40.2860221 113.2969051  95.9562010  39.6300257
 113.7451558  95.1177999  40.8081738 119.0336647  95.8783040  36.5295676
 118.1268102  95.5816152  36.6058390 119.3112628  95.5812858  35.6629962
 109.9514587  97.1989403  46.9794723 109.6317372  96.3454711  46.6869097
 109.4048015  97.4137981  47.7352690 113.7294495  99.9151844  50.6964229
 113.9480504 100.8468952  50.7152263 114.1420269  99.5559818  51.4819033
 120.6498713  90.4219929  42.6839917 119.8399441  90.0767014  43.0595164
 121.3383129  90.1127473  43.2727529 118.6022360  95.4885050  60.0866978
 118.5019087  96.4379407  60.0179069 118.3843902  95.1603289  59.2143048
 117.8035431  92.7369975  36.6707655 118.6654595  93.0624873  36.9303473
 117.9885776  91.9501471  36.1580721 109.8202847 100.8192314  48.9487844
 109.1266319 100.4046267  48.4357799 110.5675838 100.8612851  48.3521263
 118.4653630  98.9182189  58.9032040 117.9820712  99.7182549  59.1095929
 118.5514569  98.9290133  57.9499484 111.7339590 100.7510568  46.8253859
 111.7110278 100.8498256  45.8735742 112.0440226 101.5975719  47.1471025
 114.3926968 102.8086723  50.9400473 115.3470221 102.7770666  50.8730405
 114.1939491 102.3477347  51.7550699 114.9826350 101.3787839  53.5071271
 115.8019239 101.8731918  53.5306108 115.2563157 100.4619807  53.4788839
 112.7477196 108.3506343  47.9570671 112.6131664 107.5906744  47.3908669
 112.3309259 109.0747243  47.4899460 110.2361264  95.7125973  54.2063468
 110.8820128  95.2024927  54.6950693 110.0278415  96.4494655  54.7806893
 118.7564874  89.9766018  39.9587364 118.7443544  90.9207858  40.1155635
 119.6488296  89.7936163  39.6646826 114.5758755  92.8593590  58.3038482
 115.4390217  92.5030395  58.5141807 114.0024166  92.5207485  58.9913887
  52.4978267  -5.4680727  30.6393866  52.4202297  -4.5172902  30.7182346
  51.8939911  -5.8134855  31.2968792  50.1365097  -2.7195333  34.7842068
  50.3761695  -2.0876809  35.4621086  49.2934293  -3.0707293  35.0707427
  50.6109929  -6.6947331  32.1140846  49.9420304  -6.2101203  31.6304886
  50.4722799  -6.4478110  33.0284225  54.7515198  -4.6603587  38.7123505
  55.3033506  -4.4971966  39.4772590  55.0921391  -4.0699149  38.0403529
  47.7114671  -6.6183041  34.6815978  47.5769139  -7.3782640  34.1153976
  47.2946733  -5.8942141  34.2144767  50.8683797  -5.7213724  34.8934421
  50.7516181  -4.7768291  34.7913111  50.0476243  -6.0240162  35.2820220
  51.8938311  -5.0685462  38.1090349  52.7965557  -5.0361852  38.4256844
  51.6675681  -5.9985011  38.1236685  66.1934312  -0.5266509  35.7707715
  65.8552824  -0.6425444  34.8828250  67.0624081  -0.9275344  35.7508721
  62.0521128   1.3268968  31.7604606  61.4885993   1.2358905  30.9920893
  61.9373523   0.5068872  32.2407098  66.6754095   0.6268343  41.7293920
  66.6642736   0.2321141  40.8574424  66.8374735  -0.1065584  42.3227692
  59.5985560   2.8220159  34.5988826  60.3906852   2.4810984  34.1835125
  59.8382210   2.9315134  35.5190979  67.6320687   4.9939935  27.0719071
  66.9808667   5.5794016  26.6853084  68.4265050   5.5246130  27.1314108
  61.5576314   2.0829073  27.4706205  62.3307190   1.5358060  27.3319081
  61.9101713   2.9473322  27.6820666  63.3961357   3.4105455  40.6773104
  63.1051223   4.3151086  40.5619771  64.0318341   3.4521982  41.3917174
  64.3217563   0.7882303  37.2674464  64.9181136   0.5638326  36.5531427
  64.3792535   0.0467049  37.8699912  69.1095952   2.6830367  27.6088055
  68.4741785   2.7564994  28.3208960  68.7793358   3.2723966  26.9307134
  63.6138881   0.1449845  27.3049030  63.4975139  -0.5305252  27.9730114
  63.7241140  -0.3417781  26.4881183  65.9570422  -0.3940008  31.0095719
  65.5928629  -0.9209387  31.7208641  66.8137537  -0.7841539  30.8362204
  68.3551242   3.0966870  37.6722898  68.0551965   3.9991909  37.5638705
  68.0102301   2.8299054  38.5244051  61.8063723  -0.4519333  33.7059602
  60.8814220  -0.5843119  33.9137294  62.0548136   0.3274886  34.2029545
  59.1672534  -0.8086059  34.5403391  59.2964915  -0.5551580  35.4542803
  58.4869986  -0.2158351  34.2208047  63.3372021   9.8611191  30.6393866
  63.2596051  10.8119016  30.7182346  62.7333665   9.5157063  31.2968792
  64.0835624  -0.1575491  42.8573200  64.8250308   0.3809553  42.5808023
  63.3772609   0.4690798  43.0144751  69.5590963   1.9853650  41.4545361
  69.9674319   1.5436060  40.7099993  68.8368225   1.4106277  41.7079554
  69.8819778   2.5454841  35.2097650  69.2528640   2.7100555  34.5073718
  69.4945440   2.9596450  35.9808614  73.7609010   3.4809278  32.5642014
  73.0760048   3.8608180  32.0139047  73.8452859   4.0904605  33.2973961
  71.0159941   1.1269237  39.1637357  71.2276837   1.7700997  38.4871738
  70.9689690   0.2931554  38.6959287  65.4347740   2.2829249  32.4747735
  65.8986085   2.5616952  31.6852358  65.1704538   1.3812693  32.2920826
  62.3271821   1.8300730  35.4127498  62.8973178   2.2587999  34.7744983
  62.9179933   1.5483315  36.1111684  58.1141960  -3.3364046  34.5854434
  57.3241014  -3.0806518  34.1094544  58.6053207  -2.5215708  34.6906474
  72.1305769   4.0041193  37.3359715  72.9523213   3.6021380  37.0542396
  72.1268172   3.9009427  38.2875830  60.0656705  -2.9719467  31.5437910
  59.2687868  -2.8600773  32.0621406  59.8382297  -2.6332815  30.6778801
  65.8962373   3.5525236  39.4920425  65.9606805   4.0145643  40.3278597
  65.1873297   2.9222601  39.6202735  56.3979663  -3.0833556  37.0169425
  56.6487701  -2.1986546  37.2827000  56.9339211  -3.2628954  36.2444516
  65.6110390   5.2193344  29.3599405  65.4756065   6.0644879  29.7884253
  66.1520203   5.4212621  28.5965339  59.0639788   2.7368782  29.9327330
  59.5764308   3.5312032  30.0832895  59.7162501   2.0395072  29.8660932
  60.8734672   5.8534538  32.0150084  61.0501301   6.7752503  31.8271068
  61.6691506   5.5392957  32.4444463  60.1587029  -2.1000830  41.8912247
  60.0440544  -3.0015573  42.1919346  59.3031547  -1.8537133  41.5397063
  67.2378867   5.8416910  43.4899747  66.7942721   5.0553289  43.1720652
  67.8996080   6.0296061  42.8243638  61.9965988   7.3712712  38.0160426
  62.5473413   7.2429775  37.2437420  61.1577464   7.6707601  37.6655319
  69.3360105   6.1219710  41.5181149  69.3178580   6.9428591  41.0261418
  70.2580025   5.9973785  41.7431290  65.7933159   3.6363840  42.3604657
  66.3261496   2.8752128  42.1303965  65.2647240   3.3437491  43.1028812
  57.0288705   1.0657436  30.7086901  57.8663927   1.4754444  30.4920609
  57.2066972   0.1256878  30.6787095  67.1585872   2.7649832  29.8723469
  66.6307233   2.0302592  29.5596707  66.6573374   3.5424508  29.6263437
  72.1378718   0.9598852  34.9890515  71.4802392   1.6498114  35.0770644
  72.9419117   1.3495284  35.3324502  65.3038472   0.5830042  22.8758442
  64.3965534   0.3519296  23.0749591  65.8009504  -0.2132338  23.0632424
  68.2106551   9.2927549  25.7955128  67.5368250   9.5959246  26.4040086
  68.5972373  10.0956630  25.4460585  66.4826705   0.6842637  27.3982432
  65.5737925   0.4001670  27.4954902  66.5121789   1.1041716  26.5385739
  71.7145973   4.2949227  31.1673600  71.2608300   3.4540137  31.2238790
  71.0839939   4.9310625  31.5048380  70.1578912   6.1325723  32.1023418
  70.4501886   6.6930780  31.3835784  70.6677533   6.4254284  32.8576577
  57.0514876  -1.5951849  31.3797634  56.8539276  -2.1882488  30.6548701
  56.4961540  -1.8999639  32.0973573  66.1802793   2.2251381  24.7370511
  65.7422223   1.5087240  24.2776148  66.9213234   2.4527496  24.1755602
  65.1212537   6.9106074  33.1916871  65.0788716   7.1366921  32.2625403
  66.0375236   6.6769449  33.3402672  74.3245288   2.5685105  35.8058101
  74.7581794   2.4760394  36.6541155  75.0376868   2.5442605  35.1678117
  63.2378338   3.7869103  32.9878834  64.0318936   3.2919424  32.7861409
  62.5270030   3.2586967  32.6246539  68.0573182   6.1687199  37.3391201
  68.1110205   6.7378135  38.1068917  67.1887964   6.3389084  36.9745239
  59.5461101  -2.0687815  29.0638587  58.6158690  -2.1303359  29.2808549
  59.6418573  -2.5911862  28.2675228  75.1860837   2.6108806  38.3390986
  75.3796727   3.5154616  38.5850261  75.0861455   2.1516225  39.1729571
  70.2475946   2.7615548  43.9131867  70.0961452   2.5326100  42.9961951
  70.2380625   3.7186150  43.9263212  67.0161282   0.3347461  38.8978133
  67.9453342   0.4858621  38.7247101  66.5952312   0.4231482  38.0426780
  65.8149614   4.3598125  36.6676671  65.6760700   3.9916910  37.5402609
  65.0264210   4.8745765  36.4960629  66.4097766   9.4607222  28.0102207
  66.5849522   8.9895265  28.8247830  65.7230554  10.0872988  28.2383468
  67.3654829   3.7379728  34.0565509  67.0304662   3.6980498  34.9523159
  66.8658775   3.0724444  33.5835919  61.3399073  -0.8552642  39.5818090
  61.2018871  -1.5872403  40.1829629  62.2503997  -0.9443742  39.3002278
  70.3014021   1.0835762  24.3302568  69.6843191   0.3582591  24.2335621
  69.8330509   1.8445123  23.9869643  63.9681374  -1.1432683  39.0701770
  64.6780992  -1.7839490  39.0288388  63.9250682  -0.8919788  39.9927950
  71.9568152   5.7934671  41.9908349  71.8980699   5.1093891  41.3238932
  72.3587671   6.5353661  41.5388975  60.9758851  12.6096585  34.7842068
  61.2155449  13.2415109  35.4621086  60.1328048  12.2584625  35.0707427
  71.9585560   3.7574255  40.2222328  71.0712338   3.4200177  40.3448727
  72.5284111   3.0257286  40.4591094  53.6114707   0.0898346  33.5465380
  54.2985747  -0.2239923  32.9586395  53.4562835   0.9939711  33.2732631
  65.4886713   8.4175707  37.1883572  65.4156885   9.2230679  37.7002876
  65.0464106   8.6167673  36.3631593  65.2776493   7.6547477  30.6986393
  64.4944015   8.1969157  30.7924618  65.9769238   8.1721457  31.0980634
  67.9485397   8.3162541  39.3441730  68.6613369   8.9510006  39.2717632
  67.4575425   8.4126407  38.5281732  69.6702923   2.2213794  30.9159022
  68.7359202   2.3415256  30.7463726  69.8479592   1.3186261  30.6519032
  62.9997310   6.0656985  40.1647301  63.7006770   6.6993468  40.3176695
  62.5292425   6.4071716  39.4042940  71.1251706   4.4074934  28.4495208
  71.4011550   4.2931529  29.3589082  70.2556205   4.0092419  28.4107381
  67.7605770   8.6561285  32.0928022  67.9428164   7.8382941  32.5555774
  68.5838756   8.8728977  31.6552912  68.0947935   7.5829470  29.3543070
  68.6235702   7.0721925  28.7413232  68.3576155   7.2672001  30.2188603
  66.8486169  -0.6378597  44.4765889  66.1726806  -0.7384468  45.1468264
  67.6713803  -0.7939383  44.9401886  58.5965028   5.5993340  37.0978404
  59.1818465   4.8537028  37.2306308  58.3989867   5.9097296  37.9815068
  61.4503683   8.6344587  32.1140846  60.7814059   9.1190715  31.6304886
  61.3116553   8.8813807  33.0284225  53.1882683  -1.8301060  35.8182847
  53.2266782  -2.3637469  36.6119965  52.6822976  -2.3565855  35.1993824
  65.5908952  10.6688331  38.7123505  66.1427260  10.8319952  39.4772590
  65.9315145  11.2592768  38.0403529  70.4419826   5.4949588  44.5672159
  70.9859730   6.1079546  44.0727114  69.8606671   6.0529166  45.0839172
  56.8191261  -3.1036958  28.8936778  57.1144702  -4.0126280  28.8403832
  55.9179296  -3.1249219  28.5717781  68.7277339   8.6170306  35.6987187
  68.6028479   7.8160046  35.1898132  69.3856430   9.1116499  35.2101157
  70.7912248   6.4179326  37.3266737  69.8442583   6.2984677  37.2545064
  71.1395021   5.5301824  37.4092998  67.7958681   6.2132042  33.5271089
  67.6483643   5.2848750  33.7078659  68.6212174   6.2352133  33.0428164
  71.3992803   7.0360601  34.6135962  72.3239350   6.8303462  34.4760413
  71.2308106   6.7877002  35.5225303  71.1888119   7.5546269  29.9698053
  71.3624997   6.9892691  29.2171906  71.6817010   8.3547163  29.7877543
  57.0065079  -0.4339062  38.0361612  56.4618547   0.3420746  38.1681886
  57.8844429  -0.0868258  37.8780733  72.1763291   6.8713033  27.0694952
  72.8714196   7.4919726  27.2882266  72.5186442   6.0208384  27.3447329
  57.7931101  -1.3069166  40.9291769  57.0512837  -1.1586531  41.5156399
  57.4723845  -1.0460900  40.0658518  74.0754715   4.3212738  28.5982282
  74.6006039   4.6600011  27.8731602  73.9877067   3.3859754  28.4145417
  65.7374763   8.2346812  40.7272159  66.0461890   7.9895959  41.5994858
  66.5350245   8.4393451  40.2391029  65.7595375  10.3884722  32.9577535
  65.3200366   9.8961100  33.6510392  66.5103492   9.8457689  32.7169611
  58.2387714   6.5796263  32.9602164  59.0645734   6.2800034  32.5800807
  57.8881766   5.8103885  33.4091952  63.2069248   5.9322731  35.0299837
  62.5849257   5.2693436  34.7302065  63.8774114   5.9583863  34.3473485
  56.4396319   4.4982589  33.9191097  55.6028228   4.0704763  33.7375098
  56.4119965   4.6915032  34.8561888  73.7648621   4.9545642  43.9033480
  72.9744164   4.9369781  43.3637980  73.5281975   5.4933936  44.6582517
  62.7682754   4.4826654  28.5058298  62.9170875   5.1662119  27.8524970
  63.5749198   4.4631744  29.0207753  75.3864693   4.2235050  41.4608230
  75.0949501   4.5865031  42.2971691  74.7736824   3.5102058  41.2821562
  60.5235387   0.5091832  29.5119367  60.2781429  -0.3945838  29.7099577
  60.6931302   0.5108982  28.5698845  66.2678160   6.9774785  25.9770045
  65.6952127   7.5964972  25.5240517  66.8410954   7.5274146  26.5109967
  69.4875420   7.2611935  27.1078627  70.4206093   7.1957496  27.3111503
  69.3998633   8.0968202  26.6493160  72.1163436   6.5777805  24.0682575
  72.0377068   6.2437669  24.9618333  72.9373103   7.0699573  24.0674047
  66.5363651   2.3653344  44.7786755  67.4566660   2.5431943  44.9726801
  66.5013234   1.4209389  44.6266454  55.7545816  -2.4408063  33.7040029
  55.4348600  -3.2942755  33.4114403  55.2079244  -2.2259485  34.4597997
  59.5325724   0.2754378  37.4209536  59.7511733   1.2071486  37.4397570
  59.9451497  -0.0837647  38.2064340  55.6234076   1.1794849  35.6733151
  54.9297547   0.7648801  35.1603105  56.3707067   1.2215385  35.0766570
  64.2684859  -0.7215277  45.6277346  63.7851941   0.0785083  45.8341235
  64.3545798  -0.7107332  44.6744790  57.5370819   1.1113102  33.5499166
  57.5141507   1.2100790  32.5981049  57.8471455   1.9578253  33.8716332
  60.1958196   3.1689257  37.6645780  61.1501450   3.1373200  37.5975712
  59.9970720   2.7079881  38.4796006  60.7857579   1.7390374  40.2316578
  61.6050468   2.2334452  40.2551415  61.0594386   0.8222342  40.2034145
  58.5508425   8.7108877  34.6815978  58.4162893   7.9509278  34.1153976
  58.1340487   9.4349777  34.2144767  69.6867388   3.8945801  23.6892553
  70.3903238   4.0995803  24.3050209  68.9630037   4.4622562  23.9541637
  61.7077551   9.6078194  34.8934421  61.5909935  10.5523626  34.7913111
  60.8869997   9.3051756  35.2820220  71.5954086   4.3328330  25.7391013
  72.4299690   3.9009528  25.5568488  71.4338429   4.1610343  26.6667908
  71.2499978   0.8360443  27.1047353  71.1948782   0.6704714  26.1635797
  70.6246033   1.5436476  27.2609542  56.0392493  -3.9271493  40.9308775
  56.6851356  -4.4372539  41.4196000  55.8309644  -3.1902811  41.5052200
  68.5645885   3.1409355  46.4300915  69.4337045   3.3150007  46.0687550
  68.0852636   3.9603772  46.3076645  62.7332065  10.2606456  38.1090349
  63.6359312  10.2930066  38.4256844  62.5069435   9.3306907  38.1236685
  64.4885667   9.0137442  34.7700428  63.5381298   9.0139304  34.6564800
  64.7918153   8.2670177  34.2536462  80.2238361  14.8497981  35.8346190
  80.8616771  14.7304728  35.1309530  80.1059204  15.7978825  35.8934142
  77.0328067  14.8025409  35.7707715  76.6946578  14.6866474  34.8828250
  77.9017835  14.4016574  35.7508721  72.8914883  16.6560885  31.7604606
  72.3279748  16.5650822  30.9920893  72.7767278  15.8360790  32.2407098
  77.5147850  15.9560261  41.7293920  77.5036491  15.5613059  40.8574424
  77.6768489  15.2226333  42.3227692  70.4379315  18.1512077  34.5988826
  71.2300607  17.8102902  34.1835125  70.6775965  18.2607052  35.5190979
  78.4714441  20.3231853  27.0719071  77.8202421  20.9085933  26.6853084
  79.2658804  20.8538048  27.1314108  72.3970069  17.4120990  27.4706205
  73.1700945  16.8649977  27.3319081  72.7495467  18.2765240  27.6820666
  74.2355111  18.7397372  40.6773104  73.9444977  19.6443003  40.5619771
  74.8712095  18.7813900  41.3917174  75.1611318  16.1174221  37.2674464
  75.7574890  15.8930243  36.5531427  75.2186289  15.3758966  37.8699912
  74.7336346  13.5713656  25.1024655  74.9861867  13.0495178  24.3408118
  73.7960905  13.4079802  25.2051338  79.7779629  12.5749435  32.9099398
  80.5642718  12.1568858  32.5589815  80.0418333  13.4795527  33.0781046
  79.9489707  18.0122285  27.6088055  79.3135539  18.0856912  28.3208960
  79.6187113  18.6015884  26.9307134  85.1788056  12.5124668  33.8132377
  85.9113228  11.9423885  34.0470206  84.4227412  12.1246268  34.2538882
  74.4532635  15.4741762  27.3049030  74.3368893  14.7986666  27.9730114
  74.5634895  14.9874136  26.4881183  76.7964176  14.9351909  31.0095719
  76.4322383  14.4082530  31.7208641  77.6531292  14.5450378  30.8362204
  82.7013477   6.2246242  38.2726985  82.3696801   7.0941653  38.0488200
  82.1059090   5.9082526  38.9521016  76.4369663   9.9641809  26.0057068
  76.6044065  10.8322045  26.3727539  76.2466832  10.1269091  25.0818357
  79.1944996  18.4258788  37.6722898  78.8945719  19.3283827  37.5638705
  78.8496056  18.1590971  38.5244051  72.6457478  14.8772585  33.7059602
  71.7207974  14.7448799  33.9137294  72.8941891  15.6566804  34.2029545
  82.5942140  10.9441328  35.3520335  81.6859017  10.8756737  35.0579096
  82.5429736  11.4213273  36.1802161  76.4158884  12.4199467  26.9903734
  76.2958509  12.8656517  27.8289215  75.7211472  12.7684784  26.4317273
  70.0066289  14.5205858  34.5403391  70.1358670  14.7740337  35.4542803
  69.3263740  15.1133566  34.2208047  74.1765776  25.1903108  30.6393866
  74.0989806  26.1410933  30.7182346  73.5727420  24.8448981  31.2968792
  76.6683006  12.3630974  43.2955233  75.8916340  12.9224894  43.2858097
  77.3073569  12.8487757  43.8170103  84.4603786   9.1457767  37.1298209
  83.8178167   9.4390300  36.4838004  83.9558715   9.0310687  37.9351406
  82.1143950  12.8920940  27.8184068  83.0261806  13.1248327  27.6431766
  81.6053597  13.4757984  27.2559147  74.9229378  15.1716427  42.8573200
  75.6644062  15.7101471  42.5808023  74.2166364  15.7982716  43.0144751
  80.3984718  17.3145568  41.4545361  80.8068074  16.8727978  40.7099993
  79.6761979  16.7398195  41.7079554  76.7515788  12.2518174  38.8278918
  77.5976983  12.6757588  38.9713567  76.6914425  11.5951799  39.5217481
  80.7213532  17.8746758  35.2097650  80.0922395  18.0392472  34.5073718
  80.3339194  18.2888368  35.9808614  84.6002764  18.8101196  32.5642014
  83.9153802  19.1900097  32.0139047  84.6846614  19.4196523  33.2973961
  79.9015233   9.9122543  40.4860092  79.6576165  10.6664603  39.9494367
  80.1775164  10.2907890  41.3207339  81.8553696  16.4561155  39.1637357
  82.0670591  17.0992915  38.4871738  81.8083444  15.6223472  38.6959287
  79.4579925   9.0678976  36.0673929  78.5964404   9.3660229  36.3590667
  79.4842359   9.2849375  35.1354962  76.2741494  17.6121166  32.4747735
  76.7379840  17.8908869  31.6852358  76.0098292  16.7104611  32.2920826
  73.1665575  17.1592648  35.4127498  73.7366932  17.5879916  34.7744983
  73.7573687  16.8775233  36.1111684  75.2110380  13.7344319  29.2837300
  75.9134424  14.1865362  29.7511227  74.8791009  13.0928138  29.9117193
  73.6590742  12.3256075  43.6588510  73.0289402  13.0072356  43.8923906
  73.5526830  12.2139157  42.7141648  68.9535714  11.9927871  34.5854434
  68.1634768  12.2485400  34.1094544  69.4446962  12.8076209  34.6906474
  82.9699524  19.3333111  37.3359715  83.7916968  18.9313298  37.0542396
  82.9661927  19.2301345  38.2875830  70.9050460  12.3572451  31.5437910
  70.1081623  12.4691145  32.0621406  70.6776052  12.6959103  30.6778801
  76.7356127  18.8817154  39.4920425  76.8000560  19.3437561  40.3278597
  76.0267051  18.2514519  39.6202735  67.2373417  12.2458362  37.0169425
  67.4881456  13.1305372  37.2827000  67.7732966  12.0662963  36.2444516
  91.0605517  15.6771859  33.6844686  90.3069225  15.1079257  33.5288690
  91.1953058  15.6434523  34.6315321  76.4504145  20.5485261  29.3599405
  76.3149820  21.3936797  29.7884253  76.9913957  20.7504539  28.5965339
  72.9371485   6.6276841  46.0213761  72.5438430   6.0743040  46.6961405
  73.7537625   6.9387420  46.4120278  69.9033542  18.0660699  29.9327330
  70.4158063  18.8603950  30.0832895  70.5556255  17.3686990  29.8660932
  71.7128427  21.1826456  32.0150084  71.8895055  22.1044420  31.8271068
  72.5085261  20.8684875  32.4444463  75.8539446   8.0434720  43.6134017
  76.5949159   8.6441873  43.5338480  76.0857368   7.3012358  43.0552060
  70.9980784  13.2291087  41.8912247  70.8834299  12.3276345  42.1919346
  70.1425301  13.4754784  41.5397063  78.0772621  21.1708828  43.4899747
  77.6336475  20.3845206  43.1720652  78.7389835  21.3587978  42.8243638
  72.8359742  22.7004629  38.0160426  73.3867168  22.5721693  37.2437420
  71.9971218  22.9999518  37.6655319  80.1753859  21.4511628  41.5181149
  80.1572335  22.2720509  41.0261418  81.0973779  21.3265703  41.7431290
  76.6326914  18.9655757  42.3604657  77.1655250  18.2044045  42.1303965
  76.1040995  18.6729409  43.1028812  79.7996608   4.0715823  37.8898299
  79.4560878   4.9617465  37.8137409  80.1675571   3.8817481  37.0267884
  67.8682459  16.3949354  30.7086901  68.7057681  16.8046362  30.4920609
  68.0460727  15.4548796  30.6787095  79.7646891  14.0624434  26.3970734
  79.2493515  14.8329039  26.6359121  79.4924200  13.3889570  27.0203795
  77.3494002   8.9074135  31.4555972  76.4935599   8.5180985  31.2761611
  77.7620954   8.9866096  30.5955758  78.8793149   6.4420478  35.8547532
  78.3757944   6.4050613  35.0415337  79.1723756   7.3513221  35.9144189
  75.1236035   6.5259208  34.8613714  75.9889032   6.3302017  34.5019603
  75.1913544   6.2969560  35.7883071  84.7381165  16.8156789  28.3323907
  83.9610608  16.4767948  27.8879070  85.4172646  16.8209412  27.6578872
  79.5533194  11.9351526  28.2230515  79.2483330  12.2497676  29.0740658
  80.5063636  12.0132946  28.2657848  77.9979626  18.0941750  29.8723469
  77.4700988  17.3594509  29.5596707  77.4967129  18.8716426  29.6263437
  82.9772472  16.2890770  34.9890515  82.3196147  16.9790032  35.0770644
  83.7812871  16.6787202  35.3324502  72.7298354   8.7561416  32.2330081
  73.3042106   8.5336597  31.5003274  73.3169336   8.8250110  32.9858682
  81.7877931  14.6435143  33.0394457  82.3009813  15.2765135  33.5416167
  82.4379155  14.0436338  32.6737817  73.0567941  10.7865877  26.2525966
  72.2205253  11.1240564  26.5735241  72.9172711  10.6514857  25.3153103
  75.0321022   5.6302665  30.9605150  74.3785434   5.3151682  30.3361765
  74.9901496   5.0078405  31.6864973  76.1432226  15.9121960  22.8758442
  75.2359288  15.6811213  23.0749591  76.6403258  15.1159579  23.0632424
  79.0500305  24.6219467  25.7955128  78.3762004  24.9251164  26.4040086
  79.4366127  25.4248547  25.4460585  78.2658762  12.1184598  35.2852798
  77.3481323  12.3399545  35.1274486  78.6818906  12.1930909  34.4264505
  79.0493810  13.5176014  30.4155478  79.7965629  14.0297411  30.1062600
  79.3185399  13.1960067  31.2759872  77.3220460  16.0134555  27.3982432
  76.4131679  15.7293588  27.4954902  77.3515544  16.4333633  26.5385739
  82.5539727  19.6241144  31.1673600  82.1002054  18.7832054  31.2238790
  81.9233694  20.2602543  31.5048380  81.4972647  10.5533130  32.3974267
  80.7595404  10.0410517  32.7284510  81.7499420  10.1133512  31.5857544
  80.9972666  21.4617641  32.1023418  81.2895641  22.0222698  31.3835784
  81.5071287  21.7546202  32.8576577  67.8908630  13.7340069  31.3797634
  67.6933030  13.1409430  30.6548701  67.3355294  13.4292279  32.0973573
  75.8705354  13.6263175  33.4992228  75.9253964  12.6737012  33.4234704
  75.0596556  13.7822615  33.9833526  77.0196548  17.5543298  24.7370511
  76.5815978  16.8379157  24.2776148  77.7606988  17.7819413  24.1755602
  73.8097714  12.2440235  31.2582606  72.9965579  12.5434406  31.6647799
  74.3056708  11.8495924  31.9757089  75.9606292  22.2397992  33.1916871
  75.9182470  22.4658838  32.2625403  76.8768991  22.0061367  33.3402672
  79.4071925  12.7082060  40.0897500  79.7621313  12.9353533  40.9491966
  80.0544057  13.0400436  39.4674756  85.1369662  15.8300496  30.7946829
  84.9987561  16.0202091  29.8668019  84.7805881  16.5919878  31.2514881
  73.3011789   9.8158591  36.8743841  73.9411168   9.6747350  36.1766805
  72.4689319   9.5293104  36.4982443  85.1639042  17.8977023  35.8058101
  85.5975549  17.8052312  36.6541155  85.8770623  17.8734523  35.1678117
  74.0772092  19.1161021  32.9878834  74.8712691  18.6211341  32.7861409
  73.3663785  18.5878884  32.6246539  78.8966937  21.4979117  37.3391201
  78.9503959  22.0670053  38.1068917  78.0281718  21.6681002  36.9745239
  70.3854856  13.2604103  29.0638587  69.4552444  13.1988558  29.2808549
  70.4812328  12.7380056  28.2675228  70.3040405   9.7858916  31.6516828
  70.5647222  10.7004249  31.5425989  71.1257577   9.3183358  31.8013441
  71.7765330  11.1996673  38.8215653  72.4488384  10.9914035  38.1728302
  70.9495117  11.0018759  38.3820885  86.0254592  17.9400723  38.3390986
  86.2190482  18.8446534  38.5850261  85.9255210  17.4808142  39.1729571
  77.6790902   7.8258614  40.8381314  77.0318817   8.5248563  40.7445790
  78.4491918   8.2594758  41.2057562  81.0869700  18.0907466  43.9131867
  80.9355207  17.8618018  42.9961951  81.0774380  19.0478067  43.9263212
  77.8555037  15.6639379  38.8978133  78.7847097  15.8150538  38.7247101
  77.4346067  15.7523399  38.0426780  76.6543368  19.6890043  36.6676671
  76.5154454  19.3208827  37.5402609  75.8657965  20.2037683  36.4960629
  77.2491520  24.7899140  28.0102207  77.4243276  24.3187183  28.8247830
  76.5624308  25.4164906  28.2383468  78.2048584  19.0671646  34.0565509
  77.8698416  19.0272416  34.9523159  77.7052529  18.4016362  33.5835919
  72.1792828  14.4739276  39.5818090  72.0412625  13.7419515  40.1829629
  73.0897751  14.3848176  39.3002278  81.1407775  16.4127680  24.3302568
  80.5236946  15.6874508  24.2335621  80.6724264  17.1737040  23.9869643
  74.8075128  14.1859235  39.0701770  75.5174747  13.5452427  39.0288388
  74.7644436  14.4372130  39.9927950  73.5204062  11.1724453  40.8897409
  72.9841419  10.7215191  41.5419005  72.9320771  11.3070362  40.1467873
  71.8152606  27.9388502  34.7842068  72.0549204  28.5707026  35.4621086
  70.9721802  27.5876542  35.0707427  72.9306321  10.6313104  23.4523873
  72.0535787  10.5101905  23.0886119  73.4064074   9.8399183  23.2002761
  82.7979314  19.0866172  40.2222328  81.9106093  18.7492094  40.3448727
  83.3677865  18.3549204  40.4591094  64.4508461  15.4190264  33.5465380
  65.1379501  15.1051994  32.9586395  64.2956590  16.3231629  33.2732631
  69.2543183  10.3080461  37.9750404  69.1701372   9.7006130  37.2400813
  68.4325890  10.7989479  37.9759900  76.3280468  23.7467625  37.1883572
  76.2550639  24.5522596  37.7002876  75.8857861  23.9459591  36.3631593
  76.1170247  22.9839395  30.6986393  75.3337769  23.5261075  30.7924618
  76.8162992  23.5013374  31.0980634  79.4266897   8.7934024  33.3420599
  79.9235597   8.0403987  33.0221669  78.6553879   8.8298341  32.7763808
  87.2796655  14.4974390  34.9838890  87.2686531  15.3799105  34.6132823
  86.4114034  14.1445941  34.7893427  78.7879151  23.6454459  39.3441730
  79.5007123  24.2801924  39.2717632  78.2969180  23.7418325  38.5281732
  80.5096678  17.5505711  30.9159022  79.5752957  17.6707174  30.7463726
  80.6873346  16.6478178  30.6519032  76.0101866  10.9351407  33.0692283
  75.6399654  10.3822448  33.7573189  76.5060959  10.3309541  32.5167283
  83.8969229  13.3923031  31.4509056  84.3629682  14.2251022  31.3769359
  84.3476730  12.9268012  32.1554315  73.8391065  21.3948902  40.1647301
  74.5400524  22.0285385  40.3176695  73.3686180  21.7363634  39.4042940
  81.9645460  19.7366852  28.4495208  82.2405304  19.6223447  29.3589082
  81.0949959  19.3384337  28.4107381  81.8685892   5.7603618  35.4899957
  80.9548972   5.9907845  35.6582164  82.2978994   5.8442062  36.3413990
  81.6392351  13.9493510  37.9899851  80.9863801  14.1969417  37.3352304
  82.0172730  13.1357648  37.6562329  78.5999524  23.9853203  32.0928022
  78.7821919  23.1674859  32.5555774  79.4232510  24.2020895  31.6552912
  78.9341690  22.9121388  29.3543070  79.4629456  22.4013843  28.7413232
  79.1969910  22.5963918  30.2188603  77.6879924  14.6913321  44.4765889
  77.0120561  14.5907450  45.1468264  78.5107557  14.5352535  44.9401886
  69.4358783  20.9285257  37.0978404  70.0212219  20.1828945  37.2306308
  69.2383621  21.2389214  37.9815068  72.2897438  23.9636505  32.1140846
  71.6207813  24.4482632  31.6304886  72.1510308  24.2105725  33.0284225
  64.0276437  13.4990858  35.8182847  64.0660537  12.9654448  36.6119965
  63.5216730  12.9726063  35.1993824  71.4067200   8.3455398  39.3145389
  71.4708526   9.2070229  38.9022787  71.3434320   7.7329400  38.5817748
  70.8819472  10.4178531  42.9618424  71.5091511  10.0355608  43.5755948
  70.0247391  10.1992733  43.3274116  67.6585015  12.2254960  28.8936778
  67.9538456  11.3165638  28.8403832  66.7573051  12.2042699  28.5717781
  71.1879262  10.3010956  34.8764327  70.4665848  10.9146924  34.7371800
  71.9772518  10.8368721  34.7980973  73.9905576   7.6365383  41.1504979
  74.5139977   7.8827679  41.9131288  73.7717909   8.4685418  40.7308116
  69.3872857   9.9069057  29.0176103  69.0585563   9.0266436  28.8351209
  69.7412227   9.8516726  29.9052493  78.6352435  21.5423960  33.5271089
  78.4877398  20.6140667  33.7078659  79.4605929  21.5644051  33.0428164
  72.5014680  10.1942027  29.3851581  72.8410752  10.7227948  28.6630190
  72.9486800  10.5322433  30.1610148  75.1958121   8.5779078  38.8354649
  74.8554941   7.7786891  39.2375329  74.4897127   8.8780789  38.2631482
  75.8474592   5.6628390  37.2881972  76.6700662   5.1888868  37.1660863
  76.0912656   6.4418874  37.7880659  74.4882827   8.6916649  27.5844874
  75.2091189   9.0697902  27.0808591  73.8648131   9.4105526  27.6879852
  78.6313950   9.3961798  28.5203206  78.8477564  10.2786436  28.2192034
  78.1508017   9.0048011  27.7908848  73.3713171  12.3547511  35.0973951
  73.2257752  12.6687814  35.9898232  72.8938375  12.9732411  34.5444849
  75.2309554   9.3450059  35.1454840  75.2171123   8.4491152  34.8087138
  75.9481982   9.3520723  35.7793126  77.0835685   9.7787399  37.1907968
  76.8253463  10.7004470  37.1892298  76.5520725   9.3817834  37.8808432
  82.0281873  22.8838186  29.9698053  82.2018751  22.3184609  29.2171906
  82.5210765  23.6839081  29.7877543  67.8458833  14.8952855  38.0361612
  67.3012301  15.6712663  38.1681886  68.7238183  15.2423660  37.8780733
  74.6346450   8.2264439  30.4142411  74.7562361   7.2981085  30.6133298
  74.3448492   8.2403125  29.5020726  77.5037640   5.9119350  33.5509130
  77.5259337   5.9758683  32.5961110  77.9205699   5.0723858  33.7449637
  87.8821265  15.6474609  31.5888353  88.3252411  14.8981934  31.1907476
  87.0047775  15.6384746  31.2062085  83.0157046  22.2004951  27.0694952
  83.7107951  22.8211643  27.2882266  83.3580196  21.3500302  27.3447329
  68.6324855  14.0222752  40.9291769  67.8906591  14.1705387  41.5156399
  68.3117599  14.2831017  40.0658518  84.9148469  19.6504656  28.5982282
  85.4399793  19.9891929  27.8731602  84.8270822  18.7151671  28.4145417
  76.5989130  25.7176639  32.9577535  76.1594120  25.2253018  33.6510392
  77.3497247  25.1749607  32.7169611  69.0781469  21.9088180  32.9602164
  69.9039489  21.6091952  32.5800807  68.7275521  21.1395803  33.4091952
  74.0463002  21.2614649  35.0299837  73.4243011  20.5985354  34.7302065
  74.7167869  21.2875780  34.3473485  67.2790074  19.8274507  33.9191097
  66.4421982  19.3996681  33.7375098  67.2513719  20.0206950  34.8561888
  74.1187529   9.7396437  44.6232343  74.1675685  10.6158559  44.2410113
  74.6610044   9.1973830  44.0503986  84.7240250  17.1330026  41.2166209
  84.7738255  16.9680034  42.1581732  84.6154174  16.2657285  40.8264090
  73.6076509  19.8118572  28.5058298  73.7564629  20.4954036  27.8524970
  74.4142952  19.7923662  29.0207753  82.0144013  13.1160954  42.5325515
  82.9153875  12.9767419  42.2409513  82.0891987  13.2815409  43.4723693
  76.3486818  10.4927809  41.3778702  75.4790127  10.7861375  41.1061290
  76.5846298  11.0768254  42.0985965  86.2258447  19.5526968  41.4608230
  85.9343255  19.9156948  42.2971691  85.6130578  18.8393976  41.2821562
  87.4254129  17.1179847  33.9810801  88.2601021  17.5569652  34.1448361
  87.5613258  16.6418501  33.1619046  84.4745635  14.6759582  39.9288288
  84.9499757  14.8687229  39.1207140  83.5511201  14.7318768  39.6831672
  71.3629142  15.8383750  29.5119367  71.1175184  14.9346080  29.7099577
  71.5325056  15.8400900  28.5698845  79.0525852   6.7107426  38.8944122
  79.5707796   7.4468453  38.5690611  78.6980985   7.0171419  39.7290881
  70.6324789  11.5712107  27.0105528  69.9394034  11.6456462  26.3545564
  70.3876541  10.8072451  27.5327045  77.1071914  22.3066702  25.9770045
  76.5345882  22.9256889  25.5240517  77.6804708  22.8566064  26.5109967
  83.1747304  11.5525342  38.1616594  84.1264727  11.6523440  38.1828818
  83.0050755  10.7603611  38.6714678  81.1961684   8.6380926  38.3475995
  80.6011616   8.9185938  37.6522483  80.9111380   9.1274827  39.1192736
  80.3269174  22.5903852  27.1078627  81.2599847  22.5249414  27.3111503
  80.2392387  23.4260119  26.6493160  82.9557191  21.9069723  24.0682575
  82.8770822  21.5729586  24.9618333  83.7766858  22.3991491  24.0674047
  85.6535382  14.7731462  37.2758894  85.6211702  13.8347463  37.4618577
  86.2636006  14.8515499  36.5424718  77.4918713  13.6427515  23.3186098
  78.4377818  13.5133723  23.3874516  77.1132958  12.9042177  23.7955526
  85.8029871  11.5642506  37.3217177  85.2868919  10.7800962  37.1347106
  86.6869819  11.2361222  37.4863696  83.4640597   5.3083521  33.2812989
  83.2665419   4.9998609  34.1656321  84.0740303   6.0345160  33.4110919
  91.4711932  15.8347469  36.4164930  92.2015320  15.5732757  36.9772634
  90.8618877  15.0976191  36.4566998  89.5527229  13.9755332  37.0139382
  88.8260393  13.8411296  36.4055873  89.1374516  14.2832160  37.8196100
  77.3757405  17.6945261  44.7786755  78.2960415  17.8723860  44.9726801
  77.3406989  16.7501307  44.6266454  75.6761630  11.5677491  23.2540983
  74.7693085  11.2710604  23.3303696  75.9537611  11.2707310  22.3875269
  66.5939570  12.8883855  33.7040029  66.2742355  12.0349163  33.4114403
  66.0472999  13.1032433  34.4597997  70.3719478  15.6046296  37.4209536
  70.5905488  16.5363404  37.4397570  70.7845252  15.2454270  38.2064340
  77.2923696   6.1114381  29.4085224  76.4824424   5.7661466  29.7840470
  77.9808113   5.8021925  29.9972836  79.2214244   5.1892428  31.0309521
  79.7745283   5.6087881  31.6899544  79.4584330   4.2628176  31.0732477
  75.2447343  11.1779502  46.8112285  75.1444070  12.1273859  46.7424376
  75.0268885  10.8497741  45.9388355  74.4460415   8.4264427  23.3952962
  75.3079579   8.7519325  23.6548779  74.6310759   7.6395923  22.8826028
  66.4627830  16.5086766  35.6733151  65.7691302  16.0940719  35.1603105
  67.2100821  16.5507303  35.0766570  82.5993051   7.2992953  30.5388185
  82.0191720   7.9577757  30.1566237  82.3328984   6.4770298  30.1275603
  81.0496618   6.6998011  32.7409505  81.5496396   6.8114545  31.9323824
  81.6932225   6.3959064  33.3810314  75.1078613  14.6076640  45.6277346
  74.6245695  15.4077001  45.8341235  75.1939552  14.6184585  44.6744790
  68.3764573  16.4405020  33.5499166  68.3535261  16.5392707  32.5981049
  68.6865209  17.2870171  33.8716332  71.0351951  18.4981175  37.6645780
  71.9895204  18.4665118  37.5975712  70.8364474  18.0371799  38.4796006
  71.6251333  17.0682291  40.2316578  72.4444222  17.5626370  40.2551415
  71.8988141  16.1514259  40.2034145  81.3817929   9.4593044  29.5944533
  80.4943784   9.7442694  29.3764728  81.7971918   9.2986807  28.7471810
  84.7332465   9.4839565  33.3098873  85.5092855   9.9736017  33.5823489
  84.0080600   9.9097619  33.7670742  87.1705024  10.1967184  34.3672813
  87.7649515   9.9562920  33.6566121  87.2431608   9.4774314  34.9946349
  69.3902180  24.0400795  34.6815978  69.2556648  23.2801196  34.1153976
  68.9734242  24.7641695  34.2144767  80.5261143  19.2237718  23.6892553
  81.2296993  19.4287721  24.3050209  79.8023791  19.7914480  23.9541637
  81.3558953  14.9747579  29.8094823  81.2994154  15.4316131  28.9702456
  81.9087295  14.2138264  29.6317666  85.1663759  10.7637311  30.6344943
  84.9100693  10.3633947  31.4653151  84.5416627  11.4781105  30.5095082
  89.4776097  13.5033385  33.1416234  88.9175655  13.5726574  33.9147796
  88.8719600  13.3274369  32.4215731  72.5471306  24.9370112  34.8934421
  72.4303690  25.8815544  34.7913111  71.7263752  24.6343673  35.2820220
  82.4347840  19.6620247  25.7391013  83.2693444  19.2301446  25.5568488
  82.2732183  19.4902261  26.6667908  82.0893732  16.1652361  27.1047353
  82.0342536  15.9996632  26.1635797  81.4639788  16.8728394  27.2609542
  66.8786247  11.4020425  40.9308775  67.5245111  10.8919379  41.4196000
  66.6703398  12.1389107  41.5052200  79.4039639  18.4701273  46.4300915
  80.2730799  18.6441925  46.0687550  78.9246391  19.2895689  46.3076645
  75.3989858   5.6660470  26.6832671  75.3868528   6.6102310  26.8400942
  76.2913280   5.4830615  26.3892132  75.3279422  24.3429360  34.7700428
  74.3775053  24.3431222  34.6564800  75.6311908  23.5962095  34.2536462
  71.2183738   8.5488042  45.0283789  72.0815200   8.1924847  45.2387114
  70.6449149   8.2101937  45.7159193  83.2363823  32.7412908  27.4706205
  84.0094699  32.1941895  27.3319081  83.5889222  33.6057157  27.6820666
  85.5730101  28.9005574  25.1024655  85.8255622  28.3787095  24.3408118
  84.6354660  28.7371719  25.2051338  96.0181811  27.8416586  33.8132377
  96.7506983  27.2715802  34.0470206  95.2621166  27.4538186  34.2538882
  85.2926390  30.8033680  27.3049030  85.1762648  30.1278583  27.9730114
  85.4028649  30.3166054  26.4881183  87.2763417  25.2933727  26.0057068
  87.4437820  26.1613963  26.3727539  87.0860587  25.4561008  25.0818357
  92.9537705  28.2212857  27.8184068  93.8655561  28.4540244  27.6431766
  92.4447352  28.8049902  27.2559147 101.8999271  31.0063777  33.6844686
 101.1462980  30.4371175  33.5288690 102.0346813  30.9726441  34.6315321
  90.6390363  19.4007741  37.8898299  90.2954632  20.2909383  37.8137409
  91.0069326  19.2109398  37.0267884  90.6040646  29.3916352  26.3970734
  90.0887269  30.1620957  26.6359121  90.3317954  28.7181488  27.0203795
  89.7186903  21.7712396  35.8547532  89.2151699  21.7342531  35.0415337
  90.0117510  22.6805139  35.9144189  85.9629789  21.8551126  34.8613714
  86.8282786  21.6593934  34.5019603  86.0307298  21.6261477  35.7883071
  95.5774920  32.1448707  28.3323907  94.8004363  31.8059866  27.8879070
  96.2566401  32.1501330  27.6578872  83.5692108  24.0853334  32.2330081
  84.1435860  23.8628515  31.5003274  84.1563091  24.1542028  32.9858682
  83.8961695  26.1157795  26.2525966  83.0599008  26.4532481  26.5735241
  83.7566465  25.9806774  25.3153103  85.8714776  20.9594583  30.9605150
  85.2179188  20.6443600  30.3361765  85.8295250  20.3370323  31.6864973
  86.9825981  31.2413878  22.8758442  86.0753043  31.0103131  23.0749591
  87.4797013  30.4451497  23.0632424  88.1614214  31.3426472  27.3982432
  87.2525434  31.0585505  27.4954902  88.1909298  31.7625551  26.5385739
  92.4378029  18.6601300  32.9916037  92.7436905  17.7998663  32.7041952
  93.1630633  19.2518920  32.7915030  87.8590302  32.8835216  24.7370511
  87.4209732  32.1671075  24.2776148  88.6000743  33.1111331  24.1755602
  95.9763417  31.1592413  30.7946829  95.8381315  31.3494009  29.8668019
  95.6199636  31.9211796  31.2514881  81.2248610  28.5896021  29.0638587
  80.2946198  28.5280476  29.2808549  81.3206082  28.0671973  28.2675228
  81.1434159  25.1150833  31.6516828  81.4040977  26.0296167  31.5425989
  81.9651332  24.6475276  31.8013441  91.9801530  31.7419598  24.3302568
  91.3630700  31.0166426  24.2335621  91.5118018  32.5028958  23.9869643
  83.7700076  25.9605022  23.4523873  82.8929542  25.8393823  23.0886119
  84.2457829  25.1691100  23.2002761  98.1190409  29.8266307  34.9838890
  98.1080285  30.7091023  34.6132823  97.2507789  29.4737858  34.7893427
  94.7362984  28.7214948  31.4509056  95.2023436  29.5542940  31.3769359
  95.1870484  28.2559930  32.1554315  92.7079647  21.0895535  35.4899957
  91.7942726  21.3199762  35.6582164  93.1372748  21.1733979  36.3413990
  78.4978769  27.5546877  28.8936778  78.7932211  26.6457556  28.8403832
  77.5966805  27.5334617  28.5717781  80.2266611  25.2360975  29.0176103
  79.8979317  24.3558354  28.8351209  80.5805982  25.1808644  29.9052493
  83.3408434  25.5233945  29.3851581  83.6804507  26.0519866  28.6630190
  83.7880555  25.8614351  30.1610148  86.6868347  20.9920308  37.2881972
  87.5094416  20.5180786  37.1660863  86.9306410  21.7710792  37.7880659
  85.3276581  24.0208566  27.5844874  86.0484944  24.3989819  27.0808591
  84.7041885  24.7397443  27.6879852  85.4740204  23.5556357  30.4142411
  85.5956116  22.6273003  30.6133298  85.1842247  23.5695043  29.5020726
  88.3431395  21.2411267  33.5509130  88.3653092  21.3050600  32.5961110
  88.7599454  20.4015776  33.7449637  98.7215019  30.9766527  31.5888353
  99.1646165  30.2273852  31.1907476  97.8441529  30.9676663  31.2062085
  93.8550800  37.5296868  27.0694952  94.5501705  38.1503561  27.2882266
  94.1973951  36.6792220  27.3447329  81.4718544  26.9004025  27.0105528
  80.7787789  26.9748380  26.3545564  81.2270296  26.1364368  27.5327045
  90.1432200  18.4599626  34.4145019  90.4233954  17.7922815  35.0405445
  90.9282807  18.6528722  33.9019683  93.7950945  37.2361640  24.0682575
  93.7164577  36.9021504  24.9618333  94.6160612  37.7283408  24.0674047
  88.3312467  28.9719433  23.3186098  89.2771572  28.8425641  23.3874516
  87.9526712  28.2334095  23.7955526  96.6423625  26.8934423  37.3217177
  96.1262674  26.1092880  37.1347106  97.5263574  26.5653140  37.4863696
  94.3034352  20.6375439  33.2812989  94.1059173  20.3290527  34.1656321
  94.9134058  21.3637078  33.4110919 102.3105686  31.1639387  36.4164930
 103.0409075  30.9024675  36.9772634 101.7012632  30.4268109  36.4566998
  86.5155385  26.8969409  23.2540983  85.6086840  26.6002522  23.3303696
  86.7931366  26.5999227  22.3875269  88.1317450  21.4406299  29.4085224
  87.3218179  21.0953384  29.7840470  88.8201867  21.1313843  29.9972836
  90.0607999  20.5184346  31.0309521  90.6139037  20.9379799  31.6899544
  90.2978085  19.5920094  31.0732477  85.2854169  23.7556344  23.3952962
  86.1473333  24.0811243  23.6548779  85.4704513  22.9687840  22.8826028
  93.4386806  22.6284871  30.5388185  92.8585475  23.2869675  30.1566237
  93.1722738  21.8062215  30.1275603  91.8890372  22.0289929  32.7409505
  92.3890150  22.1406463  31.9323824  92.5325980  21.7250981  33.3810314
  95.5726220  24.8131482  33.3098873  96.3486610  25.3027935  33.5823489
  94.8474354  25.2389536  33.7670742  98.0098778  25.5259101  34.3672813
  98.6043269  25.2854837  33.6566121  98.0825362  24.8066232  34.9946349
  91.3654897  34.5529636  23.6892553  92.0690747  34.7579638  24.3050209
  90.6417546  35.1206398  23.9541637  96.0057513  26.0929229  30.6344943
  95.7494448  25.6925865  31.4653151  95.3810381  26.8073023  30.5095082
 100.3169851  28.8325302  33.1416234  99.7569409  28.9018492  33.9147796
  99.7113355  28.6566287  32.4215731  93.2741595  34.9912165  25.7391013
  94.1087198  34.5593364  25.5568488  93.1125937  34.8194179  26.6667908
  92.9287487  31.4944278  27.1047353  92.8736291  31.3288550  26.1635797
  92.3033542  32.2020311  27.2609542  86.2383612  20.9952387  26.6832671
  86.2262282  21.9394227  26.8400942  87.1307034  20.8122533  26.3892132
  90.0535732  17.5895164  30.9378608  89.2868127  17.0353651  31.0835290
  90.4646437  17.6617033  31.7992759 101.9025870  45.5081816  35.8346190
 102.5404280  45.3888564  35.1309530 101.7846713  46.4562660  35.8934142
  98.7115576  45.4609244  35.7707715  98.3734087  45.3450309  34.8828250
  99.5805344  45.0600409  35.7508721  94.5702392  47.3144721  31.7604606
  94.0067257  47.2234658  30.9920893  94.4554787  46.4944625  32.2407098
  99.1935359  46.6144096  41.7293920  99.1824000  46.2196894  40.8574424
  99.3555998  45.8810169  42.3227692  92.1166824  48.8095912  34.5988826
  92.9088115  48.4686737  34.1835125  92.3563474  48.9190887  35.5190979
 100.1501950  50.9815688  27.0719071  99.4989930  51.5669769  26.6853084
 100.9446313  51.5121883  27.1314108  94.0757578  48.0704826  27.4706205
  94.8488454  47.5233813  27.3319081  94.4282976  48.9349075  27.6820666
  95.9142620  49.3981208  40.6773104  95.6232486  50.3026839  40.5619771
  96.5499604  49.4397735  41.3917174  96.8398827  46.7758056  37.2674464
  97.4362399  46.5514079  36.5531427  96.8973798  46.0342802  37.8699912
  96.4123855  44.2297492  25.1024655  96.6649376  43.7079013  24.3408118
  95.4748414  44.0663637  25.2051338 101.4567138  43.2333270  32.9099398
 102.2430227  42.8152693  32.5589815 101.7205842  44.1379362  33.0781046
 101.6277215  48.6706120  27.6088055 100.9923048  48.7440747  28.3208960
 101.2974622  49.2599719  26.9307134 106.8575565  43.1708503  33.8132377
 107.5900737  42.6007720  34.0470206 106.1014921  42.7830104  34.2538882
  96.1320144  46.1325598  27.3049030  96.0156402  45.4570501  27.9730114
  96.2422404  45.6457972  26.4881183  98.4751685  45.5935745  31.0095719
  98.1109892  45.0666366  31.7208641  99.3318801  45.2034214  30.8362204
 104.3800986  36.8830077  38.2726985 104.0484310  37.7525488  38.0488200
 103.7846599  36.5666361  38.9521016  98.1157172  40.6225644  26.0057068
  98.2831574  41.4905881  26.3727539  97.9254341  40.7852926  25.0818357
 100.8732505  49.0842623  37.6722898 100.5733228  49.9867662  37.5638705
 100.5283565  48.8174807  38.5244051  94.3244987  45.5356420  33.7059602
  93.3995483  45.4032634  33.9137294  94.5729400  46.3150639  34.2029545
 104.2729649  41.6025164  35.3520335 103.3646526  41.5340572  35.0579096
 104.2217245  42.0797108  36.1802161  98.0946393  43.0783302  26.9903734
  97.9746018  43.5240353  27.8289215  97.3998981  43.4268620  26.4317273
  95.8553285  55.8486944  30.6393866  95.7777315  56.7994769  30.7182346
  95.2514929  55.5032816  31.2968792 106.1391295  39.8041602  37.1298209
 105.4965676  40.0974135  36.4838004 105.6346224  39.6894522  37.9351406
 103.7931459  43.5504775  27.8184068 104.7049315  43.7832162  27.6431766
 103.2841106  44.1341819  27.2559147  96.6016887  45.8300262  42.8573200
  97.3431571  46.3685306  42.5808023  95.8953873  46.4566551  43.0144751
 102.0772227  47.9729403  41.4545361 102.4855583  47.5311813  40.7099993
 101.3549488  47.3982030  41.7079554 102.4001041  48.5330594  35.2097650
 101.7709904  48.6976308  34.5073718 102.0126703  48.9472203  35.9808614
 106.2790273  49.4685031  32.5642014 105.5941311  49.8483933  32.0139047
 106.3634123  50.0780358  33.2973961 103.5341205  47.1144990  39.1637357
 103.7458100  47.7576750  38.4871738 103.4870953  46.2807307  38.6959287
  97.9529003  48.2705002  32.4747735  98.4167349  48.5492705  31.6852358
  97.6885801  47.3688446  32.2920826  94.8453084  47.8176483  35.4127498
  95.4154441  48.2463752  34.7744983  95.4361196  47.5359068  36.1111684
  96.8897889  44.3928154  29.2837300  97.5921933  44.8449198  29.7511227
  96.5578518  43.7511973  29.9117193 104.6487033  49.9916946  37.3359715
 105.4704476  49.5897133  37.0542396 104.6449436  49.8885180  38.2875830
  98.4143636  49.5400989  39.4920425  98.4788069  50.0021396  40.3278597
  97.7054560  48.9098354  39.6202735 112.7393026  46.3355694  33.6844686
 111.9856734  45.7663092  33.5288690 112.8740567  46.3018359  34.6315321
  98.1291654  51.2069097  29.3599405  97.9937329  52.0520632  29.7884253
  98.6701466  51.4088374  28.5965339  91.5821051  48.7244535  29.9327330
  92.0945572  49.5187785  30.0832895  92.2343764  48.0270825  29.8660932
  93.3915936  51.8410291  32.0150084  93.5682564  52.7628256  31.8271068
  94.1872769  51.5268710  32.4444463  99.7560130  51.8292663  43.4899747
  99.3123984  51.0429042  43.1720652 100.4177344  52.0171814  42.8243638
  94.5147251  53.3588465  38.0160426  95.0654677  53.2305528  37.2437420
  93.6758727  53.6583354  37.6655319 101.8541368  52.1095463  41.5181149
 101.8359844  52.9304344  41.0261418 102.7761288  51.9849538  41.7431290
  98.3114422  49.6239593  42.3604657  98.8442759  48.8627881  42.1303965
  97.7828504  49.3313244  43.1028812  89.5469968  47.0533189  30.7086901
  90.3845190  47.4630197  30.4920609  89.7248236  46.1132631  30.6787095
 101.4434400  44.7208270  26.3970734 100.9281024  45.4912874  26.6359121
 101.1711709  44.0473406  27.0203795 106.4168674  47.4740624  28.3323907
 105.6398117  47.1351784  27.8879070 107.0960155  47.4793247  27.6578872
 101.2320703  42.5935362  28.2230515 100.9270839  42.9081511  29.0740658
 102.1851145  42.6716782  28.2657848  99.6767135  48.7525585  29.8723469
  99.1488497  48.0178345  29.5596707  99.1754638  49.5300261  29.6263437
 104.6559981  46.9474606  34.9890515 103.9983656  47.6373867  35.0770644
 105.4600380  47.3371037  35.3324502 103.4665440  45.3018978  33.0394457
 103.9797322  45.9348970  33.5416167 104.1166664  44.7020174  32.6737817
  94.7355450  41.4449712  26.2525966  93.8992762  41.7824399  26.5735241
  94.5960220  41.3098692  25.3153103  97.8219735  46.5705795  22.8758442
  96.9146797  46.3395049  23.0749591  98.3190767  45.7743415  23.0632424
 100.7287814  55.2803302  25.7955128 100.0549513  55.5834999  26.4040086
 101.1153636  56.0832383  25.4460585  99.9446271  42.7768434  35.2852798
  99.0268832  42.9983381  35.1274486 100.3606414  42.8514744  34.4264505
 100.7281319  44.1759849  30.4155478 101.4753138  44.6881247  30.1062600
 100.9972908  43.8543902  31.2759872  99.0007969  46.6718390  27.3982432
  98.0919188  46.3877423  27.4954902  99.0303053  47.0917469  26.5385739
 104.2327236  50.2824980  31.1673600 103.7789563  49.4415890  31.2238790
 103.6021203  50.9186378  31.5048380 103.1760156  41.2116966  32.3974267
 102.4382913  40.6994352  32.7284510 103.4286929  40.7717347  31.5857544
 102.6760175  52.1201476  32.1023418 102.9683150  52.6806533  31.3835784
 103.1858796  52.4130037  32.8576577 103.2771783  33.9893218  32.9916037
 103.5830660  33.1290581  32.7041952 104.0024388  34.5810838  32.7915030
  97.5492863  44.2847011  33.4992228  97.6041473  43.3320847  33.4234704
  96.7384065  44.4406450  33.9833526  98.6984057  48.2127134  24.7370511
  98.2603487  47.4962993  24.2776148  99.4394497  48.4403249  24.1755602
  95.4885223  42.9024071  31.2582606  94.6753088  43.2018241  31.6647799
  95.9844217  42.5079759  31.9757089  97.6393801  52.8981827  33.1916871
  97.5969979  53.1242674  32.2625403  98.5556500  52.6645202  33.3402672
 101.0859434  43.3665895  40.0897500 101.4408822  43.5937368  40.9491966
 101.7331566  43.6984272  39.4674756 106.8157171  46.4884331  30.7946829
 106.6775070  46.6785927  29.8668019 106.4593390  47.2503714  31.2514881
 106.8426551  48.5560858  35.8058101 107.2763058  48.4636147  36.6541155
 107.5558132  48.5318358  35.1678117  95.7559601  49.7744856  32.9878834
  96.5500200  49.2795177  32.7861409  95.0451294  49.2462720  32.6246539
 100.5754446  52.1562952  37.3391201 100.6291468  52.7253888  38.1068917
  99.7069227  52.3264837  36.9745239  92.0642365  43.9187938  29.0638587
  91.1339953  43.8572394  29.2808549  92.1599837  43.3963891  28.2675228
 107.7042101  48.5984559  38.3390986 107.8977991  49.5030369  38.5850261
 107.6042719  48.1391978  39.1729571 102.7657209  48.7491301  43.9131867
 102.6142716  48.5201853  42.9961951 102.7561889  49.7061903  43.9263212
  99.5342546  46.3223214  38.8978133 100.4634606  46.4734374  38.7247101
  99.1133576  46.4107235  38.0426780  98.3330877  50.3473878  36.6676671
  98.1941963  49.9792663  37.5402609  97.5445474  50.8621518  36.4960629
  98.9279029  55.4482975  28.0102207  99.1030785  54.9771018  28.8247830
  98.2411817  56.0748741  28.2383468  99.8836093  49.7255481  34.0565509
  99.5485925  49.6856251  34.9523159  99.3840038  49.0600197  33.5835919
 102.8195284  47.0711515  24.3302568 102.2024455  46.3458344  24.2335621
 102.3511773  47.8320876  23.9869643 104.4749416  51.7810424  41.9908349
 104.4161962  51.0969644  41.3238932 104.8768934  52.5229414  41.5388975
  93.4940115  58.5972338  34.7842068  93.7336713  59.2290862  35.4621086
  92.6509311  58.2460378  35.0707427  94.6093830  41.2896940  23.4523873
  93.7323296  41.1685741  23.0886119  95.0851583  40.4983018  23.2002761
 104.4766823  49.7450008  40.2222328 103.5893602  49.4075930  40.3448727
 105.0465374  49.0133039  40.4591094  98.0067977  54.4051460  37.1883572
  97.9338148  55.2106432  37.7002876  97.5645370  54.6043426  36.3631593
  97.7957756  53.6423230  30.6986393  97.0125278  54.1844910  30.7924618
  98.4950501  54.1597210  31.0980634 108.9584164  45.1558225  34.9838890
 108.9474040  46.0382941  34.6132823 108.0901543  44.8029776  34.7893427
 100.4666660  54.3038294  39.3441730 101.1794632  54.9385759  39.2717632
  99.9756689  54.4002160  38.5281732 102.1884187  48.2089547  30.9159022
 101.2540466  48.3291009  30.7463726 102.3660855  47.3062014  30.6519032
  97.6889375  41.5935243  33.0692283  97.3187163  41.0406283  33.7573189
  98.1848467  40.9893376  32.5167283 105.5756738  44.0506866  31.4509056
 106.0417191  44.8834858  31.3769359 106.0264239  43.5851848  32.1554315
  95.5178574  52.0532738  40.1647301  96.2188033  52.6869221  40.3176695
  95.0473689  52.3947469  39.4042940 103.6432969  50.3950687  28.4495208
 103.9192813  50.2807282  29.3589082 102.7737468  49.9968172  28.4107381
 103.5473401  36.4187453  35.4899957 102.6336481  36.6491680  35.6582164
 103.9766503  36.5025897  36.3413990 103.3179860  44.6077345  37.9899851
 102.6651310  44.8553253  37.3352304 103.6960239  43.7941483  37.6562329
 100.2787033  54.6437038  32.0928022 100.4609428  53.8258694  32.5555774
 101.1020019  54.8604730  31.6552912 100.6129199  53.5705223  29.3543070
 101.1416965  53.0597678  28.7413232 100.8757419  53.2547754  30.2188603
  99.3667433  45.3497156  44.4765889  98.6908070  45.2491285  45.1468264
 100.1895066  45.1936370  44.9401886  91.1146292  51.5869093  37.0978404
  91.6999728  50.8412781  37.2306308  90.9171130  51.8973049  37.9815068
  93.9684947  54.6220340  32.1140846  93.2995322  55.1066468  31.6304886
  93.8297817  54.8689560  33.0284225  98.1090215  56.6564084  38.7123505
  98.6608523  56.8195705  39.4772590  98.4496409  57.2468521  38.0403529
 102.9601090  51.4825341  44.5672159 103.5040994  52.0955299  44.0727114
 102.3787935  52.0404919  45.0839172 101.2458603  54.6046059  35.6987187
 101.1209742  53.8035799  35.1898132 101.9037694  55.0992252  35.2101157
 103.3093511  52.4055079  37.3266737 102.3623847  52.2860430  37.2545064
 103.6576284  51.5177577  37.4092998 100.3139944  52.2007795  33.5271089
 100.1664907  51.2724503  33.7078659 101.1393438  52.2227886  33.0428164
  94.1802189  40.8525862  29.3851581  94.5198261  41.3811784  28.6630190
  94.6274309  41.1906269  30.1610148 103.9174066  53.0236354  34.6135962
 104.8420614  52.8179215  34.4760413 103.7489370  52.7752755  35.5225303
  96.1670336  39.3500484  27.5844874  96.8878698  39.7281737  27.0808591
  95.5435640  40.0689361  27.6879852 100.3101459  40.0545633  28.5203206
 100.5265073  40.9370271  28.2192034  99.8295526  39.6631846  27.7908848
 103.7069382  53.5422022  29.9698053 103.8806260  52.9768444  29.2171906
 104.1998274  54.3422916  29.7877543 109.5608774  46.3058445  31.5888353
 110.0039920  45.5565770  31.1907476 108.6835284  46.2968581  31.2062085
 104.6944555  52.8588786  27.0694952 105.3895460  53.4795479  27.2882266
 105.0367705  52.0084137  27.3447329 106.5935978  50.3088492  28.5982282
 107.1187302  50.6475764  27.8731602 106.5058331  49.3735507  28.4145417
  98.2556027  54.2222565  40.7272159  98.5643153  53.9771712  41.5994858
  99.0531509  54.4269204  40.2391029  98.2776639  56.3760475  32.9577535
  97.8381629  55.8836853  33.6510392  99.0284756  55.8333442  32.7169611
  90.7568978  52.5672016  32.9602164  91.5826998  52.2675788  32.5800807
  90.4063030  51.7979638  33.4091952  95.7250511  51.9198484  35.0299837
  95.1030520  51.2569189  34.7302065  96.3955378  51.9459616  34.3473485
  88.9577583  50.4858342  33.9191097  88.1209491  50.0580516  33.7375098
  88.9301228  50.6790785  34.8561888 106.2829884  50.9421395  43.9033480
 105.4925428  50.9245534  43.3637980 106.0463239  51.4809689  44.6582517
 106.4027759  47.7913862  41.2166209 106.4525764  47.6263869  42.1581732
 106.2941683  46.9241121  40.8264090  95.2864018  50.4702407  28.5058298
  95.4352138  51.1537872  27.8524970  96.0930461  50.4507497  29.0207753
 103.6931522  43.7744790  42.5325515 104.5941384  43.6351254  42.2409513
 103.7679496  43.9399244  43.4723693 107.9045956  50.2110803  41.4608230
 107.6130764  50.5740784  42.2971691 107.2918087  49.4977811  41.2821562
 109.1041638  47.7763683  33.9810801 109.9388530  48.2153487  34.1448361
 109.2400767  47.3002336  33.1619046 106.1533144  45.3343418  39.9288288
 106.6287266  45.5271064  39.1207140 105.2298710  45.3902604  39.6831672
  93.0416651  46.4967585  29.5119367  92.7962693  45.5929915  29.7099577
  93.2112565  46.4984735  28.5698845  92.3112298  42.2295942  27.0105528
  91.6181543  42.3040297  26.3545564  92.0664050  41.4656286  27.5327045
  98.7859423  52.9650538  25.9770045  98.2133391  53.5840725  25.5240517
  99.3592217  53.5149899  26.5109967 104.8534813  42.2109178  38.1616594
 105.8052236  42.3107275  38.1828818 104.6838264  41.4187446  38.6714678
 102.0056683  53.2487688  27.1078627 102.9387356  53.1833249  27.3111503
 101.9179896  54.0843955  26.6493160 104.6344700  52.5653558  24.0682575
 104.5558331  52.2313422  24.9618333 105.4554367  53.0575326  24.0674047
 107.3322891  45.4315297  37.2758894 107.2999211  44.4931298  37.4618577
 107.9423515  45.5099334  36.5424718  99.1706222  44.3011350  23.3186098
 100.1165327  44.1717559  23.3874516  98.7920467  43.5626012  23.7955526
 107.4817380  42.2226341  37.3217177 106.9656428  41.4384798  37.1347106
 108.3657328  41.8945058  37.4863696 105.1428106  35.9667356  33.2812989
 104.9452928  35.6582445  34.1656321 105.7527812  36.6928995  33.4110919
 113.1499441  46.4931304  36.4164930 113.8802829  46.2316592  36.9772634
 112.5406386  45.7560026  36.4566998 111.2314738  44.6339167  37.0139382
 110.5047902  44.4995132  36.4055873 110.8162025  44.9415995  37.8196100
  99.0544914  48.3529097  44.7786755  99.9747924  48.5307696  44.9726801
  99.0194497  47.4085142  44.6266454  97.3549139  42.2261327  23.2540983
  96.4480594  41.9294440  23.3303696  97.6325120  41.9291145  22.3875269
 100.9001753  35.8476263  31.0309521 101.4532792  36.2671717  31.6899544
 101.1371839  34.9212011  31.0732477  96.1247924  39.0848262  23.3952962
  96.9867088  39.4103160  23.6548779  96.3098268  38.2979758  22.8826028
 104.2780560  37.9576788  30.5388185 103.6979229  38.6161593  30.1566237
 104.0116493  37.1354133  30.1275603 102.7284127  37.3581846  32.7409505
 103.2283905  37.4698381  31.9323824 103.3719734  37.0542899  33.3810314
  96.7866122  45.2660476  45.6277346  96.3033204  46.0660836  45.8341235
  96.8727061  45.2768421  44.6744790  90.0552082  47.0988855  33.5499166
  90.0322770  47.1976543  32.5981049  90.3652718  47.9454006  33.8716332
  92.7139460  49.1565011  37.6645780  93.6682713  49.1248953  37.5975712
  92.5151983  48.6955634  38.4796006 103.0605438  40.1176879  29.5944533
 102.1731293  40.4026529  29.3764728 103.4759427  39.9570642  28.7471810
 106.4119974  40.1423400  33.3098873 107.1880364  40.6319852  33.5823489
 105.6868108  40.5681454  33.7670742 108.8492533  40.8551019  34.3672813
 109.4437024  40.6146755  33.6566121 108.9219117  40.1358150  34.9946349
  91.0689689  54.6984630  34.6815978  90.9344157  53.9385031  34.1153976
  90.6521751  55.4225530  34.2144767 102.2048652  49.8821554  23.6892553
 102.9084502  50.0871556  24.3050209 101.4811300  50.4498315  23.9541637
 103.0346462  45.6331415  29.8094823 102.9781663  46.0899966  28.9702456
 103.5874804  44.8722099  29.6317666 106.8451268  41.4221147  30.6344943
 106.5888202  41.0217782  31.4653151 106.2204136  42.1364941  30.5095082
 111.1563606  44.1617220  33.1416234 110.5963164  44.2310409  33.9147796
 110.5507109  43.9858205  32.4215731  94.2258815  55.5953947  34.8934421
  94.1091199  56.5399380  34.7913111  93.4051261  55.2927509  35.2820220
 104.1135349  50.3204083  25.7391013 104.9480953  49.8885281  25.5568488
 103.9519692  50.1486096  26.6667908 103.7681241  46.8236196  27.1047353
 103.7130045  46.6580467  26.1635797 103.1427297  47.5312229  27.2609542
 101.0827148  49.1285108  46.4300915 101.9518308  49.3025760  46.0687550
 100.6033900  49.9479525  46.3076645  97.0777367  36.3244305  26.6832671
  97.0656037  37.2686145  26.8400942  97.9700789  36.1414450  26.3892132
  95.2513329  56.2482209  38.1090349  96.1540575  56.2805819  38.4256844
  95.0250699  55.3182660  38.1236685  97.0066931  55.0013195  34.7700428
  96.0562562  55.0015057  34.6564800  97.3099417  54.2545930  34.2536462
 100.8929486  32.9187082  30.9378608 100.1261882  32.3645568  31.0835290
 101.3040191  32.9908950  31.7992759 112.7419624  60.8373734  35.8346190
 113.3798034  60.7180481  35.1309530 112.6240467  61.7854578  35.8934142
 109.5509330  60.7901162  35.7707715 109.2127842  60.6742227  34.8828250
 110.4199099  60.3892327  35.7508721 105.4096146  62.6436638  31.7604606
 104.8461011  62.5526575  30.9920893 105.2948541  61.8236543  32.2407098
 110.0329113  61.9436014  41.7293920 110.0217754  61.5488812  40.8574424
 110.1949753  61.2102086  42.3227692 102.9560578  64.1387830  34.5988826
 103.7481870  63.7978655  34.1835125 103.1957228  64.2482805  35.5190979
 110.9895705  66.3107606  27.0719071 110.3383685  66.8961686  26.6853084
 111.7840068  66.8413801  27.1314108 104.9151332  63.3996743  27.4706205
 105.6882208  62.8525730  27.3319081 105.2676731  64.2640993  27.6820666
 106.7536375  64.7273125  40.6773104 106.4626241  65.6318756  40.5619771
 107.3893359  64.7689653  41.3917174 107.6792581  62.1049974  37.2674464
 108.2756154  61.8805996  36.5531427 107.7367553  61.3634719  37.8699912
 107.2517610  59.5589409  25.1024655 107.5043130  59.0370931  24.3408118
 106.3142169  59.3955555  25.2051338 112.2960893  58.5625188  32.9099398
 113.0823982  58.1444611  32.5589815 112.5599597  59.4671280  33.0781046
 112.4670970  63.9998038  27.6088055 111.8316803  64.0732665  28.3208960
 112.1368376  64.5891637  26.9307134 117.6969320  58.5000421  33.8132377
 118.4294492  57.9299638  34.0470206 116.9408675  58.1122021  34.2538882
 106.9713899  61.4617515  27.3049030 106.8550157  60.7862419  27.9730114
 107.0816158  60.9749889  26.4881183 109.3145439  60.9227662  31.0095719
 108.9503647  60.3958283  31.7208641 110.1712555  60.5326131  30.8362204
 115.2194740  52.2121995  38.2726985 114.8878065  53.0817406  38.0488200
 114.6240354  51.8958279  38.9521016 108.9550926  55.9517562  26.0057068
 109.1225329  56.8197799  26.3727539 108.7648096  56.1144844  25.0818357
 111.7126260  64.4134541  37.6722898 111.4126983  65.3159580  37.5638705
 111.3677319  64.1466724  38.5244051 105.1638741  60.8648338  33.7059602
 104.2389238  60.7324552  33.9137294 105.4123154  61.6442557  34.2029545
 115.1123403  56.9317081  35.3520335 114.2040281  56.8632490  35.0579096
 115.0610999  57.4089026  36.1802161 108.9340147  58.4075220  26.9903734
 108.8139773  58.8532270  27.8289215 108.2392736  58.7560537  26.4317273
 102.5247552  60.5081611  34.5403391 102.6539933  60.7616090  35.4542803
 101.8445003  61.1009319  34.2208047 106.6947039  71.1778861  30.6393866
 106.6171069  72.1286686  30.7182346 106.0908683  70.8324734  31.2968792
 109.1864269  58.3506727  43.2955233 108.4097603  58.9100647  43.2858097
 109.8254832  58.8363510  43.8170103 116.9785050  55.1333520  37.1298209
 116.3359430  55.4266053  36.4838004 116.4739978  55.0186440  37.9351406
 114.6325214  58.8796693  27.8184068 115.5443070  59.1124080  27.6431766
 114.1234861  59.4633737  27.2559147 107.4410642  61.1592180  42.8573200
 108.1825326  61.6977224  42.5808023 106.7347627  61.7858469  43.0144751
 112.9165981  63.3021321  41.4545361 113.3249337  62.8603731  40.7099993
 112.1943243  62.7273948  41.7079554 109.2697051  58.2393927  38.8278918
 110.1158246  58.6633341  38.9713567 109.2095689  57.5827552  39.5217481
 113.2394796  63.8622511  35.2097650 112.6103658  64.0268225  34.5073718
 112.8520458  64.2764121  35.9808614 117.1184028  64.7976949  32.5642014
 116.4335066  65.1775850  32.0139047 117.2027877  65.4072276  33.2973961
 112.4196497  55.8998296  40.4860092 112.1757428  56.6540356  39.9494367
 112.6956427  56.2783643  41.3207339 114.3734959  62.4436908  39.1637357
 114.5851855  63.0868668  38.4871738 114.3264708  61.6099225  38.6959287
 111.9761188  55.0554729  36.0673929 111.1145667  55.3535982  36.3590667
 112.0023623  55.2725128  35.1354962 108.7922758  63.5996919  32.4747735
 109.2561103  63.8784622  31.6852358 108.5279556  62.6980364  32.2920826
 105.6846839  63.1468401  35.4127498 106.2548196  63.5755669  34.7744983
 106.2754951  62.8650986  36.1111684 107.7291644  59.7220072  29.2837300
 108.4315687  60.1741115  29.7511227 107.3972272  59.0803891  29.9117193
 106.1772005  58.3131828  43.6588510 105.5470666  58.9948109  43.8923906
 106.0708093  58.2014910  42.7141648 101.4716978  57.9803624  34.5854434
 100.6816032  58.2361153  34.1094544 101.9628225  58.7951962  34.6906474
 115.4880787  65.3208864  37.3359715 116.3098231  64.9189051  37.0542396
 115.4843190  65.2177098  38.2875830 103.4231723  58.3448204  31.5437910
 102.6262886  58.4566898  32.0621406 103.1957315  58.6834856  30.6778801
 109.2537391  64.8692907  39.4920425 109.3181823  65.3313314  40.3278597
 108.5448315  64.2390272  39.6202735  99.7554681  58.2334115  37.0169425
 100.0062719  59.1181125  37.2827000 100.2914229  58.0538716  36.2444516
 108.9685408  66.5361014  29.3599405 108.8331083  67.3812550  29.7884253
 109.5095221  66.7380292  28.5965339 105.4552748  52.6152594  46.0213761
 105.0619694  52.0618793  46.6961405 106.2718888  52.9263173  46.4120278
 102.4214806  64.0536452  29.9327330 102.9339326  64.8479703  30.0832895
 103.0737519  63.3562743  29.8660932 104.2309690  67.1702209  32.0150084
 104.4076319  68.0920173  31.8271068 105.0266524  66.8560628  32.4444463
 108.3720709  54.0310473  43.6134017 109.1130422  54.6317626  43.5338480
 108.6038632  53.2888111  43.0552060 103.5162047  59.2166841  41.8912247
 103.4015562  58.3152098  42.1919346 102.6606565  59.4630537  41.5397063
 110.5953885  67.1584581  43.4899747 110.1517739  66.3720959  43.1720652
 111.2571098  67.3463731  42.8243638 105.3541006  68.6880382  38.0160426
 105.9048431  68.5597446  37.2437420 104.5152482  68.9875271  37.6655319
 112.6935123  67.4387381  41.5181149 112.6753598  68.2596262  41.0261418
 113.6155043  67.3141456  41.7431290 109.1508177  64.9531510  42.3604657
 109.6836514  64.1919798  42.1303965 108.6222258  64.6605162  43.1028812
 112.3177872  50.0591576  37.8898299 111.9742141  50.9493218  37.8137409
 112.6856835  49.8693234  37.0267884 100.3863723  62.3825107  30.7086901
 101.2238945  62.7922115  30.4920609 100.5641990  61.4424549  30.6787095
 112.2828155  60.0500187  26.3970734 111.7674778  60.8204792  26.6359121
 112.0105463  59.3765323  27.0203795 109.8675266  54.8949888  31.4555972
 109.0116862  54.5056738  31.2761611 110.2802217  54.9741849  30.5955758
 111.3974412  52.4296231  35.8547532 110.8939208  52.3926367  35.0415337
 111.6905019  53.3388974  35.9144189 107.6417298  52.5134961  34.8613714
 108.5070295  52.3177770  34.5019603 107.7094807  52.2845313  35.7883071
 117.2562429  62.8032542  28.3323907 116.4791872  62.4643701  27.8879070
 117.9353910  62.8085165  27.6578872 112.0714458  57.9227279  28.2230515
 111.7664593  58.2373429  29.0740658 113.0244900  58.0008699  28.2657848
 110.5160890  64.0817503  29.8723469 109.9882251  63.3470262  29.5596707
 110.0148392  64.8592179  29.6263437 115.4953736  62.2766523  34.9890515
 114.8377410  62.9665785  35.0770644 116.2994135  62.6662955  35.3324502
 105.2479617  54.7437169  32.2330081 105.8223369  54.5212350  31.5003274
 105.8350600  54.8125864  32.9858682 114.3059194  60.6310896  33.0394457
 114.8191076  61.2640888  33.5416167 114.9560418  60.0312091  32.6737817
 105.5749204  56.7741630  26.2525966 104.7386517  57.1116317  26.5735241
 105.4353974  56.6390610  25.3153103 107.5502285  51.6178418  30.9605150
 106.8966697  51.3027435  30.3361765 107.5082759  50.9954158  31.6864973
 108.6613490  61.8997713  22.8758442 107.7540552  61.6686966  23.0749591
 109.1584522  61.1035332  23.0632424 111.5681569  70.6095220  25.7955128
 110.8943267  70.9126917  26.4040086 111.9547391  71.4124301  25.4460585
 110.7840025  58.1060351  35.2852798 109.8662587  58.3275298  35.1274486
 111.2000169  58.1806662  34.4264505 111.5675073  59.5051767  30.4155478
 112.3146892  60.0173164  30.1062600 111.8366663  59.1835820  31.2759872
 109.8401723  62.0010308  27.3982432 108.9312943  61.7169341  27.4954902
 109.8696807  62.4209386  26.5385739 115.0720991  65.6116897  31.1673600
 114.6183318  64.7707807  31.2238790 114.4414957  66.2478296  31.5048380
 114.0153910  56.5408883  32.3974267 113.2776667  56.0286270  32.7284510
 114.2680684  56.1009265  31.5857544 113.5153930  67.4493394  32.1023418
 113.8076904  68.0098451  31.3835784 114.0252551  67.7421955  32.8576577
 114.1165538  49.3185135  32.9916037 114.4224414  48.4582499  32.7041952
 114.8418142  49.9102756  32.7915030 100.4089894  59.7215822  31.3797634
 100.2114293  59.1285183  30.6548701  99.8536558  59.4168032  32.0973573
 108.3886617  59.6138928  33.4992228 108.4435227  58.6612765  33.4234704
 107.5777819  59.7698368  33.9833526 109.5377811  63.5419052  24.7370511
 109.0997241  62.8254910  24.2776148 110.2788252  63.7695166  24.1755602
 106.3278977  58.2315988  31.2582606 105.5146843  58.5310159  31.6647799
 106.8237971  57.8371677  31.9757089 108.4787555  68.2273745  33.1916871
 108.4363734  68.4534591  32.2625403 109.3950254  67.9937120  33.3402672
 111.9253189  58.6957813  40.0897500 112.2802577  58.9229286  40.9491966
 112.5725320  59.0276189  39.4674756 117.6550926  61.8176249  30.7946829
 117.5168824  62.0077845  29.8668019 117.2987145  62.5795631  31.2514881
 105.8193052  55.8034344  36.8743841 106.4592431  55.6623103  36.1766805
 104.9870583  55.5168857  36.4982443 117.6820305  63.8852776  35.8058101
 118.1156812  63.7928065  36.6541155 118.3951886  63.8610276  35.1678117
 106.5953356  65.1036774  32.9878834 107.3893954  64.6087094  32.7861409
 105.8845048  64.5754637  32.6246539 111.4148200  67.4854870  37.3391201
 111.4685223  68.0545806  38.1068917 110.5462982  67.6556755  36.9745239
 102.9036119  59.2479856  29.0638587 101.9733707  59.1864311  29.2808549
 102.9993591  58.7255809  28.2675228 102.8221668  55.7734669  31.6516828
 103.0828486  56.6880002  31.5425989 103.6438841  55.3059111  31.8013441
 104.2946594  57.1872426  38.8215653 104.9669647  56.9789788  38.1728302
 103.4676380  56.9894512  38.3820885 118.5435855  63.9276476  38.3390986
 118.7371745  64.8322287  38.5850261 118.4436473  63.4683895  39.1729571
 110.1972166  53.8134367  40.8381314 109.5500081  54.5124316  40.7445790
 110.9673181  54.2470511  41.2057562 113.6050964  64.0783219  43.9131867
 113.4536470  63.8493771  42.9961951 113.5955643  65.0353820  43.9263212
 110.3736300  61.6515132  38.8978133 111.3028360  61.8026291  38.7247101
 109.9527330  61.7399152  38.0426780 109.1724632  65.6765796  36.6676671
 109.0335718  65.3084581  37.5402609 108.3839228  66.1913436  36.4960629
 109.7672784  70.7774893  28.0102207 109.9424540  70.3062936  28.8247830
 109.0805572  71.4040659  28.2383468 110.7229847  65.0547399  34.0565509
 110.3879680  65.0148169  34.9523159 110.2233793  64.3892115  33.5835919
 104.6974091  60.4615029  39.5818090 104.5593889  59.7295268  40.1829629
 105.6079014  60.3723929  39.3002278 113.6589039  62.4003433  24.3302568
 113.0418209  61.6750261  24.2335621 113.1905527  63.1612793  23.9869643
 107.3256392  60.1734988  39.0701770 108.0356010  59.5328180  39.0288388
 107.2825700  60.4247883  39.9927950 115.3143170  67.1102342  41.9908349
 115.2555717  66.4261562  41.3238932 115.7162689  67.8521332  41.5388975
 106.0385326  57.1600206  40.8897409 105.5022683  56.7090945  41.5419005
 105.4502034  57.2946115  40.1467873 104.3333869  73.9264255  34.7842068
 104.5730467  74.5582780  35.4621086 103.4903066  73.5752295  35.0707427
 105.4487585  56.6188857  23.4523873 104.5717051  56.4977658  23.0886119
 105.9245338  55.8274936  23.2002761 115.3160578  65.0741925  40.2222328
 114.4287356  64.7367847  40.3448727 115.8859129  64.3424957  40.4591094
  96.9689725  61.4066017  33.5465380  97.6560765  61.0927747  32.9586395
  96.8137853  62.3107382  33.2732631 101.7724447  56.2956214  37.9750404
 101.6882636  55.6881883  37.2400813 100.9507153  56.7865232  37.9759900
 108.8461731  69.7343378  37.1883572 108.7731903  70.5398349  37.7002876
 108.4039124  69.9335344  36.3631593 108.6351511  68.9715148  30.6986393
 107.8519033  69.5136828  30.7924618 109.3344256  69.4889127  31.0980634
 111.9448161  54.7809777  33.3420599 112.4416860  54.0279740  33.0221669
 111.1735142  54.8174094  32.7763808 119.7977918  60.4850143  34.9838890
 119.7867794  61.3674858  34.6132823 118.9295298  60.1321694  34.7893427
 111.3060415  69.6330212  39.3441730 112.0188387  70.2677677  39.2717632
 110.8150443  69.7294078  38.5281732 113.0277941  63.5381465  30.9159022
 112.0934220  63.6582927  30.7463726 113.2054610  62.6353931  30.6519032
 108.5283130  56.9227160  33.0692283 108.1580917  56.3698201  33.7573189
 109.0242222  56.3185294  32.5167283 116.4150493  59.3798784  31.4509056
 116.8810945  60.2126775  31.3769359 116.8657993  58.9143765  32.1554315
 106.3572328  67.3824655  40.1647301 107.0581788  68.0161138  40.3176695
 105.8867443  67.7239387  39.4042940 114.4826724  65.7242605  28.4495208
 114.7586568  65.6099200  29.3589082 113.6131223  65.3260090  28.4107381
 114.3867156  51.7479371  35.4899957 113.4730235  51.9783598  35.6582164
 114.8160257  51.8317815  36.3413990 114.1573614  59.9369263  37.9899851
 113.5045064  60.1845170  37.3352304 114.5353994  59.1233401  37.6562329
 111.1180788  69.9728956  32.0928022 111.3003182  69.1550612  32.5555774
 111.9413774  70.1896648  31.6552912 111.4522953  68.8997141  29.3543070
 111.9810720  68.3889596  28.7413232 111.7151173  68.5839671  30.2188603
 110.2061187  60.6789074  44.4765889 109.5301824  60.5783203  45.1468264
 111.0288821  60.5228288  44.9401886 101.9540046  66.9161010  37.0978404
 102.5393483  66.1704698  37.2306308 101.7564885  67.2264967  37.9815068
 104.8078701  69.9512258  32.1140846 104.1389077  70.4358385  31.6304886
 104.6691571  70.1981478  33.0284225  96.5457701  59.4866611  35.8182847
  96.5841800  58.9530201  36.6119965  96.0397994  58.9601816  35.1993824
 108.9483970  71.9856001  38.7123505 109.5002278  72.1487623  39.4772590
 109.2890163  72.5760439  38.0403529 103.9248463  54.3331151  39.3145389
 103.9889790  55.1945982  38.9022787 103.8615583  53.7205153  38.5817748
 103.4000736  56.4054284  42.9618424 104.0272775  56.0231361  43.5755948
 102.5428655  56.1868486  43.3274116 113.7994844  66.8117259  44.5672159
 114.3434748  67.4247217  44.0727114 113.2181689  67.3696837  45.0839172
 100.1766278  58.2130713  28.8936778 100.4719720  57.3041391  28.8403832
  99.2754314  58.1918452  28.5717781 112.0852357  69.9337977  35.6987187
 111.9603497  69.1327717  35.1898132 112.7431448  70.4284170  35.2101157
 103.7060525  56.2886709  34.8764327 102.9847111  56.9022677  34.7371800
 104.4953781  56.8244474  34.7980973 114.1487266  67.7346997  37.3266737
 113.2017601  67.6152348  37.2545064 114.4970039  66.8469495  37.4092998
 106.5086839  53.6241136  41.1504979 107.0321241  53.8703432  41.9131288
 106.2899172  54.4561171  40.7308116 101.9054120  55.8944810  29.0176103
 101.5766826  55.0142189  28.8351209 102.2593491  55.8392479  29.9052493
 111.1533699  67.5299713  33.5271089 111.0058661  66.6016420  33.7078659
 111.9787192  67.5519804  33.0428164 105.0195943  56.1817780  29.3851581
 105.3592016  56.7103701  28.6630190 105.4668064  56.5198186  30.1610148
 114.7567821  68.3528272  34.6135962 115.6814368  68.1471133  34.4760413
 114.5883124  68.1044673  35.5225303 107.7139384  54.5654831  38.8354649
 107.3736204  53.7662644  39.2375329 107.0078390  54.8656542  38.2631482
 108.3655856  51.6504143  37.2881972 109.1881925  51.1764622  37.1660863
 108.6093919  52.4294627  37.7880659 107.0064090  54.6792402  27.5844874
 107.7272453  55.0573655  27.0808591 106.3829394  55.3981279  27.6879852
 111.1495213  55.3837551  28.5203206 111.3658828  56.2662189  28.2192034
 110.6689280  54.9923764  27.7908848 105.8894435  58.3423264  35.0973951
 105.7439015  58.6563567  35.9898232 105.4119638  58.9608164  34.5444849
 107.7490817  55.3325812  35.1454840 107.7352386  54.4366905  34.8087138
 108.4663246  55.3396476  35.7793126 109.6016948  55.7663152  37.1907968
 109.3434726  56.6880223  37.1892298 109.0701989  55.3693587  37.8808432
 114.5463137  68.8713939  29.9698053 114.7200014  68.3060362  29.2171906
 115.0392028  69.6714834  29.7877543 100.3640097  60.8828608  38.0361612
  99.8193565  61.6588416  38.1681886 101.2419447  61.2299413  37.8780733
 107.1527713  54.2140192  30.4142411 107.2743625  53.2856838  30.6133298
 106.8629756  54.2278878  29.5020726 110.0218904  51.8995103  33.5509130
 110.0440601  51.9634436  32.5961110 110.4386963  51.0599611  33.7449637
 120.4002528  61.6350362  31.5888353 120.8433674  60.8857687  31.1907476
 119.5229038  61.6260499  31.2062085 115.5338309  68.1880704  27.0694952
 116.2289214  68.8087396  27.2882266 115.8761460  67.3376055  27.3447329
 101.1506119  60.0098505  40.9291769 100.4087855  60.1581140  41.5156399
 100.8298863  60.2706770  40.0658518 117.4329733  65.6380409  28.5982282
 117.9581057  65.9767682  27.8731602 117.3452085  64.7027425  28.4145417
 109.0949781  69.5514483  40.7272159 109.4036908  69.3063630  41.5994858
 109.8925263  69.7561121  40.2391029 109.1170393  71.7052392  32.9577535
 108.6775384  71.2128771  33.6510392 109.8678510  71.1625360  32.7169611
 101.5962732  67.8963933  32.9602164 102.4220752  67.5967705  32.5800807
 101.2456784  67.1271556  33.4091952 106.5644265  67.2490402  35.0299837
 105.9424275  66.5861107  34.7302065 107.2349132  67.2751533  34.3473485
  99.7971337  65.8150260  33.9191097  98.9603246  65.3872434  33.7375098
  99.7694983  66.0082703  34.8561888 106.6368793  55.7272190  44.6232343
 106.6856948  56.6034312  44.2410113 107.1791307  55.1849583  44.0503986
 117.1223639  66.2713313  43.9033480 116.3319182  66.2537452  43.3637980
 116.8856993  66.8101607  44.6582517 117.2421514  63.1205779  41.2166209
 117.2919519  62.9555787  42.1581732 117.1335437  62.2533038  40.8264090
 106.1257772  65.7994325  28.5058298 106.2745893  66.4829789  27.8524970
 106.9324216  65.7799415  29.0207753 114.5325276  59.1036707  42.5325515
 115.4335139  58.9643172  42.2409513 114.6073251  59.2691162  43.4723693
 108.8668081  56.4803562  41.3778702 107.9971391  56.7737128  41.1061290
 109.1027562  57.0644007  42.0985965 118.7439711  65.5402721  41.4608230
 118.4524519  65.9032701  42.2971691 118.1311842  64.8269729  41.2821562
 119.9435393  63.1055601  33.9810801 120.7782284  63.5445405  34.1448361
 120.0794522  62.6294254  33.1619046 116.9926899  60.6635335  39.9288288
 117.4681020  60.8562982  39.1207140 116.0692464  60.7194521  39.6831672
 103.8810405  61.8259503  29.5119367 103.6356447  60.9221833  29.7099577
 104.0506320  61.8276653  28.5698845 111.5707115  52.6983179  38.8944122
 112.0889059  53.4344206  38.5690611 111.2162248  53.0047172  39.7290881
 103.1506053  57.5587860  27.0105528 102.4575298  57.6332215  26.3545564
 102.9057805  56.7948204  27.5327045 111.8219709  49.1183461  34.4145019
 112.1021463  48.4506651  35.0405445 112.6070316  49.3112557  33.9019683
 109.6253178  68.2942455  25.9770045 109.0527145  68.9132642  25.5240517
 110.1985972  68.8441817  26.5109967 115.6928568  57.5401095  38.1616594
 116.6445991  57.6399193  38.1828818 115.5232018  56.7479364  38.6714678
 113.7142947  54.6256679  38.3475995 113.1192879  54.9061691  37.6522483
 113.4292644  55.1150580  39.1192736 112.8450438  68.5779605  27.1078627
 113.7781111  68.5125167  27.3111503 112.7573651  69.4135872  26.6493160
 115.4738454  67.8945476  24.0682575 115.3952086  67.5605339  24.9618333
 116.2948121  68.3867244  24.0674047 118.1716646  60.7607215  37.2758894
 118.1392966  59.8223216  37.4618577 118.7817269  60.8391252  36.5424718
 110.0099976  59.6303268  23.3186098 110.9559081  59.5009476  23.3874516
 109.6314221  58.8917930  23.7955526 118.3211134  57.5518259  37.3217177
 117.8050183  56.7676715  37.1347106 119.2051083  57.2236975  37.4863696
 115.9821861  51.2959274  33.2812989 115.7846682  50.9874362  34.1656321
 116.5921567  52.0220913  33.4110919 109.8938669  63.6821014  44.7786755
 110.8141678  63.8599613  44.9726801 109.8588252  62.7377060  44.6266454
 108.1942894  57.5553244  23.2540983 107.2874349  57.2586357  23.3303696
 108.4718875  57.2583063  22.3875269  99.1120834  58.8759608  33.7040029
  98.7923618  58.0224916  33.4114403  98.5654262  59.0908186  34.4597997
 102.8900741  61.5922049  37.4209536 103.1086751  62.5239157  37.4397570
 103.3026515  61.2330023  38.2064340 109.8104959  52.0990134  29.4085224
 109.0005688  51.7537219  29.7840470 110.4989376  51.7897678  29.9972836
 111.7395508  51.1768181  31.0309521 112.2926546  51.5963634  31.6899544
 111.9765594  50.2503929  31.0732477 107.7628607  57.1655255  46.8112285
 107.6625334  58.1149612  46.7424376 107.5450149  56.8373494  45.9388355
 106.9641678  54.4140180  23.3952962 107.8260842  54.7395078  23.6548779
 107.1492022  53.6271676  22.8826028  98.9809094  62.4962519  35.6733151
  98.2872565  62.0816472  35.1603105  99.7282085  62.5383056  35.0766570
 115.1174315  53.2868706  30.5388185 114.5372984  53.9453510  30.1566237
 114.8510247  52.4646051  30.1275603 113.5677881  52.6873764  32.7409505
 114.0677659  52.7990298  31.9323824 114.2113489  52.3834817  33.3810314
 107.6259877  60.5952393  45.6277346 107.1426959  61.3952754  45.8341235
 107.7120816  60.6060338  44.6744790 100.8945836  62.4280773  33.5499166
 100.8716525  62.5268460  32.5981049 101.2046473  63.2745924  33.8716332
 103.5533214  64.4856928  37.6645780 104.5076468  64.4540871  37.5975712
 103.3545738  64.0247552  38.4796006 104.1432596  63.0558044  40.2316578
 104.9625485  63.5502123  40.2551415 104.4169404  62.1390012  40.2034145
 113.8999193  55.4468797  29.5944533 113.0125048  55.7318447  29.3764728
 114.3153182  55.2862560  28.7471810 117.2513729  55.4715318  33.3098873
 118.0274119  55.9611770  33.5823489 116.5261863  55.8973372  33.7670742
 119.6886287  56.1842937  34.3672813 120.2830778  55.9438673  33.6566121
 119.7612871  55.4650067  34.9946349 101.9083443  70.0276548  34.6815978
 101.7737911  69.2676949  34.1153976 101.4915505  70.7517448  34.2144767
 113.0442406  65.2113471  23.6892553 113.7478256  65.4163474  24.3050209
 112.3205055  65.7790233  23.9541637 113.8740216  60.9623332  29.8094823
 113.8175418  61.4191884  28.9702456 114.4268559  60.2014017  29.6317666
 117.6845022  56.7513064  30.6344943 117.4281957  56.3509700  31.4653151
 117.0597890  57.4656858  30.5095082 105.0652569  70.9245865  34.8934421
 104.9484953  71.8691297  34.7913111 104.2445015  70.6219426  35.2820220
 114.9529104  65.6496000  25.7391013 115.7874707  65.2177199  25.5568488
 114.7913446  65.4778014  26.6667908 114.6074996  62.1528114  27.1047353
 114.5523800  61.9872385  26.1635797 113.9821051  62.8604147  27.2609542
  99.3967511  57.3896178  40.9308775 100.0426374  56.8795132  41.4196000
  99.1884662  58.1264860  41.5052200 111.9220903  64.4577026  46.4300915
 112.7912063  64.6317678  46.0687550 111.4427654  65.2771442  46.3076645
 107.9171121  51.6536223  26.6832671 107.9049791  52.5978063  26.8400942
 108.8094543  51.4706368  26.3892132 106.0907083  71.5774127  38.1090349
 106.9934330  71.6097737  38.4256844 105.8644453  70.6474578  38.1236685
 107.8460685  70.3305113  34.7700428 106.8956316  70.3306975  34.6564800
 108.1493171  69.5837848  34.2536462 111.7323241  48.2478999  30.9378608
 110.9655636  47.6937486  31.0835290 112.1433946  48.3200868  31.7992759
 103.7365002  54.5363795  45.0283789 104.5996463  54.1800600  45.2387114
 103.1630412  54.1977690  45.7159193 120.3903085  76.1193080  35.7707715
 120.0521596  76.0034144  34.8828250 121.2592853  75.7184245  35.7508721
 116.2489901  77.9728556  31.7604606 115.6854766  77.8818493  30.9920893
 116.1342296  77.1528461  32.2407098 120.8722868  77.2727931  41.7293920
 120.8611509  76.8780730  40.8574424 121.0343507  76.5394004  42.3227692
 113.7954333  79.4679748  34.5988826 114.5875624  79.1270572  34.1835125
 114.0350983  79.5774723  35.5190979 115.7545086  78.7288661  27.4706205
 116.5275962  78.1817648  27.3319081 116.1070485  79.5932910  27.6820666
 117.5930129  80.0565043  40.6773104 117.3019995  80.9610674  40.5619771
 118.2287113  80.0981571  41.3917174 118.5186336  77.4341892  37.2674464
 119.1149908  77.2097914  36.5531427 118.5761307  76.6926637  37.8699912
 118.0911364  74.8881327  25.1024655 118.3436885  74.3662848  24.3408118
 117.1535923  74.7247472  25.2051338 117.8107653  76.7909433  27.3049030
 117.6943911  76.1154336  27.9730114 117.9209913  76.3041807  26.4881183
 120.1539194  76.2519580  31.0095719 119.7897401  75.7250201  31.7208641
 121.0106310  75.8618049  30.8362204 119.7944681  71.2809480  26.0057068
 119.9619083  72.1489716  26.3727539 119.6041850  71.4436761  25.0818357
 116.0032496  76.1940256  33.7059602 115.0782992  76.0616470  33.9137294
 116.2516909  76.9734475  34.2029545 119.7733902  73.7367137  26.9903734
 119.6533527  74.1824188  27.8289215 119.0786490  74.0852455  26.4317273
 113.3641307  75.8373529  34.5403391 113.4933688  76.0908008  35.4542803
 112.6838758  76.4301237  34.2208047 117.5340794  86.5070779  30.6393866
 117.4564824  87.4578604  30.7182346 116.9302438  86.1616652  31.2968792
 120.0258024  73.6798644  43.2955233 119.2491358  74.2392565  43.2858097
 120.6648587  74.1655427  43.8170103 118.2804396  76.4884098  42.8573200
 119.0219080  77.0269142  42.5808023 117.5741381  77.1150387  43.0144751
 120.1090806  73.5685845  38.8278918 120.9552001  73.9925259  38.9713567
 120.0489443  72.9119469  39.5217481 119.6316512  78.9288837  32.4747735
 120.0954858  79.2076540  31.6852358 119.3673310  78.0272282  32.2920826
 116.5240593  78.4760319  35.4127498 117.0941950  78.9047587  34.7744983
 117.1148705  78.1942903  36.1111684 118.5685398  75.0511989  29.2837300
 119.2709442  75.5033033  29.7511227 118.2366027  74.4095808  29.9117193
 117.0165760  73.6423746  43.6588510 116.3864420  74.3240027  43.8923906
 116.9101848  73.5306828  42.7141648 112.3110732  73.3095542  34.5854434
 111.5209786  73.5653071  34.1094544 112.8021980  74.1243880  34.6906474
 114.2625478  73.6740121  31.5437910 113.4656641  73.7858816  32.0621406
 114.0351070  74.0126773  30.6778801 120.0931145  80.1984824  39.4920425
 120.1575578  80.6605232  40.3278597 119.3842069  79.5682189  39.6202735
 110.5948435  73.5626032  37.0169425 110.8456474  74.4473042  37.2827000
 111.1307984  73.3830634  36.2444516 119.8079163  81.8652932  29.3599405
 119.6724838  82.7104468  29.7884253 120.3488975  82.0672210  28.5965339
 116.2946502  67.9444512  46.0213761 115.9013448  67.3910710  46.6961405
 117.1112643  68.2555090  46.4120278 113.2608560  79.3828370  29.9327330
 113.7733081  80.1771620  30.0832895 113.9131273  78.6854660  29.8660932
 115.0703445  82.4994126  32.0150084 115.2470073  83.4212091  31.8271068
 115.8660278  82.1852546  32.4444463 119.2114463  69.3602391  43.6134017
 119.9524177  69.9609544  43.5338480 119.4432386  68.6180029  43.0552060
 114.3555801  74.5458758  41.8912247 114.2409317  73.6444015  42.1919346
 113.5000319  74.7922455  41.5397063 116.1934760  84.0172300  38.0160426
 116.7442186  83.8889363  37.2437420 115.3546236  84.3167189  37.6655319
 119.9901931  80.2823428  42.3604657 120.5230268  79.5211716  42.1303965
 119.4616013  79.9897080  43.1028812 111.2257477  77.7117024  30.7086901
 112.0632699  78.1214033  30.4920609 111.4035745  76.7716466  30.6787095
 120.7069020  70.2241806  31.4555972 119.8510617  69.8348656  31.2761611
 121.1195972  70.3033767  30.5955758 118.4811053  67.8426879  34.8613714
 119.3464049  67.6469687  34.5019603 118.5488562  67.6137231  35.7883071
 121.3554644  79.4109420  29.8723469 120.8276006  78.6762180  29.5596707
 120.8542147  80.1884097  29.6263437 116.0873372  70.0729087  32.2330081
 116.6617124  69.8504268  31.5003274 116.6744354  70.1417781  32.9858682
 116.4142959  72.1033548  26.2525966 115.5780271  72.4408234  26.5735241
 116.2747729  71.9682527  25.3153103 118.3896039  66.9470336  30.9605150
 117.7360452  66.6319353  30.3361765 118.3476514  66.3246076  31.6864973
 119.5007244  77.2289631  22.8758442 118.5934306  76.9978884  23.0749591
 119.9978276  76.4327250  23.0632424 120.6795478  77.3302226  27.3982432
 119.7706697  77.0461258  27.4954902 120.7090562  77.7501304  26.5385739
 111.2483648  75.0507740  31.3797634 111.0508048  74.4577100  30.6548701
 110.6930312  74.7459950  32.0973573 119.2280372  74.9430846  33.4992228
 119.2828982  73.9904683  33.4234704 118.4171574  75.0990285  33.9833526
 120.3771566  78.8710969  24.7370511 119.9390996  78.1546828  24.2776148
 121.1182006  79.0987084  24.1755602 117.1672732  73.5607906  31.2582606
 116.3540597  73.8602076  31.6647799 117.6631726  73.1663595  31.9757089
 119.3181310  83.5565663  33.1916871 119.2757488  83.7826509  32.2625403
 120.2344008  83.3229037  33.3402672 116.6586806  71.1326261  36.8743841
 117.2986186  70.9915020  36.1766805 115.8264337  70.8460775  36.4982443
 117.4347110  80.4328692  32.9878834 118.2287709  79.9379012  32.7861409
 116.7238803  79.9046555  32.6246539 113.7429874  74.5771774  29.0638587
 112.8127462  74.5156229  29.2808549 113.8387346  74.0547726  28.2675228
 113.6615423  71.1026586  31.6516828 113.9222240  72.0171920  31.5425989
 114.4832595  70.6351029  31.8013441 115.1340348  72.5164344  38.8215653
 115.8063402  72.3081706  38.1728302 114.3070135  72.3186430  38.3820885
 120.0118386  81.0057714  36.6676671 119.8729472  80.6376498  37.5402609
 119.2232983  81.5205353  36.4960629 120.6066538  86.1066810  28.0102207
 120.7818294  85.6354853  28.8247830 119.9199326  86.7332576  28.2383468
 121.5623602  80.3839316  34.0565509 121.2273434  80.3440086  34.9523159
 121.0627547  79.7184032  33.5835919 115.5367846  75.7906947  39.5818090
 115.3987643  75.0587185  40.1829629 116.4472769  75.7015847  39.3002278
 118.1650146  75.5026906  39.0701770 118.8749765  74.8620098  39.0288388
 118.1219454  75.7539801  39.9927950 116.8779080  72.4892124  40.8897409
 116.3416437  72.0382862  41.5419005 116.2895789  72.6238033  40.1467873
 115.1727624  89.2556173  34.7842068 115.4124222  89.8874697  35.4621086
 114.3296820  88.9044213  35.0707427 116.2881339  71.9480775  23.4523873
 115.4110805  71.8269576  23.0886119 116.7639092  71.1566853  23.2002761
 107.8083479  76.7357935  33.5465380 108.4954519  76.4219665  32.9586395
 107.6531608  77.6399300  33.2732631 112.6118201  71.6248131  37.9750404
 112.5276390  71.0173801  37.2400813 111.7900908  72.1157150  37.9759900
 119.6855486  85.0635295  37.1883572 119.6125657  85.8690267  37.7002876
 119.2432879  85.2627261  36.3631593 119.4745265  84.3007065  30.6986393
 118.6912787  84.8428746  30.7924618 120.1738010  84.8181045  31.0980634
 119.3676884  72.2519078  33.0692283 118.9974672  71.6990118  33.7573189
 119.8635976  71.6477211  32.5167283 117.1966083  82.7116573  40.1647301
 117.8975542  83.3453056  40.3176695 116.7261198  83.0531305  39.4042940
 112.7933801  82.2452928  37.0978404 113.3787237  81.4996616  37.2306308
 112.5958639  82.5556885  37.9815068 115.6472456  85.2804175  32.1140846
 114.9782831  85.7650303  31.6304886 115.5085326  85.5273396  33.0284225
 107.3851455  74.8158528  35.8182847 107.4235555  74.2822119  36.6119965
 106.8791748  74.2893734  35.1993824 119.7877724  87.3147919  38.7123505
 120.3396032  87.4779540  39.4772590 120.1283918  87.9052357  38.0403529
 114.7642218  69.6623069  39.3145389 114.8283544  70.5237900  38.9022787
 114.7009338  69.0497070  38.5817748 114.2394490  71.7346201  42.9618424
 114.8666529  71.3523279  43.5755948 113.3822409  71.5160403  43.3274116
 111.0160033  73.5422630  28.8936778 111.3113474  72.6333309  28.8403832
 110.1148069  73.5210370  28.5717781 114.5454280  71.6178627  34.8764327
 113.8240866  72.2314595  34.7371800 115.3347536  72.1536392  34.7980973
 117.3480593  68.9533053  41.1504979 117.8714995  69.1995350  41.9131288
 117.1292927  69.7853088  40.7308116 112.7447875  71.2236728  29.0176103
 112.4160581  70.3434107  28.8351209 113.0987245  71.1684397  29.9052493
 115.8589698  71.5109698  29.3851581 116.1985770  72.0395619  28.6630190
 116.3061818  71.8490104  30.1610148 118.5533139  69.8946749  38.8354649
 118.2129959  69.0954562  39.2375329 117.8472145  70.1948459  38.2631482
 119.2049610  66.9796061  37.2881972 120.0275680  66.5056539  37.1660863
 119.4487674  67.7586545  37.7880659 117.8457845  70.0084319  27.5844874
 118.5666207  70.3865572  27.0808591 117.2223149  70.7273196  27.6879852
 116.7288189  73.6715182  35.0973951 116.5832770  73.9855485  35.9898232
 116.2513393  74.2900082  34.5444849 118.5884572  70.6617730  35.1454840
 118.5746141  69.7658823  34.8087138 119.3057000  70.6688393  35.7793126
 120.4410703  71.0955070  37.1907968 120.1828481  72.0172140  37.1892298
 119.9095743  70.6985504  37.8808432 111.2033851  76.2120526  38.0361612
 110.6587319  76.9880334  38.1681886 112.0813201  76.5591330  37.8780733
 117.9921468  69.5432110  30.4142411 118.1137379  68.6148756  30.6133298
 117.7023510  69.5570796  29.5020726 120.8612658  67.2287020  33.5509130
 120.8834355  67.2926353  32.5961110 121.2780717  66.3891529  33.7449637
 111.9899873  75.3390422  40.9291769 111.2481609  75.4873058  41.5156399
 111.6692617  75.5998688  40.0658518 119.9343536  84.8806401  40.7272159
 120.2430662  84.6355547  41.5994858 120.7319018  85.0853039  40.2391029
 119.9564148  87.0344310  32.9577535 119.5169138  86.5420689  33.6510392
 120.7072265  86.4917278  32.7169611 112.4356487  83.2255851  32.9602164
 113.2614507  82.9259623  32.5800807 112.0850539  82.4563473  33.4091952
 117.4038020  82.5782319  35.0299837 116.7818029  81.9153024  34.7302065
 118.0742887  82.6043451  34.3473485 110.6365092  81.1442177  33.9191097
 109.7997000  80.7164352  33.7375098 110.6088737  81.3374621  34.8561888
 117.4762547  71.0564107  44.6232343 117.5250703  71.9326230  44.2410113
 118.0185062  70.5141500  44.0503986 116.9651527  81.1286243  28.5058298
 117.1139647  81.8121707  27.8524970 117.7717970  81.1091333  29.0207753
 119.7061836  71.8095480  41.3778702 118.8365145  72.1029046  41.1061290
 119.9421316  72.3935925  42.0985965 114.7204160  77.1551420  29.5119367
 114.4750202  76.2513750  29.7099577 114.8900074  77.1568571  28.5698845
 113.9899807  72.8879778  27.0105528 113.2969052  72.9624133  26.3545564
 113.7451559  72.1240121  27.5327045 120.4646932  83.6234373  25.9770045
 119.8920899  84.2424560  25.5240517 121.0379726  84.1733735  26.5109967
 119.0336648  72.8845162  23.2540983 118.1268103  72.5878275  23.3303696
 119.3112629  72.5874980  22.3875269 109.9514588  74.2051526  33.7040029
 109.6317373  73.3516834  33.4114403 109.4048017  74.4200104  34.4597997
 113.7294496  76.9213967  37.4209536 113.9480506  77.8531074  37.4397570
 114.1420270  76.5621941  38.2064340 120.6498714  67.4282052  29.4085224
 119.8399442  67.0829137  29.7840470 121.3383131  67.1189596  29.9972836
 118.6022361  72.4947172  46.8112285 118.5019088  73.4441529  46.7424376
 118.3843903  72.1665411  45.9388355 117.8035433  69.7432097  23.3952962
 118.6654597  70.0686996  23.6548779 117.9885777  68.9563593  22.8826028
 109.8202848  77.8254437  35.6733151 109.1266320  77.4108390  35.1603105
 110.5675839  77.8674974  35.0766570 118.4653631  75.9244311  45.6277346
 117.9820713  76.7244671  45.8341235 118.5514570  75.9352256  44.6744790
 111.7339591  77.7572691  33.5499166 111.7110279  77.8560378  32.5981049
 112.0440227  78.6037842  33.8716332 114.3926969  79.8148846  37.6645780
 115.3470222  79.7832788  37.5975712 114.1939492  79.3539470  38.4796006
 114.9826351  78.3849962  40.2316578 115.8019240  78.8794041  40.2551415
 115.2563159  77.4681930  40.2034145 112.7477198  85.3568465  34.6815978
 112.6131666  84.5968866  34.1153976 112.3309260  86.0809365  34.2144767
 115.9046323  86.2537782  34.8934421 115.7878708  87.1983215  34.7913111
 115.0838770  85.9511344  35.2820220 110.2361265  72.7188096  40.9308775
 110.8820129  72.2087050  41.4196000 110.0278416  73.4556777  41.5052200
 118.7564876  66.9828140  26.6832671 118.7443546  67.9269980  26.8400942
 119.6488298  66.7998286  26.3892132 116.9300838  86.9066044  38.1090349
 117.8328084  86.9389655  38.4256844 116.7038208  85.9766495  38.1236685
 118.6854440  85.6597031  34.7700428 117.7350071  85.6598892  34.6564800
 118.9886926  84.9129765  34.2536462 114.5758756  69.8655713  45.0283789
 115.4390218  69.5092518  45.2387114 114.0024167  69.5269608  45.7159193
 118.6477234  92.0649853  33.5465380 119.3348274  91.7511583  32.9586395
 118.4925362  92.9691217  33.2732631 118.2245210  90.1450446  35.8182847
 118.2629309  89.6114037  36.6119965 117.7185503  89.6185651  35.1993824
 121.4758846  96.4734095  33.9191097 120.6390755  96.0456270  33.7375098
 121.4482492  96.6666538  34.8561888 120.7908343  89.5343443  33.7040029
 120.4711127  88.6808751  33.4114403 120.2441771  89.7492021  34.4597997
 120.6596603  93.1546355  35.6733151 119.9660074  92.7400308  35.1603105
 121.4069594  93.1966891  35.0766570  74.1765777   2.1965231  17.3639172
  74.0989807   3.1473056  17.4427653  73.5727421   1.8511103  18.0214099
  71.8152607   4.9450625  21.5087374  72.0549205   5.5769149  22.1866393
  70.9721803   4.5938665  21.7952734  72.2897439   0.9698627  18.8386153
  71.6207814   1.4544755  18.3550193  72.1510309   1.2167848  19.7529531
  76.4302708   3.0042371  25.4368811  76.9821016   3.1673992  26.2017896
  76.7708901   3.5946809  24.7648836  69.3902181   1.0462917  21.4061285
  69.2556649   0.2863318  20.8399283  68.9734243   1.7703817  20.9390073
  72.5471307   1.9432234  21.6179727  72.4303691   2.8877667  21.5158418
  71.7263753   1.6405796  22.0065526  73.5725821   2.5960496  24.8335656
  74.4753068   2.6284106  25.1502151  73.3463191   1.6660947  24.8481991
  87.8721823   7.1379449  22.4953021  87.5340334   7.0220514  21.6073556
  88.7411591   6.7370614  22.4754028  83.7308638   8.9914926  18.4849912
  83.1673504   8.9004863  17.7166200  83.6161033   8.1714830  18.9652405
  88.3541606   8.2914301  28.4539227  88.3430246   7.8967099  27.5819731
  88.5162245   7.5580374  29.0472998  81.2773070  10.4866117  21.3234133
  82.0694362  10.1456942  20.9080432  81.5169720  10.5961092  22.2436286
  89.3108197  12.6585893  13.7964377  88.6596177  13.2439974  13.4098391
  90.1052560  13.1892088  13.8559415  83.2363824   9.7475030  14.1951512
  84.0094700   9.2004018  14.0564387  83.5889223  10.6119280  14.4065973
  85.0748867  11.0751413  27.4018411  84.7838733  11.9797044  27.2865077
  85.7105851  11.1167940  28.1162480  86.0005074   8.4528261  23.9919771
  86.5968646   8.2284284  23.2776733  86.0580045   7.7113007  24.5945218
  85.2926391   7.8095803  14.0294336  85.1762649   7.1340706  14.6975421
  85.4028651   7.3228176  13.2126490  87.6357932   7.2705950  17.7341026
  87.2716139   6.7436571  18.4453947  88.4925048   6.8804419  17.5607511
  90.0338752  10.7612828  24.3968205  89.7339475  11.6637867  24.2884012
  89.6889811  10.4945011  25.2489357  83.4851233   7.2126625  20.4304909
  82.5601730   7.0802839  20.6382601  83.7335647   7.9920844  20.9274851
  80.8460044   6.8559899  21.2648698  80.9752426   7.1094378  22.1788110
  80.1657496   7.4487607  20.9453353  85.0159532  17.5257149  17.3639172
  84.9383561  18.4764974  17.4427653  84.4121175  17.1803021  18.0214099
  85.7623134   7.5070467  29.5818506  86.5037818   8.0455511  29.3053330
  85.0560119   8.1336756  29.7390058  91.2378473   9.6499608  28.1790668
  91.6461829   9.2082018  27.4345300  90.5155735   9.0752235  28.4324861
  91.5607288  10.2100798  21.9342957  90.9316151  10.3746513  21.2319024
  91.1732950  10.6242408  22.7053921  95.4396520  11.1455236  19.2887320
  94.7547558  11.5254138  18.7384354  95.5240369  11.7550563  20.0219268
  92.6947452   8.7915195  25.8882664  92.9064347   9.4346955  25.2117045
  92.6477200   7.9577512  25.4204594  87.1135250   9.9475207  19.1993042
  87.5773595  10.2262910  18.4097664  86.8492048   9.0458651  19.0166132
  84.0059331   9.4946688  22.1372805  84.5760688   9.9233956  21.4990289
  84.5967443   9.2129273  22.8356991  79.7929470   4.3281912  21.3099740
  79.0028524   4.5839440  20.8339851  80.2840717   5.1430249  21.4151781
  93.8093280  11.6687151  24.0605021  94.6310723  11.2667338  23.7787703
  93.8055682  11.5655385  25.0121137  81.7444215   4.6926491  18.2683217
  80.9475379   4.8045185  18.7866713  81.5169808   5.0313143  17.4024108
  87.5749883  11.2171194  26.2165732  87.6394315  11.6791601  27.0523904
  86.8660807  10.5868559  26.3448042  78.0767173   4.5812402  23.7414731
  78.3275211   5.4659412  24.0072307  78.6126721   4.4017004  22.9689823
  87.2897901  12.8839302  16.0844712  87.1543575  13.7290837  16.5129560
  87.8307713  13.0858579  15.3210646  80.7427298  10.4014740  16.6572637
  81.2551819  11.1957990  16.8078202  81.3950011   9.7041030  16.5906239
  82.5522183  13.5180496  18.7395390  82.7288811  14.4398461  18.5516374
  83.3479016  13.2038915  19.1689770  81.8374539   5.5645128  28.6157553
  81.7228054   4.6630385  28.9164652  80.9819057   5.8108825  28.2642370
  88.9166377  13.5062868  30.2145054  88.4730231  12.7199247  29.8965959
  89.5783591  13.6942019  29.5488945  83.6753498  15.0358670  24.7405733
  84.2260923  14.9075733  23.9682727  82.8364974  15.3353559  24.3900625
  91.0147615  13.7865668  28.2426455  90.9966090  14.6074549  27.7506725
  91.9367535  13.6619743  28.4676597  87.4720669  11.3009797  29.0849964
  88.0049006  10.5398086  28.8549272  86.9434750  11.0083449  29.8274118
  78.7076215   8.7303394  17.4332208  79.5451437   9.1400402  17.2165915
  78.8854483   7.7902836  17.4032402  88.8373382  10.4295790  16.5968776
  88.3094744   9.6948550  16.2842013  88.3360885  11.2070466  16.3508744
  93.8166228   8.6244810  21.7135822  93.1589902   9.3144072  21.8015951
  94.6206627   9.0141242  22.0569808  89.8894061  16.9573507  12.5200435
  89.2155760  17.2605204  13.1285393  90.2759883  17.7602588  12.1705892
  93.3933483  11.9595185  17.8918906  92.9395810  11.1186094  17.9484097
  92.7627450  12.5956583  18.2293687  91.8366422  13.7971681  18.8268725
  92.1289397  14.3576738  18.1081090  92.3465043  14.0900242  19.5821884
  78.7302386   6.0694109  18.1042941  78.5326786   5.4763470  17.3794008
  78.1749050   5.7646319  18.8218880  86.8000047  14.5752032  19.9162178
  86.7576226  14.8012879  18.9870710  87.7162746  14.3415407  20.0647979
  96.0032798  10.2331063  22.5303408  96.4369304  10.1406352  23.3786462
  96.7164378  10.2088563  21.8923424  84.9165848  11.4515061  19.7124140
  85.7106447  10.9565382  19.5106715  84.2057541  10.9232925  19.3491846
  89.7360693  13.8333157  24.0636508  89.7897715  14.4024093  24.8314224
  88.8675474  14.0035042  23.6990545  81.2248612   5.5958143  15.7883893
  80.2946200   5.5342599  16.0053855  81.3206084   5.0734096  14.9920534
  96.8648347  10.2754763  25.0636293  97.0584237  11.1800574  25.3095568
  96.7648965   9.8162183  25.8974878  91.9263456  10.4261506  30.6377174
  91.7748962  10.1972058  29.7207257  91.9168135  11.3832108  30.6508519
  88.6948792   7.9993419  25.6223440  89.6240852   8.1504579  25.4492407
  88.2739822   8.0877440  24.7672086  87.4937124  12.0244083  23.3921978
  87.3548210  11.6562868  24.2647916  86.7051720  12.5391723  23.2205935
  88.0885276  17.1253180  14.7347514  88.2637032  16.6541223  15.5493137
  87.4018064  17.7518946  14.9628775  89.0442339  11.4025686  20.7810815
  88.7092172  11.3626456  21.6768465  88.5446285  10.7370402  20.3081226
  83.0186583   6.8093316  26.3063397  82.8806381   6.0773555  26.9074936
  83.9291507   6.7202216  26.0247584  85.6468884   6.5213275  25.7947076
  86.3568502   5.8806468  25.7533695  85.6038192   6.7726170  26.7173257
  93.6355663  13.4580629  28.7153655  93.5768209  12.7739849  28.0484238
  94.0375181  14.1999619  28.2634281  82.6546361  20.2742543  21.5087374
  82.8942960  20.9061067  22.1866393  81.8115558  19.9230583  21.7952734
  93.6373070  11.4220213  26.9467635  92.7499849  11.0846134  27.0694034
  94.2071621  10.6903244  27.1836400  75.2902217   7.7544304  20.2710686
  75.9773257   7.4406034  19.6831702  75.1350346   8.6585669  19.9977938
  87.1674223  16.0821665  23.9128878  87.0944395  16.8876637  24.4248183
  86.7251616  16.2813631  23.0876900  86.9564003  15.3193435  17.4231700
  86.1731525  15.8615115  17.5169924  87.6556748  15.8367415  17.8225941
  89.6272907  15.9808499  26.0687037  90.3400879  16.6155964  25.9962938
  89.1362935  16.0772365  25.2527039  91.3490434   9.8859752  17.6404329
  90.4146712  10.0061214  17.4709033  91.5267102   8.9832219  17.3764338
  84.6784820  13.7302943  26.8892608  85.3794280  14.3639426  27.0422002
  84.2079935  14.0717674  26.1288247  89.4393280  16.3207243  18.8173328
  89.6215675  15.5028899  19.2801081  90.2626266  16.5374935  18.3798218
  89.7735446  15.2475428  16.0788377  90.3023212  14.7367883  15.4658539
  90.0363665  14.9317959  16.9433910  88.5273679   7.0267361  31.2011195
  87.8514316   6.9261490  31.8713570  89.3501313   6.8706575  31.6647192
  80.2752538  13.2639298  23.8223710  80.8605975  12.5182985  23.9551615
  80.0777377  13.5743254  24.7060374  83.1291194  16.2990545  18.8386153
  82.4601569  16.7836673  18.3550193  82.9904063  16.5459765  19.7529531
  74.8670193   5.8344898  22.5428154  74.9054293   5.3008488  23.3365272
  74.3610486   5.3080103  21.9239131  87.2696462  18.3334288  25.4368811
  87.8214770  18.4965910  26.2017896  87.6102656  18.9238726  24.7648836
  92.1207337  13.1595546  31.2917466  92.6647241  13.7725504  30.7972420
  91.5394181  13.7175124  31.8084479  78.4978771   4.5609000  15.6182085
  78.7932212   3.6519678  15.5649139  77.5966806   4.5396739  15.2963087
  90.4064849  16.2816264  22.4232493  90.2815989  15.4806004  21.9143439
  91.0643941  16.7762457  21.9346463  92.4699758  14.0825284  24.0512043
  91.5230093  13.9630635  23.9790370  92.8182531  13.1947782  24.1338305
  89.4746191  13.8778000  20.2516396  89.3271154  12.9494708  20.4323966
  90.2999685  13.8998091  19.7673471  93.0780313  14.7006559  21.3381268
  94.0026861  14.4949420  21.2005720  92.9095616  14.4522960  22.2470610
  92.8675629  15.2192226  16.6943360  93.0412507  14.6538649  15.9417212
  93.3604520  16.0193121  16.5122850  78.6852589   7.2306896  24.7606919
  78.1406057   8.0066704  24.8927193  79.5631939   7.5777700  24.6026040
  79.4718611   6.3576792  27.6537076  78.7300347   6.5059427  28.2401706
  79.1511355   6.6185057  26.7903825  87.4162274  15.8992770  27.4517466
  87.7249400  15.6541917  28.3240165  88.2137756  16.1039409  26.9636336
  87.4382886  18.0530680  19.6822842  86.9987876  17.5607058  20.3755699
  88.1891003  17.5103647  19.4414917  79.9175225  14.2442221  19.6847470
  80.7433244  13.9445992  19.3046114  79.5669277  13.4749843  20.1337259
  84.8856758  13.5968689  21.7545144  84.2636767  12.9339394  21.4547372
  85.5561625  13.6229821  21.0718792  78.1183830  12.1628547  20.6436404
  77.2815738  11.7350721  20.4620405  78.0907475  12.3560990  21.5807195
  95.4436131  12.6191600  30.6278787  94.6531675  12.6015739  30.0883286
  95.2069485  13.1579894  31.3827823  84.4470265  12.1472612  15.2303604
  84.5958385  12.8308077  14.5770277  85.2536708  12.1277702  15.7453060
  97.0652203  11.8881008  28.1853537  96.7737011  12.2510989  29.0216998
  96.4524334  11.1748016  28.0066869  82.2022898   8.1737790  16.2364673
  81.9568940   7.2700120  16.4344883  82.3718812   8.1754940  15.2944151
  87.9465670  14.6420743  12.7015352  87.3739637  15.2610930  12.2485824
  88.5198464  15.1920104  13.2355274  88.2151161  10.0299301  31.5032061
  89.1354171  10.2077900  31.6972108  88.1800744   9.0855347  31.3511760
  77.4333326   5.2237895  20.4285336  77.1136111   4.3703203  20.1359710
  76.8866754   5.4386473  21.1843303  81.2113234   7.9400336  24.1454842
  81.4299244   8.8717444  24.1642876  81.6239008   7.5808311  24.9309646
  77.3021586   8.8440807  22.3978457  76.6085058   8.4294759  21.8848412
  78.0494577   8.8861343  21.8011876  85.9472369   6.9430681  32.3522653
  85.4639451   7.7431041  32.5586542  86.0333308   6.9538626  31.3990097
  79.2158329   8.7759060  20.2744472  79.1929017   8.8746748  19.3226355
  79.5258965   9.6224211  20.5961638  81.8745707  10.8335215  24.3891087
  82.8288960  10.8019158  24.3221018  81.6758230  10.3725839  25.2041313
  82.4645089   9.4036331  26.9561884  83.2837978   9.8980410  26.9796722
  82.7381896   8.4868300  26.9279452  80.2295935  16.3754835  21.4061285
  80.0950403  15.6155236  20.8399283  79.8127998  17.0995735  20.9390073
  83.3865061  17.2724152  21.6179727  83.2697445  18.2169584  21.5158418
  82.5657508  16.9697714  22.0065526  77.7180003   3.7374465  27.6554081
  78.3638867   3.2273419  28.1441307  77.5097154   4.4743147  28.2297507
  90.2433395  10.8055313  33.1546222  91.1124555  10.9795965  32.7932857
  89.7640147  11.6249730  33.0321951  84.4119575  17.9252414  24.8335656
  85.3146822  17.9576024  25.1502151  84.1856945  16.9952865  24.8481991
  86.1673177  16.6783400  21.4945734  85.2168808  16.6785262  21.3810107
  86.4705664  15.9316135  20.9781769  98.7115577  22.4671367  22.4953021
  98.3734089  22.3512432  21.6073556  99.5805345  22.0662532  22.4754028
  94.5702393  24.3206843  18.4849912  94.0067258  24.2296780  17.7166200
  94.4554788  23.5006748  18.9652405  99.1935360  23.6206219  28.4539227
  99.1824001  23.2259017  27.5819731  99.3556000  22.8872291  29.0472998
  92.1166825  25.8158035  21.3234133  92.9088117  25.4748860  20.9080432
  92.3563475  25.9253010  22.2436286 100.1501952  27.9877811  13.7964377
  99.4989931  28.5731891  13.4098391 100.9446314  28.5184006  13.8559415
  94.0757579  25.0766948  14.1951512  94.8488455  24.5295935  14.0564387
  94.4282978  25.9411197  14.4065973  95.9142621  26.4043330  27.4018411
  95.6232487  27.3088961  27.2865077  96.5499606  26.4459858  28.1162480
  96.8398828  23.7820179  23.9919771  97.4362400  23.5576201  23.2776733
  96.8973800  23.0404924  24.5945218  96.1320145  23.1387720  14.0294336
  96.0156403  22.4632624  14.6975421  96.2422405  22.6520094  13.2126490
  98.4751686  22.5997867  17.7341026  98.1109893  22.0728488  18.4453947
  99.3318802  22.2096336  17.5607511 104.3800987  13.8892200  24.9972292
 104.0484312  14.7587611  24.7733507 103.7846600  13.5728484  25.6766322
 100.8732506  26.0904746  24.3968205 100.5733230  26.9929785  24.2884012
 100.5283566  25.8236929  25.2489357  94.3244988  22.5418543  20.4304909
  93.3995484  22.4094757  20.6382601  94.5729401  23.3212762  20.9274851
 104.2729650  18.6087286  22.0765642 103.3646528  18.5402695  21.7824403
 104.2217246  19.0859231  22.9047467  91.6853799  22.1851816  21.2648698
  91.8146180  22.4386295  22.1788110  91.0051250  22.7779524  20.9453353
  95.8553286  32.8549066  17.3639172  95.7777316  33.8056891  17.4427653
  95.2514930  32.5094939  18.0214099  98.3470516  20.0276932  30.0200539
  97.5703850  20.5870852  30.0103404  98.9861079  20.5133715  30.5415409
  96.6016888  22.8362385  29.5818506  97.3431573  23.3747429  29.3053330
  95.8953874  23.4628674  29.7390058 102.0772228  24.9791526  28.1790668
 102.4855584  24.5373936  27.4345300 101.3549489  24.4044153  28.4324861
  98.4303298  19.9164132  25.5524225  99.2764493  20.3403546  25.6958874
  98.3701936  19.2597757  26.2462788 102.4001043  25.5392716  21.9342957
 101.7709905  25.7038430  21.2319024 102.0126705  25.9534326  22.7053921
 106.2790274  26.4747154  19.2887320 105.5941313  26.8546055  18.7384354
 106.3634124  27.0842481  20.0219268 101.5802743  17.5768501  27.2105398
 101.3363675  18.3310561  26.6739674 101.8562674  17.9553848  28.0452645
 103.5341206  24.1207113  25.8882664 103.7458101  24.7638873  25.2117045
 103.4870954  23.2869430  25.4204594 101.1367435  16.7324934  22.7919236
 100.2751914  17.0306187  23.0835974 101.1629870  16.9495333  21.8600269
  97.9529004  25.2767124  19.1993042  98.4167350  25.5554827  18.4097664
  97.6885803  24.3750569  19.0166132  94.8453086  24.8238606  22.1372805
  95.4154443  25.2525874  21.4990289  95.4361197  24.5421190  22.8356991
  96.8897891  21.3990277  16.0082607  97.5921934  21.8511320  16.4756533
  96.5578519  20.7574095  16.6362500  95.3378252  19.9902033  30.3833816
  94.7076913  20.6718314  30.6169213  95.2314340  19.8785115  29.4386954
  90.6323224  19.6573829  21.3099740  89.8422278  19.9131358  20.8339851
  91.1234472  20.4722167  21.4151781 104.6487034  26.9979068  24.0605021
 105.4704478  26.5959256  23.7787703 104.6449437  26.8947303  25.0121137
  92.5837970  20.0218409  18.2683217  91.7869133  20.1337103  18.7866713
  92.3563562  20.3605061  17.4024108  98.4143637  26.5463112  26.2165732
  98.4788070  27.0083519  27.0523904  97.7054561  25.9160477  26.3448042
  88.9160927  19.9104320  23.7414731  89.1668966  20.7951330  24.0072307
  89.4520476  19.7308921  22.9689823  98.1291655  28.2131219  16.0844712
  97.9937330  29.0582755  16.5129560  98.6701468  28.4150497  15.3210646
  94.6158995  14.2922799  32.7459067  94.2225940  13.7388998  33.4206711
  95.4325135  14.6033378  33.1365585  91.5821053  25.7306657  16.6572637
  92.0945573  26.5249908  16.8078202  92.2343765  25.0332948  16.5906239
  93.3915937  28.8472414  18.7395390  93.5682566  29.7690378  18.5516374
  94.1872771  28.5330833  19.1689770  97.5326956  15.7080678  30.3379324
  98.2736669  16.3087831  30.2583786  97.7644879  14.9658316  29.7797366
  92.6768294  20.8937045  28.6157553  92.5621809  19.9922303  28.9164652
  91.8212812  21.1400742  28.2642370  99.7560132  28.8354786  30.2145054
  99.3123986  28.0491164  29.8965959 100.4177345  29.0233936  29.5488945
  94.5147253  30.3650587  24.7405733  95.0654678  30.2367651  23.9682727
  93.6758729  30.6645476  24.3900625 101.8541370  29.1157586  28.2426455
 101.8359845  29.9366467  27.7506725 102.7761290  28.9911661  28.4676597
  98.3114424  26.6301715  29.0849964  98.8442761  25.8690003  28.8549272
  97.7828505  26.3375367  29.8274118  89.5469969  24.0595312  17.4332208
  90.3845191  24.4692320  17.2165915  89.7248237  23.1194754  17.4032402
 100.5580659  14.1066436  22.5792839 100.0545455  14.0696571  21.7660644
 100.8511266  15.0159179  22.6389495  99.6767136  25.7587708  16.5968776
  99.1488498  25.0240467  16.2842013  99.1754639  26.5362384  16.3508744
 104.6559982  23.9536728  21.7135822 103.9983657  24.6435990  21.8015951
 105.4600382  24.3433160  22.0569808  94.4085864  16.4207374  18.9575387
  94.9829616  16.1982555  18.2248580  94.9956846  16.4896068  19.7103989
 100.7287816  32.2865425  12.5200435 100.0549514  32.5897122  13.1285393
 101.1153637  33.0894505  12.1705892 104.2327237  27.2887102  17.8918906
 103.7789565  26.4478012  17.9484097 103.6021204  27.9248501  18.2293687
 102.6760177  29.1263599  18.8268725 102.9683151  29.6868656  18.1081090
 103.1858797  29.4192160  19.5821884  89.5696140  21.3986027  18.1042941
  89.3720540  20.8055388  17.3794008  89.0142804  21.0938237  18.8218880
  97.5492864  21.2909133  20.2237534  97.6041474  20.3382970  20.1480011
  96.7384066  21.4468572  20.7078833  95.4885224  19.9086193  17.9827913
  94.6753090  20.2080364  18.3893105  95.9844218  19.5141882  18.7002395
  97.6393802  29.9043950  19.9162178  97.5969981  30.1304796  18.9870710
  98.5556501  29.6707325  20.0647979 101.0859436  20.3728018  26.8142807
 101.4408823  20.5999491  27.6737273 101.7331567  20.7046394  26.1920062
  94.9799299  17.4804549  23.5989148  95.6198678  17.3393308  22.9012111
  94.1476829  17.1939062  23.2227750 106.8426552  25.5622980  22.5303408
 107.2763059  25.4698270  23.3786462 107.5558133  25.5380481  21.8923424
  95.7559603  26.7806979  19.7124140  96.5500201  26.2857299  19.5106715
  95.0451295  26.2524842  19.3491846 100.5754447  29.1625075  24.0636508
 100.6291469  29.7316011  24.8314224  99.7069229  29.3326960  23.6990545
  92.0642366  20.9250061  15.7883893  91.1339954  20.8634516  16.0053855
  92.1599838  20.4026014  14.9920534  91.9827915  17.4504874  18.3762135
  92.2434732  18.3650207  18.2671295  92.8045088  16.9829316  18.5258748
  93.4552841  18.8642631  25.5460959  94.1275894  18.6559993  24.8973608
  92.6282627  18.6664717  25.1066192 107.7042102  25.6046681  25.0636293
 107.8977992  26.5092492  25.3095568 107.6042720  25.1454100  25.8974878
  99.3578413  15.4904572  27.5626620  98.7106328  16.1894521  27.4691097
 100.1279428  15.9240716  27.9302868 102.7657210  25.7553424  30.6377174
 102.6142717  25.5263976  29.7207257 102.7561890  26.7124025  30.6508519
  99.5342547  23.3285337  25.6223440 100.4634607  23.4796496  25.4492407
  99.1133577  23.4169357  24.7672086  98.3330879  27.3536001  23.3921978
  98.1941964  26.9854785  24.2647916  97.5445475  27.8683640  23.2205935
  98.9279031  32.4545098  14.7347514  99.1030786  31.9833141  15.5493137
  98.2411819  33.0810864  14.9628775  99.8836094  26.7317604  20.7810815
  99.5485926  26.6918374  21.6768465  99.3840040  26.0662320  20.3081226
  93.8580338  22.1385234  26.3063397  93.7200136  21.4065473  26.9074936
  94.7685261  22.0494134  26.0247584  96.4862638  21.8505193  25.7947076
  97.1962257  21.2098385  25.7533695  96.4431947  22.1018088  26.7173257
 104.4749417  28.7872546  28.7153655 104.4161963  28.1031767  28.0484238
 104.8768936  29.5291536  28.2634281  95.1991572  18.8370411  27.6142716
  94.6628929  18.3861149  28.2664312  94.6108281  18.9716320  26.8713180
  93.4940116  35.6034460  21.5087374  93.7336714  36.2352984  22.1866393
  92.6509312  35.2522500  21.7952734 104.4766824  26.7512130  26.9467635
 103.5893603  26.4138052  27.0694034 105.0465375  26.0195162  27.1836400
  86.1295972  23.0836222  20.2710686  86.8167011  22.7697952  19.6831702
  85.9744100  23.9877587  19.9977938  90.9330694  17.9726419  24.6995710
  90.8488882  17.3652088  23.9646120  90.1113400  18.4635437  24.7005206
  98.0067978  31.4113583  23.9128878  97.9338149  32.2168554  24.4248183
  97.5645371  31.6105549  23.0876900  97.7957757  30.6485353  17.4231700
  97.0125279  31.1907033  17.5169924  98.4950503  31.1659332  17.8225941
 100.4666661  31.3100417  26.0687037 101.1794634  31.9447882  25.9962938
  99.9756690  31.4064283  25.2527039 102.1884188  25.2151669  17.6404329
 101.2540467  25.3353132  17.4709033 102.3660857  24.3124136  17.3764338
  97.6889376  18.5997365  19.7937590  97.3187164  18.0468406  20.4818495
  98.1848469  17.9955499  19.2412590  95.5178575  29.0594860  26.8892608
  96.2188034  29.6931343  27.0422002  95.0473690  29.4009592  26.1288247
 103.3179861  21.6139468  24.7145158 102.6651311  21.8615375  24.0597611
 103.6960241  20.8003606  24.3807635 100.2787035  31.6499161  18.8173328
 100.4609429  30.8320817  19.2801081 101.1020021  31.8666853  18.3798218
 100.6129200  30.5767346  16.0788377 101.1416967  30.0659801  15.4658539
 100.8757420  30.2609876  16.9433910  99.3667434  22.3559279  31.2011195
  98.6908071  22.2553408  31.8713570 100.1895068  22.1998492  31.6647192
  91.1146293  28.5931215  23.8223710  91.6999730  27.8474903  23.9551615
  90.9171131  28.9035172  24.7060374  93.9684948  31.6282463  18.8386153
  93.2995323  32.1128590  18.3550193  93.8297818  31.8751683  19.7529531
  85.7063948  21.1636815  22.5428154  85.7448047  20.6300406  23.3365272
  85.2004240  20.6372021  21.9239131  98.1090217  33.6626206  25.4368811
  98.6608525  33.8257828  26.2017896  98.4496410  34.2530644  24.7648836
  93.0854710  16.0101356  26.0390696  93.1496036  16.8716187  25.6268094
  93.0221830  15.3975358  25.3063054  92.5606982  18.0824489  29.6863730
  93.1879021  17.7001566  30.3001254  91.7034901  17.8638690  30.0519423
 102.9601091  28.4887464  31.2917466 103.5040995  29.1017422  30.7972420
 102.3787936  29.0467042  31.8084479  89.3372525  19.8900918  15.6182085
  89.6325966  18.9811596  15.5649139  88.4360561  19.8688657  15.2963087
 101.2458604  31.6108182  22.4232493 101.1209743  30.8097922  21.9143439
 101.9037695  32.1054375  21.9346463  92.8666772  17.9656914  21.6009634
  92.1453358  18.5792882  21.4617107  93.6560028  18.5014679  21.5226280
 103.3093512  29.4117202  24.0512043 102.3623848  29.2922553  23.9790370
 103.6576285  28.5239700  24.1338305  95.6693086  15.3011341  27.8750285
  96.1927488  15.5473637  28.6376595  95.4505419  16.1331376  27.4553423
  91.0660367  17.5715015  15.7421410  90.7373073  16.6912394  15.5596516
  91.4199738  17.5162684  16.6297799 100.3139946  29.2069918  20.2516396
 100.1664908  28.2786625  20.4323966 101.1393439  29.2290009  19.7673471
  94.1802190  17.8587985  16.1096888  94.5198262  18.3873906  15.3875496
  94.6274310  18.1968391  16.8855454 103.9174068  30.0298477  21.3381268
 104.8420615  29.8241338  21.2005720 103.7489371  29.7814878  22.2470610
  96.8745631  16.2425036  25.5599956  96.5342451  15.4432849  25.9620636
  96.1684637  16.5426747  24.9876789  97.5262103  13.3274348  24.0127279
  98.3488172  12.8534826  23.8906169  97.7700166  14.1064832  24.5125965
  95.0500681  20.0193469  21.8219257  94.9045262  20.3333772  22.7143539
  94.5725885  20.6378369  21.2690156  98.7623195  17.4433357  23.9153274
  98.5040973  18.3650428  23.9137605  98.2308235  17.0463792  24.6053739
 103.7069384  30.5484144  16.6943360 103.8806261  29.9830567  15.9417212
 104.1998275  31.3485039  16.5122850  89.5246344  22.5598813  24.7606919
  88.9799812  23.3358621  24.8927193  90.4025693  22.9069618  24.6026040
  90.3112365  21.6868710  27.6537076  89.5694101  21.8351345  28.2401706
  89.9905110  21.9476975  26.7903825  98.2556028  31.2284688  27.4517466
  98.5643154  30.9833835  28.3240165  99.0531510  31.4331326  26.9636336
  98.2776640  33.3822597  19.6822842  97.8381630  32.8898976  20.3755699
  99.0284757  32.8395565  19.4414917  90.7568979  29.5734138  19.6847470
  91.5826999  29.2737910  19.3046114  90.4063031  28.8041761  20.1337259
  95.7250512  28.9260606  21.7545144  95.1030522  28.2631312  21.4547372
  96.3955379  28.9521738  21.0718792  88.9577584  27.4920465  20.6436404
  88.1209492  27.0642639  20.4620405  88.9301230  27.6852908  21.5807195
  95.7975040  17.4042395  31.3477650  95.8463195  18.2804517  30.9655419
  96.3397554  16.8619788  30.7749293 106.2829885  27.9483518  30.6278787
 105.4925429  27.9307657  30.0883286 106.0463240  28.4871811  31.3827823
 106.4027760  24.7975984  27.9411515 106.4525765  24.6325992  28.8827038
 106.2941684  23.9303243  27.5509396  95.2864019  27.4764530  15.2303604
  95.4352140  28.1599994  14.5770277  96.0930463  27.4569620  15.7453060
 103.6931523  20.7806912  29.2570822 104.5941386  20.6413377  28.9654820
 103.7679497  20.9461367  30.1969000  98.0274328  18.1573767  28.1024008
  97.1577638  18.4507333  27.8306597  98.2633809  18.7414212  28.8231272
 107.9045957  27.2172926  28.1853537 107.6130766  27.5802906  29.0216998
 107.2918089  26.5039934  28.0066869 106.1533146  22.3405540  26.6533595
 106.6287267  22.5333187  25.8452446 105.2298711  22.3964726  26.4076979
  93.0416652  23.5029707  16.2364673  92.7962694  22.5992037  16.4344883
  93.2112567  23.5046858  15.2944151 100.7313362  14.3753384  25.6189429
 101.2495306  15.1114411  25.2935917 100.3768495  14.6817377  26.4536188
  92.3112300  19.2358065  13.7350835  91.6181545  19.3102420  13.0790871
  92.0664052  18.4718409  14.2572352  98.7859425  29.9712660  12.7015352
  98.2133392  30.5902847  12.2485824  99.3592218  30.5212022  13.2355274
 104.8534815  19.2171300  24.8861901 105.8052237  19.3169398  24.9074125
 104.6838265  18.4249569  25.3959985 102.8749194  16.3026884  25.0721301
 102.2799126  16.5831896  24.3767790 102.5898891  16.7920785  25.8438043
 107.3322892  22.4377420  24.0004200 107.2999212  21.4993421  24.1863884
 107.9423516  22.5161457  23.2670025  99.0544916  25.3591219  31.5032061
  99.9747925  25.5369818  31.6972108  99.0194499  24.4147265  31.3511760
  88.2727081  20.5529813  20.4285336  87.9529865  19.6995121  20.1359710
  87.7260509  20.7678391  21.1843303  92.0506988  23.2692254  24.1454842
  92.2692998  24.2009362  24.1642876  92.4632762  22.9100228  24.9309646
  96.9234854  18.8425460  33.5357591  96.8231580  19.7919817  33.4669682
  96.7056396  18.5143698  32.6633661  88.1415341  24.1732724  22.3978457
  87.4478812  23.7586677  21.8848412  88.8888332  24.2153261  21.8011876
  96.7866124  22.2722598  32.3522653  96.3033205  23.0722959  32.5586542
  96.8727063  22.2830543  31.3990097  90.0552083  24.1050978  20.2744472
  90.0322771  24.2038665  19.3226355  90.3652720  24.9516129  20.5961638
  92.7139461  26.1627133  24.3891087  93.6682715  26.1311075  24.3221018
  92.5151985  25.7017757  25.2041313  93.3038843  24.7328249  26.9561884
  94.1231732  25.2272328  26.9796722  93.5775651  23.8160217  26.9279452
  91.0689690  31.7046753  21.4061285  90.9344158  30.9447153  20.8399283
  90.6521752  32.4287652  20.9390073  94.2258816  32.6016070  21.6179727
  94.1091200  33.5461502  21.5158418  93.4051262  32.2989631  22.0065526
  88.5573757  19.0666383  27.6554081  89.2032621  18.5565337  28.1441307
  88.3490909  19.8035065  28.2297507 101.0827150  26.1347231  33.1546222
 101.9518309  26.3087883  32.7932857 100.6033901  26.9541647  33.0321951
  95.2513330  33.2544332  24.8335656  96.1540577  33.2867942  25.1502151
  95.0250700  32.3244782  24.8481991  97.0066932  32.0075318  21.4945734
  96.0562563  32.0077180  21.3810107  97.3099418  31.2608053  20.9781769
  92.8971248  16.2134000  31.7529096  93.7602710  15.8570805  31.9632420
  92.3236659  15.8747895  32.4404500 112.7419625  37.8435856  22.5591497
 113.3798035  37.7242604  21.8554837 112.6240468  38.7916700  22.6179449
 109.5509332  37.7963285  22.4953021 109.2127843  37.6804349  21.6073556
 110.4199100  37.3954450  22.4754028 105.4096147  39.6498761  18.4849912
 104.8461013  39.5588698  17.7166200 105.2948542  38.8298665  18.9652405
 110.0329115  38.9498136  28.4539227 110.0217755  38.5550935  27.5819731
 110.1949754  38.2164209  29.0472998 102.9560579  41.1449953  21.3234133
 103.7481871  40.8040777  20.9080432 103.1957229  41.2544928  22.2436286
 110.9895706  43.3169729  13.7964377 110.3383686  43.9023809  13.4098391
 111.7840069  43.8475924  13.8559415 104.9151333  40.4058866  14.1951512
 105.6882209  39.8587853  14.0564387 105.2676732  41.2703115  14.4065973
 106.7536376  41.7335248  27.4018411 106.4626242  42.6380879  27.2865077
 107.3893360  41.7751776  28.1162480 107.6792583  39.1112097  23.9919771
 108.2756155  38.8868119  23.2776733 107.7367554  38.3696842  24.5945218
 106.9713900  38.4679638  14.0294336 106.8550158  37.7924541  14.6975421
 107.0816160  37.9812012  13.2126490 109.3145441  37.9289785  17.7341026
 108.9503648  37.4020406  18.4453947 110.1712557  37.5388254  17.5607511
 115.2194741  29.2184118  24.9972292 114.8878066  30.0879529  24.7733507
 114.6240355  28.9020402  25.6766322 111.7126261  41.4196664  24.3968205
 111.4126984  42.3221702  24.2884012 111.3677320  41.1528847  25.2489357
 105.1638742  37.8710460  20.4304909 104.2389239  37.7386675  20.6382601
 105.4123156  38.6504680  20.9274851 115.1123405  33.9379204  22.0765642
 114.2040282  33.8694612  21.7824403 115.0611000  34.4151149  22.9047467
 102.5247553  37.5143734  21.2648698 102.6539935  37.7678213  22.1788110
 101.8445005  38.1071442  20.9453353 106.6947041  48.1840984  17.3639172
 106.6171070  49.1348809  17.4427653 106.0908684  47.8386856  18.0214099
 109.1864270  35.3568849  30.0200539 108.4097605  35.9162770  30.0103404
 109.8254834  35.8425632  30.5415409 107.4410643  38.1654303  29.5818506
 108.1825327  38.7039347  29.3053330 106.7347628  38.7920591  29.7390058
 112.9165982  40.3083443  28.1790668 113.3249338  39.8665854  27.4345300
 112.1943244  39.7336071  28.4324861 109.2697052  35.2456050  25.5524225
 110.1158248  35.6695464  25.6958874 109.2095690  34.5889674  26.2462788
 113.2394797  40.8684634  21.9342957 112.6103660  41.0330348  21.2319024
 112.8520459  41.2826243  22.7053921 117.1184029  41.8039072  19.2887320
 116.4335067  42.1837973  18.7384354 117.2027878  42.4134398  20.0219268
 112.4196498  32.9060418  27.2105398 112.1757430  33.6602479  26.6739674
 112.6956428  33.2845766  28.0452645 114.3734961  39.4499031  25.8882664
 114.5851856  40.0930791  25.2117045 114.3264709  38.6161347  25.4204594
 111.9761190  32.0616851  22.7919236 111.1145669  32.3598105  23.0835974
 112.0023624  32.2787250  21.8600269 108.7922759  40.6059042  19.1993042
 109.2561104  40.8846745  18.4097664 108.5279557  39.7042486  19.0166132
 105.6846840  40.1530523  22.1372805 106.2548197  40.5817792  21.4990289
 106.2754952  39.8713108  22.8356991 107.7291645  36.7282194  16.0082607
 108.4315688  37.1803238  16.4756533 107.3972273  36.0866013  16.6362500
 106.1772007  35.3193951  30.3833816 105.5470667  36.0010232  30.6169213
 106.0708094  35.2077033  29.4386954 101.4716979  34.9865747  21.3099740
 100.6816033  35.2423275  20.8339851 101.9628226  35.8014085  21.4151781
 115.4880789  42.3270986  24.0605021 116.3098232  41.9251173  23.7787703
 115.4843191  42.2239220  25.0121137 103.4231724  35.3510326  18.2683217
 102.6262888  35.4629020  18.7866713 103.1957317  35.6896978  17.4024108
 109.2537392  41.8755029  26.2165732 109.3181824  42.3375437  27.0523904
 108.5448316  41.2452394  26.3448042  99.7554682  35.2396237  23.7414731
 100.0062720  36.1243247  24.0072307 100.2914230  35.0600839  22.9689823
 108.9685410  43.5423137  16.0844712 108.8331084  44.3874673  16.5129560
 109.5095222  43.7442415  15.3210646 105.4552749  29.6214717  32.7459067
 105.0619695  29.0680915  33.4206711 106.2718890  29.9325295  33.1365585
 102.4214807  41.0598575  16.6572637 102.9339328  41.8541825  16.8078202
 103.0737520  40.3624865  16.5906239 104.2309692  44.1764331  18.7395390
 104.4076320  45.0982296  18.5516374 105.0266525  43.8622750  19.1689770
 108.3720710  31.0372596  30.3379324 109.1130424  31.6379749  30.2583786
 108.6038633  30.2950234  29.7797366 103.5162048  36.2228963  28.6157553
 103.4015563  35.3214220  28.9164652 102.6606566  36.4692660  28.2642370
 110.5953886  44.1646703  30.2145054 110.1517740  43.3783082  29.8965959
 111.2571100  44.3525854  29.5488945 105.3541007  45.6942505  24.7405733
 105.9048432  45.5659568  23.9682727 104.5152483  45.9937394  24.3900625
 112.6935124  44.4449503  28.2426455 112.6753599  45.2658384  27.7506725
 113.6155044  44.3203579  28.4676597 109.1508178  41.9593633  29.0849964
 109.6836515  41.1981921  28.8549272 108.6222259  41.6667285  29.8274118
 100.3863724  39.3887229  17.4332208 101.2238946  39.7984238  17.2165915
 100.5641991  38.4486671  17.4032402 111.3974414  29.4358354  22.5792839
 110.8939209  29.3988489  21.7660644 111.6905020  30.3451097  22.6389495
 107.6417299  29.5197084  21.5859020 108.5070296  29.3239892  21.2264910
 107.7094808  29.2907435  22.5128377 110.5160891  41.0879625  16.5968776
 109.9882253  40.3532385  16.2842013 110.0148394  41.8654302  16.3508744
 115.4953737  39.2828646  21.7135822 114.8377411  39.9727907  21.8015951
 116.2994136  39.6725078  22.0569808 105.2479619  31.7499292  18.9575387
 105.8223370  31.5274473  18.2248580 105.8350601  31.8187986  19.7103989
 111.5681570  47.6157343  12.5200435 110.8943269  47.9189040  13.1285393
 111.9547392  48.4186423  12.1705892 110.7840027  35.1122474  22.0098104
 109.8662588  35.3337421  21.8519792 111.2000170  35.1868785  21.1509812
 115.0720992  42.6179020  17.8918906 114.6183319  41.7769930  17.9484097
 114.4414959  43.2540418  18.2293687 113.5153931  44.4555517  18.8268725
 113.8076906  45.0160574  18.1081090 114.0252552  44.7484078  19.5821884
 100.4089895  36.7277945  18.1042941 100.2114295  36.1347305  17.3794008
  99.8536559  36.4230155  18.8218880 108.3886619  36.6201051  20.2237534
 108.4435228  35.6674887  20.1480011 107.5777821  36.7760490  20.7078833
 106.3278979  35.2378111  17.9827913 105.5146844  35.5372281  18.3893105
 106.8237973  34.8433800  18.7002395 108.4787556  45.2335868  19.9162178
 108.4363735  45.4596714  18.9870710 109.3950255  44.9999242  20.0647979
 111.9253190  35.7019935  26.8142807 112.2802578  35.9291408  27.6737273
 112.5725321  36.0338312  26.1920062 105.8193053  32.8096466  23.5989148
 106.4592433  32.6685225  22.9012111 104.9870584  32.5230980  23.2227750
 117.6820307  40.8914898  22.5303408 118.1156813  40.7990187  23.3786462
 118.3951887  40.8672399  21.8923424 106.5953357  42.1098897  19.7124140
 107.3893956  41.6149217  19.5106715 105.8845050  41.5816760  19.3491846
 111.4148202  44.4916992  24.0636508 111.4685224  45.0607929  24.8314224
 110.5462983  44.6618877  23.6990545 102.9036121  36.2541978  15.7883893
 101.9733709  36.1926434  16.0053855 102.9993593  35.7317931  14.9920534
 102.8221670  32.7796791  18.3762135 103.0828487  33.6942125  18.2671295
 103.6438842  32.3121234  18.5258748 104.2946595  34.1934548  25.5460959
 104.9669648  33.9851911  24.8973608 103.4676382  33.9956634  25.1066192
 118.5435856  40.9338599  25.0636293 118.7371746  41.8384409  25.3095568
 118.4436474  40.4746018  25.8974878 110.1972167  30.8196489  27.5626620
 109.5500082  31.5186439  27.4691097 110.9673182  31.2532633  27.9302868
 113.6050965  41.0845342  30.6377174 113.4536471  40.8555893  29.7207257
 113.5955644  42.0415943  30.6508519 110.3736301  38.6577254  25.6223440
 111.3028361  38.8088414  25.4492407 109.9527331  38.7461275  24.7672086
 109.1724633  42.6827919  23.3921978 109.0335719  42.3146703  24.2647916
 108.3839229  43.1975558  23.2205935 109.7672785  47.7837015  14.7347514
 109.9424541  47.3125058  15.5493137 109.0805573  48.4102781  14.9628775
 110.7229848  42.0609521  20.7810815 110.3879681  42.0210291  21.6768465
 110.2233794  41.3954237  20.3081226 104.6974092  37.4677151  26.3063397
 104.5593890  36.7357390  26.9074936 105.6079016  37.3786052  26.0247584
 107.3256393  37.1797111  25.7947076 108.0356011  36.5390303  25.7533695
 107.2825701  37.4310006  26.7173257 115.3143172  44.1164464  28.7153655
 115.2555718  43.4323684  28.0484238 115.7162690  44.8583454  28.2634281
 106.0385327  34.1662329  27.6142716 105.5022684  33.7153067  28.2664312
 105.4502035  34.3008237  26.8713180 104.3333870  50.9326378  21.5087374
 104.5730469  51.5644902  22.1866393 103.4903067  50.5814418  21.7952734
 115.3160579  42.0804048  26.9467635 114.4287358  41.7429970  27.0694034
 115.8859130  41.3487079  27.1836400  96.9689726  38.4128140  20.2710686
  97.6560766  38.0989870  19.6831702  96.8137855  39.3169504  19.9977938
 101.7724448  33.3018336  24.6995710 101.6882637  32.6944006  23.9646120
 100.9507155  33.7927355  24.7005206 108.8461732  46.7405500  23.9128878
 108.7731904  47.5460472  24.4248183 108.4039125  46.9397466  23.0876900
 108.6351512  45.9777270  17.4231700 107.8519034  46.5198951  17.5169924
 109.3344257  46.4951250  17.8225941 111.3060416  46.6392334  26.0687037
 112.0188388  47.2739799  25.9962938 110.8150444  46.7356200  25.2527039
 113.0277943  40.5443587  17.6404329 112.0934221  40.6645050  17.4709033
 113.2054611  39.6416054  17.3764338 108.5283131  33.9289283  19.7937590
 108.1580918  33.3760323  20.4818495 109.0242223  33.3247416  19.2412590
 106.3572329  44.3886778  26.8892608 107.0581789  45.0223261  27.0422002
 105.8867444  44.7301509  26.1288247 114.1573615  36.9431385  24.7145158
 113.5045066  37.1907293  24.0597611 114.5353995  36.1295524  24.3807635
 111.1180789  46.9791079  18.8173328 111.3003184  46.1612734  19.2801081
 111.9413775  47.1958771  18.3798218 111.4522955  45.9059264  16.0788377
 111.9810721  45.3951718  15.4658539 111.7151174  45.5901794  16.9433910
 110.2061188  37.6851196  31.2011195 109.5301825  37.5845326  31.8713570
 111.0288822  37.5290410  31.6647192 101.9540047  43.9223133  23.8223710
 102.5393484  43.1766821  23.9551615 101.7564886  44.2327090  24.7060374
 104.8078703  46.9574380  18.8386153 104.1389078  47.4420508  18.3550193
 104.6691572  47.2043601  19.7529531  96.5457702  36.4928733  22.5428154
  96.5841802  35.9592324  23.3365272  96.0397995  35.9663939  21.9239131
 108.9483971  48.9918124  25.4368811 109.5002279  49.1549745  26.2017896
 109.2890165  49.5822562  24.7648836 103.9248464  31.3393274  26.0390696
 103.9889791  32.2008105  25.6268094 103.8615585  30.7267275  25.3063054
 103.4000737  33.4116406  29.6863730 104.0272776  33.0293484  30.3001254
 102.5428656  33.1930608  30.0519423 113.7994846  43.8179381  31.2917466
 114.3434750  44.4309340  30.7972420 113.2181690  44.3758960  31.8084479
 100.1766280  35.2192835  15.6182085 100.4719721  34.3103514  15.5649139
  99.2754315  35.1980575  15.2963087 112.0852358  46.9400099  22.4232493
 111.9603498  46.1389839  21.9143439 112.7431450  47.4346293  21.9346463
 103.7060527  33.2948832  21.6009634 102.9847112  33.9084800  21.4617107
 104.4953782  33.8306597  21.5226280 114.1487267  44.7409119  24.0512043
 113.2017602  44.6214471  23.9790370 114.4970040  43.8531618  24.1338305
 106.5086840  30.6303258  27.8750285 107.0321242  30.8765555  28.6376595
 106.2899174  31.4623293  27.4553423 101.9054121  32.9006933  15.7421410
 101.5766827  32.0204312  15.5596516 102.2593492  32.8454602  16.6297799
 111.1533700  44.5361836  20.2516396 111.0058663  43.6078543  20.4323966
 111.9787194  44.5581926  19.7673471 105.0195944  33.1879903  16.1096888
 105.3592017  33.7165824  15.3875496 105.4668065  33.5260309  16.8855454
 114.7567822  45.3590394  21.3381268 115.6814369  45.1533256  21.2005720
 114.5883125  45.1106796  22.2470610 107.7139385  31.5716953  25.5599956
 107.3736206  30.7724767  25.9620636 107.0078392  31.8718664  24.9876789
 108.3655857  28.6566266  24.0127279 109.1881926  28.1826744  23.8906169
 108.6093921  29.4356750  24.5125965 105.8894436  35.3485387  21.8219257
 105.7439017  35.6625690  22.7143539 105.4119639  35.9670287  21.2690156
 107.7490819  32.3387935  21.8700147 107.7352388  31.4429028  21.5332445
 108.4663247  32.3458598  22.5038433 109.6016949  32.7725275  23.9153274
 109.3434727  33.6942345  23.9137605 109.0701990  32.3755709  24.6053739
 114.5463138  45.8776062  16.6943360 114.7200016  45.3122484  15.9417212
 115.0392029  46.6776957  16.5122850 100.3640098  37.8890731  24.7606919
  99.8193566  38.6650539  24.8927193 101.2419448  38.2361535  24.6026040
 101.1506120  37.0160627  27.6537076 100.4087856  37.1643263  28.2401706
 100.8298864  37.2768893  26.7903825 109.0949783  46.5576605  27.4517466
 109.4036909  46.3125752  28.3240165 109.8925265  46.7623244  26.9636336
 109.1170395  48.7114515  19.6822842 108.6775385  48.2190894  20.3755699
 109.8678512  48.1687483  19.4414917 101.5962734  44.9026056  19.6847470
 102.4220753  44.6029828  19.3046114 101.2456786  44.1333678  20.1337259
 106.5644267  44.2552524  21.7545144 105.9424276  43.5923229  21.4547372
 107.2349134  44.2813656  21.0718792  99.7971339  42.8212382  20.6436404
  98.9603247  42.3934557  20.4620405  99.7694984  43.0144826  21.5807195
 106.6368794  32.7334312  31.3477650 106.6856950  33.6096435  30.9655419
 107.1791308  32.1911705  30.7749293 117.1223640  43.2775435  30.6278787
 116.3319184  43.2599574  30.0883286 116.8856994  43.8163729  31.3827823
 117.2421515  40.1267902  27.9411515 117.2919520  39.9617909  28.8827038
 117.1335438  39.2595161  27.5509396 106.1257774  42.8056448  15.2303604
 106.2745894  43.4891912  14.5770277 106.9324217  42.7861538  15.7453060
 114.5325277  36.1098830  29.2570822 115.4335140  35.9705295  28.9654820
 114.6073252  36.2753285  30.1969000 108.8668083  33.4865685  28.1024008
 107.9971392  33.7799251  27.8306597 109.1027563  34.0706130  28.8231272
 118.7439712  42.5464843  28.1853537 118.4524520  42.9094824  29.0216998
 118.1311843  41.8331852  28.0066869 116.9926900  37.6697458  26.6533595
 117.4681022  37.8625104  25.8452446 116.0692465  37.7256644  26.4076979
 103.8810407  38.8321625  16.2364673 103.6356449  37.9283955  16.4344883
 104.0506321  38.8338776  15.2944151 111.5707116  29.7045302  25.6189429
 112.0889060  30.4406328  25.2935917 111.2162249  30.0109295  26.4536188
 103.1506054  34.5649983  13.7350835 102.4575299  34.6394338  13.0790871
 102.9057806  33.8010326  14.2572352 109.6253179  45.3004578  12.7015352
 109.0527146  45.9194765  12.2485824 110.1985973  45.8503940  13.2355274
 115.6928569  34.5463218  24.8861901 116.6445992  34.6461316  24.9074125
 115.5232019  33.7541487  25.3959985 113.7142948  31.6318801  25.0721301
 113.1192881  31.9123814  24.3767790 113.4292645  32.1212702  25.8438043
 118.1716647  37.7669338  24.0004200 118.1392967  36.8285338  24.1863884
 118.7817270  37.8453374  23.2670025 109.8938670  40.6883137  31.5032061
 110.8141680  40.8661736  31.6972108 109.8588253  39.7439182  31.3511760
  99.1120835  35.8821731  20.4285336  98.7923620  35.0287039  20.1359710
  98.5654263  36.0970309  21.1843303 102.8900743  38.5984171  24.1454842
 103.1086753  39.5301279  24.1642876 103.3026517  38.2392146  24.9309646
 107.7628608  34.1717377  33.5357591 107.6625335  35.1211734  33.4669682
 107.5450150  33.8435616  32.6633661  98.9809095  39.5024642  22.3978457
  98.2872567  39.0878595  21.8848412  99.7282086  39.5445179  21.8011876
 107.6259878  37.6014516  32.3522653 107.1426960  38.4014876  32.5586542
 107.7120817  37.6122461  31.3990097 100.8945838  39.4342896  20.2744472
 100.8716526  39.5330583  19.3226355 101.2046474  40.2808047  20.5961638
 103.5533216  41.4919051  24.3891087 104.5076469  41.4602993  24.3221018
 103.3545739  41.0309675  25.2041313 104.1432598  40.0620167  26.9561884
 104.9625487  40.5564246  26.9796722 104.4169405  39.1452135  26.9279452
 101.9083444  47.0338670  21.4061285 101.7737912  46.2739071  20.8399283
 101.4915507  47.7579570  20.9390073 105.0652570  47.9307987  21.6179727
 104.9484954  48.8753420  21.5158418 104.2445017  47.6281549  22.0065526
  99.3967512  34.3958301  27.6554081 100.0426376  33.8857255  28.1441307
  99.1884663  35.1326982  28.2297507 111.9220904  41.4639148  33.1546222
 112.7912064  41.6379800  32.7932857 111.4427656  42.2833565  33.0321951
 106.0907084  48.5836249  24.8335656 106.9934331  48.6159859  25.1502151
 105.8644454  47.6536700  24.8481991 107.8460686  47.3367236  21.4945734
 106.8956317  47.3369097  21.3810107 108.1493173  46.5899970  20.9781769
 103.7365003  31.5425918  31.7529096 104.5996465  31.1862723  31.9632420
 103.1630414  31.2039813  32.4404500 120.3903086  53.1255202  22.4953021
 120.0521598  53.0096267  21.6073556 121.2592854  52.7246367  22.4754028
 116.2489902  54.9790679  18.4849912 115.6854767  54.8880616  17.7166200
 116.1342297  54.1590583  18.9652405 120.8722869  54.2790054  28.4539227
 120.8611510  53.8842852  27.5819731 121.0343509  53.5456127  29.0472998
 113.7954334  56.4741870  21.3234133 114.5875626  56.1332695  20.9080432
 114.0350984  56.5836845  22.2436286 115.7545088  55.7350784  14.1951512
 116.5275964  55.1879771  14.0564387 116.1070487  56.5995033  14.4065973
 117.5930130  57.0627166  27.4018411 117.3019996  57.9672797  27.2865077
 118.2287115  57.1043693  28.1162480 118.5186337  54.4404014  23.9919771
 119.1149909  54.2160037  23.2776733 118.5761309  53.6988760  24.5945218
 117.8107654  53.7971556  14.0294336 117.6943912  53.1216459  14.6975421
 117.9209914  53.3103930  13.2126490 120.1539195  53.2581703  17.7341026
 119.7897402  52.7312324  18.4453947 121.0106311  52.8680172  17.5607511
 116.0032497  53.2002378  20.4304909 115.0782993  53.0678592  20.6382601
 116.2516910  53.9796597  20.9274851 113.3641308  52.8435652  21.2648698
 113.4933689  53.0970131  22.1788110 112.6838759  53.4363360  20.9453353
 117.5340795  63.5132902  17.3639172 117.4564825  64.4640727  17.4427653
 116.9302439  63.1678774  18.0214099 120.0258025  50.6860767  30.0200539
 119.2491359  51.2454687  30.0103404 120.6648588  51.1717550  30.5415409
 118.2804397  53.4946220  29.5818506 119.0219082  54.0331264  29.3053330
 117.5741383  54.1212509  29.7390058 120.1090807  50.5747968  25.5524225
 120.9552002  50.9987381  25.6958874 120.0489445  49.9181592  26.2462788
 119.6316513  55.9350960  19.1993042 120.0954859  56.2138663  18.4097664
 119.3673312  55.0334404  19.0166132 116.5240594  55.4822441  22.1372805
 117.0941952  55.9109710  21.4990289 117.1148706  55.2005026  22.8356991
 118.5685399  52.0574112  16.0082607 119.2709443  52.5095156  16.4756533
 118.2366028  51.4157931  16.6362500 117.0165761  50.6485869  30.3833816
 116.3864422  51.3302149  30.6169213 116.9101849  50.5368950  29.4386954
 112.3110733  50.3157665  21.3099740 111.5209787  50.5715193  20.8339851
 112.8021981  51.1306002  21.4151781 114.2625479  50.6802244  18.2683217
 113.4656642  50.7920938  18.7866713 114.0351071  51.0188896  17.4024108
 120.0931146  57.2046947  26.2165732 120.1575579  57.6667354  27.0523904
 119.3842070  56.5744312  26.3448042 110.5948436  50.5688155  23.7414731
 110.8456475  51.4535165  24.0072307 111.1307985  50.3892757  22.9689823
 119.8079164  58.8715055  16.0844712 119.6724839  59.7166590  16.5129560
 120.3488977  59.0734332  15.3210646 116.2946504  44.9506634  32.7459067
 115.9013449  44.3972833  33.4206711 117.1112644  45.2617213  33.1365585
 113.2608562  56.3890493  16.6572637 113.7733082  57.1833743  16.8078202
 113.9131274  55.6916783  16.5906239 115.0703446  59.5056249  18.7395390
 115.2470075  60.4274214  18.5516374 115.8660280  59.1914668  19.1689770
 119.2114465  46.3664514  30.3379324 119.9524178  46.9671667  30.2583786
 119.4432388  45.6242151  29.7797366 114.3555803  51.5520881  28.6157553
 114.2409318  50.6506138  28.9164652 113.5000320  51.7984578  28.2642370
 116.1934762  61.0234423  24.7405733 116.7442187  60.8951486  23.9682727
 115.3546238  61.3229312  24.3900625 119.9901933  57.2885551  29.0849964
 120.5230270  56.5273839  28.8549272 119.4616014  56.9959202  29.8274118
 111.2257478  54.7179147  17.4332208 112.0632700  55.1276155  17.2165915
 111.4035746  53.7778589  17.4032402 118.4811054  44.8489001  21.5859020
 119.3464051  44.6531810  21.2264910 118.5488563  44.6199353  22.5128377
 121.3554645  56.4171543  16.5968776 120.8276007  55.6824303  16.2842013
 120.8542148  57.1946219  16.3508744 116.0873373  47.0791209  18.9575387
 116.6617125  46.8566391  18.2248580 116.6744355  47.1479904  19.7103989
 111.2483649  52.0569862  18.1042941 111.0508049  51.4639223  17.3794008
 110.6930313  51.7522072  18.8218880 119.2280373  51.9492969  20.2237534
 119.2828983  50.9966805  20.1480011 118.4171575  52.1052408  20.7078833
 117.1672733  50.5670028  17.9827913 116.3540599  50.8664199  18.3893105
 117.6631727  50.1725717  18.7002395 119.3181311  60.5627785  19.9162178
 119.2757490  60.7888632  18.9870710 120.2344010  60.3291160  20.0647979
 116.6586808  48.1388384  23.5989148 117.2986187  47.9977143  22.9012111
 115.8264338  47.8522897  23.2227750 117.4347112  57.4390814  19.7124140
 118.2287710  56.9441135  19.5106715 116.7238804  56.9108678  19.3491846
 113.7429875  51.5833896  15.7883893 112.8127463  51.5218352  16.0053855
 113.8387347  51.0609849  14.9920534 113.6615424  48.1088709  18.3762135
 113.9222241  49.0234042  18.2671295 114.4832597  47.6413152  18.5258748
 115.1340350  49.5226466  25.5460959 115.8063403  49.3143828  24.8973608
 114.3070136  49.3248552  25.1066192 120.0118388  58.0119836  23.3921978
 119.8729473  57.6438621  24.2647916 119.2232984  58.5267476  23.2205935
 120.6066540  63.1128933  14.7347514 120.7818295  62.6416976  15.5493137
 119.9199328  63.7394699  14.9628775 121.5623603  57.3901439  20.7810815
 121.2273435  57.3502209  21.6768465 121.0627548  56.7246155  20.3081226
 115.5367847  52.7969069  26.3063397 115.3987645  52.0649308  26.9074936
 116.4472770  52.7077969  26.0247584 118.1650147  52.5089028  25.7947076
 118.8749766  51.8682221  25.7533695 118.1219456  52.7601923  26.7173257
 116.8779081  49.4954246  27.6142716 116.3416438  49.0444985  28.2664312
 116.2895790  49.6300155  26.8713180 115.1727625  66.2618296  21.5087374
 115.4124223  66.8936820  22.1866393 114.3296821  65.9106336  21.7952734
 107.8083480  53.7420057  20.2710686 108.4954520  53.4281787  19.6831702
 107.6531609  54.6461422  19.9977938 112.6118203  48.6310254  24.6995710
 112.5276391  48.0235924  23.9646120 111.7900909  49.1219272  24.7005206
 119.6855487  62.0697418  23.9128878 119.6125658  62.8752390  24.4248183
 119.2432880  62.2689384  23.0876900 119.4745266  61.3069188  17.4231700
 118.6912788  61.8490868  17.5169924 120.1738012  61.8243168  17.8225941
 119.3676885  49.2581201  19.7937590 118.9974673  48.7052241  20.4818495
 119.8635978  48.6539334  19.2412590 117.1966084  59.7178696  26.8892608
 117.8975543  60.3515179  27.0422002 116.7261199  60.0593427  26.1288247
 112.7933802  59.2515051  23.8223710 113.3787239  58.5058739  23.9551615
 112.5958640  59.5619007  24.7060374 115.6472457  62.2866298  18.8386153
 114.9782832  62.7712426  18.3550193 115.5085327  62.5335518  19.7529531
 107.3851457  51.8220651  22.5428154 107.4235556  51.2884242  23.3365272
 106.8791749  51.2955856  21.9239131 119.7877726  64.3210042  25.4368811
 120.3396034  64.4841663  26.2017896 120.1283919  64.9114479  24.7648836
 114.7642219  46.6685191  26.0390696 114.8283545  47.5300022  25.6268094
 114.7009339  46.0559193  25.3063054 114.2394491  48.7408324  29.6863730
 114.8666530  48.3585401  30.3001254 113.3822410  48.5222526  30.0519423
 111.0160034  50.5484753  15.6182085 111.3113475  49.6395431  15.5649139
 110.1148070  50.5272492  15.2963087 114.5454281  48.6240750  21.6009634
 113.8240867  49.2376717  21.4617107 115.3347537  49.1598514  21.5226280
 117.3480595  45.9595176  27.8750285 117.8714997  46.2057473  28.6376595
 117.1292928  46.7915211  27.4553423 112.7447876  48.2298851  15.7421410
 112.4160582  47.3496230  15.5596516 113.0987246  48.1746519  16.6297799
 115.8589699  48.5171820  16.1096888 116.1985771  49.0457742  15.3875496
 116.3061819  48.8552227  16.8855454 118.5533140  46.9008871  25.5599956
 118.2129960  46.1016684  25.9620636 117.8472146  47.2010582  24.9876789
 119.2049612  43.9858184  24.0127279 120.0275681  43.5118662  23.8906169
 119.4487675  44.7648667  24.5125965 116.7288190  50.6777304  21.8219257
 116.5832771  50.9917607  22.7143539 116.2513394  51.2962205  21.2690156
 118.5884573  47.6679852  21.8700147 118.5746142  46.7720946  21.5332445
 119.3057001  47.6750516  22.5038433 120.4410704  48.1017192  23.9153274
 120.1828482  49.0234263  23.9137605 119.9095744  47.7047627  24.6053739
 111.2033853  53.2182649  24.7606919 110.6587321  53.9942457  24.8927193
 112.0813202  53.5653453  24.6026040 111.9899874  52.3452545  27.6537076
 111.2481610  52.4935180  28.2401706 111.6692619  52.6060810  26.7903825
 119.9343537  61.8868523  27.4517466 120.2430663  61.6417670  28.3240165
 120.7319019  62.0915162  26.9636336 119.9564149  64.0406433  19.6822842
 119.5169139  63.5482811  20.3755699 120.7072266  63.4979400  19.4414917
 112.4356488  60.2317974  19.6847470 113.2614508  59.9321745  19.3046114
 112.0850540  59.4625596  20.1337259 117.4038021  59.5844442  21.7545144
 116.7818031  58.9215147  21.4547372 118.0742888  59.6105574  21.0718792
 110.6365093  58.1504300  20.6436404 109.7997001  57.7226474  20.4620405
 110.6088739  58.3436743  21.5807195 117.4762549  48.0626230  31.3477650
 117.5250704  48.9388353  30.9655419 118.0185063  47.5203623  30.7749293
 116.9651528  58.1348365  15.2303604 117.1139648  58.8183830  14.5770277
 117.7717972  58.1153455  15.7453060 119.7061837  48.8157602  28.1024008
 118.8365147  49.1091168  27.8306597 119.9421318  49.3998047  28.8231272
 114.7204161  54.1613543  16.2364673 114.4750203  53.2575873  16.4344883
 114.8900076  54.1630693  15.2944151 113.9899809  49.8941900  13.7350835
 113.2969054  49.9686255  13.0790871 113.7451561  49.1302244  14.2572352
 120.4646934  60.6296496  12.7015352 119.8920901  61.2486683  12.2485824
 121.0379727  61.1795857  13.2355274 109.9514590  51.2113648  20.4285336
 109.6317374  50.3578956  20.1359710 109.4048018  51.4262226  21.1843303
 113.7294497  53.9276089  24.1454842 113.9480507  54.8593197  24.1642876
 114.1420271  53.5684064  24.9309646 118.6022363  49.5009295  33.5357591
 118.5019089  50.4503652  33.4669682 118.3843905  49.1727534  32.6633661
 109.8202850  54.8316560  22.3978457 109.1266321  54.4170512  21.8848412
 110.5675841  54.8737096  21.8011876 118.4653633  52.9306434  32.3522653
 117.9820714  53.7306794  32.5586542 118.5514572  52.9414379  31.3990097
 111.7339592  54.7634813  20.2744472 111.7110280  54.8622501  19.3226355
 112.0440229  55.6099964  20.5961638 114.3926970  56.8210968  24.3891087
 115.3470224  56.7894911  24.3221018 114.1939494  56.3601592  25.2041313
 114.9826352  55.3912085  26.9561884 115.8019241  55.8856163  26.9796722
 115.2563160  54.4744053  26.9279452 112.7477199  62.3630588  21.4061285
 112.6131667  61.6030989  20.8399283 112.3309261  63.0871488  20.9390073
 115.9046325  63.2599905  21.6179727 115.7878709  64.2045337  21.5158418
 115.0838771  62.9573467  22.0065526 110.2361266  49.7250218  27.6554081
 110.8820130  49.2149172  28.1441307 110.0278418  50.4618900  28.2297507
 116.9300839  63.9128167  24.8335656 117.8328086  63.9451777  25.1502151
 116.7038209  62.9828618  24.8481991 118.6854441  62.6659153  21.4945734
 117.7350072  62.6661015  21.3810107 118.9886927  61.9191888  20.9781769
 114.5758757  46.8717835  31.7529096 115.4390219  46.5154640  31.9632420
 114.0024168  46.5331730  32.4404500 118.6477235  69.0711975  20.2710686
 119.3348275  68.7573705  19.6831702 118.4925364  69.9753340  19.9977938
 118.2245211  67.1512569  22.5428154 118.2629311  66.6176159  23.3365272
 117.7185504  66.6247774  21.9239131 121.4758848  73.4796218  20.6436404
 120.6390756  73.0518392  20.4620405 121.4482493  73.6728661  21.5807195
 120.7908344  66.5405566  20.4285336 120.4711129  65.6870874  20.1359710
 120.2441772  66.7554144  21.1843303 120.6596604  70.1608477  22.3978457
 119.9660076  69.7462430  21.8848412 121.4069595  70.2029014  21.8011876
   4.3455475  54.0001658 100.0618150   3.5919183  53.4309056  99.9062154
   4.4803016  53.9664322 101.0088784   0.7104087  55.4409646 100.3584264
   1.5450979  55.8799450 100.5221825   0.8463216  54.9648299  99.5392510
   4.7561890  54.1577268 102.7938394   5.4865278  53.8962556 103.3546097
   4.1468835  53.4205990 102.8340462   2.8377187  52.2985130 103.3912845
   2.1110350  52.1641095 102.7829337   2.4224474  52.6061959 104.1969563
   0.4554982  48.5196982 100.7446277   1.0499473  48.2792718 100.0339585
   0.5281565  47.8004113 101.3719813   2.7626055  51.8263183  99.5189698
   2.2025612  51.8956373 100.2921260   2.1569558  51.6504168  98.7989194
   4.3482073  68.5019697 102.2119654   4.9860483  68.3826445 101.5082994
   4.2302916  69.4500541 102.2707606   1.1571779  68.4547125 102.1481179
   0.8190291  68.3388190 101.2601713   2.0261547  68.0538290 102.1282185
   2.5958154  73.9753569  93.4492534   1.9446133  74.5607650  93.0626548
   3.3902516  74.5059764  93.5087572   3.9023341  66.2271151  99.2872862
   4.6886431  65.8090574  98.9363279   4.1662046  67.1317243  99.4554510
   4.0733419  71.6644001  93.9861519   3.4379252  71.7378628  94.6982423
   3.7430825  72.2537600  93.3080598   9.3031769  66.1646384 100.1905840
  10.0356941  65.5945601 100.4243670   8.5471124  65.7767985 100.6312346
   0.9207888  68.5873626  97.3869183   0.5566096  68.0604247  98.0982104
   1.7775004  68.1972095  97.2135668   6.8257189  59.8767958 104.6500449
   6.4940514  60.7463369 104.4261664   6.2302802  59.5604242 105.3294479
   3.3188708  72.0780504 104.0496362   3.0189432  72.9805543 103.9412169
   2.9739768  71.8112688 104.9017515   6.7185852  64.5963044 101.7293799
   5.8102730  64.5278453 101.4352560   6.6673448  65.0734989 102.5575624
   8.5847499  62.7979483 103.5071673   7.9421879  63.0912016 102.8611468
   8.0802427  62.6832403 104.3124870   6.2387662  66.5442656  94.1957532
   7.1505518  66.7770043  94.0205230   5.7297309  67.1279700  93.6332611
   0.8759500  65.9039891 105.2052382   1.7220695  66.3279304 105.3487031
   0.8158138  65.2473515 105.8990945   4.8457245  71.5268475 101.5871114
   4.2166107  71.6914189 100.8847182   4.4582907  71.9410084 102.3582078
   8.7246477  72.4622912  98.9415477   8.0397515  72.8421814  98.3912511
   8.8090326  73.0718239  99.6747425   4.0258945  63.5644259 106.8633555
   3.7819877  64.3186320 106.3267831   4.3018876  63.9429607 107.6980802
   5.9797408  70.1082871 105.5410821   6.1914303  70.7514631 104.8645202
   5.9327156  69.2745188 105.0732751   3.5823637  62.7200692 102.4447393
   2.7208116  63.0181946 102.7364131   3.6086072  62.9371091 101.5128426
   7.0943236  72.9854827 103.7133178   7.9160680  72.5835014 103.4315860
   7.0905639  72.8823061 104.6649294  15.1849229  69.3293575 100.0618150
  14.4312938  68.7600973  99.9062154  15.3196770  69.2956240 101.0088784
   0.5747857  74.2006978  95.7372869   0.4393532  75.0458513  96.1657717
   1.1157670  74.4026255  94.9738803   3.9240321  57.7237539 104.2671763
   3.5804590  58.6139181 104.1910873   4.2919283  57.5339197 103.4041348
   3.8890603  67.7146151  92.7744198   3.3737227  68.4850755  93.0132585
   3.6167912  67.0411287  93.3977259   1.4737714  62.5595851  97.8329436
   0.6179311  62.1702702  97.6535075   1.8864666  62.6387812  96.9729222
   3.0036861  60.0942195 102.2320996   2.5001657  60.0572330 101.4188801
   3.2967468  61.0034937 102.2917652   8.8624878  70.4678505  94.7097371
   8.0854320  70.1289665  94.2652533   9.5416359  70.4731128  94.0352336
   3.6776907  65.5873243  94.6003979   3.3727042  65.9019392  95.4514122
   4.6307349  65.6654663  94.6431312   2.1223338  71.7463466  96.2496933
   1.5944700  71.0116226  95.9370170   1.6210841  72.5238142  96.0036901
   7.1016185  69.9412486 101.3663979   6.4439859  70.6311748 101.4544108
   7.9056584  70.3308918 101.7097965   5.9121643  68.2956859  99.4167921
   6.4253525  68.9286851  99.9189631   6.5622867  67.6958055  99.0511281
   3.1744018  78.2741183  92.1728592   2.5005716  78.5772880  92.7813550
   3.5609840  79.0770264  91.8234049   2.3902474  65.7706315 101.6626261
   1.4725036  65.9921262 101.5047949   2.8062618  65.8452625 100.8037969
   3.1737522  67.1697730  96.7928942   3.9209341  67.6819128  96.4836064
   3.4429111  66.8481783  97.6533335   1.4464172  69.6656271  93.7755896
   0.5375391  69.3815304  93.8728366   1.4759256  70.0855350  92.9159203
   6.6783440  73.2762861  97.5447064   6.2245767  72.4353771  97.6012254
   6.0477406  73.9124259  97.8821844   5.6216359  64.2054847  98.7747731
   4.8839116  63.6932233  99.1057974   5.8743133  63.7655228  97.9631008
   5.1216379  75.1139357  98.4796882   5.4139353  75.6744414  97.7609247
   5.6314999  75.4067918  99.2350041   5.7227986  56.9831099  99.3689500
   6.0286863  56.1228462  99.0815415   6.4480591  57.5748719  99.1688494
   1.1440260  71.2065015  91.1143975   0.7059690  70.4900874  90.6549612
   1.8850701  71.4341130  90.5529066   3.5315638  66.3603776 106.4670964
   3.8865025  66.5875249 107.3265430   4.1787769  66.6922153 105.8448219
   9.2613375  69.4822212  97.1720293   9.1231273  69.6723808  96.2441482
   8.9049593  70.2441595  97.6288344   9.2882754  71.5498739 102.1831565
   9.7219261  71.4574028 103.0314619  10.0014335  71.5256239 101.5451581
  10.1498304  71.5922439 104.7164450  10.3434194  72.4968250 104.9623725
  10.0498922  71.1329859 105.5503035   1.8034615  61.4780330 107.2154777
   1.1562530  62.1770280 107.1219254   2.5735630  61.9116474 107.5831026
   1.9798749  69.3161095 105.2751597   2.9090809  69.4672255 105.1020564
   1.5589779  69.4045116 104.4200244   1.3735233  78.4420856  94.3875671
   1.5486988  77.9708899  95.2021294   0.6868021  79.0686622  94.6156932
   2.3292296  72.7193362 100.4338972   1.9942128  72.6794132 101.3296622
   1.8296242  72.0538078  99.9609383   5.2651488  70.0649396  90.7076032
   4.6480658  69.3396225  90.6109085   4.7967976  70.8258757  90.3643106
   6.9223026  72.7387889 106.5995792   6.0349805  72.4013811 106.7222191
   7.4921578  72.0070920 106.8364558   3.5510610  62.4455741  99.7194062
   4.0479309  61.6925703  99.3995133   2.7797591  62.4820057  99.1537272
  11.4040367  68.1496106 101.3612354  11.3930243  69.0320822 100.9906287
  10.5357746  67.7967657 101.1666891   4.6340390  71.2027428  97.2932486
   3.6996669  71.3228890  97.1237190   4.8117059  70.2999895  97.0292496
   8.0212942  67.0444747  97.8282520   8.4873394  67.8772739  97.7542823
   8.4720442  66.5789729  98.5327778   6.0889173  73.3888568  94.8268672
   6.3649017  73.2745163  95.7362546   5.2193671  72.9906053  94.7880845
   5.9929604  59.4125334 101.8673421   5.0792684  59.6429561 102.0355628
   6.4222706  59.4963778 102.7187454   5.7636063  67.6015226 104.3673315
   5.1107513  67.8491133 103.7125768   6.1416443  66.7879364 104.0335792
   2.7243237  77.6374919  98.4701486   2.9065631  76.8196575  98.9329238
   3.5476223  77.8542611  98.0326375   3.0585402  76.5643104  95.7316534
   3.5873169  76.0535559  95.1186696   3.3213622  76.2485635  96.5962067
   3.6914806  77.5983940 102.0760650   3.5665945  76.7973680 101.5671596
   4.3493897  78.0930133 101.5874620   5.7549714  75.3992960 103.7040201
   4.8080050  75.2798311 103.6318527   6.1032488  74.5115458 103.7866462
   2.7596148  75.1945676  99.9044553   2.6121110  74.2662384 100.0852123
   3.5849641  75.2165767  99.4201628   6.3630270  76.0174235 100.9909426
   7.2876817  75.8117096 100.8533877   6.1945573  75.7690636 101.8998767
   2.7557662  63.0483514  94.8976670   2.9721276  63.9308152  94.5965498
   2.2751729  62.6569727  94.1682312   1.2079397  63.4309115 103.5681432
   0.9497175  64.3526186 103.5665762   0.6764437  63.0339550 104.2581896
   6.1525586  76.5359903  96.3471517   6.3262463  75.9706325  95.5945369
   6.6454477  77.3360797  96.1651007   1.6281353  59.5641066  99.9282594
   1.6503049  59.6280399  98.9734574   2.0449412  58.7245575 100.1223100
  12.0064977  69.2996325  97.9661817  12.4496123  68.5503651  97.5680940
  11.1291487  69.2906462  97.5835549   7.1400758  75.8526667  93.4468415
   7.8351663  76.4733360  93.6655730   7.4823908  75.0022018  93.7220793
   9.0392181  73.3026372  94.9755746   9.5643505  73.6413645  94.2505066
   8.9514534  72.3673388  94.7918881   8.8483962  70.7851742 107.5939673
   8.8981967  70.6201750 108.5355195   8.7397886  69.9179002 107.2037553
   6.1387725  66.7682671 108.9098979   7.0397588  66.6289135 108.6182977
   6.2135699  66.9337125 109.8497157  10.3502159  73.2048684 107.8381694
  10.0586968  73.5678665 108.6745155   9.7374291  72.4915692 107.6595026
  11.5497842  70.7701564 100.3584264  12.3844733  71.2091368 100.5221825
  11.6856970  70.2940217  99.5392510   8.5989348  68.3281299 106.3061752
   9.0743469  68.5208945 105.4980603   7.6754913  68.3840484 106.0605136
   3.1769564  60.3629142 105.2717586   3.6951508  61.0990169 104.9464074
   2.8224697  60.6693135 106.1064345   3.4282158  56.7829425 100.7918483
   3.7083912  56.1152614 101.4178909   4.2132765  56.9758520 100.2793146
   1.2315627  75.9588419  92.3543509   0.6589594  76.5778606  91.9013981
   1.8048420  76.5087780  92.8883431   7.2991017  65.2047059 104.5390058
   8.2508439  65.3045156 104.5602282   7.1294467  64.4125327 105.0488142
   5.3205396  62.2902642 104.7249459   4.7255328  62.5707655 104.0295947
   5.0355093  62.7796543 105.4966200   4.4512886  76.2425569  93.4852091
   5.3843560  76.1771130  93.6884967   4.3636099  77.0781836  93.0266624
   7.0800903  75.5591439  90.4456039   7.0014535  75.2251303  91.3391797
   7.9010570  76.0513207  90.4447511   9.7779094  68.4253178 103.6532357
   9.7455414  67.4869179 103.8392041  10.3879718  68.5037215 102.9198182
   1.6162425  67.2949231  89.6959561   2.5621530  67.1655439  89.7647979
   1.2376670  66.5563893  90.1728989   9.9273583  65.2164222 103.6990640
   9.4112631  64.4322678 103.5120569  10.8113531  64.8882938 103.8637160
   7.5884310  58.9605237  99.6586453   7.3909131  58.6520326 100.5429785
   8.1984015  59.6866876  99.7884383  15.5955644  69.4869185 102.7938394
  16.3259033  69.2254473 103.3546097  14.9862590  68.7497907 102.8340462
  13.6770941  67.6277048 103.3912845  12.9504105  67.4933013 102.7829337
  13.2618228  67.9353876 104.1969563   1.4167408  59.7636097  95.7858688
   0.6068136  59.4183182  96.1613934   2.1051825  59.4543641  96.3746299
   3.3457956  58.8414144  97.4082984   3.8988995  59.2609598  98.0673008
   3.5828043  57.9149892  97.4505940   6.7236763  60.9514669  96.9161649
   6.1435433  61.6099473  96.5339701   6.4572696  60.1292014  96.5049066
   5.1740330  60.3519727  99.1182969   5.6740108  60.4636262  98.3097288
   5.8175938  60.0480780  99.7583778   5.5061641  63.1114760  95.9717997
   4.6187497  63.3964410  95.7538192   5.9215631  62.9508523  95.1245274
   8.8576178  63.1361281  99.6872336   9.6336568  63.6257733  99.9596953
   8.1324312  63.5619335 100.1444206  11.2948736  63.8488900 100.7446277
  11.8893227  63.6084636 100.0339585  11.3675320  63.1296031 101.3719813
   4.6504855  72.8759435  90.0666017   5.3540705  73.0809437  90.6823673
   3.9267504  73.4436196  90.3315101   5.4802665  68.6269296  96.1868287
   5.4237867  69.0837847  95.3475920   6.0331008  67.8659980  96.0091130
   9.2907471  64.4159028  97.0118407   9.0344405  64.0155663  97.8426614
   8.6660339  65.1302822  96.8868546  13.6019809  67.1555101  99.5189698
  13.0419367  67.2248290 100.2921260  12.9963312  66.9796086  98.7989194
   6.5591552  73.3141964  92.1164477   7.3937156  72.8823162  91.9341952
   6.3975895  73.1423977  93.0441372   6.2137445  69.8174077  93.4820816
   6.1586248  69.6518348  92.5409260   5.5883500  70.5250110  93.6383006
   3.3385689  55.9124963  97.3152072   2.5718085  55.3583449  97.4608754
   3.7496394  55.9846831  98.1766223  15.1875827  83.8311615 102.2119654
  15.8254237  83.7118362 101.5082994  15.0696670  84.7792459 102.2707606
  11.9965534  83.7839043 102.1481179  11.6584045  83.6680108 101.2601713
  12.8655302  83.3830208 102.1282185   7.8552349  85.6374519  98.1378069
   7.2917215  85.5464456  97.3694357   7.7404744  84.8174424  98.6180562
  13.4351908  89.3045487  93.4492534  12.7839888  89.8899567  93.0626548
  14.2296271  89.8351682  93.5087572   7.3607535  86.3934624  93.8479669
   8.1338411  85.8463611  93.7092545   7.7132934  87.2578874  94.0594130
  10.1248785  85.0987855 103.6447928  10.7212357  84.8743877 102.9304891
  10.1823756  84.3572600 104.2473376   9.6973813  82.5527290  91.4798119
   9.9499334  82.0308812  90.7181582   8.7598372  82.3893436  91.5824802
  14.7417096  81.5563069  99.2872862  15.5280185  81.1382492  98.9363279
  15.0055800  82.4609161  99.4554510  14.9127173  86.9935919  93.9861519
  14.2773006  87.0670545  94.6982423  14.5824580  87.5829518  93.3080598
  20.1425523  81.4938302 100.1905840  20.8750695  80.9237519 100.4243670
  19.3864879  81.1059902 100.6312346   9.4170102  84.4555396  93.6822494
   9.3006360  83.7800300  94.3503578   9.5272362  83.9687770  92.8654647
  11.7601643  83.9165543  97.3869183  11.3959850  83.3896164  98.0982104
  12.6168759  83.5264012  97.2135668  17.6650943  75.2059876 104.6500449
  17.3334268  76.0755287 104.4261664  17.0696557  74.8896160 105.3294479
  11.4007130  78.9455443  92.3830531  11.5681532  79.8135679  92.7501002
  11.2104299  79.1082725  91.4591821  14.1582463  87.4072422 104.0496362
  13.8583186  88.3097461 103.9412169  13.8133522  87.1404605 104.9017515
   7.6094944  83.8586219 100.0833066   6.6845441  83.7262433 100.2910758
   7.8579358  84.6380438 100.5803009  17.5579607  79.9254962 101.7293799
  16.6496484  79.8570371 101.4352560  17.5067203  80.4026907 102.5575624
  11.3796351  81.4013101  93.3677198  11.2595976  81.8470151  94.2062678
  10.6848939  81.7498418  92.8090736   9.1403243  94.1716742  97.0167329
   9.0627272  95.1224567  97.0955810   8.5364886  93.8262615  97.6742256
  19.4241253  78.1271401 103.5071673  18.7815633  78.4203934 102.8611468
  18.9196182  78.0124321 104.3124870  17.0781417  81.8734574  94.1957532
  17.9899273  82.1061960  94.0205230  16.5691064  82.4571618  93.6332611
  11.7153255  81.2331808 105.2052382  12.5614450  81.6571222 105.3487031
  11.6551892  80.5765433 105.8990945  15.6850999  86.8560392 101.5871114
  15.0559862  87.0206106 100.8847182  15.2976661  87.2702002 102.3582078
  19.5640231  87.7914830  98.9415477  18.8791269  88.1713731  98.3912511
  19.6484080  88.4010157  99.6747425  14.8652700  78.8936177 106.8633555
  14.6213632  79.6478237 106.3267831  15.1412630  79.2721524 107.6980802
  16.8191163  85.4374789 105.5410821  17.0308058  86.0806549 104.8645202
  16.7720911  84.6037106 105.0732751  14.4217392  78.0492610 102.4447393
  13.5601871  78.3473863 102.7364131  14.4479826  78.2663009 101.5128426
  11.2378961  86.5934800  98.8521199  11.7017307  86.8722503  98.0625821
  10.9735759  85.6918245  98.6694289   8.1303042  86.1406282 101.7900962
   8.7004399  86.5693550 101.1518447   8.7211154  85.8588867 102.4885148
  10.1747847  82.7157953  95.6610764  10.8771890  83.1678996  96.1284690
   9.8428476  82.0741772  96.2890657   3.9173181  80.9741505 100.9627897
   3.1272235  81.2299034 100.4868008   4.4084428  81.7889843 101.0679938
  17.9336991  88.3146744 103.7133178  18.7554434  87.9126932 103.4315860
  17.9299393  88.2114979 104.6649294   5.8687926  81.3386085  97.9211374
   5.0719090  81.4504779  98.4394870   5.6413519  81.6772737  97.0552265
  26.0242984  84.6585493 100.0618150  25.2706692  84.0892891  99.9062154
  26.1590525  84.6248157 101.0088784  11.4141612  89.5298895  95.7372869
  11.2787286  90.3750431  96.1657717  11.9551424  89.7318173  94.9738803
   4.8671009  87.0474333  96.3100794   5.3795530  87.8417584  96.4606359
   5.5193722  86.3500624  96.2434396   6.6765894  90.1640090  98.3923547
   6.8532522  91.0858054  98.2044531   7.4722727  89.8498509  98.8217927
  14.7634075  73.0529457 104.2671763  14.4198345  73.9431099 104.1910873
  15.1313038  72.8631115 103.4041348   2.8319926  85.3762988  97.0860365
   3.6695148  85.7859996  96.8694072   3.0098194  84.4362430  97.0560559
  14.7284358  83.0438068  92.7744198  14.2130981  83.8142673  93.0132585
  14.4561666  82.3703204  93.3977259  12.3131469  77.8887769  97.8329436
  11.4573065  77.4994619  97.6535075  12.7258421  77.9679730  96.9729222
  13.8430616  75.4234112 102.2320996  13.3395411  75.3864247 101.4188801
  14.1361222  76.3326855 102.2917652  10.0873501  75.5072842 101.2387178
  10.9526498  75.3115651 100.8793067  10.1551010  75.2783194 102.1656534
  19.7018632  85.7970423  94.7097371  18.9248075  85.4581582  94.2652533
  20.3810113  85.8023046  94.0352336  14.5170661  80.9165160  94.6003979
  14.2120797  81.2311310  95.4514122  15.4701103  80.9946580  94.6431312
  12.9617093  87.0755384  96.2496933  12.4338455  86.3408143  95.9370170
  12.4604596  87.8530060  96.0036901  17.9409939  85.2704404 101.3663979
  17.2833613  85.9603666 101.4544108  18.7450338  85.6600836 101.7097965
   7.6935821  77.7375050  98.6103544   8.2679572  77.5150231  97.8776737
   8.2806803  77.8063744  99.3632146  16.7515398  83.6248777  99.4167921
  17.2647280  84.2578769  99.9189631  17.4016622  83.0249972  99.0511281
   8.0205408  79.7679511  92.6299430   7.1842720  80.1054198  92.9508704
   7.8810177  79.6328491  91.6926567   9.9958488  74.6116299  97.3378614
   9.3422901  74.2965316  96.7135229   9.9538962  73.9892039  98.0638437
  11.1069693  84.8935594  89.2531906  10.1996755  84.6624847  89.4523055
  11.6040725  84.0973213  89.4405887  14.0137772  93.6033101  92.1728592
  13.3399471  93.9064798  92.7813550  14.4003594  94.4062181  91.8234049
  13.2296229  81.0998232 101.6626261  12.3118790  81.3213179 101.5047949
  13.6456372  81.1744543 100.8037969  14.0131276  82.4989648  96.7928942
  14.7603095  83.0111045  96.4836064  14.2822866  82.1773701  97.6533335
  12.2857927  84.9948189  93.7755896  11.3769146  84.7107222  93.8728366
  12.3153010  85.4147267  92.9159203  17.5177194  88.6054778  97.5447064
  17.0639521  87.7645688  97.6012254  16.8871161  89.2416177  97.8821844
  16.4610114  79.5346764  98.7747731  15.7232870  79.0224151  99.1057974
  16.7136887  79.0947146  97.9631008  15.9610133  90.4431275  98.4796882
  16.2533108  91.0036332  97.7609247  16.4708754  90.7359836  99.2350041
  16.5621741  72.3123016  99.3689500  16.8680618  71.4520380  99.0815415
  17.2874346  72.9040637  99.1688494   2.8546097  82.7153703  97.7571098
   2.6570497  82.1223064  97.0322165   2.2992761  82.4105913  98.4747037
  10.8342821  82.6076809  99.8765691  10.8891430  81.6550646  99.8008168
  10.0234023  82.7636249 100.3606990  11.9834014  86.5356932  91.1143975
  11.5453444  85.8192791  90.6549612  12.7244455  86.7633047  90.5529066
   8.7735181  81.2253869  97.6356070   7.9603046  81.5248040  98.0421262
   9.2694175  80.8309558  98.3530552  10.9243758  91.2211626  99.5690335
  10.8819937  91.4472472  98.6398867  11.8406457  90.9875001  99.7176136
  14.3709392  81.6895694 106.4670964  14.7258780  81.9167167 107.3265430
  15.0181523  82.0214070 105.8448219  20.1007129  84.8114130  97.1720293
  19.9625028  85.0015725  96.2441482  19.7443348  85.5733512  97.6288344
   8.2649255  78.7972225 103.2517305   8.9048635  78.6560984 102.5540268
   7.4326786  78.5106738 102.8755907  20.1276509  86.8790657 102.1831565
  20.5613015  86.7865946 103.0314619  20.8408089  86.8548157 101.5451581
   9.0409559  88.0974655  99.3652298   9.8350158  87.6024975  99.1634873
   8.3301252  87.5692518  99.0020003   5.3492323  82.2417737  95.4412050
   4.4189911  82.1802192  95.6582012   5.4449795  81.7193690  94.6448692
   5.2677872  78.7672550  98.0290292   5.5284689  79.6817883  97.9199452
   6.0895044  78.2996992  98.1786905  20.9892058  86.9214357 104.7164450
  21.1827948  87.8260168 104.9623725  20.8892677  86.4621776 105.5503035
  12.6428369  76.8072248 107.2154777  11.9956284  77.5062197 107.1219254
  13.4129384  77.2408392 107.5831026  12.8192503  84.6453013 105.2751597
  13.7484563  84.7964172 105.1020564  12.3983533  84.7337033 104.4200244
  12.2128987  93.7712774  94.3875671  12.3880743  93.3000817  95.2021294
  11.5261775  94.3978540  94.6156932  13.1686050  88.0485280 100.4338972
  12.8335883  88.0086050 101.3296622  12.6689996  87.3829996  99.9609383
  16.1045242  85.3941314  90.7076032  15.4874413  84.6688142  90.6109085
  15.6361730  86.1550674  90.3643106   7.8943788  79.6126738  89.8297336
   7.0173254  79.4915539  89.4659583   8.3701541  78.8212817  89.5776225
  17.7616781  88.0679806 106.5995792  16.8743560  87.7305728 106.7222191
  18.3315332  87.3362838 106.8364558  11.0807714  91.9653029  97.0759857
  10.2975236  92.5074709  97.1698081  11.7800459  92.4827008  97.4754098
  14.3904364  77.7747658  99.7194062  14.8873064  77.0217621  99.3995133
  13.6191346  77.8111975  99.1537272  22.2434121  83.4788024 101.3612354
  22.2323998  84.3612739 100.9906287  21.3751501  83.1259575 101.1666891
  15.4734145  86.5319345  97.2932486  14.5390423  86.6520808  97.1237190
  15.6510813  85.6291812  97.0292496  10.9739333  79.9165041  99.4465747
  10.6037120  79.3636082 100.1346652  11.4698425  79.3123175  98.8940747
  18.8606696  82.3736665  97.8282520  19.3267148  83.2064656  97.7542823
  19.3114197  81.9081646  98.5327778  16.9282927  88.7180486  94.8268672
  17.2042771  88.6037081  95.7362546  16.0587426  88.3197971  94.7880845
  16.8323359  74.7417252 101.8673421  15.9186439  74.9721479 102.0355628
  17.2616460  74.8255696 102.7187454  16.6029817  82.9307144 104.3673315
  15.9501268  83.1783051 103.7125768  16.9810197  82.1171282 104.0335792
  13.5636991  92.9666837  98.4701486  13.7459386  92.1488493  98.9329238
  14.3869977  93.1834529  98.0326375  13.8979157  91.8935022  95.7316534
  14.4266923  91.3827477  95.1186696  14.1607376  91.5777552  96.5962067
   6.3704666  77.3269032 105.6918853   6.4345993  78.1883863 105.2796251
   6.3071787  76.7143034 104.9591212   2.6222482  81.2068594  95.2710242
   2.9175923  80.2979272  95.2177296   1.7210518  81.1856333  94.9491244
  14.5308561  92.9275858 102.0760650  14.4059700  92.1265598 101.5671596
  15.1887652  93.4222051 101.5874620   6.1516729  79.2824590 101.2537791
   5.4303315  79.8960558 101.1145264   6.9409985  79.8182355 101.1754437
  16.5943469  90.7284878 103.7040201  15.6473804  90.6090229 103.6318527
  16.9426242  89.8407376 103.7866462   8.9543042  76.6179017 107.5278442
   9.4777444  76.8641313 108.2904752   8.7355376  77.4499052 107.1081580
   4.3510323  78.8882691  95.3949567   4.0223029  78.0080070  95.2124673
   4.7049694  78.8330360  96.2825956  13.5989902  90.5237594  99.9044553
  13.4514865  89.5954301 100.0852123  14.4243396  90.5457685  99.4201628
   7.4652147  79.1755661  95.7625045   7.8048219  79.7041582  95.0403653
   7.9124267  79.5136067  96.5383611  17.2024024  91.3466153 100.9909426
  18.1270572  91.1409014 100.8533877  17.0339327  91.0982554 101.8998767
  10.1595587  77.5592712 105.2128113   9.8192408  76.7600525 105.6148793
   9.4534594  77.8594423 104.6404946  10.8112059  74.6442024 103.6655436
  11.6338128  74.1702502 103.5434326  11.0550123  75.4232508 104.1654122
   9.4520294  77.6730283  93.9618338  10.1728656  78.0511536  93.4582055
   8.8285598  78.3919160  94.0653316  13.5951417  78.3775432  94.8976670
  13.8115031  79.2600070  94.5965498  13.1145484  77.9861645  94.1682312
   8.3350638  81.3361145 101.4747415   8.1895219  81.6501448 102.3671696
   7.8575842  81.9546045 100.9218313  10.1947021  78.3263693 101.5228304
  10.1808590  77.4304786 101.1860602  10.9119449  78.3334357 102.1566590
  12.0473152  78.7601033 103.5681432  11.7890929  79.6818104 103.5665762
  11.5158192  78.3631468 104.2581896  16.9919340  91.8651820  96.3471517
  17.1656218  91.2998243  95.5945369  17.4848231  92.6652715  96.1651007
   9.5983917  77.2078073  96.7915874   9.7199828  76.2794719  96.9906762
   9.3085959  77.2216759  95.8794190  12.4675107  74.8932984  99.9282594
  12.4896804  74.9572317  98.9734574  12.8843166  74.0537492 100.1223100
  22.8458731  84.6288243  97.9661817  23.2889877  83.8795568  97.5680940
  21.9685242  84.6198380  97.5835549  17.9794513  91.1818585  93.4468415
  18.6745417  91.8025277  93.6655730  18.3217663  90.3313936  93.7220793
  19.8785936  88.6318290  94.9755746  20.4037260  88.9705563  94.2505066
  19.7908288  87.6965305  94.7918881  19.6877717  86.1143660 107.5939673
  19.7375722  85.9493668 108.5355195  19.5791640  85.2470919 107.2037553
   8.5713976  88.7932206  94.8831761   8.7202096  89.4767670  94.2298434
   9.3780419  88.7737296  95.3981217  16.9781479  82.0974588 108.9098979
  17.8791342  81.9581053 108.6182977  17.0529454  82.2629043 109.8497157
  11.3124285  79.4741443 107.7552166  10.4427594  79.7675009 107.4834754
  11.5483765  80.0581888 108.4759429  21.1895914  88.5340602 107.8381694
  20.8980722  88.8970582 108.6745155  20.5768045  87.8207610 107.6595026
  22.3891596  86.0993481 100.3584264  23.2238488  86.5383286 100.5221825
  22.5250725  85.6232135  99.5392510  19.4383102  83.6573216 106.3061752
  19.9137224  83.8500863 105.4980603  18.5148667  83.7132402 106.0605136
   6.3266609  84.8197383  95.8892830   6.0812651  83.9159713  96.0873040
   6.4962523  84.8214534  94.9472308  14.0163319  75.6921060 105.2717586
  14.5345262  76.4282087 104.9464074  13.6618451  75.9985053 106.1064345
   5.5962256  80.5525741  93.3878992   4.9031501  80.6270096  92.7319028
   5.3514008  79.7886085  93.9100509  14.2675913  72.1121342 100.7918483
  14.5477666  71.4444531 101.4178909  15.0526520  72.3050438 100.2793146
  12.0709381  91.2880336  92.3543509  11.4983348  91.9070523  91.9013981
  12.6442175  91.8379698  92.8883431  18.1384771  80.5338976 104.5390058
  19.0902194  80.6337074 104.5602282  17.9688221  79.7417245 105.0488142
  16.1599151  77.6194560 104.7249459  15.5649083  77.8999572 104.0295947
  15.8748847  78.1088461 105.4966200  15.2906641  91.5717486  93.4852091
  16.2237314  91.5063048  93.6884967  15.2029854  92.4073753  93.0266624
  17.9194658  90.8883357  90.4456039  17.8408289  90.5543220  91.3391797
  18.7404324  91.3805125  90.4447511  20.6172849  83.7545096 103.6532357
  20.5849169  82.8161097 103.8392041  21.2273472  83.8329133 102.9198182
  12.4556180  82.6241149  89.6959561  13.4015284  82.4947357  89.7647979
  12.0770425  81.8855811  90.1728989  20.7667337  80.5456140 103.6990640
  20.2506386  79.7614596 103.5120569  21.6507286  80.2174856 103.8637160
  18.4278064  74.2897155  99.6586453  18.2302885  73.9812243 100.5429785
  19.0377770  75.0158794  99.7884383  26.4349399  84.8161103 102.7938394
  27.1652787  84.5546391 103.3546097  25.8256344  84.0789825 102.8340462
  24.5164696  82.9568966 103.3912845  23.7897859  82.8224930 102.7829337
  24.1011983  83.2645794 104.1969563  10.6399097  80.5491125  89.6314447
   9.7330552  80.2524238  89.7077160  10.9175078  80.2520944  88.7648733
  12.2561163  75.0928015  95.7858688  11.4461891  74.7475100  96.1613934
  12.9445580  74.7835559  96.3746299  14.1851711  74.1706062  97.4082984
  14.7382749  74.5901515  98.0673008  14.4221797  73.2441810  97.4505940
   9.4097881  77.4078061  89.7726426  10.2717045  77.7332959  90.0322243
   9.5948226  76.6209557  89.2599492  17.5630518  76.2806587  96.9161649
  16.9829187  76.9391391  96.5339701  17.2966451  75.4583932  96.5049066
  16.0134084  75.6811645  99.1182969  16.5133863  75.7928179  98.3097288
  16.6569692  75.3772698  99.7583778  16.3455396  78.4406678  95.9717997
  15.4581251  78.7256328  95.7538192  16.7609385  78.2800441  95.1245274
  19.6969932  78.4653198  99.6872336  20.4730322  78.9549651  99.9596953
  18.9718066  78.8911253 100.1444206  22.1342491  79.1780818 100.7446277
  22.7286982  78.9376554 100.0339585  22.2069074  78.4587948 101.3719813
  15.4898609  88.2051352  90.0666017  16.1934460  88.4101355  90.6823673
  14.7661258  88.7728114  90.3315101  16.3196420  83.9561213  96.1868287
  16.2631621  84.4129765  95.3475920  16.8724762  83.1951898  96.0091130
  20.1301226  79.7450945  97.0118407  19.8738160  79.3447581  97.8426614
  19.5054094  80.4594739  96.8868546  24.4413563  82.4847019  99.5189698
  23.8813121  82.5540208 100.2921260  23.8357067  82.3088003  98.7989194
  17.3985307  88.6433881  92.1164477  18.2330911  88.2115080  91.9341952
  17.2369650  88.4715895  93.0441372  17.0531199  85.1465995  93.4820816
  16.9980003  84.9810266  92.5409260  16.4277254  85.8542028  93.6383006
  10.3627324  74.6474104  93.0606135  10.3505994  75.5915944  93.2174406
  11.2550746  74.4644249  92.7665596  14.1779444  71.2416880  97.3152072
  13.4111840  70.6875367  97.4608754  14.5890149  71.3138749  98.1766223
  26.0269582  99.1603533 102.2119654  26.6647992  99.0410280 101.5082994
  25.9090425 100.1084376 102.2707606  22.8359288  99.1130961 102.1481179
  22.4977800  98.9972025 101.2601713  23.7049056  98.7122126 102.1282185
  18.6946104 100.9666437  98.1378069  18.1310969 100.8756374  97.3694357
  18.5798499 100.1466341  98.6180562  24.2745663 104.6337405  93.4492534
  23.6233642 105.2191485  93.0626548  25.0690025 105.1643600  93.5087572
  18.2001290 101.7226542  93.8479669  18.9732166 101.1755529  93.7092545
  18.5526689 102.5870791  94.0594130  20.9642539 100.4279773 103.6447928
  21.5606111 100.2035795 102.9304891  21.0217511  99.6864518 104.2473376
  20.5367568  97.8819208  91.4798119  20.7893088  97.3600729  90.7181582
  19.5992127  97.7185353  91.5824802  25.5810850  96.8854986  99.2872862
  26.3673940  96.4674410  98.9363279  25.8449555  97.7901079  99.4554510
  25.7520928 102.3227837  93.9861519  25.1166761 102.3962463  94.6982423
  25.4218334 102.9121435  93.3080598  30.9819278  96.8230220 100.1905840
  31.7144449  96.2529436 100.4243670  30.2258633  96.4351820 100.6312346
  20.2563856  99.7847314  93.6822494  20.1400114  99.1092217  94.3503578
  20.3666116  99.2979688  92.8654647  22.5995397  99.2457461  97.3869183
  22.2353605  98.7188082  98.0982104  23.4562513  98.8555930  97.2135668
  28.5044698  90.5351794 104.6500449  28.1728023  91.4047205 104.4261664
  27.9090311  90.2188078 105.3294479  22.2400884  94.2747361  92.3830531
  22.4075287  95.1427597  92.7501002  22.0498053  94.4374642  91.4591821
  24.9976217 102.7364340 104.0496362  24.6976941 103.6389378 103.9412169
  24.6527277 102.4696523 104.9017515  18.4488699  99.1878136 100.0833066
  17.5239195  99.0554351 100.2910758  18.6973112  99.9672356 100.5803009
  28.3973361  95.2546880 101.7293799  27.4890239  95.1862288 101.4352560
  28.3460957  95.7318825 102.5575624  22.2190105  96.7305018  93.3677198
  22.0989730  97.1762069  94.2062678  21.5242694  97.0790336  92.8090736
  19.9796997 109.5008660  97.0167329  19.9021027 110.4516485  97.0955810
  19.3758641 109.1554532  97.6742256  30.2635008  93.4563318 103.5071673
  29.6209388  93.7495851 102.8611468  29.7589936  93.3416239 104.3124870
  27.9175171  97.2026491  94.1957532  28.8293027  97.4353878  94.0205230
  27.4084818  97.7863536  93.6332611  22.5547009  96.5623726 105.2052382
  23.4008204  96.9863140 105.3487031  22.4945647  95.9057350 105.8990945
  26.5244754 102.1852310 101.5871114  25.8953616 102.3498024 100.8847182
  26.1370416 102.5993919 102.3582078  30.4033985 103.1206748  98.9415477
  29.7185024 103.5005649  98.3912511  30.4877835 103.7302074  99.6747425
  25.7046454  94.2228094 106.8633555  25.4607386  94.9770155 106.3267831
  25.9806385  94.6013442 107.6980802  27.6584917 100.7666707 105.5410821
  27.8701812 101.4098467 104.8645202  27.6114665  99.9329023 105.0732751
  25.2611146  93.3784527 102.4447393  24.3995625  93.6765781 102.7364131
  25.2873581  93.5954926 101.5128426  22.0772715 101.9226718  98.8521199
  22.5411061 102.2014421  98.0625821  21.8129514 101.0210163  98.6694289
  18.9696797 101.4698200 101.7900962  19.5398154 101.8985468 101.1518447
  19.5604908 101.1880784 102.4885148  21.0141602  98.0449870  95.6610764
  21.7165645  98.4970914  96.1284690  20.6822230  97.4033689  96.2890657
  14.7566935  96.3033423 100.9627897  13.9665989  96.5590952 100.4868008
  15.2478183  97.1181761 101.0679938  28.7730745 103.6438662 103.7133178
  29.5948189 103.2418849 103.4315860  28.7693148 103.5406896 104.6649294
  16.7081681  96.6678002  97.9211374  15.9112844  96.7796696  98.4394870
  16.4807273  97.0064654  97.0552265  36.8636738  99.9877411 100.0618150
  36.1100446  99.4184809  99.9062154  36.9984279  99.9540075 101.0088784
  22.2535366 104.8590813  95.7372869  22.1181041 105.7042349  96.1657717
  22.7945179 105.0610091  94.9738803  15.7064764 102.3766251  96.3100794
  16.2189284 103.1709501  96.4606359  16.3587476 101.6792541  96.2434396
  17.5159648 105.4932007  98.3923547  17.6926277 106.4149972  98.2044531
  18.3116482 105.1790426  98.8217927  25.6027830  88.3821375 104.2671763
  25.2592099  89.2723017 104.1910873  25.9706792  88.1923032 103.4041348
  13.6713680 100.7054905  97.0860365  14.5088902 101.1151914  96.8694072
  13.8491948  99.7654347  97.0560559  25.5678112  98.3729986  92.7744198
  25.0524736  99.1434591  93.0132585  25.2955421  97.6995122  93.3977259
  23.1525223  93.2179687  97.8329436  22.2966820  92.8286537  97.6535075
  23.5652175  93.2971648  96.9729222  24.6824370  90.7526030 102.2320996
  24.1789166  90.7156165 101.4188801  24.9754977  91.6618773 102.2917652
  20.9267256  90.8364760 101.2387178  21.7920253  90.6407568 100.8793067
  20.9944765  90.6075111 102.1656534  30.5412387 101.1262341  94.7097371
  29.7641829 100.7873500  94.2652533  31.2203868 101.1314964  94.0352336
  25.3564416  96.2457078  94.6003979  25.0514551  96.5603227  95.4514122
  26.3094858  96.3238498  94.6431312  23.8010847 102.4047301  96.2496933
  23.2732209 101.6700061  95.9370170  23.2998350 103.1821978  96.0036901
  28.7803693 100.5996322 101.3663979  28.1227368 101.2895583 101.4544108
  29.5844093 100.9892754 101.7097965  18.5329575  93.0666968  98.6103544
  19.1073327  92.8442149  97.8776737  19.1200558  93.1355662  99.3632146
  27.5909152  98.9540695  99.4167921  28.1041034  99.5870686  99.9189631
  28.2410376  98.3541890  99.0511281  18.8599162  95.0971429  92.6299430
  18.0236474  95.4346115  92.9508704  18.7203932  94.9620408  91.6926567
  20.8352243  89.9408217  97.3378614  20.1816655  89.6257234  96.7135229
  20.7932717  89.3183957  98.0638437  21.9463448 100.2227512  89.2531906
  21.0390509  99.9916765  89.4523055  22.4434480  99.4265131  89.4405887
  24.8531527 108.9325019  92.1728592  24.1793225 109.2356716  92.7813550
  25.2397348 109.7354099  91.8234049  24.0689983  96.4290150 101.6626261
  23.1512545  96.6505097 101.5047949  24.4850127  96.5036461 100.8037969
  24.8525031  97.8281566  96.7928942  25.5996850  98.3402963  96.4836064
  25.1216620  97.5065618  97.6533335  23.1251681 100.3240106  93.7755896
  22.2162900 100.0399139  93.8728366  23.1546765 100.7439185  92.9159203
  28.3570948 103.9346696  97.5447064  27.9033276 103.0937606  97.6012254
  27.7264915 104.5708094  97.8821844  27.3003868  94.8638682  98.7747731
  26.5626625  94.3516068  99.1057974  27.5530642  94.4239064  97.9631008
  26.8003888 105.7723193  98.4796882  27.0926862 106.3328250  97.7609247
  27.3102508 106.0651754  99.2350041  27.4015495  87.6414934  99.3689500
  27.7074372  86.7812297  99.0815415  28.1268100  88.2332554  99.1688494
  13.6939851  98.0445621  97.7571098  13.4964251  97.4514981  97.0322165
  13.1386515  97.7397831  98.4747037  21.6736575  97.9368727  99.8765691
  21.7285185  96.9842563  99.8008168  20.8627777  98.0928166 100.3606990
  22.8227769 101.8648850  91.1143975  22.3847199 101.1484709  90.6549612
  23.5638210 102.0924965  90.5529066  19.6128935  96.5545787  97.6356070
  18.7996801  96.8539957  98.0421262  20.1087929  96.1601476  98.3530552
  21.7637513 106.5503544  99.5690335  21.7213692 106.7764390  98.6398867
  22.6800212 106.3166918  99.7176136  25.2103147  97.0187611 106.4670964
  25.5652534  97.2459084 107.3265430  25.8575278  97.3505988 105.8448219
  30.9400884 100.1406047  97.1720293  30.8018782 100.3307643  96.2441482
  30.5837102 100.9025430  97.6288344  19.1043010  94.1264142 103.2517305
  19.7442389  93.9852901 102.5540268  18.2720540  93.8398656 102.8755907
  30.9670263 102.2082574 102.1831565  31.4006770 102.1157863 103.0314619
  31.6801844 102.1840075 101.5451581  19.8803314 103.4266573  99.3652298
  20.6743912 102.9316893  99.1634873  19.1695006 102.8984436  99.0020003
  16.1886077  97.5709655  95.4412050  15.2583665  97.5094110  95.6582012
  16.2843549  97.0485607  94.6448692  16.1071626  94.0964467  98.0290292
  16.3678444  95.0109801  97.9199452  16.9288799  93.6288910  98.1786905
  31.8285813 102.2506275 104.7164450  32.0221703 103.1552085 104.9623725
  31.7286431 101.7913694 105.5503035  23.4822124  92.1364165 107.2154777
  22.8350039  92.8354115 107.1219254  24.2523139  92.5700309 107.5831026
  23.6586258  99.9744930 105.2751597  24.5878318 100.1256090 105.1020564
  23.2377288 100.0628951 104.4200244  23.0522742 109.1004691  94.3875671
  23.2274497 108.6292734  95.2021294  22.3655530 109.7270457  94.6156932
  24.0079805 103.3777197 100.4338972  23.6729637 103.3377967 101.3296622
  23.5083751 102.7121913  99.9609383  26.9438996 100.7233232  90.7076032
  26.3268167  99.9980060  90.6109085  26.4755485 101.4842592  90.3643106
  18.7337542  94.9418656  89.8297336  17.8567009  94.8207457  89.4659583
  19.2095295  94.1504734  89.5776225  28.6010535 103.3971724 106.5995792
  27.7137314 103.0597646 106.7222191  29.1709086 102.6654755 106.8364558
  21.9201468 107.2944946  97.0759857  21.1368990 107.8366627  97.1698081
  22.6194214 107.8118926  97.4754098  25.2298119  93.1039576  99.7194062
  25.7266818  92.3509538  99.3995133  24.4585100  93.1403893  99.1537272
  33.0827876  98.8079941 101.3612354  33.0717752  99.6904657 100.9906287
  32.2145255  98.4551492 101.1666891  26.3127899 101.8611263  97.2932486
  25.3784178 101.9812726  97.1237190  26.4904568 100.9583730  97.0292496
  21.8133087  95.2456959  99.4465747  21.4430875  94.6927999 100.1346652
  22.3092180  94.6415092  98.8940747  29.7000451  97.7028582  97.8282520
  30.1660903  98.5356574  97.7542823  30.1507951  97.2373564  98.5327778
  27.7676682 104.0472404  94.8268672  28.0436526 103.9328998  95.7362546
  26.8981180 103.6489889  94.7880845  27.6717113  90.0709169 101.8673421
  26.7580193  90.3013396 102.0355628  28.1010215  90.1547613 102.7187454
  27.4423572  98.2599061 104.3673315  26.7895022  98.5074969 103.7125768
  27.8203952  97.4463200 104.0335792  24.4030746 108.2958755  98.4701486
  24.5853140 107.4780410  98.9329238  25.2263732 108.5126447  98.0326375
  24.7372911 107.2226940  95.7316534  25.2660678 106.7119394  95.1186696
  25.0001131 106.9069470  96.5962067  17.2098421  92.6560950 105.6918853
  17.2739747  93.5175781 105.2796251  17.1465541  92.0434951 104.9591212
  13.4616236  96.5360511  95.2710242  13.7569677  95.6271190  95.2177296
  12.5604272  96.5148251  94.9491244  25.3702315 108.2567775 102.0760650
  25.2453454 107.4557515 101.5671596  26.0281406 108.7513969 101.5874620
  16.9910483  94.6116508 101.2537791  16.2697069  95.2252476 101.1145264
  17.7803739  95.1474273 101.1754437  27.4337223 106.0576796 103.7040201
  26.4867559 105.9382147 103.6318527  27.7819997 105.1699294 103.7866462
  19.7936797  91.9470934 107.5278442  20.3171199  92.1933231 108.2904752
  19.5749130  92.7790969 107.1081580  15.1904078  94.2174609  95.3949567
  14.8616784  93.3371988  95.2124673  15.5443449  94.1622278  96.2825956
  24.4383657 105.8529512  99.9044553  24.2908619 104.9246219 100.0852123
  25.2637150 105.8749602  99.4201628  18.3045901  94.5047579  95.7625045
  18.6441973  95.0333500  95.0403653  18.7518021  94.8427985  96.5383611
  28.0417779 106.6758070 100.9909426  28.9664326 106.4700932 100.8533877
  27.8733082 106.4274472 101.8998767  20.9989342  92.8884630 105.2128113
  20.6586162  92.0892443 105.6148793  20.2928348  93.1886340 104.6404946
  21.6505814  89.9733942 103.6655436  22.4731883  89.4994420 103.5434326
  21.8943877  90.7524426 104.1654122  20.2914048  93.0022200  93.9618338
  21.0122411  93.3803453  93.4582055  19.6679352  93.7211077  94.0653316
  24.4345171  93.7067349  94.8976670  24.6508785  94.5891987  94.5965498
  23.9539238  93.3153563  94.1682312  19.1744392  96.6653063 101.4747415
  19.0288973  96.9793366 102.3671696  18.6969596  97.2837963 100.9218313
  21.0340775  93.6555611 101.5228304  21.0202344  92.7596704 101.1860602
  21.7513203  93.6626274 102.1566590  22.8866906  94.0892951 103.5681432
  22.6284684  95.0110021 103.5665762  22.3551946  93.6923385 104.2581896
  27.8313095 107.1943738  96.3471517  28.0049972 106.6290160  95.5945369
  28.3241986 107.9944633  96.1651007  20.4377671  92.5369991  96.7915874
  20.5593582  91.6086637  96.9906762  20.1479714  92.5508677  95.8794190
  23.3068862  90.2224901  99.9282594  23.3290558  90.2864234  98.9734574
  23.7236921  89.3829410 100.1223100  33.6852486  99.9580161  97.9661817
  34.1283632  99.2087486  97.5680940  32.8078996  99.9490297  97.5835549
  28.8188267 106.5110502  93.4468415  29.5139172 107.1317195  93.6655730
  29.1611417 105.6605854  93.7220793  30.7179690 103.9610208  94.9755746
  31.2431014 104.2997481  94.2505066  30.6302043 103.0257223  94.7918881
  30.5271471 101.4435578 107.5939673  30.5769476 101.2785585 108.5355195
  30.4185395 100.5762837 107.2037553  19.4107730 104.1224124  94.8831761
  19.5595851 104.8059588  94.2298434  20.2174174 104.1029214  95.3981217
  27.8175234  97.4266506 108.9098979  28.7185097  97.2872971 108.6182977
  27.8923208  97.5920961 109.8497157  22.1518039  94.8033361 107.7552166
  21.2821349  95.0966927 107.4834754  22.3877520  95.3873806 108.4759429
  32.0289668 103.8632519 107.8381694  31.7374477 104.2262500 108.6745155
  31.4161800 103.1499528 107.6595026  33.2285351 101.4285399 100.3584264
  34.0632242 101.8675203 100.5221825  33.3644479 100.9524052  99.5392510
  30.2776857  98.9865134 106.3061752  30.7530978  99.1792780 105.4980603
  29.3542422  99.0424320 106.0605136  17.1660363 100.1489301  95.8892830
  16.9206405  99.2451631  96.0873040  17.3356278 100.1506452  94.9472308
  24.8557073  91.0212978 105.2717586  25.3739017  91.7574004 104.9464074
  24.5012206  91.3276971 106.1064345  16.4356011  95.8817659  93.3878992
  15.7425256  95.9562014  92.7319028  16.1907763  95.1178002  93.9100509
  25.1069667  87.4413260 100.7918483  25.3871421  86.7736449 101.4178909
  25.8920274  87.6342356 100.2793146  22.9103136 106.6172254  92.3543509
  22.3377103 107.2362441  91.9013981  23.4835929 107.1671616  92.8883431
  28.9778526  95.8630894 104.5390058  29.9295948  95.9628992 104.5602282
  28.8081976  95.0709163 105.0488142  26.9992905  92.9486477 104.7249459
  26.4042837  93.2291490 104.0295947  26.7142602  93.4380378 105.4966200
  26.1300395 106.9009404  93.4852091  27.0631069 106.8354966  93.6884967
  26.0423608 107.7365671  93.0266624  28.7588412 106.2175274  90.4456039
  28.6802044 105.8835138  91.3391797  29.5798079 106.7097042  90.4447511
  31.4566603  99.0837014 103.6532357  31.4242923  98.1453014 103.8392041
  32.0667227  99.1621050 102.9198182  23.2949934  97.9533067  89.6959561
  24.2409039  97.8239275  89.7647979  22.9164179  97.2147729  90.1728989
  31.6061092  95.8748057 103.6990640  31.0900140  95.0906514 103.5120569
  32.4901040  95.5466774 103.8637160  29.2671819  89.6189073  99.6586453
  29.0696640  89.3104161 100.5429785  29.8771524  90.3450712  99.7884383
  37.2743153 100.1453021 102.7938394  38.0046542  99.8838309 103.3546097
  36.6650099  99.4081743 102.8340462  35.3558450  98.2860883 103.3912845
  34.6291614  98.1516848 102.7829337  34.9405737  98.5937712 104.1969563
  21.4792851  95.8783043  89.6314447  20.5724307  95.5816156  89.7077160
  21.7568832  95.5812861  88.7648733  23.0954917  90.4219933  95.7858688
  22.2855645  90.0767018  96.1613934  23.7839334  90.1127477  96.3746299
  25.0245465  89.4997980  97.4082984  25.5776504  89.9193433  98.0673008
  25.2615552  88.5733728  97.4505940  20.2491636  92.7369978  89.7726426
  21.1110800  93.0624877  90.0322243  20.4341980  91.9501474  89.2599492
  28.4024272  91.6098505  96.9161649  27.8222941  92.2683309  96.5339701
  28.1360205  90.7875849  96.5049066  26.8527839  91.0103563  99.1182969
  27.3527617  91.1220097  98.3097288  27.4963447  90.7064615  99.7583778
  27.1849150  93.7698595  95.9717997  26.2975005  94.0548246  95.7538192
  27.6003140  93.6092359  95.1245274  30.5363687  93.7945116  99.6872336
  31.3124077  94.2841569  99.9596953  29.8111821  94.2203170 100.1444206
  32.9736245  94.5072735 100.7446277  33.5680736  94.2668471 100.0339585
  33.0462829  93.7879866 101.3719813  26.3292364 103.5343270  90.0666017
  27.0328214 103.7393272  90.6823673  25.6055013 104.1020032  90.3315101
  27.1590174  99.2853131  96.1868287  27.1025376  99.7421683  95.3475920
  27.7118517  98.5243816  96.0091130  30.9694980  95.0742863  97.0118407
  30.7131914  94.6739499  97.8426614  30.3447848  95.7886657  96.8868546
  35.2807318  97.8138936  99.5189698  34.7206876  97.8832126 100.2921260
  34.6750821  97.6379921  98.7989194  28.2379061 103.9725799  92.1164477
  29.0724665 103.5406998  91.9341952  28.0763404 103.8007813  93.0441372
  27.8924954 100.4757912  93.4820816  27.8373757 100.3102184  92.5409260
  27.2671009 101.1833945  93.6383006  21.2021079  89.9766021  93.0606135
  21.1899749  90.9207861  93.2174406  22.0944501  89.7936167  92.7665596
  25.0173198  86.5708798  97.3152072  24.2505594  86.0167285  97.4608754
  25.4283903  86.6430667  98.1766223  36.8663336 114.4895450 102.2119654
  37.5041746 114.3702198 101.5082994  36.7484179 115.4376294 102.2707606
  33.6753043 114.4422878 102.1481179  33.3371554 114.3263943 101.2601713
  34.5442811 114.0414043 102.1282185  31.3761322 113.2111126  91.4798119
  31.6286843 112.6892647  90.7181582  30.4385881 113.0477271  91.5824802
  36.4204605 112.2146904  99.2872862  37.2067694 111.7966327  98.9363279
  36.6843309 113.1192996  99.4554510  41.8213032 112.1522137 100.1905840
  42.5538204 111.5821354 100.4243670  41.0652388 111.7643738 100.6312346
  33.4389152 114.5749379  97.3869183  33.0747359 114.0480000  98.0982104
  34.2956268 114.1847848  97.2135668  39.3438452 105.8643711 104.6500449
  39.0121777 106.7339122 104.4261664  38.7484066 105.5479995 105.3294479
  33.0794639 109.6039278  92.3830531  33.2469041 110.4719515  92.7501002
  32.8891808 109.7666560  91.4591821  39.2367116 110.5838798 101.7293799
  38.3283993 110.5154206 101.4352560  39.1854712 111.0610742 102.5575624
  33.0583860 112.0596936  93.3677198  32.9383485 112.5053987  94.2062678
  32.3636448 112.4082254  92.8090736  41.1028762 108.7855236 103.5071673
  40.4603142 109.0787769 102.8611468  40.5983691 108.6708156 104.3124870
  38.7568926 112.5318409  94.1957532  39.6686782 112.7645796  94.0205230
  38.2478573 113.1155453  93.6332611  33.3940763 111.8915644 105.2052382
  34.2401959 112.3155057 105.3487031  33.3339401 111.2349268 105.8990945
  36.5440209 109.5520012 106.8633555  36.3001141 110.3062073 106.3267831
  36.8200139 109.9305360 107.6980802  38.4978672 116.0958624 105.5410821
  38.7095567 116.7390384 104.8645202  38.4508420 115.2620941 105.0732751
  36.1004901 108.7076445 102.4447393  35.2389380 109.0057699 102.7364131
  36.1267335 108.9246844 101.5128426  31.8535356 113.3741788  95.6610764
  32.5559399 113.8262832  96.1284690  31.5215985 112.7325607  96.2890657
  25.5960690 111.6325341 100.9627897  24.8059744 111.8882869 100.4868008
  26.0871937 112.4473679 101.0679938  27.5475435 111.9969920  97.9211374
  26.7506599 112.1088614  98.4394870  27.3201028 112.3356572  97.0552265
  47.7030493 115.3169328 100.0618150  46.9494201 114.7476726  99.9062154
  47.8378034 115.2831993 101.0088784  36.4421584 103.7113293 104.2671763
  36.0985854 104.6014934 104.1910873  36.8100547 103.5214950 103.4041348
  36.4071867 113.7021904  92.7744198  35.8918490 114.4726508  93.0132585
  36.1349175 113.0287040  93.3977259  33.9918978 108.5471604  97.8329436
  33.1360574 108.1578455  97.6535075  34.4045930 108.6263565  96.9729222
  35.5218125 106.0817948 102.2320996  35.0182920 106.0448083 101.4188801
  35.8148731 106.9910690 102.2917652  31.7661010 106.1656677 101.2387178
  32.6314007 105.9699486 100.8793067  31.8338519 105.9367029 102.1656534
  41.3806141 116.4554258  94.7097371  40.6035584 116.1165418  94.2652533
  42.0597622 116.4606881  94.0352336  36.1958170 111.5748996  94.6003979
  35.8908306 111.8895145  95.4514122  37.1488612 111.6530416  94.6431312
  39.6197448 115.9288240 101.3663979  38.9621122 116.6187501 101.4544108
  40.4237847 116.3184671 101.7097965  29.3723330 108.3958885  98.6103544
  29.9467081 108.1734067  97.8776737  29.9594312 108.4647580  99.3632146
  38.4302907 114.2832612  99.4167921  38.9434789 114.9162604  99.9189631
  39.0804131 113.6833808  99.0511281  29.6992917 110.4263346  92.6299430
  28.8630229 110.7638033  92.9508704  29.5597686 110.2912326  91.6926567
  31.6745997 105.2700134  97.3378614  31.0210410 104.9549151  96.7135229
  31.6326471 104.6475875  98.0638437  34.9083738 111.7582068 101.6626261
  33.9906299 111.9797015 101.5047949  35.3243881 111.8328378 100.8037969
  35.6918785 113.1573483  96.7928942  36.4390604 113.6694881  96.4836064
  35.9610375 112.8357536  97.6533335  38.1397623 110.1930600  98.7747731
  37.4020379 109.6807986  99.1057974  38.3924396 109.7530981  97.9631008
  38.2409250 102.9706852  99.3689500  38.5468127 102.1104215  99.0815415
  38.9661855 103.5624472  99.1688494  32.5130330 113.2660645  99.8765691
  32.5678939 112.3134481  99.8008168  31.7021532 113.4220084 100.3606990
  30.4522690 111.8837705  97.6356070  29.6390555 112.1831875  98.0421262
  30.9481684 111.4893393  98.3530552  36.0496901 112.3479529 106.4670964
  36.4046289 112.5751002 107.3265430  36.6969032 112.6797906 105.8448219
  41.7794638 115.4697965  97.1720293  41.6412537 115.6599561  96.2441482
  41.4230857 116.2317348  97.6288344  29.9436764 109.4556060 103.2517305
  30.5836144 109.3144819 102.5540268  29.1114295 109.1690573 102.8755907
  41.8064018 117.5374492 102.1831565  42.2400524 117.4449781 103.0314619
  42.5195598 117.5131992 101.5451581  27.0279832 112.9001572  95.4412050
  26.0977420 112.8386028  95.6582012  27.1237304 112.3777525  94.6448692
  26.9465381 109.4256385  98.0290292  27.2072198 110.3401718  97.9199452
  27.7682553 108.9580828  98.1786905  42.6679567 117.5798193 104.7164450
  42.8615457 118.4844003 104.9623725  42.5680185 117.1205612 105.5503035
  34.3215878 107.4656083 107.2154777  33.6743793 108.1646033 107.1219254
  35.0916893 107.8992227 107.5831026  34.4980012 115.3036848 105.2751597
  35.4272072 115.4548008 105.1020564  34.0771042 115.3920869 104.4200244
  37.7832751 116.0525149  90.7076032  37.1661922 115.3271978  90.6109085
  37.3149239 116.8134510  90.3643106  29.5731297 110.2710574  89.8297336
  28.6960763 110.1499375  89.4659583  30.0489050 109.4796652  89.5776225
  36.0691873 108.4331494  99.7194062  36.5660573 107.6801456  99.3995133
  35.2978855 108.4695810  99.1537272  43.9221630 114.1371859 101.3612354
  43.9111507 115.0196575 100.9906287  43.0539010 113.7843410 101.1666891
  32.6526842 110.5748877  99.4465747  32.2824629 110.0219917 100.1346652
  33.1485934 109.9707010  98.8940747  40.5394205 113.0320500  97.8282520
  41.0054657 113.8648492  97.7542823  40.9901706 112.5665482  98.5327778
  38.5110868 105.4001087 101.8673421  37.5973948 105.6305314 102.0355628
  38.9403969 105.4839531 102.7187454  38.2817326 113.5890979 104.3673315
  37.6288777 113.8366887 103.7125768  38.6597706 112.7755117 104.0335792
  28.0492175 107.9852867 105.6918853  28.1133502 108.8467698 105.2796251
  27.9859296 107.3726869 104.9591212  24.3009991 111.8652429  95.2710242
  24.5963432 110.9563107  95.2177296  23.3998026 111.8440168  94.9491244
  27.8304238 109.9408426 101.2537791  27.1090823 110.5544393 101.1145264
  28.6197494 110.4766190 101.1754437  30.6330551 107.2762852 107.5278442
  31.1564953 107.5225149 108.2904752  30.4142885 108.1082887 107.1081580
  26.0297832 109.5466527  95.3949567  25.7010538 108.6663906  95.2124673
  26.3837203 109.4914195  96.2825956  29.1439655 109.8339496  95.7625045
  29.4835728 110.3625418  95.0403653  29.5911776 110.1719903  96.5383611
  31.8383096 108.2176547 105.2128113  31.4979917 107.4184360 105.6148793
  31.1322103 108.5178258 104.6404946  32.4899568 105.3025860 103.6655436
  33.3125637 104.8286338 103.5434326  32.7337632 106.0816343 104.1654122
  31.1307803 108.3314118  93.9618338  31.8516165 108.7095371  93.4582055
  30.5073107 109.0502995  94.0653316  35.2738926 109.0359267  94.8976670
  35.4902540 109.9183905  94.5965498  34.7932993 108.6445480  94.1682312
  30.0138147 111.9944980 101.4747415  29.8682728 112.3085283 102.3671696
  29.5363351 112.6129881 100.9218313  31.8734530 108.9847528 101.5228304
  31.8596099 108.0888622 101.1860602  32.5906958 108.9918192 102.1566590
  33.7260660 109.4184868 103.5681432  33.4678438 110.3401939 103.5665762
  33.1945701 109.0215303 104.2581896  31.2771426 107.8661909  96.7915874
  31.3987337 106.9378555  96.9906762  30.9873468 107.8800594  95.8794190
  34.1462616 105.5516819  99.9282594  34.1684313 105.6156152  98.9734574
  34.5630675 104.7121328 100.1223100  44.5246240 115.2872079  97.9661817
  44.9677386 114.5379404  97.5680940  43.6472751 115.2782215  97.5835549
  41.3665226 116.7727496 107.5939673  41.4163231 116.6077503 108.5355195
  41.2579149 115.9054755 107.2037553  38.6568988 112.7558424 108.9098979
  39.5578851 112.6164888 108.6182977  38.7316963 112.9212878 109.8497157
  32.9911794 110.1325278 107.7552166  32.1215103 110.4258844 107.4834754
  33.2271274 110.7165723 108.4759429  44.0679105 116.7577317 100.3584264
  44.9025996 117.1967121 100.5221825  44.2038234 116.2815970  99.5392510
  41.1170611 114.3157052 106.3061752  41.5924733 114.5084698 105.4980603
  40.1936176 114.3716237 106.0605136  35.6950828 106.3504895 105.2717586
  36.2132771 107.0865922 104.9464074  35.3405960 106.6568889 106.1064345
  27.2749765 111.2109576  93.3878992  26.5819010 111.2853931  92.7319028
  27.0301517 110.4469920  93.9100509  35.9463422 102.7705178 100.7918483
  36.2265175 102.1028367 101.4178909  36.7314029 102.9634273 100.2793146
  39.8172280 111.1922812 104.5390058  40.7689703 111.2920909 104.5602282
  39.6475730 110.4001080 105.0488142  37.8386660 108.2778395 104.7249459
  37.2436592 108.5583408 104.0295947  37.5536356 108.7672296 105.4966200
  42.2960358 114.4128931 103.6532357  42.2636678 113.4744932 103.8392041
  42.9060981 114.4912968 102.9198182  34.1343689 113.2824984  89.6959561
  35.0802793 113.1531193  89.7647979  33.7557934 112.5439646  90.1728989
  42.4454846 111.2039975 103.6990640  41.9293895 110.4198432 103.5120569
  43.3294795 110.8758691 103.8637160  40.1065573 104.9480990  99.6586453
  39.9090394 104.6396079 100.5429785  40.7165279 105.6742629  99.7884383
  48.1136908 115.4744938 102.7938394  48.8440296 115.2130226 103.3546097
  47.5043853 114.7373660 102.8340462  46.1952205 113.6152801 103.3912845
  45.4685368 113.4808766 102.7829337  45.7799492 113.9229629 104.1969563
  32.3186606 111.2074961  89.6314447  31.4118061 110.9108074  89.7077160
  32.5962587 110.9104779  88.7648733  33.9348672 105.7511851  95.7858688
  33.1249400 105.4058935  96.1613934  34.6233088 105.4419394  96.3746299
  35.8639220 104.8289897  97.4082984  36.4170258 105.2485351  98.0673008
  36.1009306 103.9025645  97.4505940  31.0885390 108.0661896  89.7726426
  31.9504554 108.3916794  90.0322243  31.2735735 107.2793392  89.2599492
  39.2418027 106.9390422  96.9161649  38.6616696 107.5975227  96.5339701
  38.9753960 106.1167767  96.5049066  37.6921593 106.3395480  99.1182969
  38.1921372 106.4512015  98.3097288  38.3357201 106.0356533  99.7583778
  38.0242905 109.0990513  95.9717997  37.1368760 109.3840163  95.7538192
  38.4396894 108.9384276  95.1245274  41.3757441 109.1237034  99.6872336
  42.1517831 109.6133486  99.9596953  40.6505575 109.5495088 100.1444206
  43.8130000 109.8364653 100.7446277  44.4074491 109.5960389 100.0339585
  43.8856583 109.1171784 101.3719813  37.9983929 114.6145049  96.1868287
  37.9419130 115.0713600  95.3475920  38.5512271 113.8535733  96.0091130
  41.8088735 110.4034781  97.0118407  41.5525669 110.0031416  97.8426614
  41.1841603 111.1178575  96.8868546  46.1201072 113.1430854  99.5189698
  45.5600630 113.2124043 100.2921260  45.5144576 112.9671839  98.7989194
  38.7318708 115.8049830  93.4820816  38.6767512 115.6394101  92.5409260
  38.1064763 116.5125863  93.6383006  32.0414833 105.3057939  93.0606135
  32.0293503 106.2499779  93.2174406  32.9338255 105.1228084  92.7665596
  35.8566953 101.9000716  97.3152072  35.0899349 101.3459202  97.4608754
  36.2677658 101.9722584  98.1766223  47.2815339 119.0405210 104.2671763
  46.9379608 119.9306852 104.1910873  47.6494301 118.8506868 103.4041348
  49.0803004 118.2998769  99.3689500  49.3861881 117.4396133  99.0815415
  49.8055609 118.8916390  99.1688494  46.7857176 118.0997095 100.7918483
  47.0658930 117.4320285 101.4178909  47.5707783 118.2926191 100.2793146
  50.9459328 120.2772908  99.6586453  50.7484149 119.9687996 100.5429785
  51.5559033 121.0034547  99.7884383  46.6960707 117.2292633  97.3152072
  45.9293103 116.6751120  97.4608754  47.1071412 117.3014502  98.1766223
   4.3455476  31.0063780  86.7863456   3.5919184  30.4371178  86.6307461
   4.4803017  30.9726445  87.7334091   0.7104088  32.4471769  87.0829571
   1.5450980  32.8861573  87.2467131   0.8463217  31.9710422  86.2637817
   4.7561891  31.1639390  89.5183701   5.4865279  30.9024678  90.0791404
   4.1468836  30.4268112  89.5585769   2.8377188  29.3047253  90.1158152
   2.1110352  29.1703218  89.5074644   2.4224475  29.6124081  90.9214870
   0.4554983  25.5259105  87.4691584   1.0499474  25.2854841  86.7584892
   0.5281567  24.8066236  88.0965120   2.7626056  28.8325306  86.2435005
   2.2025614  28.9018495  87.0166567   2.1569559  28.6566290  85.5234501
   4.3482074  45.5081820  88.9364960   4.9860484  45.3888567  88.2328301
   4.2302917  46.4562664  88.9952913   1.1571781  45.4609248  88.8726485
   0.8190292  45.3450313  87.9847020   2.0261549  45.0600413  88.8527491
   1.6391563  46.6144100  94.8312691   1.6280204  46.2196898  93.9593194
   1.8012203  45.8810172  95.4246462   2.5958155  50.9815692  80.1737841
   1.9446135  51.5669772  79.7871855   3.3902518  51.5121887  80.2332878
   3.9023343  43.2333274  86.0118168   4.6886432  42.8152697  85.6608585
   4.1662047  44.1379366  86.1799817   4.0733420  48.6706124  80.7106825
   3.4379253  48.7440750  81.4227730   3.7430826  49.2599723  80.0325905
   9.3031770  43.1708507  86.9151147  10.0356942  42.6007724  87.1488976
   8.5471126  42.7830107  87.3557653   0.9207890  45.5935748  84.1114489
   0.5566097  45.0666369  84.8227411   1.7775005  45.2034217  83.9380975
   6.8257190  36.8830081  91.3745756   6.4940515  37.7525492  91.1506971
   6.2302804  36.5666365  92.0539786   3.3188710  49.0842627  90.7741668
   3.0189433  49.9867666  90.6657476   2.9739769  48.8174810  91.6262821
   6.7185854  41.6025167  88.4539106   5.8102731  41.5340576  88.1597867
   6.6673449  42.0797112  89.2820931   8.5847500  39.8041605  90.2316980
   7.9421880  40.0974139  89.5856774   8.0802428  39.6894526  91.0370176
   6.2387664  43.5504779  80.9202839   7.1505520  43.7832165  80.7450536
   5.7297311  44.1341823  80.3577917   4.5228431  47.9729406  94.5564131
   4.9311787  47.5311817  93.8118764   3.8005693  47.3982034  94.8098324
   0.8759501  42.9102013  91.9297688   1.7220696  43.3341427  92.0732337
   0.8158139  42.2535638  92.6236251   4.8457246  48.5330597  88.3116420
   4.2166108  48.6976311  87.6092488   4.4582908  48.9472207  89.0827384
   8.7246478  49.4685035  85.6660784   8.0397516  49.8483936  85.1157817
   8.8090327  50.0780362  86.3992732   4.0258947  40.5706382  93.5878862
   3.7819878  41.3248442  93.0513138   4.3018877  40.9491729  94.4226109
   5.9797409  47.1144994  92.2656128   6.1914305  47.7576754  91.5890509
   5.9327158  46.2807311  91.7978058   3.5823638  39.7262815  89.1692700
   2.7208117  40.0244068  89.4609437   3.6086073  39.9433214  88.2373732
   7.0943237  49.9916949  90.4378485   7.9160681  49.5897137  90.1561167
   7.0905640  49.8885184  91.3894601  15.1849230  46.3355698  86.7863456
  14.4312939  45.7663096  86.6307461  15.3196772  46.3018362  87.7334091
   0.5747858  51.2069100  82.4618176   0.4393533  52.0520636  82.8903024
   1.1157671  51.4088378  81.6984110   2.2016335  51.8292667  96.5918518
   1.7580189  51.0429045  96.2739422   2.8633548  52.0171817  95.9262409
   4.2997573  52.1095467  94.6199919   4.2816048  52.9304348  94.1280188
   5.2217493  51.9849542  94.8450060   3.9240322  34.7299662  90.9917069
   3.5804591  35.6201304  90.9156180   4.2919285  34.5401320  90.1286654
   3.8890605  44.7208273  79.4989504   3.3737228  45.4912878  79.7377892
   3.6167913  44.0473409  80.1222566   1.4737716  39.5657974  84.5574743
   0.6179312  39.1764824  84.3780381   1.8864668  39.6449935  83.6974528
   3.0036862  37.1004317  88.9566302   2.5001658  37.0634452  88.1434108
   3.2967469  38.0097060  89.0162959   8.8624879  47.4740628  81.4342678
   8.0854322  47.1351787  80.9897840   9.5416360  47.4793251  80.7597643
   3.6776908  42.5935365  81.3249285   3.3727043  42.9081514  82.1759429
   4.6307350  42.6716785  81.3676618   2.1223340  48.7525589  82.9742239
   1.5944701  48.0178348  82.6615477   1.6210842  49.5300265  82.7282208
   7.1016186  46.9474609  88.0909286   6.4439860  47.6373870  88.1789414
   7.9056585  47.3371041  88.4343272   5.9121645  45.3018982  86.1413228
   6.4253526  45.9348974  86.6434937   6.5622868  44.7020177  85.7756588
   3.1744019  55.2803306  78.8973899   2.5005718  55.5835003  79.5058856
   3.5609841  56.0832386  78.5479356   2.3902475  42.7768437  88.3871568
   1.4725037  42.9983384  88.2293256   2.8062619  42.8514748  87.5283275
   3.1737523  44.1759853  83.5174248   3.9209342  44.6881250  83.2081370
   3.4429113  43.8543906  84.3778642   1.4464173  46.6718394  80.5001203
   0.5375393  46.3877427  80.5973672   1.4759257  47.0917472  79.6404509
   6.6783441  50.2824983  84.2692370   6.2245768  49.4415893  84.3257561
   6.0477407  50.9186382  84.6067150   5.6216360  41.2116969  85.4993038
   4.8839117  40.6994355  85.8303280   5.8743134  40.7717351  84.6876314
   5.1216380  52.1201480  85.2042188   5.4139354  52.6806537  84.4854554
   5.6315001  52.4130041  85.9595347   5.7227988  33.9893221  86.0934807
   6.0286864  33.1290585  85.8060722   6.4480592  34.5810841  85.8933801
   1.1440261  48.2127137  77.8389281   0.7059691  47.4962996  77.3794919
   1.8850702  48.4403252  77.2774373   3.5315639  43.3665899  93.1916271
   3.8865027  43.5937372  94.0510736   4.1787770  43.6984275  92.5693526
   9.2613376  46.4884334  83.8965600   9.1231275  46.6785930  82.9686789
   8.9049595  47.2503717  84.3533651   9.2882756  48.5560861  88.9076871
   9.7219262  48.4636151  89.7559925  10.0014336  48.5318362  88.2696887
   3.0210650  52.1562956  90.4409972   3.0747673  52.7253892  91.2087688
   2.1525432  52.3264841  90.0764009  10.1498305  48.5984562  91.4409757
  10.3434195  49.5030373  91.6869032  10.0498923  48.1391981  92.2748342
   1.8034616  38.4842453  93.9400084   1.1562531  39.1832402  93.8464560
   2.5735631  38.9178597  94.3076332   5.2113414  48.7491305  97.0150637
   5.0598920  48.5201857  96.0980721   5.2018093  49.7061906  97.0281982
   1.9798750  46.3223218  91.9996904   2.9090810  46.4734377  91.8265871
   1.5589780  46.4107238  91.1445550   1.3735234  55.4482978  81.1120978
   1.5486990  54.9771022  81.9266601   0.6868022  56.0748745  81.3402239
   2.3292297  49.7255485  87.1584279   1.9942130  49.6856255  88.0541929
   1.8296243  49.0600201  86.6854689   5.2651489  47.0711519  77.4321339
   4.6480659  46.3458347  77.3354391   4.7967977  47.8320879  77.0888413
   6.9205620  51.7810427  95.0927119   6.8618167  51.0969648  94.4257702
   7.3225139  52.5229417  94.6407745   6.9223028  49.7450011  93.3241099
   6.0349806  49.4075933  93.4467498   7.4921579  49.0133043  93.5609864
   3.5510611  39.4517863  86.4439369   4.0479310  38.6987825  86.1240439
   2.7797592  39.4882180  85.8782578  11.4040368  45.1558229  88.0857660
  11.3930244  46.0382944  87.7151594  10.5357748  44.8029780  87.8912198
   2.9122865  54.3038298  92.4460501   3.6250837  54.9385763  92.3736402
   2.4212893  54.4002164  91.6300502   4.6340392  48.2089550  84.0177792
   3.6996670  48.3291013  83.8482497   4.8117060  47.3062017  83.7537802
   8.0212943  44.0506870  84.5527826   8.4873395  44.8834861  84.4788129
   8.4720443  43.5851851  85.2573085   6.0889174  50.3950691  81.5513979
   6.3649018  50.2807286  82.4607853   5.2193673  49.9968176  81.5126152
   5.9929606  36.4187457  88.5918728   5.0792685  36.6491684  88.7600935
   6.4222707  36.5025901  89.4432760   5.7636064  44.6077349  91.0918622
   5.1107514  44.8553256  90.4371075   6.1416444  43.7941487  90.7581099
   2.7243238  54.6437042  85.1946792   2.9065633  53.8258698  85.6574544
   3.5476224  54.8604734  84.7571682   3.0585403  53.5705227  82.4561841
   3.5873170  53.0597682  81.8432003   3.3213623  53.2547757  83.3207374
   1.8123637  45.3497160  97.5784659   1.1364274  45.2491289  98.2487034
   2.6351271  45.1936373  98.0420656   0.5546420  56.6564087  91.8142275
   1.1064728  56.8195709  92.5791360   0.8952613  57.2468525  91.1422300
   5.4057294  51.4825345  97.6690929   5.9497198  52.0955303  97.1745884
   4.8244139  52.0404923  98.1857942   3.6914807  54.6046063  88.8005957
   3.5665947  53.8035803  88.2916903   4.3493898  55.0992256  88.3119927
   5.7549716  52.4055083  90.4285507   4.8080051  52.2860434  90.3563834
   6.1032489  51.5177581  90.5111769   2.7596149  52.2007799  86.6289859
   2.6121111  51.2724506  86.8097429   3.5849642  52.2227890  86.1446935
   6.3630271  53.0236358  87.7154732   7.2876818  52.8179219  87.5779183
   6.1945574  52.7752759  88.6244074   2.7557663  40.0545637  81.6221977
   2.9721278  40.9370274  81.3210805   2.2751730  39.6631850  80.8927619
   1.2079398  40.4371238  90.2926738   0.9497176  41.3588309  90.2911069
   0.6764439  40.0401673  90.9827202   6.1525587  53.5422025  83.0716824
   6.3262465  52.9768448  82.3190676   6.6454478  54.3422920  82.8896314
   1.6281354  36.5703189  86.6527901   1.6503051  36.6342522  85.6979880
   2.0449413  35.7307697  86.8468407  12.0064978  46.3058448  84.6907123
  12.4496124  45.5565773  84.2926247  11.1291488  46.2968584  84.3080855
   7.1400760  52.8588790  80.1713722   7.8351664  53.4795482  80.3901037
   7.4823910  52.0084141  80.4466100   9.0392183  50.3088495  81.7001053
   9.5643507  50.6475768  80.9750373   8.9514535  49.3735510  81.5164187
   0.7012231  54.2222569  93.8290929   1.0099358  53.9771715  94.7013629
   1.4987713  54.4269207  93.3409800   8.7286089  50.9421399  97.0052251
   7.9381632  50.9245538  96.4656750   8.4919443  51.4809692  97.7601287
   8.8483964  47.7913865  94.3184979   8.8981969  47.6263873  95.2600502
   8.7397887  46.9241124  93.9282860   6.1387726  43.7744793  95.6344286
   7.0397589  43.6351258  95.3428284   6.2135701  43.9399248  96.5742463
  10.3502161  50.2110807  94.5627001  10.0586969  50.5740787  95.3990462
   9.7374292  49.4977815  94.3840333  11.5497843  47.7763686  87.0829571
  12.3844734  48.2153490  87.2467131  11.6856972  47.3002340  86.2637817
   8.5989349  45.3343421  93.0307059   9.0743470  45.5271068  92.2225910
   7.6754914  45.3902607  92.7850442   3.1769565  37.3691265  91.9962893
   3.6951509  38.1052292  91.6709381   2.8224698  37.6755258  92.8309652
   3.4282159  33.7891547  87.5163789   3.7083913  33.1214736  88.1424216
   4.2132766  33.9820643  87.0038453   1.2315628  52.9650541  79.0788815
   0.6589595  53.5840728  78.6259287   1.8048422  53.5149903  79.6128737
   7.2991018  42.2109181  91.2635364   8.2508441  42.3107279  91.2847588
   7.1294468  41.4187450  91.7733449   5.3205397  39.2964765  91.4494765
   4.7255329  39.5769777  90.7541254   5.0355094  39.7858665  92.2211506
   4.4512888  53.2487691  80.2097398   5.3843561  53.1833253  80.4130273
   4.3636101  54.0843958  79.7511930   7.0800904  52.5653562  77.1701345
   7.0014536  52.2313425  78.0637103   7.9010571  53.0575330  77.1692818
   9.7779096  45.4315301  90.3777664   9.7455416  44.4931302  90.5637348
  10.3879719  45.5099338  89.6443489   1.6162426  44.3011354  76.4204868
   2.5621531  44.1717562  76.4893286   1.2376671  43.5626016  76.8974296
   9.9273584  42.2226344  90.4235947   9.4112633  41.4384801  90.2365876
  10.8113533  41.8945061  90.5882467   7.5884311  35.9667360  86.3831760
   7.3909132  35.6582448  87.2675092   8.1984017  36.6928999  86.5129690
  15.5955645  46.4931308  89.5183701  16.3259034  46.2316596  90.0791404
  14.9862591  45.7560030  89.5585769  13.6770943  44.6339170  90.1158152
  12.9504106  44.4995135  89.5074644  13.2618229  44.9415999  90.9214870
   1.5001119  48.3529100  97.8805525   2.4204128  48.5307699  98.0745571
   1.4650702  47.4085145  97.7285224   1.4167409  36.7698220  82.5103994
   0.6068138  36.4245305  82.8859241   2.1051826  36.4605764  83.0991606
   3.3457958  35.8476267  84.1328291   3.8988996  36.2671720  84.7918314
   3.5828044  34.9212015  84.1751247   6.7236765  37.9576792  83.6406955
   6.1435434  38.6161596  83.2585008   6.4572697  37.1354137  83.2294373
   5.1740331  37.3581850  85.8428276   5.6740109  37.4698384  85.0342595
   5.8175939  37.0542903  86.4829084   5.5061643  40.1176882  82.6963304
   4.6187498  40.4026533  82.4783498   5.9215632  39.9570646  81.8490581
   8.8576179  40.1423403  86.4117643   9.6336569  40.6319856  86.6842260
   8.1324313  40.5681458  86.8689512  11.2948737  40.8551023  87.4691584
  11.8893228  40.6146759  86.7584892  11.3675321  40.1358153  88.0965120
   4.6504856  49.8821557  76.7911324   5.3540706  50.0871560  77.4068979
   3.9267505  50.4498319  77.0560407   5.4802666  45.6331418  82.9113594
   5.4237868  46.0899970  82.0721226   6.0331009  44.8722103  82.7336437
   9.2907472  41.4221150  83.7363713   9.0344407  41.0217786  84.5671921
   8.6660340  42.1364944  83.6113852  13.6019810  44.1617223  86.2435005
  13.0419368  44.2310413  87.0166567  12.9963314  43.9858208  85.5234501
   6.5591554  50.3204086  78.8409784   7.3937158  49.8885285  78.6587258
   6.3975897  50.1486100  79.7686678   6.2137446  46.8236200  80.2066123
   6.1586250  46.6580471  79.2654567   5.5883501  47.5312233  80.3628313
   3.5283353  49.1285111  99.5319686   4.3974513  49.3025764  99.1706321
   3.0490104  49.9479528  99.4095415   3.3385691  32.9187085  84.0397378
   2.5718087  32.3645572  84.1854061   3.7496396  32.9908954  84.9011530
  15.1875829  60.8373737  88.9364960  15.8254239  60.7180485  88.2328301
  15.0696672  61.7854581  88.9952913  11.9965535  60.7901166  88.8726485
  11.6584047  60.6742230  87.9847020  12.8655303  60.3892331  88.8527491
   7.8552351  62.6436642  84.8623376   7.2917216  62.5526579  84.0939664
   7.7404746  61.8236546  85.3425869  12.4785318  61.9436017  94.8312691
  12.4673959  61.5488816  93.9593194  12.6405957  61.2102090  95.4246462
   5.4016783  64.1387834  87.7007597   6.1938075  63.7978658  87.2853896
   5.6413433  64.2482809  88.6209750  13.4351909  66.3107610  80.1737841
  12.7839889  66.8961690  79.7871855  14.2296272  66.8413805  80.2332878
   7.3607537  63.3996747  80.5724975   8.1338413  62.8525734  80.4337851
   7.7132935  64.2640996  80.7839437   9.1992579  64.7273129  93.7791875
   8.9082445  65.6318760  93.6638541   9.8349563  64.7689657  94.4935944
  10.1248786  62.1049978  90.3693234  10.7212358  61.8806000  89.6550197
  10.1823758  61.3634723  90.9718682   9.6973814  59.5589413  78.2043425
   9.9499335  59.0370934  77.4426888   8.7598373  59.3955558  78.3070109
  14.7417097  58.5625191  86.0118168  15.5280186  58.1444614  85.6608585
  15.0055802  59.4671283  86.1799817  14.9127175  63.9998042  80.7106825
  14.2773008  64.0732668  81.4227730  14.5824581  64.5891640  80.0325905
  20.1425524  58.5000424  86.9151147  20.8750696  57.9299641  87.1488976
  19.3864880  58.1122025  87.3557653   9.4170103  61.4617519  80.4067800
   9.3006361  60.7862422  81.0748885   9.5272363  60.9749893  79.5899953
  11.7601644  60.9227666  84.1114489  11.3959851  60.3958287  84.8227411
  12.6168760  60.5326135  83.9380975  17.6650945  52.2121999  91.3745756
  17.3334269  53.0817410  91.1506971  17.0696558  51.8958283  92.0539786
  11.4007131  55.9517566  79.1075838  11.5681533  56.8197802  79.4746309
  11.2104300  56.1144847  78.1837127  14.1582464  64.4134545  90.7741668
  13.8583187  65.3159583  90.6657476  13.8133524  64.1466728  91.6262821
   7.6094946  60.8648341  86.8078373   6.6845442  60.7324556  87.0156065
   7.8579359  61.6442561  87.3048315  17.5579608  56.9317085  88.4539106
  16.6496485  56.8632493  88.1597867  17.5067204  57.4089030  89.2820931
  11.3796352  58.4075223  80.0922505  11.2595977  58.8532274  80.9307985
  10.6848940  58.7560541  79.5336043   4.9703757  60.5081615  87.6422162
   5.0996138  60.7616094  88.5561574   4.2901208  61.1009323  87.3226817
   9.1403244  71.1778865  83.7412636   9.0627274  72.1286690  83.8201117
   8.5364888  70.8324737  84.3987562  11.6320474  58.3506730  96.3974003
  10.8553808  58.9100650  96.3876868  12.2711037  58.8363513  96.9188873
  19.4241254  55.1333523  90.2316980  18.7815635  55.4266056  89.5856774
  18.9196183  55.0186443  91.0370176  17.0781418  58.8796696  80.9202839
  17.9899274  59.1124083  80.7450536  16.5691065  59.4633741  80.3577917
   9.8866846  61.1592184  95.9591970  10.6281530  61.6977228  95.6826794
   9.1803832  61.7858472  96.1163522  15.3622186  63.3021324  94.5564131
  15.7705542  62.8603735  93.8118764  14.6399447  62.7273952  94.8098324
  11.7153256  58.2393931  91.9297688  12.5614451  58.6633344  92.0732337
  11.6551893  57.5827555  92.6236251  15.6851000  63.8622515  88.3116420
  15.0559863  64.0268229  87.6092488  15.2976662  64.2764124  89.0827384
  19.5640232  64.7976953  85.6660784  18.8791270  65.1775854  85.1157817
  19.6484082  65.4072279  86.3992732  14.8652701  55.8998299  93.5878862
  14.6213633  56.6540360  93.0513138  15.1412632  56.2783647  94.4226109
  16.8191164  62.4436912  92.2656128  17.0308059  63.0868672  91.5890509
  16.7720912  61.6099228  91.7978058  14.4217393  55.0554732  89.1692700
  13.5601872  55.3535986  89.4609437  14.4479827  55.2725131  88.2373732
  11.2378962  63.5996923  85.5766505  11.7017308  63.8784626  84.7871128
  10.9735760  62.6980367  85.3939596   8.1303043  63.1468404  88.5146269
   8.7004400  63.5755673  87.8763753   8.7211155  62.8650989  89.2130454
  10.1747848  59.7220075  82.3856071  10.8771892  60.1741119  82.8529997
   9.8428477  59.0803894  83.0135964   8.6228210  58.3131832  96.7607280
   7.9926870  58.9948113  96.9942677   8.5164298  58.2014913  95.8160418
   3.9173182  57.9803628  87.6873204   3.1272236  58.2361156  87.2113315
   4.4084430  58.7951966  87.7925245  17.9336992  65.3208867  90.4378485
  18.7554436  64.9189054  90.1561167  17.9299395  65.2177101  91.3894601
   5.8687928  58.3448207  84.6456681   5.0719091  58.4566901  85.1640176
   5.6413520  58.6834859  83.7797571  11.6993595  64.8692910  92.5939195
  11.7638028  65.3313318  93.4297367  10.9904519  64.2390275  92.7221505
   2.2010885  58.2334118  90.1188195   2.4518924  59.1181128  90.3845771
   2.7370434  58.0538720  89.3463287  26.0242985  61.6647616  86.7863456
  25.2706693  61.0955014  86.6307461  26.1590526  61.6310280  87.7334091
  11.4141613  66.5361018  82.4618176  11.2787288  67.3812554  82.8903024
  11.9551425  66.7380296  81.6984110   7.9008953  52.6152598  99.1232531
   7.5075898  52.0618796  99.7980175   8.7175093  52.9263176  99.5139048
   4.8671010  64.0536456  83.0346101   5.3795531  64.8479706  83.1851666
   5.5193723  63.3562746  82.9679702   6.6765895  67.1702212  85.1168854
   6.8532523  68.0920177  84.9289838   7.4722729  66.8560631  85.5463234
  10.8176914  54.0310477  96.7152788  11.5586627  54.6317630  96.6357250
  11.0494836  53.2888115  96.1570830   5.9618252  59.2166844  94.9931017
   5.8471767  58.3152101  95.2938116   5.1062769  59.4630541  94.6415834
  13.0410089  67.1584584  96.5918518  12.5973943  66.3720963  96.2739422
  13.7027303  67.3463735  95.9262409   7.7997210  68.6880386  91.1179196
   8.3504636  68.5597449  90.3456190   6.9608686  68.9875275  90.7674089
  15.1391327  67.4387384  94.6199919  15.1209803  68.2596265  94.1280188
  16.0611247  67.3141460  94.8450060  11.5964382  64.9531514  95.4623427
  12.1292718  64.1919802  95.2322735  11.0678463  64.6605166  96.2047582
  14.7634076  50.0591580  90.9917069  14.4198346  50.9493221  90.9156180
  15.1313039  49.8693237  90.1286654   2.8319927  62.3825110  83.8105671
   3.6695149  62.7922119  83.5939379   3.0098195  61.4424552  83.7805865
  14.7284359  60.0500191  79.4989504  14.2130983  60.8204795  79.7377892
  14.4561668  59.3765327  80.1222566  12.3131470  54.8949892  84.5574743
  11.4573067  54.5056742  84.3780381  12.7258422  54.9741852  83.6974528
  13.8430617  52.4296235  88.9566302  13.3395412  52.3926370  88.1434108
  14.1361224  53.3388978  89.0162959  10.0873503  52.5134965  87.9632484
  10.9526500  52.3177773  87.6038374  10.1551012  52.2845316  88.8901841
  19.7018633  62.8032546  81.4342678  18.9248076  62.4643705  80.9897840
  20.3810114  62.8085169  80.7597643  14.5170662  57.9227283  81.3249285
  14.2120798  58.2373432  82.1759429  15.4701105  58.0008703  81.3676618
  12.9617094  64.0817506  82.9742239  12.4338456  63.3470266  82.6615477
  12.4604597  64.8592183  82.7282208  17.9409940  62.2766527  88.0909286
  17.2833615  62.9665788  88.1789414  18.7450339  62.6662959  88.4343272
   7.6935822  54.7437173  85.3348851   8.2679574  54.5212354  84.6022044
   8.2806804  54.8125867  86.0877452  16.7515399  60.6310899  86.1413228
  17.2647281  61.2640891  86.6434937  17.4016623  60.0312095  85.7756588
   8.0205409  56.7741634  79.3544736   7.1842721  57.1116320  79.6754011
   7.8810179  56.6390613  78.4171873   9.9958490  51.6178421  84.0623920
   9.3422902  51.3027439  83.4380535   9.9538964  50.9954162  84.7883743
  11.1069694  61.8997717  75.9777212  10.1996756  61.6686970  76.1768361
  11.6040726  61.1035336  76.1651194  14.0137773  70.6095224  78.8973899
  13.3399472  70.9126920  79.5058856  14.4003595  71.4124304  78.5479356
  13.2296230  58.1060355  88.3871568  12.3118791  58.3275302  88.2293256
  13.6456374  58.1806665  87.5283275  14.0131278  59.5051771  83.5174248
  14.7603097  60.0173168  83.2081370  14.2822867  59.1835823  84.3778642
  12.2857928  62.0010311  80.5001203  11.3769147  61.7169344  80.5973672
  12.3153012  62.4209390  79.6404509  17.5177195  65.6116901  84.2692370
  17.0639522  64.7707811  84.3257561  16.8871162  66.2478299  84.6067150
  16.4610115  56.5408887  85.4993038  15.7232872  56.0286273  85.8303280
  16.7136888  56.1009269  84.6876314  15.9610135  67.4493398  85.2042188
  16.2533109  68.0098455  84.4854554  16.4708755  67.7421959  85.9595347
  16.5621742  49.3185139  86.0934807  16.8680619  48.4582502  85.8060722
  17.2874347  49.9102759  85.8933801   2.8546098  59.7215826  84.4816405
   2.6570498  59.1285186  83.7567471   2.2992762  59.4168036  85.1992344
  10.8342822  59.6138932  86.6010998  10.8891432  58.6612768  86.5253475
  10.0234024  59.7698371  87.0852296  11.9834016  63.5419055  77.8389281
  11.5453446  62.8254914  77.3794919  12.7244457  63.7695170  77.2774373
   8.7735182  58.2315992  84.3601377   7.9603047  58.5310162  84.7666569
   9.2694176  57.8371681  85.0775859  10.9243760  68.2273749  86.2935642
  10.8819938  68.4534595  85.3644174  11.8406459  67.9937123  86.4421443
  14.3709393  58.6957816  93.1916271  14.7258781  58.9229289  94.0510736
  15.0181525  59.0276193  92.5693526  20.1007130  61.8176252  83.8965600
  19.9625029  62.0077848  82.9686789  19.7443349  62.5795635  84.3533651
   8.2649257  55.8034347  89.9762612   8.9048636  55.6623106  89.2785575
   7.4326787  55.5168861  89.6001214  20.1276510  63.8852779  88.9076871
  20.5613017  63.7928068  89.7559925  20.8408091  63.8610280  88.2696887
   9.0409560  65.1036778  86.0897604   9.8350159  64.6087098  85.8880179
   8.3301253  64.5754641  85.7265310  13.8604405  67.4854873  90.4409972
  13.9141427  68.0545810  91.2087688  12.9919186  67.6556758  90.0764009
   5.3492324  59.2479859  82.1657357   4.4189912  59.1864315  82.3827319
   5.4449796  58.7255812  81.3693998   5.2677873  55.7734672  84.7535599
   5.5284690  56.6880006  84.6444759   6.0895045  55.3059115  84.9032211
   6.7402798  57.1872429  91.9234423   7.4125852  56.9789792  91.2747072
   5.9132585  56.9894515  91.4839655  20.9892060  63.9276480  91.4409757
  21.1827950  64.8322290  91.6869032  20.8892678  63.4683899  92.2748342
  12.6428370  53.8134370  93.9400084  11.9956285  54.5124320  93.8464560
  13.4129386  54.2470514  94.3076332  16.0507168  64.0783223  97.0150637
  15.8992675  63.8493774  96.0980721  16.0411848  65.0353824  97.0281982
  12.8192505  61.6515135  91.9996904  13.7484565  61.8026295  91.8265871
  12.3983535  61.7399156  91.1445550  11.6180836  65.6765800  89.7695441
  11.4791922  65.3084584  90.6421379  10.8295433  66.1913439  89.5979399
  12.2128988  70.7774896  81.1120978  12.3880744  70.3062939  81.9266601
  11.5261776  71.4040662  81.3402239  13.1686052  65.0547402  87.1584279
  12.8335884  65.0148172  88.0541929  12.6689997  64.3892118  86.6854689
   7.1430296  60.4615032  92.6836860   7.0050094  59.7295271  93.2848399
   8.0535219  60.3723933  92.4021048  16.1045243  62.4003437  77.4321339
  15.4874414  61.6750265  77.3354391  15.6361732  63.1612797  77.0888413
   9.7712596  60.1734992  92.1720540  10.4812215  59.5328184  92.1307158
   9.7281904  60.4247887  93.0946721  17.7599375  67.1102345  95.0927119
  17.7011921  66.4261565  94.4257702  18.1618893  67.8521335  94.6407745
   8.4841530  57.1600210  93.9916179   7.9478887  56.7090948  94.6437776
   7.8958239  57.2946118  93.2486644   6.7790074  73.9264259  87.8860838
   7.0186672  74.5582783  88.5639857   5.9359270  73.5752299  88.1726197
   7.8943789  56.6188861  76.5542643   7.0173255  56.4977662  76.1904890
   8.3701542  55.8274939  76.3021532  17.7616782  65.0741929  93.3241099
  16.8743561  64.7367851  93.4467498  18.3315333  64.3424960  93.5609864
   4.2180651  56.2956217  91.0769174   4.1338840  55.6881887  90.3419584
   3.3963358  56.7865236  91.0778670  11.2917936  69.7343381  90.2902342
  11.2188107  70.5398353  90.8021647  10.8495329  69.9335347  89.4650363
  11.0807715  68.9715151  83.8005164  10.2975237  69.5136832  83.8943388
  11.7800460  69.4889131  84.1999405  14.3904365  54.7809781  86.4439369
  14.8873065  54.0279743  86.1240439  13.6191347  54.8174098  85.8782578
  22.2434123  60.4850146  88.0857660  22.2323999  61.3674862  87.7151594
  21.3751502  60.1321697  87.8912198  13.7516619  69.6330215  92.4460501
  14.4644591  70.2677680  92.3736402  13.2606648  69.7294081  91.6300502
  15.4734146  63.5381468  84.0177792  14.5390425  63.6582931  83.8482497
  15.6510814  62.6353935  83.7537802  10.9739334  56.9227164  86.1711054
  10.6037122  56.3698204  86.8591959  11.4698427  56.3185297  85.6186054
  18.8606697  59.3798787  84.5527826  19.3267150  60.2126779  84.4788129
  19.3114198  58.9143769  85.2573085   8.8028533  67.3824659  93.2666071
   9.5037992  68.0161142  93.4195466   8.3323648  67.7239390  92.5061711
  16.9282928  65.7242609  81.5513979  17.2042772  65.6099203  82.4607853
  16.0587427  65.3260093  81.5126152  16.8323360  51.7479374  88.5918728
  15.9186440  51.9783601  88.7600935  17.2616462  51.8317818  89.4432760
  16.6029819  59.9369266  91.0918622  15.9501269  60.1845174  90.4371075
  16.9810199  59.1233404  90.7581099  13.5636992  69.9728959  85.1946792
  13.7459387  69.1550615  85.6574544  14.3869978  70.1896652  84.7571682
  13.8979158  68.8997145  82.4561841  14.4266924  68.3889599  81.8432003
  14.1607378  68.5839675  83.3207374  12.6517392  60.6789077  97.5784659
  11.9758029  60.5783207  98.2487034  13.4745026  60.5228291  98.0420656
   4.3996251  66.9161014  90.1997174   4.9849688  66.1704702  90.3325078
   4.2021089  67.2264971  91.0833838   7.2534906  69.9512261  85.2159617
   6.5845281  70.4358389  84.7323657   7.1147776  70.1981482  86.1302995
  11.3940175  71.9856005  91.8142275  11.9458483  72.1487626  92.5791360
  11.7346368  72.5760443  91.1422300   6.3704668  54.3331155  92.4164160
   6.4345994  55.1945986  92.0041557   6.3071788  53.7205156  91.6836518
   5.8456940  56.4054287  96.0637194   6.4728979  56.0231364  96.6774718
   4.9884859  56.1868489  96.4292886  16.2451049  66.8117262  97.6690929
  16.7890953  67.4247221  97.1745884  15.6637894  67.3696841  98.1857942
   2.6222483  58.2130716  81.9955549   2.9175924  57.3041395  81.9422602
   1.7210519  58.1918456  81.6736551  14.5308562  69.9337980  88.8005957
  14.4059701  69.1327720  88.2916903  15.1887653  70.4284174  88.3119927
   6.1516730  56.2886713  87.9783097   5.4303316  56.9022681  87.8390571
   6.9409986  56.8244478  87.8999743  16.5943470  67.7347000  90.4285507
  15.6473806  67.6152352  90.3563834  16.9426243  66.8469498  90.5111769
   8.9543044  53.6241139  94.2523749   9.4777445  53.8703436  95.0150058
   8.7355377  54.4561174  93.8326886   4.3510325  55.8944814  82.1194874
   4.0223031  55.0142193  81.9369980   4.7049695  55.8392483  83.0071263
  13.5989903  67.5299717  86.6289859  13.4514866  66.6016424  86.8097429
  14.4243397  67.5519807  86.1446935   7.4652148  56.1817784  82.4870352
   7.8048220  56.7103705  81.7648960   7.9124268  56.5198190  83.2628918
  17.2024025  68.3528275  87.7154732  18.1270573  68.1471137  87.5779183
  17.0339329  68.1044677  88.6244074  10.1595589  54.5654834  91.9373420
   9.8192409  53.7662648  92.3394099   9.4534595  54.8656545  91.3650253
  10.8112060  51.6504147  90.3900743  11.6338130  51.1764625  90.2679633
  11.0550124  52.4294631  90.8899429   9.4520295  54.6792405  80.6863644
  10.1728657  55.0573658  80.1827361   8.8285599  55.3981282  80.7898622
  13.5951418  55.3837554  81.6221977  13.8115032  56.2662192  81.3210805
  13.1145485  54.9923768  80.8927619   8.3350639  58.3423268  88.1992721
   8.1895220  58.6563571  89.0917003   7.8575843  58.9608168  87.6463620
  10.1947022  55.3325815  88.2473611  10.1808591  54.4366909  87.9105909
  10.9119450  55.3396479  88.8811897  12.0473153  55.7663156  90.2926738
  11.7890931  56.6880226  90.2911069  11.5158193  55.3693590  90.9827202
  16.9919342  68.8713943  83.0716824  17.1656219  68.3060365  82.3190676
  17.4848233  69.6714838  82.8896314   2.8096301  60.8828612  91.1380382
   2.2649769  61.6588420  91.2700657   3.6875651  61.2299416  90.9799504
   9.5983918  54.2140196  83.5161181   9.7199829  53.2856842  83.7152068
   9.3085960  54.2278882  82.6039496  12.4675108  51.8995106  86.6527901
  12.4896805  51.9634439  85.6979880  12.8843167  51.0599615  86.8468407
  22.8458733  61.6350366  84.6907123  23.2889879  60.8857691  84.2926247
  21.9685243  61.6260502  84.3080855  17.9794514  68.1880707  80.1713722
  18.6745419  68.8087400  80.3901037  18.3217664  67.3376058  80.4466100
   3.5962323  60.0098508  94.0310539   2.8544059  60.1581144  94.6175170
   3.2755067  60.2706774  93.1677289  19.8785937  65.6380413  81.7001053
  20.4037261  65.9767686  80.9750373  19.7908290  64.7027428  81.5164187
  11.5405986  69.5514486  93.8290929  11.8493112  69.3063633  94.7013629
  12.3381468  69.7561125  93.3409800  11.5626598  71.7052396  86.0596306
  11.1231588  71.2128775  86.7529163  12.3134715  71.1625364  85.8188381
   4.0418937  67.8963937  86.0620934   4.8676957  67.5967709  85.6819577
   3.6912989  67.1271559  86.5110723   9.0100470  67.2490405  88.1318608
   8.3880479  66.5861110  87.8320835   9.6805337  67.2751537  87.4492255
   2.2427542  65.8150263  87.0209868   1.4059450  65.3872438  86.8393869
   2.2151187  66.0082707  87.9580659   9.0824998  55.7272193  97.7251114
   9.1313153  56.6034316  97.3428883   9.6247512  55.1849586  97.1522757
  19.5679843  66.2713316  97.0052251  18.7775387  66.2537455  96.4656750
  19.3313198  66.8101610  97.7601287  19.6877718  63.1205783  94.3184979
  19.7375723  62.9555790  95.2600502  19.5791642  62.2533042  93.9282860
   8.5713977  65.7994328  81.6077068   8.7202097  66.4829793  80.9543741
   9.3780420  65.7799419  82.1226524  16.9781481  59.1036711  95.6344286
  17.8791343  58.9643176  95.3428284  17.0529455  59.2691166  96.5742463
  11.3124286  56.4803566  94.4797472  10.4427595  56.7737132  94.2080061
  11.5483766  57.0644011  95.2004736  21.1895915  65.5402724  94.5627001
  20.8980723  65.9032705  95.3990462  20.5768046  64.8269733  94.3840333
  22.3891597  63.1055604  87.0829571  23.2238489  63.5445408  87.2467131
  22.5250726  62.6294257  86.2637817  19.4383103  60.6635339  93.0307059
  19.9137225  60.8562985  92.2225910  18.5148669  60.7194525  92.7850442
   6.3266610  61.8259506  82.6138137   6.0812652  60.9221836  82.8118347
   6.4962524  61.8276657  81.6717615  14.0163320  52.6983182  91.9962893
  14.5345264  53.4344209  91.6709381  13.6618453  53.0047176  92.8309652
   5.5962257  57.5587864  80.1124298   4.9031502  57.6332219  79.4564334
   5.3514009  56.7948207  80.6345815  14.2675914  49.1183465  87.5163789
  14.5477668  48.4506654  88.1424216  15.0526521  49.3112561  87.0038453
  12.0709382  68.2942459  79.0788815  11.4983350  68.9132646  78.6259287
  12.6442176  68.8441821  79.6128737  18.1384772  57.5401099  91.2635364
  19.0902195  57.6399197  91.2847588  17.9688223  56.7479368  91.7733449
  16.1599152  54.6256682  91.4494765  15.5649084  54.9061695  90.7541254
  15.8748848  55.1150583  92.2211506  15.2906642  68.5779609  80.2097398
  16.2237315  68.5125171  80.4130273  15.2029855  69.4135876  79.7511930
  17.9194659  67.8945479  77.1701345  17.8408290  67.5605343  78.0637103
  18.7404326  68.3867247  77.1692818  20.6172850  60.7607219  90.3777664
  20.5849170  59.8223219  90.5637348  21.2273474  60.8391255  89.6443489
  12.4556181  59.6303272  76.4204868  13.4015286  59.5009480  76.4893286
  12.0770426  58.8917934  76.8974296  20.7667339  57.5518262  90.4235947
  20.2506387  56.7676719  90.2365876  21.6507287  57.2236979  90.5882467
  18.4278066  51.2959278  86.3831760  18.2302887  50.9874366  87.2675092
  19.0377771  52.0220917  86.5129690  26.4349400  61.8223226  89.5183701
  27.1652788  61.5608514  90.0791404  25.8256345  61.0851947  89.5585769
  24.5164697  59.9631088  90.1158152  23.7897861  59.8287053  89.5074644
  24.1011984  60.2707917  90.9214870  12.3394873  63.6821018  97.8805525
  13.2597883  63.8599617  98.0745571  12.3044457  62.7377063  97.7285224
  10.6399098  57.5553248  76.3559753   9.7330554  57.2586361  76.4322467
  10.9175079  57.2583066  75.4894039   1.5577038  58.8759611  86.8058800
   1.2379823  58.0224920  86.5133174   1.0110467  59.0908190  87.5616767
   5.3356946  61.5922052  90.5228306   5.5542956  62.5239160  90.5416340
   5.7482720  61.2330027  91.3083110  12.2561164  52.0990138  82.5103994
  11.4461892  51.7537223  82.8859241  12.9445581  51.7897681  83.0991606
  14.1851712  51.1768185  84.1328291  14.7382751  51.5963638  84.7918314
  14.4221798  50.2503933  84.1751247  10.2084811  57.1655258  99.9131055
  10.1081538  58.1149615  99.8443146   9.9906353  56.8373497  99.0407125
   9.4097883  54.4140183  76.4971732  10.2717047  54.7395082  76.7567550
   9.5948227  53.6271679  75.9844798   1.4265298  62.4962523  88.7751921
   0.7328770  62.0816476  88.2621876   2.1738289  62.5383059  88.1785340
  17.5630519  53.2868710  83.6406955  16.9829188  53.9453514  83.2585008
  17.2966452  52.4646054  83.2294373  16.0134086  52.6873767  85.8428276
  16.5133864  52.7990302  85.0342595  16.6569694  52.3834820  86.4829084
  10.0716081  60.5952397  98.7296117   9.5883163  61.3952757  98.9360006
  10.1577020  60.6060342  97.7763561   3.3402041  62.4280777  86.6517936
   3.3172729  62.5268464  85.6999819   3.6502678  63.2745928  86.9735102
   5.9989419  64.4856932  90.7664550   6.9532672  64.4540874  90.6994482
   5.8001942  64.0247555  91.5814776   6.5888801  63.0558048  93.3335348
   7.4081690  63.5502126  93.3570185   6.8625609  62.1390016  93.3052916
  16.3455397  55.4468800  82.6963304  15.4581252  55.7318451  82.4783498
  16.7609386  55.2862563  81.8490581  19.6969933  55.4715321  86.4117643
  20.4730323  55.9611774  86.6842260  18.9718068  55.8973375  86.8689512
  22.1342492  56.1842940  87.4691584  22.7286983  55.9438676  86.7584892
  22.2069076  55.4650071  88.0965120   4.3539648  70.0276551  87.7834748
   4.2194116  69.2676952  87.2172746   3.9371710  70.7517451  87.3163537
  15.4898611  65.2113475  76.7911324  16.1934461  65.4163477  77.4068979
  14.7661259  65.7790237  77.0560407  16.3196421  60.9623336  82.9113594
  16.2631622  61.4191887  82.0721226  16.8724763  60.2014021  82.7336437
  20.1301227  56.7513068  83.7363713  19.8738161  56.3509704  84.5671921
  19.5054095  57.4656862  83.6113852  24.4413565  59.4909141  86.2435005
  23.8813123  59.5602330  87.0166567  23.8357068  59.3150126  85.5234501
   7.5108774  70.9245868  87.9953191   7.3941158  71.8691301  87.8931881
   6.6901220  70.6219430  88.3838990  17.3985308  65.6496004  78.8409784
  18.2330912  65.2177202  78.6587258  17.2369651  65.4778018  79.7686678
  17.0531200  62.1528117  80.2066123  16.9980004  61.9872389  79.2654567
  16.4277256  62.8604150  80.3628313   1.8423715  57.3896182  94.0327545
   2.4882579  56.8795136  94.5214770   1.6340866  58.1264863  94.6070970
  14.3677107  64.4577029  99.5319686  15.2368267  64.6317681  99.1706321
  13.8883859  65.2771446  99.4095415  10.3627326  51.6536226  79.7851441
  10.3505996  52.5978066  79.9419712  11.2550748  51.4706372  79.4910903
   8.5363288  71.5774130  91.2109119   9.4390534  71.6097740  91.5275614
   8.3100658  70.6474581  91.2255455  10.2916890  70.3305117  87.8719198
   9.3412521  70.3306978  87.7583570  10.5949376  69.5837851  87.3555233
  14.1779445  48.2479003  84.0397378  13.4111841  47.6937490  84.1854061
  14.5890150  48.3200872  84.9011530   6.1821206  54.5363799  98.1302559
   7.0452668  54.1800604  98.3405884   5.6086617  54.1977694  98.8177964
  26.0269583  76.1665655  88.9364960  26.6647993  76.0472402  88.2328301
  25.9090426  77.1146499  88.9952913  22.8359289  76.1193083  88.8726485
  22.4977801  76.0034148  87.9847020  23.7049058  75.7184248  88.8527491
  18.6946105  77.9728560  84.8623376  18.1310970  77.8818497  84.0939664
  18.5798500  77.1528464  85.3425869  23.3179072  77.2727935  94.8312691
  23.3067713  76.8780733  93.9593194  23.4799712  76.5394008  95.4246462
  16.2410537  79.4679751  87.7007597  17.0331829  79.1270576  87.2853896
  16.4807187  79.5774726  88.6209750  24.2745664  81.6399527  80.1737841
  23.6233644  82.2253608  79.7871855  25.0690027  82.1705722  80.2332878
  18.2001291  78.7288664  80.5724975  18.9732167  78.1817652  80.4337851
  18.5526690  79.5932914  80.7839437  20.0386334  80.0565047  93.7791875
  19.7476200  80.9610678  93.6638541  20.6743318  80.0981574  94.4935944
  20.9642540  77.4341895  90.3693234  21.5606113  77.2097918  89.6550197
  21.0217512  76.6926641  90.9718682  20.5367569  74.8881331  78.2043425
  20.7893090  74.3662852  77.4426888  19.5992128  74.7247476  78.3070109
  25.5810852  73.8917109  86.0118168  26.3673941  73.4736532  85.6608585
  25.8449556  74.7963201  86.1799817  25.7520929  79.3289959  80.7106825
  25.1166762  79.4024586  81.4227730  25.4218335  79.9183558  80.0325905
  20.2563858  76.7909437  80.4067800  20.1400116  76.1154340  81.0748885
  20.3666117  76.3041810  79.5899953  22.5995399  76.2519584  84.1114489
  22.2353606  75.7250205  84.8227411  23.4562514  75.8618053  83.9380975
  22.2400886  71.2809483  79.1075838  22.4075288  72.1489720  79.4746309
  22.0498055  71.4436765  78.1837127  24.9976219  79.7426462  90.7741668
  24.6976942  80.6451501  90.6657476  24.6527278  79.4758645  91.6262821
  18.4488700  76.1940259  86.8078373  17.5239197  76.0616473  87.0156065
  18.6973113  76.9734478  87.3048315  22.2190106  73.7367141  80.0922505
  22.0989732  74.1824192  80.9307985  21.5242695  74.0852459  79.5336043
  15.8097511  75.8373533  87.6422162  15.9389892  76.0908012  88.5561574
  15.1294963  76.4301241  87.3226817  19.9796999  86.5070783  83.7412636
  19.9021028  87.4578608  83.8201117  19.3758642  86.1616655  84.3987562
  22.4714228  73.6798648  96.3974003  21.6947562  74.2392568  96.3876868
  23.1104791  74.1655431  96.9188873  27.9175173  74.2088614  80.9202839
  28.8293029  74.4416001  80.7450536  27.4084820  74.7925658  80.3577917
  20.7260601  76.4884101  95.9591970  21.4675285  77.0269145  95.6826794
  20.0197586  77.1150390  96.1163522  26.2015940  78.6313242  94.5564131
  26.6099296  78.1895652  93.8118764  25.4793202  78.0565869  94.8098324
  22.5547010  73.5685849  91.9297688  23.4008205  73.9925262  92.0732337
  22.4945648  72.9119473  92.6236251  26.5244755  79.1914432  88.3116420
  25.8953617  79.3560147  87.6092488  26.1370417  79.6056042  89.0827384
  30.4033987  80.1268870  85.6660784  29.7185025  80.5067772  85.1157817
  30.4877836  80.7364197  86.3992732  27.6584918  77.7728829  92.2656128
  27.8701814  78.4160589  91.5890509  27.6114667  76.9391146  91.7978058
  25.2611147  70.3846650  89.1692700  24.3995626  70.6827904  89.4609437
  25.2873582  70.6017049  88.2373732  22.0772717  78.9288841  85.5766505
  22.5411062  79.2076544  84.7871128  21.8129515  78.0272285  85.3939596
  18.9696798  78.4760322  88.5146269  19.5398155  78.9047590  87.8763753
  19.5604910  78.1942907  89.2130454  21.0141603  75.0511993  82.3856071
  21.7165646  75.5033037  82.8529997  20.6822231  74.4095812  83.0135964
  19.4621964  73.6423750  96.7607280  18.8320625  74.3240030  96.9942677
  19.3558052  73.5306831  95.8160418  14.7566937  73.3095546  87.6873204
  13.9665991  73.5653074  87.2113315  15.2478184  74.1243883  87.7925245
  28.7730746  80.6500785  90.4378485  29.5948190  80.2480972  90.1561167
  28.7693149  80.5469019  91.3894601  16.7081682  73.6740125  84.6456681
  15.9112845  73.7858819  85.1640176  16.4807274  74.0126777  83.7797571
  22.5387350  80.1984828  92.5939195  22.6031782  80.6605235  93.4297367
  21.8298274  79.5682193  92.7221505  13.0404640  73.5626036  90.1188195
  13.2912678  74.4473046  90.3845771  13.5764188  73.3830638  89.3463287
  22.2535367  81.8652936  82.4618176  22.1181042  82.7104471  82.8903024
  22.7945180  82.0672213  81.6984110  18.7402707  67.9444515  99.1232531
  18.3469653  67.3910714  99.7980175  19.5568847  68.2555094  99.5139048
  15.7064765  79.3828374  83.0346101  16.2189285  80.1771624  83.1851666
  16.3587478  78.6854664  82.9679702  17.5159650  82.4994130  85.1168854
  17.6926278  83.4212095  84.9289838  18.3116483  82.1852549  85.5463234
  21.6570668  69.3602394  96.7152788  22.3980381  69.9609548  96.6357250
  21.8888591  68.6180032  96.1570830  16.8012006  74.5458762  94.9931017
  16.6865521  73.6444019  95.2938116  15.9456524  74.7922459  94.6415834
  23.8803844  82.4876502  96.5918518  23.4367698  81.7012881  96.2739422
  24.5421057  82.6755653  95.9262409  18.6390965  84.0172304  91.1179196
  19.1898390  83.8889367  90.3456190  17.8002441  84.3167193  90.7674089
  25.9785082  82.7679302  94.6199919  25.9603557  83.5888183  94.1280188
  26.9005002  82.6433377  94.8450060  22.4358136  80.2823431  95.4623427
  22.9686473  79.5211720  95.2322735  21.9072217  79.9897083  96.2047582
  25.6027831  65.3883497  90.9917069  25.2592100  66.2785139  90.9156180
  25.9706794  65.1985155  90.1286654  13.6713682  77.7117028  83.8105671
  14.5088904  78.1214036  83.5939379  13.8491949  76.7716470  83.7805865
  25.5678114  75.3792109  79.4989504  25.0524737  76.1496713  79.7377892
  25.2955422  74.7057245  80.1222566  23.1525225  70.2241809  84.5574743
  22.2966821  69.8348660  84.3780381  23.5652177  70.3033770  83.6974528
  24.6824371  67.7588153  88.9566302  24.1789167  67.7218288  88.1434108
  24.9754978  68.6680895  89.0162959  20.9267257  67.8426882  87.9632484
  21.7920254  67.6469691  87.6038374  20.9944766  67.6137234  88.8901841
  30.5412388  78.1324463  81.4342678  29.7641831  77.7935623  80.9897840
  31.2203869  78.1377086  80.7597643  25.3564417  73.2519201  81.3249285
  25.0514552  73.5665350  82.1759429  26.3094859  73.3300621  81.3676618
  23.8010849  79.4109424  82.9742239  23.2732210  78.6762184  82.6615477
  23.2998351  80.1884100  82.7282208  28.7803695  77.6058444  88.0909286
  28.1227369  78.2957706  88.1789414  29.5844094  77.9954876  88.4343272
  18.5329576  70.0729090  85.3348851  19.1073328  69.8504272  84.6022044
  19.1200559  70.1417785  86.0877452  27.5909154  75.9602817  86.1413228
  28.1041035  76.5932809  86.6434937  28.2410377  75.3604013  85.7756588
  18.8599163  72.1033551  79.3544736  18.0236476  72.4408238  79.6754011
  18.7203933  71.9682531  78.4171873  20.8352244  66.9470339  84.0623920
  20.1816656  66.6319356  83.4380535  20.7932718  66.3246080  84.7883743
  21.9463449  77.2289634  75.9777212  21.0390511  76.9978888  76.1768361
  22.4434481  76.4327253  76.1651194  24.8531528  85.9387141  78.8973899
  24.1793227  86.2418838  79.5058856  25.2397350  86.7416222  78.5479356
  24.0689984  73.4352273  88.3871568  23.1512546  73.6567220  88.2293256
  24.4850128  73.5098583  87.5283275  24.8525032  74.8343688  83.5174248
  25.5996851  75.3465086  83.2081370  25.1216622  74.5127741  84.3778642
  23.1251682  77.3302229  80.5001203  22.2162902  77.0461262  80.5973672
  23.1546766  77.7501308  79.6404509  28.3570950  80.9408819  84.2692370
  27.9033277  80.0999728  84.3257561  27.7264916  81.5770217  84.6067150
  27.3003869  71.8700805  85.4993038  26.5626626  71.3578191  85.8303280
  27.5530643  71.4301186  84.6876314  26.8003889  82.7785315  85.2042188
  27.0926863  83.3390372  84.4854554  27.3102510  83.0713876  85.9595347
  27.4015497  64.6477057  86.0934807  27.7074373  63.7874420  85.8060722
  28.1268101  65.2394677  85.8933801  13.6939853  75.0507743  84.4816405
  13.4964253  74.4577104  83.7567471  13.1386517  74.7459953  85.1992344
  21.6736576  74.9430850  86.6010998  21.7285186  73.9904686  86.5253475
  20.8627778  75.0990289  87.0852296  22.8227770  78.8710973  77.8389281
  22.3847200  78.1546832  77.3794919  23.5638211  79.0987088  77.2774373
  19.6128936  73.5607909  84.3601377  18.7996802  73.8602080  84.7666569
  20.1087930  73.1663598  85.0775859  21.7637514  83.5565666  86.2935642
  21.7213693  83.7826513  85.3644174  22.6800213  83.3229041  86.4421443
  25.2103148  74.0249734  93.1916271  25.5652536  74.2521207  94.0510736
  25.8575279  74.3568111  92.5693526  30.9400885  77.1468170  83.8965600
  30.8018784  77.3369766  82.9686789  30.5837104  77.9087553  84.3533651
  19.1043011  71.1326265  89.9762612  19.7442390  70.9915024  89.2785575
  18.2720542  70.8460778  89.6001214  19.8803315  80.4328695  86.0897604
  20.6743913  79.9379016  85.8880179  19.1695007  79.9046559  85.7265310
  24.6998159  82.8146791  90.4409972  24.7535182  83.3837727  91.2087688
  23.8312941  82.9848676  90.0764009  16.1886078  74.5771777  82.1657357
  15.2583667  74.5156233  82.3827319  16.2843550  74.0547730  81.3693998
  16.1071627  71.1026590  84.7535599  16.3678445  72.0171923  84.6444759
  16.9288800  70.6351033  84.9032211  17.5796553  72.5164347  91.9234423
  18.2519606  72.3081709  91.2747072  16.7526339  72.3186433  91.4839655
  23.4822125  69.1426288  93.9400084  22.8350040  69.8416238  93.8464560
  24.2523140  69.5762432  94.3076332  26.8900923  79.4075140  97.0150637
  26.7386429  79.1785692  96.0980721  26.8805602  80.3645742  97.0281982
  23.6586259  76.9807053  91.9996904  24.5878319  77.1318213  91.8265871
  23.2377289  77.0691074  91.1445550  22.4574591  81.0057717  89.7695441
  22.3185677  80.6376502  90.6421379  21.6689187  81.5205357  89.5979399
  23.0522743  86.1066814  81.1120978  23.2274499  85.6354857  81.9266601
  22.3655531  86.7332580  81.3402239  24.0079806  80.3839320  87.1584279
  23.6729639  80.3440090  88.0541929  23.5083752  79.7184036  86.6854689
  17.9824050  75.7906950  92.6836860  17.8443848  75.0587189  93.2848399
  18.8928974  75.7015850  92.4021048  26.9438998  77.7295354  77.4321339
  26.3268168  77.0042183  77.3354391  26.4755486  78.4904715  77.0888413
  20.6106351  75.5026909  92.1720540  21.3205969  74.8620102  92.1307158
  20.5675659  75.7539804  93.0946721  28.5993129  82.4394263  95.0927119
  28.5405676  81.7553483  94.4257702  29.0012648  83.1813253  94.6407745
  19.3235285  72.4892127  93.9916179  18.7872642  72.0382866  94.6437776
  18.7351993  72.6238036  93.2486644  17.6183828  89.2556177  87.8860838
  17.8580426  89.8874701  88.5639857  16.7753025  88.9044217  88.1726197
  18.7337544  71.9480779  76.5542643  17.8567010  71.8269579  76.1904890
  19.2095297  71.1566857  76.3021532  28.6010537  80.4033847  93.3241099
  27.7137315  80.0659768  93.4467498  29.1709088  79.6716878  93.5609864
  10.2539684  76.7357938  86.6484150  10.9410724  76.4219668  86.0605166
  10.0987812  77.6399303  86.3751402  15.0574406  71.6248135  91.0769174
  14.9732595  71.0173805  90.3419584  14.2357112  72.1157153  91.0778670
  22.1311690  85.0635299  90.2902342  22.0581862  85.8690271  90.8021647
  21.6889083  85.2627265  89.4650363  21.9201470  84.3007069  83.8005164
  21.1368992  84.8428749  83.8943388  22.6194215  84.8181049  84.1999405
  25.2298120  70.1101699  86.4439369  25.7266819  69.3571661  86.1240439
  24.4585101  70.1466015  85.8782578  24.5910374  84.9622133  92.4460501
  25.3038346  85.5969598  92.3736402  24.1000402  85.0585999  91.6300502
  26.3127901  78.8673386  84.0177792  25.3784179  78.9874848  83.8482497
  26.4904569  77.9645853  83.7537802  21.8133089  72.2519082  86.1711054
  21.4430876  71.6990122  86.8591959  22.3092181  71.6477215  85.6186054
  29.7000452  74.7090705  84.5527826  30.1660904  75.5418697  84.4788129
  30.1507952  74.2435687  85.2573085  19.6422287  82.7116577  93.2666071
  20.3431747  83.3453059  93.4195466  19.1717402  83.0531308  92.5061711
  27.7676683  81.0534526  81.5513979  28.0436527  80.9391121  82.4607853
  26.8981182  80.6552011  81.5126152  27.6717115  67.0771292  88.5918728
  26.7580194  67.3075519  88.7600935  28.1010216  67.1609736  89.4432760
  24.4030747  85.3020877  85.1946792  24.5853142  84.4842533  85.6574544
  25.2263733  85.5188569  84.7571682  24.7372912  84.2289062  82.4561841
  25.2660679  83.7181517  81.8432003  25.0001132  83.9131592  83.3207374
  23.4911146  76.0080995  97.5784659  22.8151783  75.9075124  98.2487034
  24.3138780  75.8520209  98.0420656  15.2390005  82.2452932  90.1997174
  15.8243442  81.4996619  90.3325078  15.0414844  82.5556888  91.0833838
  18.0928660  85.2804179  85.2159617  17.4239036  85.7650307  84.7323657
  17.9541530  85.5273399  86.1302995   9.8307660  74.8158532  88.9201617
   9.8691759  74.2822122  89.7138735   9.3247953  74.2893737  88.3012594
  22.2333929  87.3147922  91.8142275  22.7852237  87.4779544  92.5791360
  22.5740122  87.9052360  91.1422300  17.2098422  69.6623072  92.4164160
  17.2739749  70.5237903  92.0041557  17.1465542  69.0497074  91.6836518
  16.6850695  71.7346205  96.0637194  17.3122734  71.3523282  96.6774718
  15.8278614  71.5160407  96.4292886  27.0844803  82.1409180  97.6690929
  27.6284707  82.7539138  97.1745884  26.5031648  82.6988758  98.1857942
  13.4616238  73.5422634  81.9955549  13.7569679  72.6333312  81.9422602
  12.5604273  73.5210373  81.6736551  25.3702316  85.2629898  88.8005957
  25.2453456  84.4619638  88.2916903  26.0281407  85.7576091  88.3119927
  16.9910485  71.6178631  87.9783097  16.2697070  72.2314598  87.8390571
  17.7803740  72.1536395  87.8999743  27.4337225  83.0638918  90.4285507
  26.4867560  82.9444269  90.3563834  27.7819998  82.1761416  90.5111769
  19.7936798  68.9533057  94.2523749  20.3171200  69.1995354  95.0150058
  19.5749131  69.7853092  93.8326886  15.1904079  71.2236732  82.1194874
  14.8616785  70.3434111  81.9369980  15.5443450  71.1684400  83.0071263
  24.4383658  82.8591634  86.6289859  24.2908620  81.9308342  86.8097429
  25.2637151  82.8811725  86.1446935  18.3045902  71.5109701  82.4870352
  18.6441975  72.0395623  81.7648960  18.7518023  71.8490108  83.2628918
  28.0417780  83.6820193  87.7154732  28.9664327  83.4763054  87.5779183
  27.8733083  83.4336594  88.6244074  20.9989343  69.8946752  91.9373420
  20.6586163  69.0954565  92.3394099  20.2928349  70.1948463  91.3650253
  21.6505815  66.9796065  90.3900743  22.4731884  66.5056543  90.2679633
  21.8943878  67.7586548  90.8899429  20.2914049  70.0084323  80.6863644
  21.0122412  70.3865576  80.1827361  19.6679354  70.7273200  80.7898622
  24.4345172  70.7129472  81.6221977  24.6508787  71.5954110  81.3210805
  23.9539239  70.3215685  80.8927619  19.1744394  73.6715185  88.1992721
  19.0288974  73.9855488  89.0917003  18.6969597  74.2900086  87.6463620
  21.0340777  70.6617733  88.2473611  21.0202345  69.7658826  87.9105909
  21.7513205  70.6688397  88.8811897  22.8866907  71.0955073  90.2926738
  22.6284685  72.0172144  90.2911069  22.3551948  70.6985508  90.9827202
  27.8313096  84.2005860  83.0716824  28.0049974  83.6352283  82.3190676
  28.3241987  85.0006755  82.8896314  13.6490056  76.2120530  91.1380382
  13.1043524  76.9880338  91.2700657  14.5269406  76.5591334  90.9799504
  20.4377672  69.5432113  83.5161181  20.5593584  68.6148760  83.7152068
  20.1479715  69.5570799  82.6039496  23.3068863  67.2287024  86.6527901
  23.3290560  67.2926357  85.6979880  23.7236922  66.3891533  86.8468407
  33.6852487  76.9642283  84.6907123  34.1283633  76.2149609  84.2926247
  32.8078997  76.9552420  84.3080855  28.8188269  83.5172625  80.1713722
  29.5139173  84.1379318  80.3901037  29.1611419  82.6667976  80.4466100
  14.4356078  75.3390426  94.0310539  13.6937814  75.4873061  94.6175170
  14.1148822  75.5998691  93.1677289  30.7179692  80.9672330  81.7001053
  31.2431016  81.3059603  80.9750373  30.6302044  80.0319346  81.5164187
  22.3799740  84.8806404  93.8290929  22.6886867  84.6355551  94.7013629
  23.1775222  85.0853043  93.3409800  22.4020352  87.0344314  86.0596306
  21.9625343  86.5420692  86.7529163  23.1528469  86.4917281  85.8188381
  14.8812691  83.2255855  86.0620934  15.7070711  82.9259626  85.6819577
  14.5306743  82.4563477  86.5110723  19.8494225  82.5782323  88.1318608
  19.2274234  81.9153028  87.8320835  20.5199091  82.6043455  87.4492255
  13.0821296  81.1442181  87.0209868  12.2453205  80.7164355  86.8393869
  13.0544942  81.3374624  87.9580659  19.9218752  71.0564111  97.7251114
  19.9706907  71.9326234  97.3428883  20.4641266  70.5141504  97.1522757
  19.4107731  81.1286246  81.6077068  19.5595852  81.8121711  80.9543741
  20.2174175  81.1091336  82.1226524  22.1518040  71.8095483  94.4797472
  21.2821350  72.1029049  94.2080061  22.3877521  72.3935928  95.2004736
  33.2285352  78.4347522  87.0829571  34.0632243  78.8737326  87.2467131
  33.3644481  77.9586175  86.2637817  17.1660364  77.1551424  82.6138137
  16.9206406  76.2513754  82.8118347  17.3356279  77.1568574  81.6717615
  24.8557074  68.0275100  91.9962893  25.3739018  68.7636127  91.6709381
  24.5012207  68.3339093  92.8309652  16.4356012  72.8879781  80.1124298
  15.7425257  72.9624136  79.4564334  16.1907764  72.1240125  80.6345815
  25.1069668  64.4475383  87.5163789  25.3871422  63.7798572  88.1424216
  25.8920275  64.6404478  87.0038453  22.9103137  83.6234377  79.0788815
  22.3377104  84.2424564  78.6259287  23.4835931  84.1733738  79.6128737
  26.1300397  83.9071527  80.2097398  27.0631070  83.8417088  80.4130273
  26.0423610  84.7427794  79.7511930  28.7588413  83.2237397  77.1701345
  28.6802045  82.8897261  78.0637103  29.5798080  83.7159165  77.1692818
  23.2949935  74.9595189  76.4204868  24.2409040  74.8301397  76.4893286
  22.9164180  74.2209851  76.8974296  29.2671820  66.6251195  86.3831760
  29.0696641  66.3166284  87.2675092  29.8771526  67.3512834  86.5129690
  23.1788628  79.0112935  97.8805525  24.0991637  79.1891534  98.0745571
  23.1438211  78.0668981  97.7285224  21.4792853  72.8845166  76.3559753
  20.5724308  72.5878278  76.4322467  21.7568834  72.5874984  75.4894039
  12.3970793  74.2051529  86.8058800  12.0773577  73.3516837  86.5133174
  11.8504221  74.4200107  87.5616767  16.1750701  76.9213970  90.5228306
  16.3936710  77.8531078  90.5416340  16.5876474  76.5621945  91.3083110
  23.0954918  67.4282055  82.5103994  22.2855647  67.0829140  82.8859241
  23.7839335  67.1189599  83.0991606  25.0245467  66.5060102  84.1328291
  25.5776505  66.9255556  84.7918314  25.2615553  65.5795850  84.1751247
  21.0478566  72.4947176  99.9131055  20.9475293  73.4441533  99.8443146
  20.8300108  72.1665415  99.0407125  20.2491637  69.7432101  76.4971732
  21.1110801  70.0686999  76.7567550  20.4341981  68.9563597  75.9844798
  12.2659053  77.8254441  88.7751921  11.5722524  77.4108393  88.2621876
  13.0132044  77.8674977  88.1785340  28.4024274  68.6160627  83.6406955
  27.8222943  69.2745431  83.2585008  28.1360206  67.7937972  83.2294373
  26.8527840  68.0165685  85.8428276  27.3527618  68.1282220  85.0342595
  27.4963448  67.7126738  86.4829084  20.9109836  75.9244315  98.7296117
  20.4276918  76.7244675  98.9360006  20.9970775  75.9352260  97.7763561
  14.1795796  77.7572694  86.6517936  14.1566484  77.8560382  85.6999819
  14.4896432  78.6037845  86.9735102  16.8383173  79.8148849  90.7664550
  17.7926427  79.7832792  90.6994482  16.6395697  79.3539473  91.5814776
  17.4282556  78.3849965  93.3335348  18.2475445  78.8794044  93.3570185
  17.7019363  77.4681934  93.3052916  27.1849152  70.7760718  82.6963304
  26.2975007  71.0610368  82.4783498  27.6003141  70.6154481  81.8490581
  15.1933402  85.3568469  87.7834748  15.0587870  84.5968870  87.2172746
  14.7765464  86.0809369  87.3163537  26.3292365  80.5405392  76.7911324
  27.0328215  80.7455395  77.4068979  25.6055014  81.1082154  77.0560407
  27.1590175  76.2915254  82.9113594  27.1025377  76.7483805  82.0721226
  27.7118518  75.5305938  82.7336437  30.9694981  72.0804986  83.7363713
  30.7131916  71.6801621  84.5671921  30.3447849  72.7948780  83.6113852
  18.3502528  86.2537786  87.9953191  18.2334912  87.1983218  87.8931881
  17.5294974  85.9511347  88.3838990  28.2379063  80.9787922  78.8409784
  29.0724667  80.5469120  78.6587258  28.0763406  80.8069935  79.7686678
  27.8924955  77.4820035  80.2066123  27.8373759  77.3164306  79.2654567
  27.2671010  78.1896068  80.3628313  12.6817470  72.7188099  94.0327545
  13.3276333  72.2087053  94.5214770  12.4734621  73.4556781  94.6070970
  25.2070862  79.7868947  99.5319686  26.0762022  79.9609599  99.1706321
  24.7277613  80.6063364  99.4095415  21.2021080  66.9828144  79.7851441
  21.1899750  67.9269984  79.9419712  22.0944502  66.7998289  79.4910903
  19.3757042  86.9066048  91.2109119  20.2784289  86.9389658  91.5275614
  19.1494412  85.9766499  91.2255455  21.1310644  85.6597034  87.8719198
  20.1806275  85.6598896  87.7583570  21.4343130  84.9129769  87.3555233
  25.0173200  63.5770921  84.0397378  24.2505596  63.0229407  84.1854061
  25.4283905  63.6492789  84.9011530  17.0214961  69.8655716  98.1302559
  17.8846422  69.5092521  98.3405884  16.4480371  69.5269611  98.8177964
  36.8663338  91.4957573  88.9364960  37.5041748  91.3764320  88.2328301
  36.7484181  92.4438417  88.9952913  33.6753044  91.4485001  88.8726485
  33.3371555  91.3326066  87.9847020  34.5442812  91.0476166  88.8527491
  29.5339860  93.3020477  84.8623376  28.9704725  93.2110414  84.0939664
  29.4192255  92.4820382  85.3425869  34.1572827  92.6019853  94.8312691
  34.1461468  92.2072651  93.9593194  34.3193466  91.8685925  95.4246462
  27.0804292  94.7971669  87.7007597  27.8725584  94.4562494  87.2853896
  27.3200942  94.9066644  88.6209750  35.1139418  96.9691445  80.1737841
  34.4627398  97.5545525  79.7871855  35.9083781  97.4997640  80.2332878
  29.0395046  94.0580582  80.5724975  29.8125922  93.5109569  80.4337851
  29.3920444  94.9224831  80.7839437  30.8780088  95.3856964  93.7791875
  30.5869954  96.2902595  93.6638541  31.5137072  95.4273492  94.4935944
  31.8036295  92.7633813  90.3693234  32.3999867  92.5389835  89.6550197
  31.8611266  92.0218558  90.9718682  31.3761323  90.2173248  78.2043425
  31.6286844  89.6954770  77.4426888  30.4385882  90.0539394  78.3070109
  36.4204606  89.2209027  86.0118168  37.2067695  88.8028450  85.6608585
  36.6843311  90.1255119  86.1799817  36.5914684  94.6581877  80.7106825
  35.9560517  94.7316503  81.4227730  36.2612090  95.2475476  80.0325905
  41.8213033  89.1584260  86.9151147  42.5538205  88.5883477  87.1488976
  41.0652389  88.7705860  87.3557653  31.0957612  92.1201354  80.4067800
  30.9793870  91.4446258  81.0748885  31.2059872  91.6333728  79.5899953
  33.4389153  91.5811501  84.1114489  33.0747360  91.0542122  84.8227411
  34.2956269  91.1909970  83.9380975  39.3438454  82.8705834  91.3745756
  39.0121778  83.7401245  91.1506971  38.7484067  82.5542118  92.0539786
  33.0794640  86.6101401  79.1075838  33.2469042  87.4781637  79.4746309
  32.8891809  86.7728683  78.1837127  35.8369973  95.0718380  90.7741668
  35.5370696  95.9743419  90.6657476  35.4921033  94.8050563  91.6262821
  29.2882455  91.5232177  86.8078373  28.3632951  91.3908391  87.0156065
  29.5366868  92.3026396  87.3048315  39.2367117  87.5900920  88.4539106
  38.3283994  87.5216329  88.1597867  39.1854713  88.0672865  89.2820931
  33.0583861  89.0659059  80.0922505  32.9383486  89.5116109  80.9307985
  32.3636449  89.4144376  79.5336043  26.6491266  91.1665450  87.6422162
  26.7783647  91.4199929  88.5561574  25.9688717  91.7593158  87.3226817
  30.8190753 101.8362700  83.7412636  30.7414783 102.7870525  83.8201117
  30.2152397 101.4908573  84.3987562  33.3107983  89.0090566  96.3974003
  32.5341317  89.5684486  96.3876868  33.9498546  89.4947349  96.9188873
  41.1028763  85.7917359  90.2316980  40.4603144  86.0849892  89.5856774
  40.5983692  85.6770279  91.0370176  38.7568927  89.5380532  80.9202839
  39.6686783  89.7707918  80.7450536  38.2478574  90.1217576  80.3577917
  31.5654355  91.8176019  95.9591970  32.3069039  92.3561063  95.6826794
  30.8591341  92.4442308  96.1163522  37.0409695  93.9605160  94.5564131
  37.4493051  93.5187570  93.8118764  36.3186956  93.3857787  94.8098324
  33.3940765  88.8977766  91.9297688  34.2401960  89.3217180  92.0732337
  33.3339402  88.2411391  92.6236251  37.3638509  94.5206350  88.3116420
  36.7347372  94.6852064  87.6092488  36.9764171  94.9347960  89.0827384
  41.2427741  95.4560788  85.6660784  40.5578779  95.8359689  85.1157817
  41.3271591  96.0656115  86.3992732  36.5440210  86.5582135  93.5878862
  36.3001142  87.3124195  93.0513138  36.8200141  86.9367482  94.4226109
  38.4978673  93.1020747  92.2656128  38.7095568  93.7452507  91.5890509
  38.4508421  92.2683064  91.7978058  36.1004902  85.7138568  89.1692700
  35.2389381  86.0119821  89.4609437  36.1267336  85.9308967  88.2373732
  32.9166471  94.2580758  85.5766505  33.3804817  94.5368461  84.7871128
  32.6523269  93.3564203  85.3939596  29.8090552  93.8052240  88.5146269
  30.3791909  94.2339508  87.8763753  30.3998664  93.5234824  89.2130454
  31.8535357  90.3803911  82.3856071  32.5559401  90.8324954  82.8529997
  31.5215986  89.7387729  83.0135964  30.3015719  88.9715667  96.7607280
  29.6714379  89.6531948  96.9942677  30.1951807  88.8598749  95.8160418
  25.5960691  88.6387463  87.6873204  24.8059745  88.8944992  87.2113315
  26.0871939  89.4535801  87.7925245  39.6124501  95.9792702  90.4378485
  40.4341945  95.5772890  90.1561167  39.6086904  95.8760937  91.3894601
  27.5475437  89.0032043  84.6456681  26.7506600  89.1150737  85.1640176
  27.3201029  89.3418695  83.7797571  33.3781104  95.5276746  92.5939195
  33.4425537  95.9897153  93.4297367  32.6692028  94.8974111  92.7221505
  23.8798394  88.8917954  90.1188195  24.1306433  89.7764964  90.3845771
  24.4157943  88.7122555  89.3463287  47.7030494  92.3231451  86.7863456
  46.9494202  91.7538849  86.6307461  47.8378035  92.2894115  87.7334091
  33.0929122  97.1944853  82.4618176  32.9574797  98.0396389  82.8903024
  33.6338934  97.3964131  81.6984110  26.5458519  94.7120291  83.0346101
  27.0583040  95.5063542  83.1851666  27.1981232  94.0146582  82.9679702
  28.3553404  97.8286048  85.1168854  28.5320032  98.7504012  84.9289838
  29.1510238  97.5144467  85.5463234  27.6405761  89.8750679  94.9931017
  27.5259276  88.9735937  95.2938116  26.7850278  90.1214376  94.6415834
  34.7197598  97.8168420  96.5918518  34.2761452  97.0304798  96.2739422
  35.3814812  98.0047570  95.9262409  29.4784719  99.3464221  91.1179196
  30.0292145  99.2181285  90.3456190  28.6396195  99.6459110  90.7674089
  36.8178836  98.0971220  94.6199919  36.7997312  98.9180101  94.1280188
  37.7398756  97.9725295  94.8450060  33.2751891  95.6115349  95.4623427
  33.8080227  94.8503637  95.2322735  32.7465972  95.3189001  96.2047582
  24.5107436  93.0408946  83.8105671  25.3482658  93.4505954  83.5939379
  24.6885704  92.1008388  83.7805865  36.4071868  90.7084026  79.4989504
  35.8918492  91.4788631  79.7377892  36.1349177  90.0349162  80.1222566
  33.9918979  85.5533727  84.5574743  33.1360576  85.1640577  84.3780381
  34.4045931  85.6325688  83.6974528  31.7661012  83.1718800  87.9632484
  32.6314009  82.9761609  87.6038374  31.8338521  82.9429152  88.8901841
  41.3806142  93.4616381  81.4342678  40.6035585  93.1227540  80.9897840
  42.0597623  93.4669004  80.7597643  36.1958171  88.5811118  81.3249285
  35.8908307  88.8957267  82.1759429  37.1488613  88.6592538  81.3676618
  34.6404603  94.7401342  82.9742239  34.1125965  94.0054101  82.6615477
  34.1392106  95.5176018  82.7282208  39.6197449  92.9350362  88.0909286
  38.9621124  93.6249624  88.1789414  40.4237848  93.3246794  88.4343272
  29.3723331  85.4021008  85.3348851  29.9467083  85.1796189  84.6022044
  29.9594313  85.4709702  86.0877452  38.4302908  91.2894735  86.1413228
  38.9434790  91.9224727  86.6434937  39.0804132  90.6895930  85.7756588
  29.6992918  87.4325469  79.3544736  28.8630230  87.7700155  79.6754011
  29.5597688  87.2974449  78.4171873  31.6745999  82.2762257  84.0623920
  31.0210411  81.9611274  83.4380535  31.6326473  81.6537997  84.7883743
  32.7857203  92.5581552  75.9777212  31.8784265  92.3270805  76.1768361
  33.2828235  91.7619171  76.1651194  35.6925282 101.2679059  78.8973899
  35.0186981 101.5710756  79.5058856  36.0791104 102.0708139  78.5479356
  34.9083739  88.7644190  88.3871568  33.9906300  88.9859137  88.2293256
  35.3243883  88.8390501  87.5283275  35.6918787  90.1635606  83.5174248
  36.4390606  90.6757003  83.2081370  35.9610376  89.8419659  84.3778642
  33.9645437  92.6594147  80.5001203  33.0556656  92.3753180  80.5973672
  33.9940521  93.0793225  79.6404509  39.1964704  96.2700736  84.2692370
  38.7427031  95.4291646  84.3257561  38.5658671  96.9062135  84.6067150
  38.1397624  87.1992722  85.4993038  37.4020381  86.6870108  85.8303280
  38.3924397  86.7593104  84.6876314  37.6397643  98.1077233  85.2042188
  37.9320618  98.6682290  84.4854554  38.1496264  98.4005794  85.9595347
  38.2409251  79.9768974  86.0934807  38.5468128  79.1166338  85.8060722
  38.9661856  80.5686594  85.8933801  24.5333607  90.3799661  84.4816405
  24.3358007  89.7869022  83.7567471  23.9780271  90.0751871  85.1992344
  32.5130331  90.2722767  86.6010998  32.5678941  89.3196604  86.5253475
  31.7021533  90.4282206  87.0852296  33.6621525  94.2002890  77.8389281
  33.2240955  93.4838749  77.3794919  34.4031965  94.4279005  77.2774373
  30.4522691  88.8899827  84.3601377  29.6390556  89.1893998  84.7666569
  30.9481685  88.4955516  85.0775859  32.6031269  98.8857584  86.2935642
  32.5607447  99.1118430  85.3644174  33.5193968  98.6520959  86.4421443
  36.0496902  89.3541652  93.1916271  36.4046290  89.5813125  94.0510736
  36.6969034  89.6860028  92.5693526  41.7794639  92.4760087  83.8965600
  41.6412538  92.6661683  82.9686789  41.4230858  93.2379470  84.3533651
  29.9436766  86.4618183  89.9762612  30.5836145  86.3206942  89.2785575
  29.1114296  86.1752696  89.6001214  41.8064019  94.5436614  88.9076871
  42.2400526  94.4511904  89.7559925  42.5195600  94.5194115  88.2696887
  30.7197069  95.7620613  86.0897604  31.5137668  95.2670933  85.8880179
  30.0088762  95.2338476  85.7265310  35.5391914  98.1438709  90.4409972
  35.5928936  98.7129645  91.2087688  34.6706695  98.3140594  90.0764009
  27.0279833  89.9063695  82.1657357  26.0977421  89.8448150  82.3827319
  27.1237305  89.3839648  81.3693998  26.9465382  86.4318508  84.7535599
  27.2072199  87.3463841  84.6444759  27.7682554  85.9642950  84.9032211
  28.4190307  87.8456265  91.9234423  29.0913361  87.6373627  91.2747072
  27.5920094  87.6478351  91.4839655  42.6679569  94.5860315  91.4409757
  42.8615459  95.4906126  91.6869032  42.5680187  94.1267734  92.2748342
  34.3215879  84.4718206  93.9400084  33.6743794  85.1708155  93.8464560
  35.0916895  84.9054350  94.3076332  37.7294677  94.7367058  97.0150637
  37.5780184  94.5077610  96.0980721  37.7199357  95.6937659  97.0281982
  34.4980014  92.3098971  91.9996904  35.4272074  92.4610130  91.8265871
  34.0771044  92.3982991  91.1445550  33.2968345  96.3349635  89.7695441
  33.1579431  95.9668419  90.6421379  32.5082942  96.8497274  89.5979399
  33.8916497 101.4358731  81.1120978  34.0668253 100.9646775  81.9266601
  33.2049285 102.0624498  81.3402239  34.8473561  95.7131238  87.1584279
  34.5123393  95.6732008  88.0541929  34.3477506  95.0475954  86.6854689
  28.8217805  91.1198868  92.6836860  28.6837602  90.3879107  93.2848399
  29.7322728  91.0307768  92.4021048  37.7832752  93.0587272  77.4321339
  37.1661923  92.3334100  77.3354391  37.3149241  93.8196632  77.0888413
  31.4500105  90.8318827  92.1720540  32.1599724  90.1912019  92.1307158
  31.4069413  91.0831722  93.0946721  39.4386884  97.7686180  95.0927119
  39.3799430  97.0845401  94.4257702  39.8406402  98.5105170  94.6407745
  30.1629039  87.8184045  93.9916179  29.6266396  87.3674783  94.6437776
  29.5745748  87.9529954  93.2486644  28.4577583 104.5848094  87.8860838
  28.6974181 105.2166618  88.5639857  27.6146779 104.2336134  88.1726197
  29.5731298  87.2772696  76.5542643  28.6960764  87.1561497  76.1904890
  30.0489051  86.4858775  76.3021532  39.4404291  95.7325764  93.3241099
  38.5531070  95.3951686  93.4467498  40.0102842  95.0008796  93.5609864
  21.0933438  92.0649856  86.6484150  21.7804478  91.7511586  86.0605166
  20.9381567  92.9691221  86.3751402  25.8968160  86.9540053  91.0769174
  25.8126349  86.3465722  90.3419584  25.0750867  87.4449071  91.0778670
  32.9705445 100.3927217  90.2902342  32.8975616 101.1982188  90.8021647
  32.5282838 100.5919183  89.4650363  32.7595224  99.6298987  83.8005164
  31.9762746 100.1720667  83.8943388  33.4587969 100.1472966  84.1999405
  36.0691874  85.4393616  86.4439369  36.5660574  84.6863579  86.1240439
  35.2978856  85.4757933  85.8782578  43.9221632  91.1433982  88.0857660
  43.9111508  92.0258697  87.7151594  43.0539011  90.7905533  87.8912198
  35.4304128 100.2914051  92.4460501  36.1432100 100.9261516  92.3736402
  34.9394157 100.3877917  91.6300502  37.1521655  94.1965303  84.0177792
  36.2177934  94.3166766  83.8482497  37.3298323  93.2937770  83.7537802
  32.6526843  87.5810999  86.1711054  32.2824631  87.0282040  86.8591959
  33.1485936  86.9769133  85.6186054  40.5394206  90.0382623  84.5527826
  41.0054659  90.8710614  84.4788129  40.9901707  89.5727604  85.2573085
  30.4816042  98.0408494  93.2666071  31.1825501  98.6744977  93.4195466
  30.0111157  98.3823226  92.5061711  38.6070437  96.3826444  81.5513979
  38.8830281  96.2683039  82.4607853  37.7374936  95.9843929  81.5126152
  38.5110869  82.4063210  88.5918728  37.5973949  82.6367437  88.7600935
  38.9403971  82.4901654  89.4432760  38.2817328  90.5953102  91.0918622
  37.6288778  90.8429009  90.4371075  38.6597707  89.7817240  90.7581099
  35.2424501 100.6312795  85.1946792  35.4246896  99.8134451  85.6574544
  36.0657487 100.8480487  84.7571682  35.5766667  99.5580980  82.4561841
  36.1054433  99.0473435  81.8432003  35.8394887  99.2423510  83.3207374
  34.3304901  91.3372913  97.5784659  33.6545538  91.2367042  98.2487034
  35.1532534  91.1812126  98.0420656  26.0783760  97.5744849  90.1997174
  26.6637196  96.8288537  90.3325078  25.8808598  97.8848806  91.0833838
  28.9322415 100.6096097  85.2159617  28.2632790 101.0942224  84.7323657
  28.7935285 100.8565317  86.1302995  20.6701414  90.1450449  88.9201617
  20.7085514  89.6114040  89.7138735  20.1641707  89.6185655  88.3012594
  33.0727683 102.6439840  91.8142275  33.6245992 102.8071462  92.5791360
  33.4133877 103.2344278  91.1422300  28.0492177  84.9914990  92.4164160
  28.1133503  85.8529821  92.0041557  27.9859297  84.3788992  91.6836518
  27.5244449  87.0638123  96.0637194  28.1516488  86.6815200  96.6774718
  26.6672368  86.8452324  96.4292886  37.9238558  97.4701098  97.6690929
  38.4678462  98.0831056  97.1745884  37.3425403  98.0280676  98.1857942
  24.3009992  88.8714552  81.9955549  24.5963433  87.9625230  81.9422602
  23.3998028  88.8502291  81.6736551  36.2096071 100.5921816  88.8005957
  36.0847210  99.7911556  88.2916903  36.8675162 101.0868009  88.3119927
  27.8304239  86.9470548  87.9783097  27.1090825  87.5606516  87.8390571
  28.6197495  87.4828313  87.8999743  38.2730979  98.3930836  90.4285507
  37.3261315  98.2736187  90.3563834  38.6213752  97.5053334  90.5111769
  30.6330553  84.2824975  94.2523749  31.1564954  84.5287271  95.0150058
  30.4142886  85.1145010  93.8326886  26.0297834  86.5528649  82.1194874
  25.7010540  85.6726028  81.9369980  26.3837204  86.4976318  83.0071263
  35.2777412  98.1883552  86.6289859  35.1302375  97.2600259  86.8097429
  36.1030906  98.2103643  86.1446935  29.1439657  86.8401619  82.4870352
  29.4835729  87.3687540  81.7648960  29.5911777  87.1782025  83.2628918
  38.8811534  99.0112111  87.7154732  39.8058082  98.8054972  87.5779183
  38.7126838  98.7628512  88.6244074  31.8383098  85.2238670  91.9373420
  31.4979918  84.4246483  92.3394099  31.1322104  85.5240381  91.3650253
  31.1307804  85.3376241  80.6863644  31.8516166  85.7157493  80.1827361
  30.5073108  86.0565117  80.7898622  35.2738927  86.0421390  81.6221977
  35.4902541  86.9246028  81.3210805  34.7932994  85.6507603  80.8927619
  30.0138148  89.0007103  88.1992721  29.8682729  89.3147406  89.0917003
  29.5363352  89.6192003  87.6463620  31.8734531  85.9909651  88.2473611
  31.8596100  85.0950744  87.9105909  32.5906959  85.9980315  88.8811897
  33.7260662  86.4246991  90.2926738  33.4678440  87.3464062  90.2911069
  33.1945702  86.0277426  90.9827202  38.6706851  99.5297778  83.0716824
  38.8443728  98.9644201  82.3190676  39.1635742 100.3298673  82.8896314
  24.4883810  91.5412447  91.1380382  23.9437278  92.3172255  91.2700657
  25.3663160  91.8883252  90.9799504  31.2771427  84.8724031  83.5161181
  31.3987338  83.9440677  83.7152068  30.9873469  84.8862717  82.6039496
  34.1462617  82.5578942  86.6527901  34.1684314  82.6218275  85.6979880
  34.5630676  81.7183450  86.8468407  44.5246242  92.2934201  84.6907123
  44.9677388  91.5441526  84.2926247  43.6472752  92.2844337  84.3080855
  39.6582023  98.8464543  80.1713722  40.3532928  99.4671235  80.3901037
  40.0005173  97.9959894  80.4466100  25.2749832  90.6682344  94.0310539
  24.5331568  90.8164979  94.6175170  24.9542576  90.9290609  93.1677289
  41.5573446  96.2964248  81.7001053  42.0824770  96.6351521  80.9750373
  41.4695799  95.3611263  81.5164187  33.2193495 100.2098322  93.8290929
  33.5280621  99.9647469  94.7013629  34.0168977 100.4144960  93.3409800
  33.2414107 102.3636231  86.0596306  32.8019097 101.8712610  86.7529163
  33.9922224 101.8209199  85.8188381  25.7206446  98.5547772  86.0620934
  26.5464466  98.2551544  85.6819577  25.3700498  97.7855395  86.5110723
  30.6887979  97.9074240  88.1318608  30.0667988  97.2444945  87.8320835
  31.3592846  97.9335372  87.4492255  23.9215051  96.4734099  87.0209868
  23.0846959  96.0456273  86.8393869  23.8938696  96.6666542  87.9580659
  30.7612507  86.3856028  97.7251114  30.8100662  87.2618151  97.3428883
  31.3035021  85.8433422  97.1522757  41.2467352  96.9297152  97.0052251
  40.4562896  96.9121291  96.4656750  41.0100707  97.4685445  97.7601287
  41.3665227  93.7789618  94.3184979  41.4163232  93.6139626  95.2600502
  41.2579151  92.9116877  93.9282860  30.2501486  96.4578164  81.6077068
  30.3989606  97.1413628  80.9543741  31.0567929  96.4383254  82.1226524
  38.6568990  89.7620546  95.6344286  39.5578852  89.6227011  95.3428284
  38.7316964  89.9275001  96.5742463  32.9911795  87.1387401  94.4797472
  32.1215104  87.4320967  94.2080061  33.2271275  87.7227846  95.2004736
  42.8683424  96.1986560  94.5627001  42.5768232  96.5616540  95.3990462
  42.2555555  95.4853568  94.3840333  44.0679106  93.7639439  87.0829571
  44.9025998  94.2029243  87.2467131  44.2038235  93.2878093  86.2637817
  41.1170612  91.3219174  93.0307059  41.5924734  91.5146821  92.2225910
  40.1936178  91.3778360  92.7850442  28.0054119  92.4843341  82.6138137
  27.7600161  91.5805671  82.8118347  28.1750033  92.4860492  81.6717615
  27.2749766  88.2171699  80.1124298  26.5819011  88.2916054  79.4564334
  27.0301518  87.4532043  80.6345815  35.9463423  79.7767300  87.5163789
  36.2265177  79.1090489  88.1424216  36.7314030  79.9696396  87.0038453
  33.7496891  98.9526294  79.0788815  33.1770859  99.5716481  78.6259287
  34.3229685  99.5025656  79.6128737  39.8172281  88.1984934  91.2635364
  40.7689704  88.2983032  91.2847588  39.6475732  87.4063203  91.7733449
  37.8386661  85.2840518  91.4494765  37.2436593  85.5645530  90.7541254
  37.5536357  85.7734418  92.2211506  36.9694151  99.2363444  80.2097398
  37.9024824  99.1709006  80.4130273  36.8817364 100.0719711  79.7511930
  39.5982168  98.5529315  77.1701345  39.5195799  98.2189178  78.0637103
  40.4191835  99.0451083  77.1692818  42.2960359  91.4191054  90.3777664
  42.2636679  90.4807055  90.5637348  42.9060983  91.4975091  89.6443489
  34.1343690  90.2887107  76.4204868  35.0802795  90.1593315  76.4893286
  33.7557935  89.5501769  76.8974296  42.4454848  88.2102097  90.4235947
  41.9293896  87.4260554  90.2365876  43.3294796  87.8820814  90.5882467
  40.1065574  81.9543113  86.3831760  39.9090396  81.6458201  87.2675092
  40.7165280  82.6804752  86.5129690  48.1136909  92.4807061  89.5183701
  48.8440297  92.2192349  90.0791404  47.5043854  91.7435783  89.5585769
  46.1952206  90.6214923  90.1158152  45.4685370  90.4870888  89.5074644
  45.7799493  90.9291752  90.9214870  34.0182382  94.3404853  97.8805525
  34.9385392  94.5183452  98.0745571  33.9831966  93.3960898  97.7285224
  32.3186607  88.2137083  76.3559753  31.4118062  87.9170196  76.4322467
  32.5962588  87.9166901  75.4894039  23.2364547  89.5343447  86.8058800
  22.9167332  88.6808755  86.5133174  22.6897976  89.7492025  87.5616767
  27.0144455  92.2505888  90.5228306  27.2330465  93.1822996  90.5416340
  27.4270229  91.8913862  91.3083110  33.9348673  82.7573973  82.5103994
  33.1249401  82.4121058  82.8859241  34.6233090  82.4481517  83.0991606
  35.8639221  81.8352020  84.1328291  36.4170260  82.2547473  84.7918314
  36.1009307  80.9087768  84.1751247  31.8872320  87.8239094  99.9131055
  31.7869047  88.7733451  99.8443146  31.6693862  87.4957332  99.0407125
  31.0885392  85.0724019  76.4971732  31.9504556  85.3978917  76.7567550
  31.2735736  84.2855515  75.9844798  23.1052807  93.1546358  88.7751921
  22.4116279  92.7400311  88.2621876  23.8525798  93.1966895  88.1785340
  39.2418028  83.9452545  83.6406955  38.6616697  84.6037349  83.2585008
  38.9753961  83.1229890  83.2294373  37.6921595  83.3457603  85.8428276
  38.1921373  83.4574137  85.0342595  38.3357202  83.0418656  86.4829084
  31.7503590  91.2536232  98.7296117  31.2670672  92.0536593  98.9360006
  31.8364529  91.2644177  97.7763561  25.0189550  93.0864612  86.6517936
  24.9960238  93.1852299  85.6999819  25.3290186  93.9329763  86.9735102
  27.6776928  95.1440767  90.7664550  28.6320181  95.1124709  90.6994482
  27.4789451  94.6831391  91.5814776  28.2676310  93.7141883  93.3335348
  29.0869199  94.2085962  93.3570185  28.5413118  92.7973851  93.3052916
  38.0242906  86.1052635  82.6963304  37.1368761  86.3902286  82.4783498
  38.4396895  85.9446399  81.8490581  41.3757442  86.1299156  86.4117643
  42.1517832  86.6195609  86.6842260  40.6505577  86.5557211  86.8689512
  43.8130001  86.8426776  87.4691584  44.4074492  86.6022512  86.7584892
  43.8856585  86.1233906  88.0965120  26.0327157 100.6860387  87.7834748
  25.8981625  99.9260787  87.2172746  25.6159219 101.4101286  87.3163537
  37.1686120  95.8697310  76.7911324  37.8721970  96.0747313  77.4068979
  36.4448768  96.4374072  77.0560407  37.9983930  91.6207171  82.9113594
  37.9419131  92.0775723  82.0721226  38.5512272  90.8597856  82.7336437
  41.8088736  87.4096903  83.7363713  41.5525670  87.0093539  84.5671921
  41.1841604  88.1240697  83.6113852  46.1201074  90.1492977  86.2435005
  45.5600632  90.2186166  87.0166567  45.5144577  89.9733961  85.5234501
  29.1896283 101.5829704  87.9953191  29.0728667 102.5275136  87.8931881
  28.3688729 101.2803265  88.3838990  39.0772817  96.3079839  78.8409784
  39.9118421  95.8761038  78.6587258  38.9157160  96.1361853  79.7686678
  38.7318709  92.8111953  80.2066123  38.6767513  92.6456224  79.2654567
  38.1064765  93.5187986  80.3628313  23.5211224  88.0480017  94.0327545
  24.1670088  87.5378971  94.5214770  23.3128375  88.7848699  94.6070970
  36.0464616  95.1160864  99.5319686  36.9155776  95.2901517  99.1706321
  35.5671368  95.9355281  99.4095415  32.0414835  82.3120062  79.7851441
  32.0293505  83.2561902  79.9419712  32.9338257  82.1290207  79.4910903
  30.2150797 102.2357966  91.2109119  31.1178043 102.2681576  91.5275614
  29.9888167 101.3058416  91.2255455  31.9704399 100.9888952  87.8719198
  31.0200030 100.9890814  87.7583570  32.2736885 100.2421687  87.3555233
  27.8608715  85.1947634  98.1302559  28.7240177  84.8384439  98.3405884
  27.2874126  84.8561529  98.8177964  47.7057092 106.8249490  88.9364960
  48.3435502 106.7056238  88.2328301  47.5877935 107.7730334  88.9952913
  44.5146798 106.7776919  88.8726485  44.1765310 106.6617983  87.9847020
  45.3836567 106.3768084  88.8527491  40.3733614 108.6312395  84.8623376
  39.8098479 108.5402332  84.0939664  40.2586009 107.8112299  85.3425869
  44.9966581 107.9311770  94.8312691  44.9855222 107.5364569  93.9593194
  45.1587221 107.1977843  95.4246462  37.9198046 110.1263587  87.7007597
  38.7119338 109.7854411  87.2853896  38.1594696 110.2358562  88.6209750
  45.9533173 112.2983363  80.1737841  45.3021153 112.8837443  79.7871855
  46.7477536 112.8289558  80.2332878  39.8788800 109.3872500  80.5724975
  40.6519676 108.8401487  80.4337851  40.2314199 110.2516749  80.7839437
  41.7173843 110.7148882  93.7791875  41.4263709 111.6194513  93.6638541
  42.3530827 110.7565410  94.4935944  42.6430049 108.0925731  90.3693234
  43.2393622 107.8681753  89.6550197  42.7005021 107.3510476  90.9718682
  42.2155078 105.5465166  78.2043425  42.4680599 105.0246687  77.4426888
  41.2779637 105.3831311  78.3070109  47.2598361 104.5500944  86.0118168
  48.0461450 104.1320367  85.6608585  47.5237065 105.4547036  86.1799817
  47.4308438 109.9873795  80.7106825  46.7954271 110.0608421  81.4227730
  47.1005844 110.5767393  80.0325905  52.6606788 104.4876177  86.9151147
  53.3931960 103.9175394  87.1488976  51.9046143 104.0997778  87.3557653
  41.9351367 107.4493272  80.4067800  41.8187625 106.7738175  81.0748885
  42.0453626 106.9625646  79.5899953  44.2782908 106.9103419  84.1114489
  43.9141115 106.3834040  84.8227411  45.1350023 106.5201888  83.9380975
  50.1832208  98.1997752  91.3745756  49.8515533  99.0693163  91.1506971
  49.5877822  97.8834036  92.0539786  43.9188394 101.9393319  79.1075838
  44.0862797 102.8073555  79.4746309  43.7285564 102.1020600  78.1837127
  46.6763728 110.4010298  90.7741668  46.3764451 111.3035336  90.6657476
  46.3314787 110.1342481  91.6262821  40.1276209 106.8524094  86.8078373
  39.2026706 106.7200309  87.0156065  40.3760622 107.6318314  87.3048315
  50.0760871 102.9192838  88.4539106  49.1677749 102.8508246  88.1597867
  50.0248467 103.3964783  89.2820931  43.8977615 104.3950976  80.0922505
  43.7777241 104.8408027  80.9307985  43.2030204 104.7436294  79.5336043
  37.4885020 106.4957368  87.6422162  37.6177401 106.7491847  88.5561574
  36.8082472 107.0885076  87.3226817  41.6584507 117.1654618  83.7412636
  41.5808537 118.1162443  83.8201117  41.0546151 116.8200490  84.3987562
  44.1501737 104.3382483  96.3974003  43.3735071 104.8976404  96.3876868
  44.7892300 104.8239266  96.9188873  51.9422518 101.1209276  90.2316980
  51.2996898 101.4141809  89.5856774  51.4377446 101.0062197  91.0370176
  49.5962682 104.8672449  80.9202839  50.5080538 105.0999836  80.7450536
  49.0872329 105.4509494  80.3577917  42.4048110 107.1467937  95.9591970
  43.1462794 107.6852981  95.6826794  41.6985095 107.7734225  96.1163522
  47.8803449 109.2897077  94.5564131  48.2886805 108.8479488  93.8118764
  47.1580711 108.7149705  94.8098324  44.2334519 104.2269684  91.9297688
  45.0795714 104.6509098  92.0732337  44.1733157 103.5703308  92.6236251
  48.2032264 109.8498268  88.3116420  47.5741126 110.0143982  87.6092488
  47.8157926 110.2639877  89.0827384  52.0821496 110.7852706  85.6660784
  51.3972534 111.1651607  85.1157817  52.1665345 111.3948032  86.3992732
  47.3833965 101.8874052  93.5878862  47.1394896 102.6416113  93.0513138
  47.6593895 102.2659400  94.4226109  49.3372427 108.4312665  92.2656128
  49.5489323 109.0744425  91.5890509  49.2902176 107.5974981  91.7978058
  46.9398656 101.0430485  89.1692700  46.0783135 101.3411739  89.4609437
  46.9661091 101.2600884  88.2373732  43.7560226 109.5872676  85.5766505
  44.2198571 109.8660379  84.7871128  43.4917024 108.6856120  85.3939596
  40.6484307 109.1344157  88.5146269  41.2185664 109.5631426  87.8763753
  41.2392419 108.8526742  89.2130454  42.6929112 105.7095828  82.3856071
  43.3953155 106.1616872  82.8529997  42.3609740 105.0679647  83.0135964
  41.1409473 104.3007585  96.7607280  40.5108134 104.9823866  96.9942677
  41.0345561 104.1890667  95.8160418  36.4354446 103.9679381  87.6873204
  35.6453500 104.2236909  87.2113315  36.9265693 104.7827719  87.7925245
  50.4518255 111.3084620  90.4378485  51.2735699 110.9064807  90.1561167
  50.4480658 111.2052854  91.3894601  38.3869191 104.3323960  84.6456681
  37.5900354 104.4442654  85.1640176  38.1594783 104.6710612  83.7797571
  44.2174859 110.8568663  92.5939195  44.2819291 111.3189071  93.4297367
  43.5085783 110.2266028  92.7221505  34.7192149 104.2209871  90.1188195
  34.9700187 105.1056881  90.3845771  35.2551697 104.0414473  89.3463287
  58.5424248 107.6523369  86.7863456  57.7887957 107.0830767  86.6307461
  58.6771790 107.6186033  87.7334091  43.9322876 112.5236771  82.4618176
  43.7968551 113.3688307  82.8903024  44.4732689 112.7256049  81.6984110
  40.4190216  98.6028351  99.1232531  40.0257162  98.0494549  99.7980175
  41.2356356  98.9138929  99.5139048  37.3852274 110.0412209  83.0346101
  37.8976794 110.8355459  83.1851666  38.0374987 109.3438499  82.9679702
  39.1947158 113.1577965  85.1168854  39.3713787 114.0795930  84.9289838
  39.9903992 112.8436384  85.5463234  43.3358177 100.0186230  96.7152788
  44.0767890 100.6193383  96.6357250  43.5676100  99.2763868  96.1570830
  38.4799515 105.2042597  94.9931017  38.3653030 104.3027854  95.2938116
  37.6244033 105.4506294  94.6415834  45.5591353 113.1460337  96.5918518
  45.1155207 112.3596716  96.2739422  46.2208566 113.3339488  95.9262409
  40.3178474 114.6756139  91.1179196  40.8685899 114.5473202  90.3456190
  39.4789950 114.9751028  90.7674089  47.6572591 113.4263137  94.6199919
  47.6391066 114.2472018  94.1280188  48.5792511 113.3017213  94.8450060
  44.1145645 110.9407267  95.4623427  44.6473982 110.1795555  95.2322735
  43.5859726 110.6480919  96.2047582  47.2815340  96.0467333  90.9917069
  46.9379609  96.9368974  90.9156180  47.6494303  95.8568990  90.1286654
  35.3501191 108.3700863  83.8105671  36.1876413 108.7797872  83.5939379
  35.5279458 107.4300305  83.7805865  47.2465623 106.0375944  79.4989504
  46.7312246 106.8080549  79.7377892  46.9742931 105.3641080  80.1222566
  44.8312734 100.8825645  84.5574743  43.9754330 100.4932495  84.3780381
  45.2439685 100.9617605  83.6974528  46.3611880  98.4171988  88.9566302
  45.8576676  98.3802123  88.1434108  46.6542487  99.3264731  89.0162959
  42.6054766  98.5010718  87.9632484  43.4707763  98.3053526  87.6038374
  42.6732275  98.2721069  88.8901841  52.2199897 108.7908299  81.4342678
  51.4429340 108.4519458  80.9897840  52.8991378 108.7960922  80.7597643
  47.0351926 103.9103036  81.3249285  46.7302061 104.2249185  82.1759429
  47.9882368 103.9884456  81.3676618  45.4798358 110.0693259  82.9742239
  44.9519719 109.3346019  82.6615477  44.9785860 110.8467936  82.7282208
  50.4591204 108.2642280  88.0909286  49.8014878 108.9541541  88.1789414
  51.2631603 108.6538712  88.4343272  40.2117085 100.7312926  85.3348851
  40.7860837 100.5088107  84.6022044  40.7988068 100.8001620  86.0877452
  49.2696663 106.6186652  86.1413228  49.7828544 107.2516644  86.6434937
  49.9197886 106.0187848  85.7756588  40.5386672 102.7617387  79.3544736
  39.7023985 103.0992073  79.6754011  40.3991442 102.6266366  78.4171873
  42.5139753  97.6054174  84.0623920  41.8604165  97.2903192  83.4380535
  42.4720227  96.9829915  84.7883743  43.6250958 107.8873470  75.9777212
  42.7178020 107.6562723  76.1768361  44.1221990 107.0911089  76.1651194
  46.5319037 116.5970977  78.8973899  45.8580736 116.9002674  79.5058856
  46.9184859 117.4000057  78.5479356  45.7477493 104.0936108  88.3871568
  44.8300055 104.3151055  88.2293256  46.1637637 104.1682419  87.5283275
  46.5312541 105.4927524  83.5174248  47.2784360 106.0048921  83.2081370
  46.8004131 105.1711576  84.3778642  44.8039191 107.9886064  80.5001203
  43.8950411 107.7045097  80.5973672  44.8334275 108.4085143  79.6404509
  50.0358459 111.5992654  84.2692370  49.5820786 110.7583564  84.3257561
  49.4052425 112.2354052  84.6067150  48.9791378 102.5284640  85.4993038
  48.2414135 102.0162026  85.8303280  49.2318152 102.0885022  84.6876314
  48.4791398 113.4369151  85.2042188  48.7714372 113.9974208  84.4854554
  48.9890019 113.7297712  85.9595347  49.0803006  95.3060892  86.0934807
  49.3861882  94.4458255  85.8060722  49.8055610  95.8978512  85.8933801
  35.3727362 105.7091579  84.4816405  35.1751762 105.1160939  83.7567471
  34.8174026 105.4043789  85.1992344  43.3524085 105.6014685  86.6010998
  43.4072695 104.6488521  86.5253475  42.5415287 105.7574124  87.0852296
  44.5015279 109.5294808  77.8389281  44.0634709 108.8130667  77.3794919
  45.2425720 109.7570923  77.2774373  41.2916445 104.2191745  84.3601377
  40.4784311 104.5185915  84.7666569  41.7875439 103.8247434  85.0775859
  43.4425023 114.2149502  86.2935642  43.4001202 114.4410348  85.3644174
  44.3587722 113.9812876  86.4421443  46.8890657 104.6833569  93.1916271
  47.2440045 104.9105042  94.0510736  47.5362788 105.0151946  92.5693526
  52.6188394 107.8052005  83.8965600  52.4806292 107.9953601  82.9686789
  52.2624613 108.5671388  84.3533651  40.7830520 101.7910100  89.9762612
  41.4229899 101.6498859  89.2785575  39.9508051 101.5044614  89.6001214
  52.6457774 109.8728532  88.9076871  53.0794280 109.7803821  89.7559925
  53.3589354 109.8486033  88.2696887  41.5590824 111.0912531  86.0897604
  42.3531422 110.5962851  85.8880179  40.8482516 110.5630394  85.7265310
  46.3785668 113.4730626  90.4409972  46.4322691 114.0421563  91.2087688
  45.5100450 113.6432511  90.0764009  37.8673587 105.2355612  82.1657357
  36.9371176 105.1740068  82.3827319  37.9631059 104.7131565  81.3693998
  37.7859136 101.7610425  84.7535599  38.0465954 102.6755759  84.6444759
  38.6076309 101.2934868  84.9032211  39.2584062 103.1748182  91.9234423
  39.9307115 102.9665545  91.2747072  38.4313848 102.9770268  91.4839655
  53.5073323 109.9152233  91.4409757  53.7009213 110.8198043  91.6869032
  53.4073941 109.4559652  92.2748342  45.1609634  99.8010123  93.9400084
  44.5137549 100.5000073  93.8464560  45.9310649 100.2346267  94.3076332
  48.5688432 110.0658976  97.0150637  48.4173938 109.8369527  96.0980721
  48.5593111 111.0229577  97.0281982  45.3373768 107.6390888  91.9996904
  46.2665828 107.7902048  91.8265871  44.9164798 107.7274909  91.1445550
  44.1362100 111.6641553  89.7695441  43.9973186 111.2960337  90.6421379
  43.3476696 112.1789192  89.5979399  44.7310252 116.7650649  81.1120978
  44.9062008 116.2938692  81.9266601  44.0443040 117.3916415  81.3402239
  45.6867315 111.0423155  87.1584279  45.3517148 111.0023925  88.0541929
  45.1871261 110.3767871  86.6854689  39.6611559 106.4490785  92.6836860
  39.5231357 105.7171024  93.2848399  40.5716483 106.3599686  92.4021048
  48.6226507 108.3879190  77.4321339  48.0055677 107.6626018  77.3354391
  48.1542995 109.1488550  77.0888413  42.2893860 106.1610745  92.1720540
  42.9993478 105.5203937  92.1307158  42.2463168 106.4123640  93.0946721
  50.2780638 113.0978098  95.0927119  50.2193185 112.4137318  94.4257702
  50.6800157 113.8397088  94.6407745  41.0022794 103.1475963  93.9916179
  40.4660151 102.6966701  94.6437776  40.4139502 103.2821871  93.2486644
  40.4125053 102.6064614  76.5542643  39.5354519 102.4853415  76.1904890
  40.8882806 101.8150692  76.3021532  50.2798046 111.0617682  93.3241099
  49.3924824 110.7243604  93.4467498  50.8496597 110.3300713  93.5609864
  31.9327193 107.3941774  86.6484150  32.6198233 107.0803504  86.0605166
  31.7775321 108.2983138  86.3751402  36.7361915 102.2831970  91.0769174
  36.6520104 101.6757640  90.3419584  35.9144621 102.7740989  91.0778670
  43.8099199 115.7219134  90.2902342  43.7369371 116.5274106  90.8021647
  43.3676592 115.9211100  89.4650363  43.5988979 114.9590904  83.8005164
  42.8156501 115.5012585  83.8943388  44.2981724 115.4764884  84.1999405
  46.9085629 100.7685534  86.4439369  47.4054328 100.0155496  86.1240439
  46.1372610 100.8049851  85.8782578  54.7615386 106.4725899  88.0857660
  54.7505262 107.3550615  87.7151594  53.8932766 106.1197450  87.8912198
  46.2697883 115.6205968  92.4460501  46.9825855 116.2553433  92.3736402
  45.7787911 115.7169834  91.6300502  47.9915409 109.5257221  84.0177792
  47.0571688 109.6458684  83.8482497  48.1692078 108.6229688  83.7537802
  43.4920598 102.9102917  86.1711054  43.1218385 102.3573957  86.8591959
  43.9879690 102.3061050  85.6186054  51.3787961 105.3674540  84.5527826
  51.8448413 106.2002532  84.4788129  51.8295461 104.9019522  85.2573085
  41.3209796 113.3700412  93.2666071  42.0219256 114.0036895  93.4195466
  40.8504911 113.7115143  92.5061711  49.4464192 111.7118362  81.5513979
  49.7224036 111.5974956  82.4607853  48.5768691 111.3135847  81.5126152
  49.3504624  97.7355127  88.5918728  48.4367703  97.9659354  88.7600935
  49.7797725  97.8193571  89.4432760  49.1211082 105.9245019  91.0918622
  48.4682532 106.1720927  90.4371075  49.4991462 105.1109158  90.7581099
  46.0818256 115.9604713  85.1946792  46.2640650 115.1426368  85.6574544
  46.9051242 116.1772405  84.7571682  46.4160421 114.8872898  82.4561841
  46.9448188 114.3765352  81.8432003  46.6788641 114.5715428  83.3207374
  45.1698655 106.6664830  97.5784659  44.4939292 106.5658960  98.2487034
  45.9926289 106.5104044  98.0420656  36.9177514 112.9036767  90.1997174
  37.5030951 112.1580455  90.3325078  36.7202353 113.2140724  91.0833838
  39.7716169 115.9388014  85.2159617  39.1026545 116.4234142  84.7323657
  39.6329039 116.1857235  86.1302995  31.5095169 105.4742367  88.9201617
  31.5479268 104.9405958  89.7138735  31.0035462 104.9477573  88.3012594
  43.9121438 117.9731758  91.8142275  44.4639746 118.1363379  92.5791360
  44.2527631 118.5636196  91.1422300  38.8885931 100.3206908  92.4164160
  38.9527258 101.1821739  92.0041557  38.8253051  99.7080909  91.6836518
  38.3638204 102.3930040  96.0637194  38.9910243 102.0107118  96.6774718
  37.5066123 102.1744242  96.4292886  48.7632312 112.7993015  97.6690929
  49.3072216 113.4122974  97.1745884  48.1819157 113.3572594  98.1857942
  35.1403746 104.2006469  81.9955549  35.4357188 103.2917148  81.9422602
  34.2391782 104.1794209  81.6736551  47.0489825 115.9213733  88.8005957
  46.9240965 115.1203473  88.2916903  47.7068916 116.4159927  88.3119927
  38.6697993 102.2762466  87.9783097  37.9484579 102.8898434  87.8390571
  39.4591249 102.8120231  87.8999743  49.1124734 113.7222753  90.4285507
  48.1655069 113.6028105  90.3563834  49.4607507 112.8345251  90.5111769
  41.4724307  99.6116892  94.2523749  41.9958709  99.8579189  95.0150058
  41.2536640 100.4436927  93.8326886  36.8691588 101.8820567  82.1194874
  36.5404294 101.0017946  81.9369980  37.2230959 101.8268236  83.0071263
  46.1171167 113.5175470  86.6289859  45.9696129 112.5892177  86.8097429
  46.9424660 113.5395560  86.1446935  39.9833411 102.1693537  82.4870352
  40.3229484 102.6979458  81.7648960  40.4305532 102.5073943  83.2628918
  49.7205289 114.3404028  87.7154732  50.6451836 114.1346890  87.5779183
  49.5520592 114.0920430  88.6244074  42.6776852 100.5530587  91.9373420
  42.3373672  99.7538401  92.3394099  41.9715858 100.8532298  91.3650253
  43.3293324  97.6379900  90.3900743  44.1519393  97.1640378  90.2679633
  43.5731387  98.4170384  90.8899429  41.9701558 100.6668158  80.6863644
  42.6909921 101.0449411  80.1827361  41.3466862 101.3857035  80.7898622
  46.1132681 101.3713307  81.6221977  46.3296296 102.2537945  81.3210805
  45.6326748 100.9799521  80.8927619  40.8531903 104.3299021  88.1992721
  40.7076483 104.6439324  89.0917003  40.3757106 104.9483921  87.6463620
  42.7128286 101.3201569  88.2473611  42.6989854 100.4242662  87.9105909
  43.4300714 101.3272232  88.8811897  44.5654416 101.7538909  90.2926738
  44.3072194 102.6755979  90.2911069  44.0339457 101.3569343  90.9827202
  49.5100605 114.8589696  83.0716824  49.6837483 114.2936118  82.3190676
  50.0029496 115.6590591  82.8896314  35.3277565 106.8704365  91.1380382
  34.7831033 107.6464173  91.2700657  36.2056915 107.2175169  90.9799504
  42.1165181 100.2015949  83.5161181  42.2381093  99.2732595  83.7152068
  41.8267224 100.2154635  82.6039496  44.9856372  97.8870859  86.6527901
  45.0078069  97.9510192  85.6979880  45.4024431  97.0475368  86.8468407
  55.3639996 107.6226119  84.6907123  55.8071142 106.8733444  84.2926247
  54.4866506 107.6136255  84.3080855  50.4975777 114.1756460  80.1713722
  51.1926682 114.7963153  80.3901037  50.8398928 113.3251811  80.4466100
  36.1143587 105.9974261  94.0310539  35.3725323 106.1456897  94.6175170
  35.7936331 106.2582527  93.1677289  52.3967201 111.6256166  81.7001053
  52.9218525 111.9643439  80.9750373  52.3089553 110.6903181  81.5164187
  44.0587249 115.5390239  93.8290929  44.3674376 115.2939386  94.7013629
  44.8562731 115.7436878  93.3409800  44.0807861 117.6928149  86.0596306
  43.6412852 117.2004528  86.7529163  44.8315978 117.1501117  85.8188381
  36.5600200 113.8839690  86.0620934  37.3858220 113.5843462  85.6819577
  36.2094252 113.1147312  86.5110723  41.5281734 113.2366158  88.1318608
  40.9061743 112.5736863  87.8320835  42.1986600 113.2627290  87.4492255
  34.7608805 111.8026016  87.0209868  33.9240714 111.3748191  86.8393869
  34.7332451 111.9958460  87.9580659  41.6006261 101.7147946  97.7251114
  41.6494416 102.5910069  97.3428883  42.1428775 101.1725339  97.1522757
  52.0861107 112.2589069  97.0052251  51.2956650 112.2413208  96.4656750
  51.8494461 112.7977363  97.7601287  52.2058982 109.1081536  94.3184979
  52.2556987 108.9431543  95.2600502  52.0972905 108.2408795  93.9282860
  41.0895240 111.7870081  81.6077068  41.2383361 112.4705546  80.9543741
  41.8961684 111.7675172  82.1226524  49.4962744 105.0912464  95.6344286
  50.3972607 104.9518929  95.3428284  49.5710719 105.2566919  96.5742463
  43.8305549 102.4679319  94.4797472  42.9608859 102.7612885  94.2080061
  44.0665030 103.0519764  95.2004736  53.7077179 111.5278477  94.5627001
  53.4161987 111.8908458  95.3990462  53.0949310 110.8145486  94.3840333
  54.9072861 109.0931357  87.0829571  55.7419752 109.5321161  87.2467131
  55.0431990 108.6170010  86.2637817  51.9564367 106.6511092  93.0307059
  52.4318488 106.8438738  92.2225910  51.0329932 106.7070278  92.7850442
  38.8447873 107.8135259  82.6138137  38.5993915 106.9097589  82.8118347
  39.0143788 107.8152410  81.6717615  46.5344583  98.6858936  91.9962893
  47.0526527  99.4219962  91.6709381  46.1799716  98.9922929  92.8309652
  38.1143521 103.5463617  80.1124298  37.4212766 103.6207972  79.4564334
  37.8695273 102.7823960  80.6345815  46.7857177  95.1059218  87.5163789
  47.0658931  94.4382407  88.1424216  47.5707784  95.2988314  87.0038453
  44.5890646 114.2818212  79.0788815  44.0164613 114.9008399  78.6259287
  45.1623440 114.8317574  79.6128737  50.6566036 103.5276852  91.2635364
  51.6083459 103.6274950  91.2847588  50.4869486 102.7355121  91.7733449
  48.6780415 100.6132435  91.4494765  48.0830347 100.8937448  90.7541254
  48.3930112 101.1026336  92.2211506  47.8087906 114.5655362  80.2097398
  48.7418579 114.5000924  80.4130273  47.7211119 115.4011629  79.7511930
  50.4375922 113.8821232  77.1701345  50.3589554 113.5481096  78.0637103
  51.2585589 114.3743000  77.1692818  53.1354114 106.7482972  90.3777664
  53.1030434 105.8098972  90.5637348  53.7454737 106.8267008  89.6443489
  44.9737444 105.6179025  76.4204868  45.9196549 105.4885233  76.4893286
  44.5951689 104.8793687  76.8974296  53.2848602 103.5394015  90.4235947
  52.7687651 102.7552472  90.2365876  54.1688551 103.2112732  90.5882467
  50.9459329  97.2835031  86.3831760  50.7484150  96.9750119  87.2675092
  51.5559035  98.0096670  86.5129690  58.9530663 107.8098979  89.5183701
  59.6834052 107.5484267  90.0791404  58.3437609 107.0727701  89.5585769
  57.0345961 105.9506841  90.1158152  56.3079124 105.8162806  89.5074644
  56.6193247 106.2583670  90.9214870  44.8576137 109.6696771  97.8805525
  45.7779146 109.8475370  98.0745571  44.8225720 108.7252816  97.7285224
  43.1580362 103.5429001  76.3559753  42.2511817 103.2462114  76.4322467
  43.4356343 103.2458819  75.4894039  34.0758302 104.8635364  86.8058800
  33.7561086 104.0100673  86.5133174  33.5291730 105.0783943  87.5616767
  37.8538210 107.5797805  90.5228306  38.0724219 108.5114913  90.5416340
  38.2663983 107.2205780  91.3083110  44.7742427  98.0865891  82.5103994
  43.9643156  97.7412976  82.8859241  45.4626844  97.7773435  83.0991606
  46.7032976  97.1643938  84.1328291  47.2564014  97.5839391  84.7918314
  46.9403062  96.2379686  84.1751247  42.7266075 103.1531011  99.9131055
  42.6262802 104.1025368  99.8443146  42.5087617 102.8249250  99.0407125
  41.9279146 100.4015936  76.4971732  42.7898310 100.7270835  76.7567550
  42.1129490  99.6147432  75.9844798  33.9446562 108.4838276  88.7751921
  33.2510033 108.0692229  88.2621876  34.6919553 108.5258812  88.1785340
  50.0811783  99.2744463  83.6406955  49.5010452  99.9329267  83.2585008
  49.8147715  98.4521807  83.2294373  48.5315349  98.6749520  85.8428276
  49.0315127  98.7866055  85.0342595  49.1750957  98.3710573  86.4829084
  42.5897345 106.5828150  98.7296117  42.1064427 107.3828510  98.9360006
  42.6758284 106.5936095  97.7763561  35.8583304 108.4156530  86.6517936
  35.8353993 108.5144217  85.6999819  36.1683941 109.2621681  86.9735102
  38.5170682 110.4732685  90.7664550  39.4713936 110.4416627  90.6994482
  38.3183206 110.0123309  91.5814776  39.1070064 109.0433801  93.3335348
  39.9262953 109.5377880  93.3570185  39.3806872 108.1265769  93.3052916
  48.8636661 101.4344553  82.6963304  47.9762516 101.7194204  82.4783498
  49.2790650 101.2738317  81.8490581  52.2151197 101.4591074  86.4117643
  52.9911587 101.9487527  86.6842260  51.4899331 101.8849128  86.8689512
  54.6523755 102.1718693  87.4691584  55.2468246 101.9314429  86.7584892
  54.7250339 101.4525824  88.0965120  48.0079874 111.1989228  76.7911324
  48.7115724 111.4039230  77.4068979  47.2842523 111.7665990  77.0560407
  48.8377684 106.9499089  82.9113594  48.7812886 107.4067641  82.0721226
  49.3906027 106.1889774  82.7336437  52.6482490 102.7388821  83.7363713
  52.3919425 102.3385457  84.5671921  52.0235358 103.4532615  83.6113852
  56.9594828 105.4784894  86.2435005  56.3994386 105.5478084  87.0166567
  56.3538332 105.3025879  85.5234501  49.9166572 111.6371757  78.8409784
  50.7512176 111.2052955  78.6587258  49.7550914 111.4653771  79.7686678
  49.5712464 108.1403870  80.2066123  49.5161268 107.9748142  79.2654567
  48.9458519 108.8479903  80.3628313  34.3604979 103.3771935  94.0327545
  35.0063842 102.8670889  94.5214770  34.1522130 104.1140616  94.6070970
  46.8858371 110.4452782  99.5319686  47.7549531 110.6193434  99.1706321
  46.4065122 111.2647199  99.4095415  42.8808589  97.6411979  79.7851441
  42.8687259  98.5853819  79.9419712  43.7732011  97.4582125  79.4910903
  41.0544551 117.5649883  91.2109119  41.9571798 117.5973493  91.5275614
  40.8281921 116.6350334  91.2255455  42.8098153 116.3180870  87.8719198
  41.8593784 116.3182731  87.7583570  43.1130639 115.5713604  87.3555233
  46.6960709  94.2354756  84.0397378  45.9293104  93.6813243  84.1854061
  47.1071414  94.3076625  84.9011530  38.7002470 100.5239552  98.1302559
  39.5633931 100.1676357  98.3405884  38.1267880 100.1853447  98.8177964
  58.5450847 122.1541408  88.9364960  59.1829257 122.0348155  88.2328301
  58.4271690 123.1022252  88.9952913  55.3540553 122.1068836  88.8726485
  55.0159064 121.9909901  87.9847020  56.2230321 121.7060001  88.8527491
  55.8360336 123.2603688  94.8312691  55.8248977 122.8656486  93.9593194
  55.9980975 122.5269761  95.4246462  53.0548832 120.8757084  78.2043425
  53.3074353 120.3538605  77.4426888  52.1173391 120.7123229  78.3070109
  58.0992115 119.8792862  86.0118168  58.8855204 119.4612285  85.6608585
  58.3630819 120.7838954  86.1799817  63.5000542 119.8168095  86.9151147
  64.2325714 119.2467312  87.1488976  62.7439898 119.4289696  87.3557653
  55.1176662 122.2395337  84.1114489  54.7534869 121.7125958  84.8227411
  55.9743778 121.8493806  83.9380975  61.0225963 113.5289669  91.3745756
  60.6909287 114.3985080  91.1506971  60.4271576 113.2125953  92.0539786
  54.7582149 117.2685236  79.1075838  54.9256551 118.1365473  79.4746309
  54.5679318 117.4312518  78.1837127  60.9154626 118.2484755  88.4539106
  60.0071503 118.1800164  88.1597867  60.8642222 118.7256700  89.2820931
  54.7371370 119.7242894  80.0922505  54.6170995 120.1699945  80.9307985
  54.0423958 120.0728212  79.5336043  54.9895492 119.6674401  96.3974003
  54.2128826 120.2268321  96.3876868  55.6286055 120.1531184  96.9188873
  62.7816272 116.4501194  90.2316980  62.1390653 116.7433727  89.5856774
  62.2771201 116.3354114  91.0370176  60.4356436 120.1964367  80.9202839
  61.3474292 120.4291754  80.7450536  59.9266083 120.7801411  80.3577917
  55.0728274 119.5561602  91.9297688  55.9189469 119.9801015  92.0732337
  55.0126911 118.8995226  92.6236251  58.2227719 117.2165970  93.5878862
  57.9788651 117.9708031  93.0513138  58.4987650 117.5951318  94.4226109
  60.1766182 123.7604582  92.2656128  60.3883077 124.4036342  91.5890509
  60.1295930 122.9266899  91.7978058  57.7792411 116.3722403  89.1692700
  56.9176890 116.6703657  89.4609437  57.8054845 116.5892802  88.2373732
  53.5322866 121.0387746  82.3856071  54.2346910 121.4908790  82.8529997
  53.2003495 120.3971565  83.0135964  51.9803228 119.6299503  96.7607280
  51.3501888 120.3115783  96.9942677  51.8739316 119.5182584  95.8160418
  47.2748200 119.2971299  87.6873204  46.4847254 119.5528827  87.2113315
  47.7659448 120.1119636  87.7925245  49.2262946 119.6615878  84.6456681
  48.4294109 119.7734572  85.1640176  48.9988538 120.0002530  83.7797571
  69.3818003 122.9815286  86.7863456  68.6281711 122.4122684  86.6307461
  69.5165544 122.9477951  87.7334091  51.2583971 113.9320268  99.1232531
  50.8650916 113.3786467  99.7980175  52.0750111 114.2430847  99.5139048
  54.1751932 115.3478148  96.7152788  54.9161645 115.9485301  96.6357250
  54.4069854 114.6055785  96.1570830  58.1209094 111.3759250  90.9917069
  57.7773364 112.2660892  90.9156180  58.4888057 111.1860908  90.1286654
  58.0859377 121.3667862  79.4989504  57.5706001 122.1372466  79.7377892
  57.8136686 120.6932998  80.1222566  55.6706488 116.2117562  84.5574743
  54.8148085 115.8224413  84.3780381  56.0833440 116.2909523  83.6974528
  57.2005635 113.7463906  88.9566302  56.6970430 113.7094041  88.1434108
  57.4936242 114.6556648  89.0162959  53.4448521 113.8302635  87.9632484
  54.3101517 113.6345444  87.6038374  53.5126030 113.6012987  88.8901841
  63.0593651 124.1200216  81.4342678  62.2823094 123.7811376  80.9897840
  63.7385132 124.1252839  80.7597643  57.8745680 119.2394954  81.3249285
  57.5695816 119.5541103  82.1759429  58.8276122 119.3176374  81.3676618
  61.2984958 123.5934197  88.0909286  60.6408633 124.2833459  88.1789414
  62.1025357 123.9830629  88.4343272  51.0510840 116.0604843  85.3348851
  51.6254592 115.8380025  84.6022044  51.6381822 116.1293538  86.0877452
  60.1090417 121.9478570  86.1413228  60.6222299 122.5808562  86.6434937
  60.7591641 121.3479766  85.7756588  51.3780427 118.0909304  79.3544736
  50.5417739 118.4283991  79.6754011  51.2385197 117.9558284  78.4171873
  53.3533508 112.9346092  84.0623920  52.6997920 112.6195109  83.4380535
  53.3113982 112.3121833  84.7883743  56.5871248 119.4228026  88.3871568
  55.6693809 119.6442973  88.2293256  57.0031391 119.4974336  87.5283275
  57.3706296 120.8219441  83.5174248  58.1178115 121.3340839  83.2081370
  57.6397885 120.5003494  84.3778642  59.8185133 117.8576558  85.4993038
  59.0807890 117.3453944  85.8303280  60.0711906 117.4176939  84.6876314
  59.9196760 110.6352810  86.0934807  60.2255637 109.7750173  85.8060722
  60.6449365 111.2270430  85.8933801  54.1917840 120.9306603  86.6010998
  54.2466450 119.9780439  86.5253475  53.3809042 121.0866042  87.0852296
  52.1310200 119.5483662  84.3601377  51.3178065 119.8477833  84.7666569
  52.6269194 119.1539351  85.0775859  57.7284411 120.0125487  93.1916271
  58.0833799 120.2396960  94.0510736  58.3756543 120.3443864  92.5693526
  63.4582148 123.1343923  83.8965600  63.3200047 123.3245519  82.9686789
  63.1018367 123.8963306  84.3533651  51.6224275 117.1202018  89.9762612
  52.2623654 116.9790777  89.2785575  50.7901805 116.8336531  89.6001214
  63.4851528 125.2020450  88.9076871  63.9188035 125.1095739  89.7559925
  64.1983109 125.1777950  88.2696887  48.7067342 120.5647530  82.1657357
  47.7764930 120.5031986  82.3827319  48.8024814 120.0423483  81.3693998
  48.6252891 117.0902343  84.7535599  48.8859708 118.0047676  84.6444759
  49.4470063 116.6226786  84.9032211  50.0977816 118.5040100  91.9234423
  50.7700870 118.2957462  91.2747072  49.2707603 118.3062186  91.4839655
  64.3467078 125.2444150  91.4409757  64.5402968 126.1489961  91.6869032
  64.2467696 124.7851570  92.2748342  56.0003388 115.1302041  93.9400084
  55.3531303 115.8291991  93.8464560  56.7704404 115.5638185  94.3076332
  56.1767523 122.9682806  91.9996904  57.1059583 123.1193966  91.8265871
  55.7558553 123.0566827  91.1445550  59.4620261 123.7171107  77.4321339
  58.8449432 122.9917936  77.3354391  58.9936750 124.4780468  77.0888413
  53.1287614 121.4902662  92.1720540  53.8387233 120.8495855  92.1307158
  53.0856922 121.7415557  93.0946721  51.8416548 118.4767880  93.9916179
  51.3053905 118.0258619  94.6437776  51.2533257 118.6113789  93.2486644
  51.2518807 117.9356532  76.5542643  50.3748273 117.8145333  76.1904890
  51.7276560 117.1442610  76.3021532  47.5755669 117.6123888  91.0769174
  47.4913858 117.0049558  90.3419584  46.7538376 118.1032906  91.0778670
  57.7479383 116.0977452  86.4439369  58.2448083 115.3447414  86.1240439
  56.9766365 116.1341768  85.8782578  65.6009141 121.8017817  88.0857660
  65.5899017 122.6842533  87.7151594  64.7326520 121.4489368  87.8912198
  54.3314352 118.2394835  86.1711054  53.9612140 117.6865875  86.8591959
  54.8273444 117.6352968  85.6186054  62.2181715 120.6966458  84.5527826
  62.6842168 121.5294450  84.4788129  62.6689216 120.2311440  85.2573085
  60.1898378 113.0647045  88.5918728  59.2761458 113.2951272  88.7600935
  60.6191480 113.1485489  89.4432760  59.9604837 121.2536937  91.0918622
  59.3076287 121.5012844  90.4371075  60.3385216 120.4401075  90.7581099
  56.0092410 121.9956748  97.5784659  55.3333047 121.8950877  98.2487034
  56.8320043 121.8395962  98.0420656  49.7279686 115.6498825  92.4164160
  49.7921012 116.5113656  92.0041557  49.6646806 115.0372827  91.6836518
  49.2031958 117.7221958  96.0637194  49.8303997 117.3399035  96.6774718
  48.3459877 117.5036160  96.4292886  45.9797501 119.5298387  81.9955549
  46.2750942 118.6209065  81.9422602  45.0785537 119.5086126  81.6736551
  49.5091748 117.6054384  87.9783097  48.7878334 118.2190351  87.8390571
  50.2985004 118.1412148  87.8999743  52.3118062 114.9408810  94.2523749
  52.8352463 115.1871107  95.0150058  52.0930395 115.7728845  93.8326886
  47.7085343 117.2112485  82.1194874  47.3798049 116.3309864  81.9369980
  48.0624713 117.1560153  83.0071263  50.8227166 117.4985454  82.4870352
  51.1623238 118.0271376  81.7648960  51.2699286 117.8365861  83.2628918
  53.5170607 115.8822505  91.9373420  53.1767427 115.0830318  92.3394099
  52.8109613 116.1824216  91.3650253  54.1687078 112.9671818  90.3900743
  54.9913148 112.4932296  90.2679633  54.4125142 113.7462301  90.8899429
  52.8095313 115.9960076  80.6863644  53.5303675 116.3741329  80.1827361
  52.1860617 116.7148953  80.7898622  56.9526436 116.7005225  81.6221977
  57.1690050 117.5829863  81.3210805  56.4720503 116.3091438  80.8927619
  51.6925657 119.6590938  88.1992721  51.5470238 119.9731241  89.0917003
  51.2150861 120.2775839  87.6463620  53.5522040 116.6493486  88.2473611
  53.5383609 115.7534580  87.9105909  54.2694468 116.6564150  88.8811897
  55.4048171 117.0830826  90.2926738  55.1465949 118.0047897  90.2911069
  54.8733211 116.6861261  90.9827202  52.9558936 115.5307866  83.5161181
  53.0774847 114.6024513  83.7152068  52.6660978 115.5446552  82.6039496
  55.8250126 113.2162777  86.6527901  55.8471823 113.2802110  85.6979880
  56.2418185 112.3767286  86.8468407  66.2033751 122.9518036  84.6907123
  66.6464897 122.2025362  84.2926247  65.3260261 122.9428173  84.3080855
  52.4400015 117.0439864  97.7251114  52.4888171 117.9201987  97.3428883
  52.9822530 116.5017257  97.1522757  63.0452736 124.4373453  94.3184979
  63.0950741 124.2723461  95.2600502  62.9366660 123.5700712  93.9282860
  60.3356499 120.4204381  95.6344286  61.2366361 120.2810846  95.3428284
  60.4104473 120.5858836  96.5742463  54.6699304 117.7971236  94.4797472
  53.8002613 118.0904802  94.2080061  54.9058784 118.3811681  95.2004736
  65.7466615 124.4223275  87.0829571  66.5813507 124.8613079  87.2467131
  65.8825744 123.9461928  86.2637817  62.7958121 121.9803010  93.0307059
  63.2712243 122.1730656  92.2225910  61.8723687 122.0362195  92.7850442
  57.3738338 114.0150853  91.9962893  57.8920282 114.7511880  91.6709381
  57.0193471 114.3214846  92.8309652  48.9537275 118.8755534  80.1124298
  48.2606520 118.9499889  79.4564334  48.7089027 118.1115878  80.6345815
  57.6250932 110.4351136  87.5163789  57.9052686 109.7674325  88.1424216
  58.4101539 110.6280231  87.0038453  61.4959790 118.8568770  91.2635364
  62.4477213 118.9566867  91.2847588  61.3263241 118.0647038  91.7733449
  59.5174170 115.9424353  91.4494765  58.9224102 116.2229366  90.7541254
  59.2323866 116.4318254  92.2211506  63.9747868 122.0774889  90.3777664
  63.9424188 121.1390890  90.5637348  64.5848492 122.1558926  89.6443489
  55.8131199 120.9470942  76.4204868  56.7590304 120.8177150  76.4893286
  55.4345444 120.2085604  76.8974296  64.1242357 118.8685933  90.4235947
  63.6081405 118.0844389  90.2365876  65.0082305 118.5404649  90.5882467
  61.7853083 112.6126948  86.3831760  61.5877905 112.3042037  87.2675092
  62.3952789 113.3388587  86.5129690  69.7924418 123.1390896  89.5183701
  70.5227806 122.8776184  90.0791404  69.1831363 122.4019618  89.5585769
  67.8739715 121.2798759  90.1158152  67.1472879 121.1454724  89.5074644
  67.4587002 121.5875587  90.9214870  53.9974116 118.8720919  76.3559753
  53.0905571 118.5754031  76.4322467  54.2750097 118.5750737  75.4894039
  55.6136182 113.4157808  82.5103994  54.8036910 113.0704893  82.8859241
  56.3020599 113.1065352  83.0991606  57.5426730 112.4935855  84.1328291
  58.0957769 112.9131309  84.7918314  57.7796816 111.5671603  84.1751247
  53.5659829 118.4822929  99.9131055  53.4656556 119.4317286  99.8443146
  53.3481371 118.1541168  99.0407125  52.7672901 115.7307854  76.4971732
  53.6292065 116.0562752  76.7567550  52.9523245 114.9439350  75.9844798
  60.9205537 114.6036380  83.6406955  60.3404206 115.2621184  83.2585008
  60.6541470 113.7813725  83.2294373  59.3709104 114.0041438  85.8428276
  59.8708882 114.1157973  85.0342595  60.0144711 113.7002491  86.4829084
  59.7030415 116.7636471  82.6963304  58.8156270 117.0486121  82.4783498
  60.1184404 116.6030234  81.8490581  63.0544951 116.7882992  86.4117643
  63.8305341 117.2779444  86.6842260  62.3293086 117.2141046  86.8689512
  65.4917510 117.5010611  87.4691584  66.0862001 117.2606347  86.7584892
  65.5644094 116.7817742  88.0965120  59.6771439 122.2791007  82.9113594
  59.6206640 122.7359558  82.0721226  60.2299781 121.5181691  82.7336437
  63.4876245 118.0680739  83.7363713  63.2313179 117.6677374  84.5671921
  62.8629113 118.7824533  83.6113852  67.7988583 120.8076812  86.2435005
  67.2388141 120.8770001  87.0166567  67.1932086 120.6317796  85.5234501
  60.4106218 123.4695788  80.2066123  60.3555022 123.3040059  79.2654567
  59.7852274 124.1771821  80.3628313  45.1998733 118.7063852  94.0327545
  45.8457597 118.1962806  94.5214770  44.9915884 119.4432534  94.6070970
  53.7202344 112.9703897  79.7851441  53.7081014 113.9145737  79.9419712
  54.6125766 112.7874042  79.4910903  57.5354463 109.5646674  84.0397378
  56.7686859 109.0105160  84.1854061  57.9465168 109.6368542  84.9011530
  49.5396224 115.8531469  98.1302559  50.4027686 115.4968274  98.3405884
  48.9661635 115.5145364  98.8177964  68.9602849 126.7051168  90.9917069
  68.6167118 127.5952810  90.9156180  69.3281812 126.5152826  90.1286654
  70.7590515 125.9644727  86.0934807  71.0649391 125.1042091  85.8060722
  71.4843119 126.5562348  85.8933801  68.4644686 125.7643053  87.5163789
  68.7446440 125.0966242  88.1424216  69.2495293 125.9572149  87.0038453
  72.6246838 127.9418866  86.3831760  72.4271659 127.6333954  87.2675092
  73.2346544 128.6680505  86.5129690  68.3748218 124.8938591  84.0397378
  67.6080613 124.3397078  84.1854061  68.7858923 124.9660460  84.9011530
   4.3482075  22.5143942  75.6610267   4.9860485  22.3950690  74.9573607
   4.2302918  23.4624786  75.7198219   1.1571782  22.4671370  75.5971792
   0.8190293  22.3512435  74.7092327   2.0261550  22.0662536  75.5772798
   1.6391565  23.6206222  81.5557997   1.6280206  23.2259020  80.6838501
   1.8012204  22.8872295  82.1491769   2.5958156  27.9877815  66.8983148
   1.9446136  28.5731895  66.5117161   3.3902519  28.5184009  66.9578185
   3.9023344  20.2395396  72.7363475   4.6886433  19.8214819  72.3853892
   4.1662048  21.1441488  72.9045123   4.0733421  25.6768246  67.4352132
   3.4379254  25.7502873  68.1473037   3.7430828  26.2661845  66.7571211
   9.3031771  20.1770629  73.6396454  10.0356943  19.6069846  73.8734283
   8.5471127  19.7892230  74.0802959   0.9207891  22.5997871  70.8359796
   0.5566098  22.0728492  71.5472718   1.7775007  22.2096340  70.6626281
   3.3188711  26.0904749  77.4986975   3.0189434  26.9929788  77.3902782
   2.9739770  25.8236933  78.3508128   6.7185855  18.6087290  75.1784412
   5.8102732  18.5402698  74.8843173   6.6673451  19.0859235  76.0066238
   8.5847501  16.8103728  76.9562286   7.9421881  17.1036261  76.3102081
   8.0802430  16.6956648  77.7615483   6.2387665  20.5566901  67.6448145
   7.1505521  20.7894288  67.4695843   5.7297312  21.1403945  67.0823224
   4.5228432  24.9791529  81.2809438   4.9311789  24.5373940  80.5364070
   3.8005694  24.4044157  81.5343631   0.8759503  19.9164136  78.6542995
   1.7220698  20.3403549  78.7977644   0.8158140  19.2597760  79.3481558
   4.8457247  25.5392720  75.0361727   4.2166110  25.7038434  74.3337795
   4.4582909  25.9534329  75.8072691   8.7246479  26.4747158  72.3906091
   8.0397517  26.8546059  71.8403124   8.8090328  27.0842484  73.1238038
   4.0258948  17.5768504  80.3124169   3.7819880  18.3310565  79.7758444
   4.3018878  17.9553852  81.1471416   5.9797411  24.1207117  78.9901434
   6.1914306  24.7638876  78.3135815   5.9327159  23.2869433  78.5223364
   3.5823640  16.7324937  75.8938006   2.7208119  17.0306191  76.1854744
   3.6086074  16.9495336  74.9619039   7.0943239  26.9979072  77.1623792
   7.9160682  26.5959259  76.8806473   7.0905641  26.8947306  78.1139907
  15.1849232  23.3417820  73.5108763  14.4312940  22.7725219  73.3552767
  15.3196773  23.3080485  74.4579398   0.5747860  28.2131223  69.1863482
   0.4393534  29.0582759  69.6148330   1.1157672  28.4150500  68.4229416
   2.2016336  28.8354789  83.3163824   1.7580190  28.0491168  82.9984729
   2.8633550  29.0233940  82.6507715   4.2997574  29.1157589  81.3445226
   4.2816049  29.9366470  80.8525495   5.2217494  28.9911664  81.5695367
   3.8890606  21.7270396  66.2234811   3.3737229  22.4975000  66.4623198
   3.6167914  21.0535532  66.8467872   8.8624880  24.4802750  68.1587984
   8.0854323  24.1413910  67.7143147   9.5416361  24.4855374  67.4842949
   3.6776909  19.5997488  68.0494592   3.3727045  19.9143637  68.9004735
   4.6307351  19.6778908  68.0921925   2.1223341  25.7587711  69.6987546
   1.5944703  25.0240471  69.3860784   1.6210844  26.5362388  69.4527514
   7.1016187  23.9536732  74.8154592   6.4439861  24.6435993  74.9034721
   7.9056586  24.3433164  75.1588579   5.9121646  22.3081104  72.8658534
   6.4253528  22.9411096  73.3680244   6.5622870  21.7082300  72.5001894
   3.1744020  32.2865429  65.6219205   2.5005719  32.5897125  66.2304163
   3.5609842  33.0894509  65.2724662   2.3902477  19.7830560  75.1116875
   1.4725038  20.0045507  74.9538563   2.8062620  19.8576870  74.2528582
   3.1737524  21.1821976  70.2419555   3.9209343  21.6943373  69.9326677
   3.4429114  20.8606028  71.1023949   1.4464175  23.6780516  67.2246509
   0.5375394  23.3939549  67.3218979   1.4759258  24.0979595  66.3649816
   6.6783442  27.2887106  70.9937677   6.2245769  26.4478016  71.0502867
   6.0477409  27.9248504  71.3312457   5.6216362  18.2179092  72.2238344
   4.8839118  17.7056478  72.5548587   5.8743135  17.7779473  71.4121621
   5.1216381  29.1263603  71.9287495   5.4139356  29.6868660  71.2099861
   5.6315002  29.4192164  72.6840654   1.1440262  25.2189260  64.5634588
   0.7059692  24.5025119  64.1040225   1.8850703  25.4465375  64.0019679
   3.5315640  20.3728021  79.9161577   3.8865028  20.5999494  80.7756043
   4.1787771  20.7046398  79.2938833   9.2613377  23.4946457  70.6210906
   9.1231276  23.6848053  69.6932096   8.9049596  24.2565840  71.0778958
   9.2882757  25.5622984  75.6322178   9.7219263  25.4698273  76.4805232
  10.0014338  25.5380485  74.9942194   3.0210652  29.1625078  77.1655278
   3.0747674  29.7316014  77.9332994   2.1525433  29.3326963  76.8009316
  10.1498306  25.6046685  78.1655063  10.3434196  26.5092495  78.4114338
  10.0498925  25.1454104  78.9993648   5.2113415  25.7553427  83.7395944
   5.0598921  25.5263979  82.8226028   5.2018095  26.7124029  83.7527289
   1.9798751  23.3285340  78.7242210   2.9090811  23.4796500  78.5511178
   1.5589781  23.4169361  77.8690857   1.3735235  32.4545101  67.8366284
   1.5486991  31.9833144  68.6511907   0.6868023  33.0810867  68.0647545
   2.3292298  26.7317607  73.8829586   1.9942131  26.6918377  74.7787236
   1.8296244  26.0662323  73.4099996   5.2651490  24.0773642  64.1566645
   4.6480661  23.3520470  64.0599698   4.7967978  24.8383002  63.8133720
   6.9205622  28.7872550  81.8172426   6.8618168  28.1031770  81.1503009
   7.3225140  29.5291540  81.3653052   6.9223029  26.7512134  80.0486405
   6.0349808  26.4138056  80.1712804   7.4921580  26.0195165  80.2855171
   3.5510612  16.4579986  73.1684676   4.0479312  15.7049948  72.8485746
   2.7797594  16.4944302  72.6027885  11.4040369  22.1620351  74.8102967
  11.3930246  23.0445067  74.4396900  10.5357749  21.8091902  74.6157504
   2.9122866  31.3100420  79.1705807   3.6250838  31.9447885  79.0981709
   2.4212895  31.4064286  78.3545809   4.6340393  25.2151673  70.7423099
   3.6996672  25.3353135  70.5727803   4.8117061  24.3124140  70.4783109
   8.0212944  21.0568992  71.2773133   8.4873396  21.8896984  71.2033436
   8.4720445  20.5913974  71.9818392   6.0889175  27.4012814  68.2759285
   6.3649019  27.2869408  69.1853159   5.2193674  27.0030298  68.2371458
   5.7636065  21.6139471  77.8163928   5.1107516  21.8615379  77.1616381
   6.1416445  20.8003609  77.4826406   2.7243239  31.6499164  71.9192099
   2.9065634  30.8320820  72.3819851   3.5476225  31.8666857  71.4816989
   3.0585405  30.5767350  69.1807147   3.5873171  30.0659804  68.5677309
   3.3213624  30.2609880  70.0452680   1.8123638  22.3559282  84.3029966
   1.1364275  22.2553412  84.9732341   2.6351272  22.1998496  84.7665963
   0.5546421  33.6626210  78.5387582   1.1064729  33.8257831  79.3036667
   0.8952615  34.2530648  77.8667606   5.4057296  28.4887467  84.3936236
   5.9497200  29.1017426  83.8991191   4.8244140  29.0467046  84.9103249
   3.6914809  31.6108185  75.5251264   3.5665948  30.8097925  75.0162209
   4.3493900  32.1054379  75.0365234   5.7549717  29.4117205  77.1530814
   4.8080052  29.2922557  77.0809141   6.1032490  28.5239703  77.2357075
   2.7596150  29.2069922  73.3535166   2.6121113  28.2786629  73.5342736
   3.5849644  29.2290012  72.8692241   6.3630272  30.0298480  74.4400039
   7.2876820  29.8241342  74.3024490   6.1945575  29.7814881  75.3489380
   6.1525588  30.5484148  69.7962130   6.3262466  29.9830570  69.0435983
   6.6454480  31.3485043  69.6141620  12.0064979  23.3120571  71.4152430
  12.4496125  22.5627896  71.0171553  11.1291490  23.3030707  71.0326162
   7.1400761  29.8650912  66.8959029   7.8351665  30.4857605  67.1146343
   7.4823911  29.0146263  67.1711406   9.0392184  27.3150618  68.4246359
   9.5643508  27.6537890  67.6995679   8.9514536  26.3797633  68.2409494
   0.7012233  31.2284691  80.5536236   1.0099359  30.9833838  81.4258936
   1.4987715  31.4331330  80.0655106   8.7286090  27.9483521  83.7297557
   7.9381634  27.9307660  83.1902057   8.4919445  28.4871815  84.4846594
   8.8483965  24.7975988  81.0430286   8.8981970  24.6325995  81.9845809
   8.7397888  23.9303247  80.6528167   6.1387727  20.7806916  82.3589592
   7.0397590  20.6413381  82.0673590   6.2135702  20.9461371  83.2987770
  10.3502162  27.2172929  81.2872307  10.0586970  27.5802910  82.1235768
   9.7374293  26.5039937  81.1085639  11.5497844  24.7825809  73.8074878
  12.3844736  25.2215613  73.9712438  11.6856973  24.3064462  72.9883123
   8.5989350  22.3405544  79.7552365   9.0743472  22.5333190  78.9471217
   7.6754915  22.3964730  79.5095749   1.2315629  29.9712664  65.8034122
   0.6589596  30.5902851  65.3504594   1.8048423  30.5212026  66.3374044
   7.2991019  19.2171304  77.9880671   8.2508442  19.3169402  78.0092895
   7.1294469  18.4249572  78.4978755   5.3205399  16.3026887  78.1740072
   4.7255331  16.5831900  77.4786560   5.0355095  16.7920788  78.9456813
   4.4512889  30.2549814  66.9342704   5.3843562  30.1895376  67.1375580
   4.3636102  31.0906081  66.4757237   7.0800906  29.5715684  63.8946652
   7.0014537  29.2375548  64.7882410   7.9010572  30.0637452  63.8938124
   9.7779097  22.4377424  77.1022971   9.7455417  21.4993424  77.2882654
  10.3879721  22.5161460  76.3688795   1.6162428  21.3073477  63.1450175
   2.5621532  21.1779685  63.2138593   1.2376673  20.5688138  63.6219603
   9.9273585  19.2288467  77.1481254   9.4112634  18.4446924  76.9611183
  10.8113534  18.9007184  77.3127773  15.5955647  23.4993430  76.2429007
  16.3259035  23.2378719  76.8036711  14.9862592  22.7622152  76.2831075
  13.6770944  21.6401293  76.8403459  12.9504107  21.5057258  76.2319950
  13.2618231  21.9478122  77.6460177   1.5001120  25.3591223  84.6050832
   2.4204130  25.5369822  84.7990878   1.4650703  24.4147268  84.4530531
   6.7236766  14.9638915  70.3652262   6.1435435  15.6223719  69.9830314
   6.4572699  14.1416259  69.9539680   5.5061644  17.1239005  69.4208610
   4.6187499  17.4088656  69.2028805   5.9215633  16.9632768  68.5735887
   8.8576180  17.1485526  73.1362950   9.6336570  17.6381978  73.4087566
   8.1324314  17.5743580  73.5934819  11.2948739  17.8613145  74.1936890
  11.8893230  17.6208881  73.4830198  11.3675322  17.1420276  74.8210426
   4.6504857  26.8883680  63.5156630   5.3540708  27.0933682  64.1314286
   3.9267506  27.4560442  63.7805714   5.4802668  22.6393541  69.6358900
   5.4237869  23.0962092  68.7966533   6.0331010  21.8784226  69.4581743
   9.2907474  18.4283273  70.4609020   9.0344408  18.0279908  71.2917228
   8.6660342  19.1427067  70.3359159  13.6019812  21.1679346  72.9680311
  13.0419369  21.2372535  73.7411873  12.9963315  20.9920331  72.2479808
   6.5591555  27.3266209  65.5655090   7.3937159  26.8947407  65.3832565
   6.3975898  27.1548223  66.4931985   6.2137447  23.8298322  66.9311430
   6.1586251  23.6642594  65.9899874   5.5883502  24.5374355  67.0873619
   3.5283354  26.1347234  86.2564992   4.3974514  26.3087886  85.8951627
   3.0490106  26.9541651  86.1340722  15.1875830  37.8435860  75.6610267
  15.8254240  37.7242607  74.9573607  15.0696673  38.7916704  75.7198219
  11.9965536  37.7963288  75.5971792  11.6584048  37.6804353  74.7092327
  12.8655304  37.3954453  75.5772798   7.8552352  39.6498765  71.5868683
   7.2917217  39.5588701  70.8184970   7.7404747  38.8298669  72.0671175
  12.4785319  38.9498140  81.5557997  12.4673960  38.5550938  80.6838501
  12.6405959  38.2164212  82.1491769   5.4016784  41.1449956  74.4252903
   6.1938076  40.8040781  74.0099202   5.6413434  41.2544931  75.3455056
  13.4351911  43.3169732  66.8983148  12.7839890  43.9023813  66.5117161
  14.2296273  43.8475927  66.9578185   7.3607538  40.4058869  67.2970282
   8.1338414  39.8587856  67.1583158   7.7132937  41.2703119  67.5084743
   9.1992580  41.7335252  80.5037181   8.9082446  42.6380882  80.3883848
   9.8349565  41.7751779  81.2181251  10.1248787  39.1112100  77.0938541
  10.7212359  38.8868123  76.3795504  10.1823759  38.3696846  77.6963989
   9.6973816  36.5651536  64.9288732   9.9499336  36.0433057  64.1672195
   8.7598375  36.4017681  65.0315415  14.7417098  35.5687314  72.7363475
  15.5280188  35.1506737  72.3853892  15.0055803  36.4733406  72.9045123
  14.9127176  41.0060164  67.4352132  14.2773009  41.0794791  68.1473037
  14.5824582  41.5953763  66.7571211  20.1425526  35.5062547  73.6396454
  20.8750698  34.9361764  73.8734283  19.3864881  35.1184148  74.0802959
   9.4170104  38.4679641  67.1313107   9.3006362  37.7924545  67.7994191
   9.5272364  37.9812015  66.3145260  11.7601645  37.9289789  70.8359796
  11.3959853  37.4020410  71.5472718  12.6168761  37.5388258  70.6626281
  17.6650946  29.2184121  78.0991062  17.3334271  30.0879532  77.8752277
  17.0696559  28.9020405  78.7785093  11.4007132  32.9579688  65.8321145
  11.5681535  33.8259925  66.1991616  11.2104301  33.1206970  64.9082434
  14.1582465  41.4196667  77.4986975  13.8583189  42.3221706  77.3902782
  13.8133525  41.1528850  78.3508128   7.6094947  37.8710464  73.5323679
   6.6845443  37.7386678  73.7401371   7.8579360  38.6504683  74.0293622
  17.5579609  33.9379207  75.1784412  16.6496487  33.8694616  74.8843173
  17.5067205  34.4151152  76.0066238  11.3796353  35.4137346  66.8167811
  11.2595978  35.8594397  67.6553292  10.6848942  35.7622663  66.2581350
   4.9703758  37.5143738  74.3667468   5.0996139  37.7678216  75.2806880
   4.2901209  38.1071446  74.0472124   9.1403245  48.1840988  70.4657943
   9.0627275  49.1348813  70.5446423   8.5364889  47.8386860  71.1232869
  11.6320475  35.3568853  83.1219310  10.8553809  35.9162773  83.1122174
  12.2711038  35.8425636  83.6434180  19.4241256  32.1395646  76.9562286
  18.7815636  32.4328179  76.3102081  18.9196184  32.0248566  77.7615483
  17.0781419  35.8858819  67.6448145  17.9899275  36.1186206  67.4695843
  16.5691066  36.4695863  67.0823224   9.8866847  38.1654306  82.6837277
  10.6281532  38.7039350  82.4072100   9.1803833  38.7920595  82.8408828
  15.3622187  40.3083447  81.2809438  15.7705543  39.8665857  80.5364070
  14.6399448  39.7336074  81.5343631  11.7153257  35.2456054  78.6542995
  12.5614452  35.6695467  78.7977644  11.6551895  34.5889678  79.3481558
  15.6851002  40.8684637  75.0361727  15.0559864  41.0330352  74.3337795
  15.2976664  41.2826247  75.8072691  19.5640234  41.8039075  72.3906091
  18.8791272  42.1837977  71.8403124  19.6484083  42.4134402  73.1238038
  14.8652702  32.9060422  80.3124169  14.6213634  33.6602482  79.7758444
  15.1412633  33.2845769  81.1471416  16.8191165  39.4499034  78.9901434
  17.0308060  40.0930794  78.3135815  16.7720913  38.6161351  78.5223364
  14.4217394  32.0616855  75.8938006  13.5601873  32.3598108  76.1854744
  14.4479829  32.2787254  74.9619039  11.2378963  40.6059045  72.3011812
  11.7017309  40.8846748  71.5116435  10.9735762  39.7042490  72.1184903
   8.1303045  40.1530527  75.2391575   8.7004402  40.5817795  74.6009060
   8.7211156  39.8713112  75.9375761  10.1747850  36.7282198  69.1101377
  10.8771893  37.1803242  69.5775304   9.8428478  36.0866017  69.7381270
   8.6228211  35.3193954  83.4852587   7.9926872  36.0010235  83.7187983
   8.5164299  35.2077036  82.5405725   3.9173184  34.9865751  74.4118511
   3.1272237  35.2423279  73.9358621   4.4084431  35.8014088  74.5170551
  17.9336993  42.3270990  77.1623792  18.7554437  41.9251177  76.8806473
  17.9299396  42.2239224  78.1139907   5.8687929  35.3510330  71.3701987
   5.0719092  35.4629024  71.8885483   5.6413521  35.6896982  70.5042878
  11.6993597  41.8755033  79.3184502  11.7638029  42.3375440  80.1542674
  10.9904520  41.2452398  79.4466812   2.2010887  35.2396241  76.8433502
   2.4518925  36.1243251  77.1091077   2.7370435  35.0600842  76.0708593
  26.0242986  38.6709738  73.5108763  25.2706695  38.1017136  73.3552767
  26.1590527  38.6372403  74.4579398  11.4141614  43.5423140  69.1863482
  11.2787289  44.3874676  69.6148330  11.9551427  43.7442418  68.4229416
   7.9008954  29.6214720  85.8477838   7.5075899  29.0680919  86.5225482
   8.7175094  29.9325299  86.2384355   4.8671012  41.0598579  69.7591407
   5.3795532  41.8541829  69.9096972   5.5193724  40.3624869  69.6925009
   6.6765896  44.1764335  71.8414161   6.8532525  45.0982299  71.6535145
   7.4722730  43.8622754  72.2708540  10.8176915  31.0372599  83.4398094
  11.5586628  31.6379753  83.3602557  11.0494838  30.2950237  82.8816137
   5.9618253  36.2228967  81.7176324   5.8471768  35.3214224  82.0183423
   5.1062771  36.4692663  81.3661140  13.0410091  44.1646707  83.3163824
  12.5973945  43.3783086  82.9984729  13.7027304  44.3525857  82.6507715
   7.7997212  45.6942509  77.8424503   8.3504637  45.5659572  77.0701497
   6.9608688  45.9937398  77.4919396  15.1391329  44.4449507  81.3445226
  15.1209804  45.2658388  80.8525495  16.0611249  44.3203582  81.5695367
  11.5964383  41.9593636  82.1868734  12.1292720  41.1981925  81.9568042
  11.0678464  41.6667288  82.9292889  14.7634078  27.0653702  77.7162376
  14.4198347  27.9555344  77.6401486  15.1313040  26.8755360  76.8531961
   2.8319928  39.3887233  70.5350978   3.6695150  39.7984241  70.3184686
   3.0098196  38.4486675  70.5051172  14.7284360  37.0562313  66.2234811
  14.2130984  37.8266918  66.4623198  14.4561669  36.3827450  66.8467872
  12.3131472  31.9012014  71.2820049  11.4573068  31.5118865  71.1025688
  12.7258423  31.9803975  70.4219835  13.8430618  29.4358358  75.6811609
  13.3395414  29.3988493  74.8679414  14.1361225  30.3451100  75.7408266
  10.0873504  29.5197087  74.6877791  10.9526501  29.3239896  74.3283680
  10.1551013  29.2907439  75.6147148  19.7018635  39.8094668  68.1587984
  18.9248077  39.4705828  67.7143147  20.3810116  39.8147291  67.4842949
  14.5170664  34.9289406  68.0494592  14.2120799  35.2435555  68.9004735
  15.4701106  35.0070825  68.0921925  12.9617095  41.0879629  69.6987546
  12.4338457  40.3532388  69.3860784  12.4604598  41.8654305  69.4527514
  17.9409942  39.2828649  74.8154592  17.2833616  39.9727911  74.9034721
  18.7450341  39.6725081  75.1588579   7.6935823  31.7499295  72.0594158
   8.2679575  31.5274477  71.3267351   8.2806806  31.8187990  72.8122759
  16.7515400  37.6373022  72.8658534  17.2647282  38.2703014  73.3680244
  17.4016624  37.0374218  72.5001894   8.0205410  33.7803756  66.0790043
   7.1842722  34.1178443  66.3999318   7.8810180  33.6452736  65.1417180
   9.9958491  28.6240544  70.7869227   9.3422903  28.3089561  70.1625842
   9.9538965  28.0016285  71.5129050  11.1069696  38.9059839  62.7022519
  10.1996757  38.6749093  62.9013668  11.6040728  38.1097458  62.8896501
  14.0137775  47.6157346  65.6219205  13.3399473  47.9189043  66.2304163
  14.4003597  48.4186427  65.2724662  13.2296231  35.1122478  75.1116875
  12.3118793  35.3337425  74.9538563  13.6456375  35.1868788  74.2528582
  14.0131279  36.5113893  70.2419555  14.7603098  37.0235290  69.9326677
  14.2822868  36.1897946  71.1023949  12.2857929  39.0072434  67.2246509
  11.3769148  38.7231467  67.3218979  12.3153013  39.4271513  66.3649816
  17.5177197  42.6179023  70.9937677  17.0639524  41.7769933  71.0502867
  16.8871163  43.2540422  71.3312457  16.4610116  33.5471010  72.2238344
  15.7232873  33.0348396  72.5548587  16.7136890  33.1071391  71.4121621
  15.9610136  44.4555520  71.9287495  16.2533110  45.0160577  71.2099861
  16.4708756  44.7484081  72.6840654  16.5621743  26.3247262  72.8180114
  16.8680620  25.4644625  72.5306029  17.2874348  26.9164882  72.6179107
   2.8546099  36.7277948  71.2061711   2.6570499  36.1347309  70.4812778
   2.2992763  36.4230158  71.9237650  10.8342823  36.6201055  73.3256305
  10.8891433  35.6674891  73.2498781  10.0234025  36.7760494  73.8097603
  11.9834017  40.5481178  64.5634588  11.5453447  39.8317037  64.1040225
  12.7244458  40.7757292  64.0019679   8.7735183  35.2378114  71.0846683
   7.9603049  35.5372285  71.4911876   9.2694177  34.8433803  71.8021166
  10.9243761  45.2335871  73.0180948  10.8819940  45.4596718  72.0889480
  11.8406460  44.9999246  73.1666749  14.3709395  35.7019939  79.9161577
  14.7258782  35.9291412  80.7756043  15.0181526  36.0338316  79.2938833
  20.1007132  38.8238375  70.6210906  19.9625030  39.0139971  69.6932096
  19.7443351  39.5857758  71.0778958   8.2649258  32.8096470  76.7007918
   8.9048637  32.6685229  76.0030882   7.4326788  32.5230983  76.3246520
  20.1276511  40.8914902  75.6322178  20.5613018  40.7990191  76.4805232
  20.8408092  40.8672402  74.9942194   9.0409562  42.1098900  72.8142911
   9.8350160  41.6149220  72.6125486   8.3301254  41.5816763  72.4510616
  13.8604406  44.4916996  77.1655278  13.9141428  45.0607932  77.9332994
  12.9919188  44.6618881  76.8009316   5.3492325  36.2541982  68.8902664
   4.4189913  36.1926438  69.1072626   5.4449797  35.7317935  68.0939305
   5.2677874  32.7796795  71.4780905   5.5284692  33.6942128  71.3690066
   6.0895047  32.3121237  71.6277518   6.7402800  34.1934552  78.6479730
   7.4125853  33.9851914  77.9992379   5.9132586  33.9956638  78.2084962
  20.9892061  40.9338602  78.1655063  21.1827951  41.8384413  78.4114338
  20.8892679  40.4746021  78.9993648  12.6428372  30.8196493  80.6645391
  11.9956287  31.5186443  80.5709867  13.4129387  31.2532637  81.0321639
  16.0507170  41.0845345  83.7395944  15.8992676  40.8555897  82.8226028
  16.0411849  42.0415947  83.7527289  12.8192506  38.6577258  78.7242210
  13.7484566  38.8088417  78.5511178  12.3983536  38.7461279  77.8690857
  11.6180838  42.6827922  76.4940748  11.4791923  42.3146707  77.3666686
  10.8295434  43.1975562  76.3224706  12.2128990  47.7837019  67.8366284
  12.3880745  47.3125062  68.6511907  11.5261778  48.4102785  68.0647545
  13.1686053  42.0609525  73.8829586  12.8335885  42.0210295  74.7787236
  12.6689999  41.3954241  73.4099996   7.1430297  37.4677155  79.4082167
   7.0050095  36.7357394  80.0093706   8.0535220  37.3786055  79.1266355
  16.1045245  39.4065559  64.1566645  15.4874415  38.6812387  64.0599698
  15.6361733  40.1674920  63.8133720   9.7712597  37.1797114  78.8965847
  10.4812216  36.5390307  78.8552465   9.7281906  37.4310009  79.8192027
  17.7599376  44.1164468  81.8172426  17.7011922  43.4323688  81.1503009
  18.1618895  44.8583458  81.3653052   8.4841531  34.1662332  80.7161486
   7.9478888  33.7153071  81.3683082   7.8958240  34.3008241  79.9731950
   6.7790075  50.9326382  74.6106145   7.0186673  51.5644906  75.2885163
   5.9359271  50.5814422  74.8971504   7.8943790  33.6250984  63.2787950
   7.0173257  33.5039784  62.9150196   8.3701543  32.8337062  63.0266838
  17.7616783  42.0804052  80.0486405  16.8743562  41.7429973  80.1712804
  18.3315335  41.3487083  80.2855171   4.2180653  33.3018340  77.8014481
   4.1338841  32.6944009  77.0664890   3.3963359  33.7927358  77.8023977
  11.2917937  46.7405504  77.0147649  11.2188108  47.5460475  77.5266953
  10.8495330  46.9397470  76.1895670  11.0807716  45.9777274  70.5250470
  10.2975238  46.5198954  70.6188695  11.7800462  46.4951254  70.9244711
  14.3904367  31.7871903  73.1684676  14.8873066  31.0341866  72.8485746
  13.6191348  31.8236220  72.6027885  22.2434124  37.4912269  74.8102967
  22.2324000  38.3736984  74.4396900  21.3751503  37.1383820  74.6157504
  13.7516620  46.6392338  79.1705807  14.4644593  47.2739803  79.0981709
  13.2606649  46.7356204  78.3545809  15.4734147  40.5443591  70.7423099
  14.5390426  40.6645053  70.5727803  15.6510816  39.6416057  70.4783109
  10.9739335  33.9289286  72.8956360  10.6037123  33.3760327  73.5837266
  11.4698428  33.3247420  72.3431360  18.8606699  36.3860910  71.2773133
  19.3267151  37.2188902  71.2033436  19.3114199  35.9205892  71.9818392
   8.8028534  44.3886781  79.9911378   9.5037993  45.0223264  80.1440772
   8.3323649  44.7301513  79.2307017  16.9282930  42.7304731  68.2759285
  17.2042774  42.6161326  69.1853159  16.0587428  42.3322216  68.2371458
  16.8323361  28.7541497  75.3164034  15.9186441  28.9845724  75.4846241
  17.2616463  28.8379941  76.1678067  16.6029820  36.9431389  77.8163928
  15.9501270  37.1907296  77.1616381  16.9810200  36.1295527  77.4826406
  13.5636994  46.9791082  71.9192099  13.7459388  46.1612738  72.3819851
  14.3869980  47.1958774  71.4816989  13.8979159  45.9059267  69.1807147
  14.4266926  45.3951722  68.5677309  14.1607379  45.5901797  70.0452680
  12.6517393  37.6851200  84.3029966  11.9758030  37.5845329  84.9732341
  13.4745027  37.5290414  84.7665963   4.3996252  43.9223136  76.9242481
   4.9849689  43.1766824  77.0570385   4.2021090  44.2327093  77.8079145
   7.2534907  46.9574384  71.9404923   6.5845282  47.4420512  71.4568963
   7.1147777  47.2043604  72.8548302  11.3940176  48.9918127  78.5387582
  11.9458484  49.1549749  79.3036667  11.7346369  49.5822565  77.8667606
   6.3704669  31.3393277  79.1409466   6.4345995  32.2008108  78.7286864
   6.3071789  30.7267279  78.4081825   5.8456942  33.4116410  82.7882501
   6.4728980  33.0293487  83.4020025   4.9884860  33.1930612  83.1538193
  16.2451050  43.8179385  84.3936236  16.7890954  44.4309343  83.8991191
  15.6637895  44.3758963  84.9103249   2.6222484  35.2192839  68.7200855
   2.9175925  34.3103517  68.6667909   1.7210520  35.1980578  68.3981858
  14.5308563  46.9400103  75.5251264  14.4059702  46.1389843  75.0162209
  15.1887654  47.4346296  75.0365234   6.1516731  33.2948835  74.7028404
   5.4303317  33.9084803  74.5635877   6.9409987  33.8306600  74.6245050
  16.5943471  44.7409123  77.1530814  15.6473807  44.6214474  77.0809141
  16.9426245  43.8531621  77.2357075   8.9543045  30.6303262  80.9769056
   9.4777447  30.8765558  81.7395365   8.7355378  31.4623297  80.5572193
   4.3510326  32.9006937  68.8440180   4.0223032  32.0204315  68.6615286
   4.7049697  32.8454605  69.7316570  13.5989905  44.5361839  73.3535166
  13.4514867  43.6078547  73.5342736  14.4243398  44.5581930  72.8692241
   7.4652149  33.1879906  69.2115658   7.8048222  33.7165828  68.4894267
   7.9124269  33.5260312  69.9874225  17.2024027  45.3590398  74.4400039
  18.1270574  45.1533259  74.3024490  17.0339330  45.1106799  75.3489380
  10.1595590  31.5716957  78.6618726   9.8192410  30.7724770  79.0639406
   9.4534596  31.8718668  78.0895559  10.8112062  28.6566269  77.1146049
  11.6338131  28.1826748  76.9924940  11.0550125  29.4356753  77.6144736
   9.4520296  31.6854528  67.4108951  10.1728659  32.0635781  66.9072668
   8.8285600  32.4043405  67.5143929  13.5951419  32.3899677  68.3467283
  13.8115033  33.2724315  68.0456111  13.1145486  31.9985890  67.6172925
   8.3350640  35.3485390  74.9238028   8.1895221  35.6625693  75.8162309
   7.8575844  35.9670290  74.3708927  10.1947023  32.3387938  74.9718917
  10.1808592  31.4429031  74.6351215  10.9119451  32.3458602  75.6057203
  12.0473154  32.7725278  77.0172045  11.7890932  33.6942349  77.0156375
  11.5158194  32.3755713  77.7072509  16.9919343  45.8776065  69.7962130
  17.1656220  45.3122488  69.0435983  17.4848234  46.6776960  69.6141620
   2.8096303  37.8890734  77.8625689   2.2649771  38.6650542  77.9945963
   3.6875652  38.2361539  77.7044810   9.5983919  31.2202318  70.2406488
   9.7199830  30.2918965  70.4397375   9.3085962  31.2341004  69.3284803
  12.4675110  28.9057229  73.3773207  12.4896806  28.9696562  72.4225187
  12.8843169  28.0661737  73.5713714  22.8458734  38.6412488  71.4152430
  23.2889880  37.8919814  71.0171553  21.9685244  38.6322625  71.0326162
  17.9794515  45.1942830  66.8959029  18.6745420  45.8149522  67.1146343
  18.3217665  44.3438181  67.1711406   3.5962324  37.0160631  80.7555846
   2.8544060  37.1643266  81.3420476   3.2755069  37.2768896  79.8922595
  19.8785938  42.6442535  68.4246359  20.4037262  42.9829808  67.6995679
  19.7908291  41.7089551  68.2409494  11.5405987  46.5576609  80.5536236
  11.8493114  46.3125756  81.4258936  12.3381469  46.7623247  80.0655106
  11.5626599  48.7114519  72.7841612  11.1231589  48.2190897  73.4774469
  12.3134716  48.1687486  72.5433688   4.0418938  44.9026059  72.7866241
   4.8676958  44.6029831  72.4064884   3.6912990  44.1333682  73.2356029
   9.0100471  44.2552528  74.8563914   8.3880481  43.5923233  74.5566142
   9.6805338  44.2813660  74.1737562   2.2427543  42.8212386  73.7455174
   1.4059451  42.3934560  73.5639175   2.2151189  43.0144829  74.6825965
   9.0824999  32.7334316  84.4496420   9.1313154  33.6096439  84.0674190
   9.6247513  32.1911709  83.8768063  19.5679844  43.2775439  83.7297557
  18.7775388  43.2599578  83.1902057  19.3313199  43.8163733  84.4846594
  19.6877719  40.1267905  81.0430286  19.7375724  39.9617913  81.9845809
  19.5791643  39.2595164  80.6528167   8.5713978  42.8056451  68.3322375
   8.7202099  43.4891915  67.6789047   9.3780422  42.7861541  68.8471830
  16.9781482  36.1098833  82.3589592  17.8791345  35.9705298  82.0673590
  17.0529456  36.2753288  83.2987770  11.3124287  33.4865688  81.2042779
  10.4427597  33.7799254  80.9325367  11.5483768  34.0706133  81.9250042
  21.1895916  42.5464847  81.2872307  20.8980725  42.9094827  82.1235768
  20.5768048  41.8331855  81.1085639  22.3891599  40.1117727  73.8074878
  23.2238490  40.5507531  73.9712438  22.5250727  39.6356380  72.9883123
  19.4383105  37.6697462  79.7552365  19.9137226  37.8625108  78.9471217
  18.5148670  37.7256647  79.5095749   6.3266611  38.8321629  69.3383444
   6.0812653  37.9283959  69.5363654   6.4962526  38.8338779  68.3962922
  14.0163321  29.7045305  78.7208199  14.5345265  30.4406332  78.3954688
  13.6618454  30.0109298  79.5554958   5.5962259  34.5649986  66.8369605
   4.9031504  34.6394341  66.1809641   5.3514011  33.8010330  67.3591122
  14.2675915  26.1245588  74.2409096  14.5477669  25.4568777  74.8669522
  15.0526522  26.3174683  73.7283760  12.0709384  45.3004581  65.8034122
  11.4983351  45.9194769  65.3504594  12.6442177  45.8503943  66.3374044
  18.1384774  34.5463222  77.9880671  19.0902196  34.6461319  78.0092895
  17.9688224  33.7541490  78.4978755  16.1599153  31.6318805  78.1740072
  15.5649085  31.9123818  77.4786560  15.8748850  32.1212706  78.9456813
  15.2906644  45.5841732  66.9342704  16.2237317  45.5187293  67.1375580
  15.2029856  46.4197998  66.4757237  17.9194660  44.9007602  63.8946652
  17.8408292  44.5667466  64.7882410  18.7404327  45.3929370  63.8938124
  20.6172851  37.7669341  77.1022971  20.5849171  36.8285342  77.2882654
  21.2273475  37.8453378  76.3688795  12.4556182  36.6365394  63.1450175
  13.4015287  36.5071602  63.2138593  12.0770427  35.8980056  63.6219603
  20.7667340  34.5580385  77.1481254  20.2506388  33.7738841  76.9611183
  21.6507288  34.2299101  77.3127773  18.4278067  28.3021400  73.1077066
  18.2302888  27.9936488  73.9920398  19.0377772  29.0283039  73.2374996
  26.4349401  38.8285348  76.2429007  27.1652790  38.5670636  76.8036711
  25.8256347  38.0914070  76.2831075  24.5164698  36.9693211  76.8403459
  23.7897862  36.8349176  76.2319950  24.1011985  37.2770039  77.6460177
  12.3394875  40.6883140  84.6050832  13.2597884  40.8661739  84.7990878
  12.3044458  39.7439186  84.4530531  10.6399099  34.5615371  63.0805060
   9.7330555  34.2648483  63.1567773  10.9175080  34.2645189  62.2139346
   1.5577040  35.8821734  73.5304106   1.2379824  35.0287042  73.2378480
   1.0110468  36.0970312  74.2862074   5.3356947  38.5984175  77.2473613
   5.5542957  39.5301283  77.2661647   5.7482721  38.2392149  78.0328417
  12.2561165  29.1052260  69.2349301  11.4461893  28.7599345  69.6104547
  12.9445582  28.7959804  69.8236913  14.1851713  28.1830307  70.8573598
  14.7382752  28.6025761  71.5163621  14.4221800  27.2566055  70.8996554
  10.2084813  34.1717381  86.6376362  10.1081540  35.1211738  86.5688453
   9.9906355  33.8435620  85.7652432   9.4097884  31.4202306  63.2217039
  10.2717048  31.7457204  63.4812856   9.5948228  30.6333802  62.7090105
   1.4265300  39.5024646  75.4997228   0.7328771  39.0878598  74.9867182
   2.1738291  39.5445182  74.9030647  17.5630520  30.2930832  70.3652262
  16.9829190  30.9515636  69.9830314  17.2966453  29.4708177  69.9539680
  16.0134087  29.6935890  72.5673582  16.5133865  29.8052425  71.7587901
  16.6569695  29.3896943  73.2074391  10.0716083  37.6014520  85.4541423
   9.5883164  38.4014880  85.6605312  10.1577022  37.6122465  84.5008867
   3.3402042  39.4342899  73.3763243   3.3172730  39.5330587  72.4245126
   3.6502679  40.2808050  73.6980409   5.9989420  41.4919054  77.4909857
   6.9532674  41.4602997  77.4239789   5.8001944  41.0309678  78.3060083
   6.5888802  40.0620170  80.0580655   7.4081691  40.5564249  80.0815492
   6.8625610  39.1452139  80.0298222  16.3455398  32.4530923  69.4208610
  15.4581254  32.7380573  69.2028805  16.7609388  32.2924686  68.5735887
  19.6969935  32.4777444  73.1362950  20.4730325  32.9673896  73.4087566
  18.9718069  32.9035498  73.5934819  22.1342493  33.1905063  74.1936890
  22.7286984  32.9500799  73.4830198  22.2069077  32.4712193  74.8210426
   4.3539649  47.0338674  74.5080055   4.2194117  46.2739075  73.9418053
   3.9371711  47.7579574  74.0408844  15.4898612  42.2175597  63.5156630
  16.1934462  42.4225600  64.1314286  14.7661261  42.7852359  63.7805714
  16.3196422  37.9685459  69.6358900  16.2631624  38.4254010  68.7966533
  16.8724765  37.2076143  69.4581743  20.1301228  33.7575191  70.4609020
  19.8738162  33.3571826  71.2917228  19.5054096  34.4718984  70.3359159
  24.4413566  36.4971264  72.9680311  23.8813124  36.5664453  73.7411873
  23.8357069  36.3212248  72.2479808   7.5108775  47.9307991  74.7198498
   7.3941159  48.8753423  74.6177188   6.6901221  47.6281552  75.1084297
  17.3985309  42.6558127  65.5655090  18.2330913  42.2239325  65.3832565
  17.2369652  42.4840140  66.4931985  17.0531202  39.1590240  66.9311430
  16.9980005  38.9934511  65.9899874  16.4277257  39.8666273  67.0873619
   1.8423717  34.3958304  80.7572852   2.4882580  33.8857258  81.2460077
   1.6340868  35.1326986  81.3316277  14.3677109  41.4639152  86.2564992
  15.2368268  41.6379804  85.8951627  13.8883860  42.2833569  86.1340722
  10.3627327  28.6598349  66.5096748  10.3505997  29.6040189  66.6665019
  11.2550749  28.4768494  66.2156209   8.5363289  48.5836253  77.9354426
   9.4390536  48.6159863  78.2520921   8.3100659  47.6536704  77.9500762
  10.2916891  47.3367239  74.5964505   9.3412522  47.3369101  74.4828877
  10.5949377  46.5899974  74.0800539  14.1779446  25.2541126  70.7642685
  13.4111842  24.6999612  70.9099367  14.5890151  25.3262994  71.6256836
   6.1821208  31.5425921  84.8547866   7.0452669  31.1862726  85.0651191
   5.6086618  31.2039816  85.5423270  26.0269584  53.1727778  75.6610267
  26.6647994  53.0534525  74.9573607  25.9090427  54.1208622  75.7198219
  22.8359291  53.1255206  75.5971792  22.4977802  53.0096270  74.7092327
  23.7049059  52.7246371  75.5772798  18.6946106  54.9790682  71.5868683
  18.1310972  54.8880619  70.8184970  18.5798501  54.1590587  72.0671175
  23.3179074  54.2790058  81.5557997  23.3067714  53.8842856  80.6838501
  23.4799713  53.5456130  82.1491769  16.2410538  56.4741874  74.4252903
  17.0331830  56.1332698  74.0099202  16.4807189  56.5836849  75.3455056
  24.2745665  58.6461650  66.8983148  23.6233645  59.2315730  66.5117161
  25.0690028  59.1767845  66.9578185  18.2001292  55.7350787  67.2970282
  18.9732168  55.1879774  67.1583158  18.5526691  56.5995036  67.5084743
  20.0386335  57.0627169  80.5037181  19.7476201  57.9672800  80.3883848
  20.6743319  57.1043697  81.2181251  20.9642542  54.4404018  77.0938541
  21.5606114  54.2160040  76.3795504  21.0217513  53.6988763  77.6963989
  20.5367570  51.8943453  64.9288732  20.7893091  51.3724974  64.1672195
  19.5992129  51.7309599  65.0315415  25.5810853  50.8979232  72.7363475
  26.3673942  50.4798655  72.3853892  25.8449557  51.8025324  72.9045123
  25.7520930  56.3352082  67.4352132  25.1166763  56.4086708  68.1473037
  25.4218337  56.9245681  66.7571211  30.9819280  50.8354465  73.6396454
  31.7144452  50.2653682  73.8734283  30.2258636  50.4476065  74.0802959
  20.2563859  53.7971559  67.1313107  20.1400117  53.1216463  67.7994191
  20.3666119  53.3103933  66.3145260  22.5995400  53.2581706  70.8359796
  22.2353607  52.7312327  71.5472718  23.4562516  52.8680175  70.6626281
  28.5044700  44.5476039  78.0991062  28.1728025  45.4171450  77.8752277
  27.9090314  44.2312323  78.7785093  22.2400887  48.2871606  65.8321145
  22.4075289  49.1551842  66.1991616  22.0498056  48.4498888  64.9082434
  24.9976220  56.7488585  77.4986975  24.6976943  57.6513624  77.3902782
  24.6527279  56.4820768  78.3508128  18.4488701  53.2002382  73.5323679
  17.5239198  53.0678596  73.7401371  18.6973115  53.9796601  74.0293622
  28.3973364  49.2671125  75.1784412  27.4890241  49.1986533  74.8843173
  28.3460960  49.7443070  76.0066238  22.2190108  50.7429263  66.8167811
  22.0989733  51.1886314  67.6553292  21.5242696  51.0914581  66.2581350
  15.8097512  52.8435655  74.3667468  15.9389894  53.0970134  75.2806880
  15.1294964  53.4363363  74.0472124  19.9797000  63.5132905  70.4657943
  19.9021029  64.4640730  70.5446423  19.3758643  63.1678778  71.1232869
  22.4714230  50.6860771  83.1219310  21.6947564  51.2454691  83.1122174
  23.1104793  51.1717554  83.6434180  30.2635010  47.4687563  76.9562286
  29.6209390  47.7620097  76.3102081  29.7589939  47.3540484  77.7615483
  27.9175174  51.2150737  67.6448145  28.8293030  51.4478123  67.4695843
  27.4084821  51.7987781  67.0823224  20.7260602  53.4946224  82.6837277
  21.4675286  54.0331268  82.4072100  20.0197587  54.1212513  82.8408828
  26.2015941  55.6375364  81.2809438  26.6099298  55.1957775  80.5364070
  25.4793203  55.0627992  81.5343631  22.5547012  50.5747971  78.6542995
  23.4008207  50.9987385  78.7977644  22.4945649  49.9181596  79.3481558
  26.5244756  56.1976555  75.0361727  25.8953619  56.3622269  74.3337795
  26.1370418  56.6118165  75.8072691  30.4033988  57.1330993  72.3906091
  29.7185026  57.5129894  71.8403124  30.4877837  57.7426320  73.1238038
  25.7046457  48.2352340  80.3124169  25.4607389  48.9894400  79.7758444
  25.9806387  48.6137687  81.1471416  27.6584920  54.7790952  78.9901434
  27.8701815  55.4222712  78.3135815  27.6114668  53.9453268  78.5223364
  25.2611149  47.3908773  75.8938006  24.3995628  47.6890026  76.1854744
  25.2873583  47.6079171  74.9619039  22.0772718  55.9350963  72.3011812
  22.5411064  56.2138666  71.5116435  21.8129516  55.0334408  72.1184903
  18.9696799  55.4822445  75.2391575  19.5398156  55.9109713  74.6009060
  19.5604911  55.2005029  75.9375761  21.0141604  52.0574116  69.1101377
  21.7165647  52.5095159  69.5775304  20.6822233  51.4157934  69.7381270
  19.4621966  50.6485872  83.4852587  18.8320626  51.3302153  83.7187983
  19.3558053  50.5368954  82.5405725  14.7566938  50.3157668  74.4118511
  13.9665992  50.5715197  73.9358621  15.2478185  51.1306006  74.5170551
  28.7730748  57.6562907  77.1623792  29.5948191  57.2543095  76.8806473
  28.7693150  57.5531142  78.1139907  16.7081683  50.6802247  71.3701987
  15.9112847  50.7920942  71.8885483  16.4807276  51.0188900  70.5042878
  22.5387351  57.2046951  79.3184502  22.6031784  57.6667358  80.1542674
  21.8298275  56.5744316  79.4466812  13.0404641  50.5688159  76.8433502
  13.2912679  51.4535169  77.1091077  13.5764189  50.3892760  76.0708593
  22.2535369  58.8715058  69.1863482  22.1181043  59.7166594  69.6148330
  22.7945181  59.0734336  68.4229416  18.7402708  44.9506638  85.8477838
  18.3469654  44.3972837  86.5225482  19.5568849  45.2617216  86.2384355
  15.7064766  56.3890496  69.7591407  16.2189287  57.1833746  69.9096972
  16.3587479  55.6916787  69.6925009  17.5159651  59.5056252  71.8414161
  17.6926279  60.4274217  71.6535145  18.3116484  59.1914672  72.2708540
  21.6570669  46.3664517  83.4398094  22.3980383  46.9671670  83.3602557
  21.8888592  45.6242155  82.8816137  16.8012007  51.5520884  81.7176324
  16.6865522  50.6506142  82.0183423  15.9456525  51.7984581  81.3661140
  23.8803845  59.4938625  83.3163824  23.4367699  58.7075003  82.9984729
  24.5421059  59.6817775  82.6507715  18.6390966  61.0234426  77.8424503
  19.1898391  60.8951490  77.0701497  17.8002442  61.3229315  77.4919396
  25.9785083  59.7741425  81.3445226  25.9603558  60.5950306  80.8525495
  26.9005003  59.6495500  81.5695367  22.4358137  57.2885554  82.1868734
  22.9686474  56.5273842  81.9568042  21.9072218  56.9959206  82.9292889
  25.6027832  42.3945620  77.7162376  25.2592102  43.2847262  77.6401486
  25.9706795  42.2047278  76.8531961  13.6713683  54.7179150  70.5350978
  14.5088905  55.1276159  70.3184686  13.8491951  53.7778593  70.5051172
  25.5678115  52.3854231  66.2234811  25.0524738  53.1558836  66.4623198
  25.2955423  51.7119367  66.8467872  23.1525226  47.2303932  71.2820049
  22.2966822  46.8410782  71.1025688  23.5652178  47.3095893  70.4219835
  24.6824373  44.7650275  75.6811609  24.1789168  44.7280410  74.8679414
  24.9754979  45.6743018  75.7408266  20.9267259  44.8489005  74.6877791
  21.7920255  44.6531814  74.3283680  20.9944767  44.6199357  75.6147148
  25.3564418  50.2581323  68.0494592  25.0514554  50.5727472  68.9004735
  26.3094860  50.3362743  68.0921925  23.8010850  56.4171547  69.6987546
  23.2732212  55.6824306  69.3860784  23.2998353  57.1946223  69.4527514
  28.7803696  54.6120567  74.8154592  28.1227370  55.3019828  74.9034721
  29.5844095  55.0016999  75.1588579  18.5329578  47.0791213  72.0594158
  19.1073329  46.8566394  71.3267351  19.1200560  47.1479907  72.8122759
  27.5909155  52.9664940  72.8658534  28.1041037  53.5994932  73.3680244
  28.2410379  52.3666135  72.5001894  18.8599165  49.1095674  66.0790043
  18.0236477  49.4470360  66.3999318  18.7203934  48.9744654  65.1417180
  20.8352245  43.9532462  70.7869227  20.1816658  43.6381479  70.1625842
  20.7932719  43.3308202  71.5129050  21.9463450  54.2351757  62.7022519
  21.0390512  54.0041010  62.9013668  22.4434482  53.4389376  62.8896501
  24.8531529  62.9449264  65.6219205  24.1793228  63.2480961  66.2304163
  25.2397351  63.7478344  65.2724662  24.0689986  50.4414395  75.1116875
  23.1512547  50.6629342  74.9538563  24.4850129  50.5160706  74.2528582
  24.8525033  51.8405811  70.2419555  25.5996852  52.3527208  69.9326677
  25.1216623  51.5189864  71.1023949  23.1251684  54.3364352  67.2246509
  22.2162903  54.0523384  67.3218979  23.1546767  54.7563430  66.3649816
  28.3570951  57.9470941  70.9937677  27.9033278  57.1061851  71.0502867
  27.7264918  58.5832340  71.3312457  27.3003871  48.8762927  72.2238344
  26.5626627  48.3640313  72.5548587  27.5530644  48.4363309  71.4121621
  26.8003890  59.7847438  71.9287495  27.0926865  60.3452495  71.2099861
  27.3102511  60.0775999  72.6840654  27.4015498  41.6539179  72.8180114
  27.7074375  40.7936543  72.5306029  28.1268103  42.2456799  72.6179107
  13.6939854  52.0569866  71.2061711  13.4964254  51.4639227  70.4812778
  13.1386518  51.7522076  71.9237650  21.6736578  51.9492972  73.3256305
  21.7285187  50.9966809  73.2498781  20.8627780  52.1052411  73.8097603
  22.8227771  55.8773095  64.5634588  22.3847201  55.1608954  64.1040225
  23.5638212  56.1049210  64.0019679  19.6128938  50.5670032  71.0846683
  18.7996803  50.8664203  71.4911876  20.1087932  50.1725721  71.8021166
  21.7637515  60.5627789  73.0180948  21.7213694  60.7888635  72.0889480
  22.6800214  60.3291164  73.1666749  25.2103149  51.0311856  79.9161577
  25.5652537  51.2583330  80.7756043  25.8575280  51.3630233  79.2938833
  30.9400886  54.1530292  70.6210906  30.8018785  54.3431888  69.6932096
  30.5837105  54.9149675  71.0778958  19.1043012  48.1388388  76.7007918
  19.7442392  47.9977147  76.0030882  18.2720543  47.8522901  76.3246520
  30.9670266  56.2206819  75.6322178  31.4006772  56.1282108  76.4805232
  31.6801846  56.1964320  74.9942194  19.8803316  57.4390818  72.8142911
  20.6743915  56.9441138  72.6125486  19.1695009  56.9108681  72.4510616
  24.6998161  59.8208913  77.1655278  24.7535183  60.3899850  77.9332994
  23.8312942  59.9910799  76.8009316  16.1886080  51.5833900  68.8902664
  15.2583668  51.5218355  69.1072626  16.2843552  51.0609852  68.0939305
  16.1071629  48.1088713  71.4780905  16.3678446  49.0234046  71.3690066
  16.9288801  47.6413155  71.6277518  17.5796554  49.5226470  78.6479730
  18.2519607  49.3143832  77.9992379  16.7526341  49.3248556  78.2084962
  31.8285815  56.2630520  78.1655063  32.0221705  57.1676331  78.4114338
  31.7286434  55.8037939  78.9993648  23.4822126  46.1488411  80.6645391
  22.8350041  46.8478360  80.5709867  24.2523141  46.5824555  81.0321639
  26.8900924  56.4137263  83.7395944  26.7386430  56.1847814  82.8226028
  26.8805603  57.3707864  83.7527289  23.6586260  53.9869176  78.7242210
  24.5878320  54.1380335  78.5511178  23.2377290  54.0753196  77.8690857
  22.4574592  58.0119840  76.4940748  22.3185678  57.6438624  77.3666686
  21.6689188  58.5267479  76.3224706  23.0522744  63.1128936  67.8366284
  23.2274500  62.6416980  68.6511907  22.3655532  63.7394703  68.0647545
  24.0079807  57.3901443  73.8829586  23.6729640  57.3502213  74.7787236
  23.5083753  56.7246159  73.4099996  17.9824051  52.7969073  79.4082167
  17.8443849  52.0649312  80.0093706  18.8928975  52.7077973  79.1266355
  26.9438999  54.7357477  64.1566645  26.3268170  54.0104305  64.0599698
  26.4755487  55.4966837  63.8133720  20.6106352  52.5089032  78.8965847
  21.3205971  51.8682224  78.8552465  20.5675660  52.7601927  79.8192027
  28.5993131  59.4456385  81.8172426  28.5405677  58.7615605  81.1503009
  29.0012649  60.1875375  81.3653052  19.3235286  49.4954250  80.7161486
  18.7872643  49.0444988  81.3683082  18.7351994  49.6300159  79.9731950
  17.6183829  66.2618299  74.6106145  17.8580428  66.8936823  75.2885163
  16.7753026  65.9106339  74.8971504  18.7337545  48.9542901  63.2787950
  17.8567011  48.8331702  62.9150196  19.2095298  48.1628980  63.0266838
  28.6010538  57.4095969  80.0486405  27.7137317  57.0721891  80.1712804
  29.1709089  56.6779001  80.2855171  10.2539685  53.7420061  73.3729457
  10.9410725  53.4281791  72.7850472  10.0987814  54.6461426  73.0996708
  15.0574407  48.6310258  77.8014481  14.9732596  48.0235927  77.0664890
  14.2357114  49.1219276  77.8023977  22.1311691  62.0697422  77.0147649
  22.0581863  62.8752393  77.5266953  21.6889084  62.2689387  76.1895670
  21.9201471  61.3069192  70.5250470  21.1368993  61.8490872  70.6188695
  22.6194216  61.8243171  70.9244711  25.2298121  47.1163821  73.1684676
  25.7266821  46.3633783  72.8485746  24.4585103  47.1528138  72.6027885
  33.0827878  52.8204187  74.8102967  33.0717755  53.7028902  74.4396900
  32.2145258  52.4675737  74.6157504  24.5910375  61.9684256  79.1705807
  25.3038347  62.6031720  79.0981709  24.1000403  62.0648122  78.3545809
  26.3127902  55.8735508  70.7423099  25.3784180  55.9936971  70.5727803
  26.4904570  54.9707975  70.4783109  21.8133090  49.2581204  72.8956360
  21.4430877  48.7052244  73.5837266  22.3092182  48.6539338  72.3431360
  29.7000453  51.7152828  71.2773133  30.1660905  52.5480819  71.2033436
  30.1507954  51.2497809  71.9818392  19.6422288  59.7178699  79.9911378
  20.3431748  60.3515182  80.1440772  19.1717403  60.0593431  79.2307017
  27.7676684  58.0596649  68.2759285  28.0436528  57.9453243  69.1853159
  26.8981183  57.6614134  68.2371458  27.6717116  44.0833415  75.3164034
  26.7580196  44.3137641  75.4846241  28.1010217  44.1671859  76.1678067
  27.4423574  52.2723307  77.8163928  26.7895025  52.5199214  77.1616381
  27.8203954  51.4587445  77.4826406  24.4030748  62.3083000  71.9192099
  24.5853143  61.4904656  72.3819851  25.2263734  62.5250692  71.4816989
  24.7372914  61.2351185  69.1807147  25.2660680  60.7243639  68.5677309
  25.0001133  60.9193715  70.0452680  23.4911147  53.0143118  84.3029966
  22.8151784  52.9137247  84.9732341  24.3138781  52.8582331  84.7665963
  15.2390006  59.2515054  76.9242481  15.8243443  58.5058742  77.0570385
  15.0414845  59.5619011  77.8079145  18.0928662  62.2866302  71.9404923
  17.4239037  62.7712429  71.4568963  17.9541531  62.5335522  72.8548302
   9.8307661  51.8220654  75.6446924   9.8691761  51.2884245  76.4384042
   9.3247954  51.2955860  75.0257901  22.2333930  64.3210045  78.5387582
  22.7852238  64.4841667  79.3036667  22.5740124  64.9114483  77.8667606
  17.2098423  46.6685195  79.1409466  17.2739750  47.5300026  78.7286864
  17.1465544  46.0559197  78.4081825  16.6850696  48.7408327  82.7882501
  17.3122735  48.3585405  83.4020025  15.8278615  48.5222529  83.1538193
  27.0844805  59.1471303  84.3936236  27.6284709  59.7601261  83.8991191
  26.5031649  59.7050881  84.9103249  13.4616239  50.5484757  68.7200855
  13.7569680  49.6395435  68.6667909  12.5604275  50.5272496  68.3981858
  25.3702318  62.2692021  75.5251264  25.2453457  61.4681760  75.0162209
  26.0281409  62.7638214  75.0365234  16.9910486  48.6240753  74.7028404
  16.2697072  49.2376721  74.5635877  17.7803742  49.1598518  74.6245050
  27.4337226  60.0701041  77.1530814  26.4867561  59.9506392  77.0809141
  27.7819999  59.1823539  77.2357075  19.7936799  45.9595180  80.9769056
  20.3171201  46.2057476  81.7395365  19.5749133  46.7915214  80.5572193
  15.1904080  48.2298854  68.8440180  14.8616787  47.3496233  68.6615286
  15.5443451  48.1746523  69.7316570  24.4383659  59.8653757  73.3535166
  24.2908622  58.9370464  73.5342736  25.2637153  59.8873848  72.8692241
  18.3045904  48.5171824  69.2115658  18.6441976  49.0457745  68.4894267
  18.7518024  48.8552230  69.9874225  28.0417781  60.6882316  74.4400039
  28.9664329  60.4825177  74.3024490  27.8733084  60.4398717  75.3489380
  20.9989344  46.9008875  78.6618726  20.6586165  46.1016688  79.0639406
  20.2928351  47.2010586  78.0895559  21.6505816  43.9858187  77.1146049
  22.4731885  43.5118665  76.9924940  21.8943880  44.7648671  77.6144736
  20.2914051  47.0146446  67.4108951  21.0122413  47.3927698  66.9072668
  19.6679355  47.7335322  67.5143929  24.4345174  47.7191595  68.3467283
  24.6508788  48.6016232  68.0456111  23.9539241  47.3277808  67.6172925
  19.1744395  50.6777308  74.9238028  19.0288976  50.9917611  75.8162309
  18.6969599  51.2962208  74.3708927  21.0340778  47.6679856  74.9718917
  21.0202347  46.7720949  74.6351215  21.7513206  47.6750520  75.6057203
  22.8866909  48.1017196  77.0172045  22.6284686  49.0234267  77.0156375
  22.3551949  47.7047631  77.7072509  27.8313097  61.2067983  69.7962130
  28.0049975  60.6414406  69.0435983  28.3241989  62.0068878  69.6141620
  13.6490057  53.2182652  77.8625689  13.1043525  53.9942460  77.9945963
  14.5269407  53.5653457  77.7044810  20.4377674  46.5494236  70.2406488
  20.5593585  45.6210882  70.4397375  20.1479716  46.5632922  69.3284803
  23.3068864  44.2349146  73.3773207  23.3290561  44.2988480  72.4225187
  23.7236923  43.3953655  73.5713714  33.6852488  53.9704406  71.4152430
  34.1283634  53.2211731  71.0171553  32.8078999  53.9614542  71.0326162
  28.8188270  60.5234747  66.8959029  29.5139174  61.1441440  67.1146343
  29.1611420  59.6730099  67.1711406  14.4356079  52.3452548  80.7555846
  13.6937815  52.4935184  81.3420476  14.1148823  52.6060814  79.8922595
  22.3799742  61.8868527  80.5536236  22.6886868  61.6417673  81.4258936
  23.1775224  62.0915165  80.0655106  22.4020354  64.0406436  72.7841612
  21.9625344  63.5482815  73.4774469  23.1528471  63.4979404  72.5433688
  14.8812693  60.2317977  72.7866241  15.7070713  59.9321749  72.4064884
  14.5306745  59.4625600  73.2356029  19.8494226  59.5844445  74.8563914
  19.2274235  58.9215150  74.5566142  20.5199093  59.6105577  74.1737562
  13.0821298  58.1504304  73.7455174  12.2453206  57.7226478  73.5639175
  13.0544943  58.3436747  74.6825965  19.9218753  48.0626233  84.4496420
  19.9706909  48.9388356  84.0674190  20.4641267  47.5203626  83.8768063
  30.4073599  58.6067357  83.7297557  29.6169143  58.5891496  83.1902057
  30.1706954  59.1455650  84.4846594  30.5271474  55.4559823  81.0430286
  30.5769479  55.2909830  81.9845809  30.4185397  54.5887082  80.6528167
  19.4107733  58.1348369  68.3322375  19.5595853  58.8183833  67.6789047
  20.2174176  58.1153459  68.8471830  27.8175236  51.4390751  82.3589592
  28.7185099  51.2997216  82.0673590  27.8923211  51.6045206  83.2987770
  22.1518042  48.8157606  81.2042779  21.2821351  49.1091172  80.9325367
  22.3877522  49.3998051  81.9250042  32.0289671  57.8756765  81.2872307
  31.7374479  58.2386745  82.1235768  31.4161802  57.1623773  81.1085639
  30.2776859  52.9989379  79.7552365  30.7530981  53.1917025  78.9471217
  29.3542424  53.0548565  79.5095749  17.1660366  54.1613546  69.3383444
  16.9206408  53.2575876  69.5363654  17.3356280  54.1630697  68.3962922
  24.8557076  45.0337223  78.7208199  25.3739019  45.7698250  78.3954688
  24.5012208  45.3401216  79.5554958  16.4356013  49.8941904  66.8369605
  15.7425258  49.9686259  66.1809641  16.1907765  49.1302248  67.3591122
  25.1069670  41.4537505  74.2409096  25.3871423  40.7860694  74.8669522
  25.8920277  41.6466601  73.7283760  22.9103138  60.6296499  65.8034122
  22.3377105  61.2486686  65.3504594  23.4835932  61.1795861  66.3374044
  28.9778528  49.8755139  77.9880671  29.9295951  49.9753237  78.0092895
  28.8081978  49.0833408  78.4978755  26.9992908  46.9610722  78.1740072
  26.4042840  47.2415735  77.4786560  26.7142604  47.4504623  78.9456813
  26.1300398  60.9133649  66.9342704  27.0631071  60.8479211  67.1375580
  26.0423611  61.7489916  66.4757237  28.7588415  60.2299520  63.8946652
  28.6802046  59.8959383  64.7882410  29.5798081  60.7221288  63.8938124
  31.4566606  53.0961259  77.1022971  31.4242926  52.1577260  77.2882654
  32.0667229  53.1745296  76.3688795  23.2949937  51.9657312  63.1450175
  24.2409041  51.8363520  63.2138593  22.9164182  51.2271974  63.6219603
  31.6061094  49.8872302  77.1481254  31.0900143  49.1030759  76.9611183
  32.4901043  49.5591019  77.3127773  29.2671821  43.6313318  73.1077066
  29.0696642  43.3228406  73.9920398  29.8771527  44.3574957  73.2374996
  23.1788629  56.0175058  84.6050832  24.0991639  56.1953657  84.7990878
  23.1438212  55.0731103  84.4530531  21.4792854  49.8907288  63.0805060
  20.5724309  49.5940401  63.1567773  21.7568835  49.5937106  62.2139346
  12.3970794  51.2113652  73.5304106  12.0773579  50.3578960  73.2378480
  11.8504222  51.4262230  74.2862074  16.1750702  53.9276093  77.2473613
  16.3936712  54.8593201  77.2661647  16.5876476  53.5684067  78.0328417
  23.0954920  44.4344178  69.2349301  22.2855648  44.0891263  69.6104547
  23.7839337  44.1251722  69.8236913  25.0245468  43.5122225  70.8573598
  25.5776506  43.9317678  71.5163621  25.2615554  42.5857973  70.8996554
  21.0478567  49.5009298  86.6376362  20.9475294  50.4503655  86.5688453
  20.8300109  49.1727537  85.7652432  20.2491638  46.7494224  63.2217039
  21.1110802  47.0749122  63.4812856  20.4341983  45.9625719  62.7090105
  12.2659054  54.8316563  75.4997228  11.5722526  54.4170516  74.9867182
  13.0132045  54.8737100  74.9030647  28.4024275  45.6222750  70.3652262
  27.8222944  46.2807554  69.9830314  28.1360208  44.8000095  69.9539680
  26.8527841  45.0227808  72.5673582  27.3527620  45.1344342  71.7587901
  27.4963449  44.7188861  73.2074391  20.9109837  52.9306437  85.4541423
  20.4276919  53.7306797  85.6605312  20.9970776  52.9414382  84.5008867
  14.1795797  54.7634817  73.3763243  14.1566485  54.8622504  72.4245126
  14.4896433  55.6099968  73.6980409  16.8383175  56.8210972  77.4909857
  17.7926428  56.7894914  77.4239789  16.6395698  56.3601596  78.3060083
  17.4282557  55.3912088  80.0580655  18.2475446  55.8856167  80.0815492
  17.7019364  54.4744056  80.0298222  27.1849153  47.7822840  69.4208610
  26.2975008  48.0672491  69.2028805  27.6003142  47.6216604  68.5735887
  30.5363689  47.8069361  73.1362950  31.3124079  48.2965814  73.4087566
  29.8111823  48.2327416  73.5934819  32.9736248  48.5196981  74.1936890
  33.5680739  48.2792717  73.4830198  33.0462831  47.8004111  74.8210426
  15.1933403  62.3630592  74.5080055  15.0587871  61.6030992  73.9418053
  14.7765466  63.0871491  74.0408844  26.3292366  57.5467515  63.5156630
  27.0328217  57.7517518  64.1314286  25.6055015  58.1144277  63.7805714
  27.1590177  53.2977376  69.6358900  27.1025378  53.7545928  68.7966533
  27.7118519  52.5368061  69.4581743  30.9694983  49.0867108  70.4609020
  30.7131917  48.6863744  71.2917228  30.3447851  49.8010902  70.3359159
  35.2807320  51.8263181  72.9680311  34.7206878  51.8956371  73.7411873
  34.6750824  51.6504166  72.2479808  18.3502529  63.2599909  74.7198498
  18.2334913  64.2045341  74.6177188  17.5294976  62.9573470  75.1084297
  28.2379064  57.9850044  65.5655090  29.0724668  57.5531243  65.3832565
  28.0763407  57.8132058  66.4931985  27.8924956  54.4882158  66.9311430
  27.8373760  54.3226429  65.9899874  27.2671011  55.1958190  67.0873619
  12.6817471  49.7250222  80.7572852  13.3276335  49.2149176  81.2460077
  12.4734622  50.4618904  81.3316277  25.2070863  56.7931069  86.2564992
  26.0762023  56.9671722  85.8951627  24.7277615  57.6125486  86.1340722
  21.2021081  43.9890267  66.5096748  21.1899751  44.9332106  66.6665019
  22.0944503  43.8060412  66.2156209  19.3757043  63.9128170  77.9354426
  20.2784290  63.9451781  78.2520921  19.1494414  62.9828621  77.9500762
  21.1310645  62.6659157  74.5964505  20.1806276  62.6661019  74.4828877
  21.4343132  61.9191892  74.0800539  25.0173201  40.5833043  70.7642685
  24.2505597  40.0291530  70.9099367  25.4283906  40.6554912  71.6256836
  17.0214962  46.8717839  84.8547866  17.8846424  46.5154644  85.0651191
  16.4480373  46.5331734  85.5423270  34.1572828  69.6081975  81.5557997
  34.1461469  69.2134773  80.6838501  34.3193468  68.8748048  82.1491769
  27.0804293  71.8033791  74.4252903  27.8725585  71.4624616  74.0099202
  27.3200943  71.9128767  75.3455056  30.8780089  72.3919087  80.5037181
  30.5869955  73.2964718  80.3883848  31.5137074  72.4335615  81.2181251
  31.8036296  69.7695936  77.0938541  32.3999868  69.5451958  76.3795504
  31.8611268  69.0280681  77.6963989  29.2882456  68.5294299  73.5323679
  28.3632952  68.3970513  73.7401371  29.5366869  69.3088519  74.0293622
  26.6491267  68.1727573  74.3667468  26.7783648  68.4262052  75.2806880
  25.9688718  68.7655281  74.0472124  31.5654356  68.8238142  82.6837277
  32.3069041  69.3623186  82.4072100  30.8591342  69.4504430  82.8408828
  29.8090554  70.8114362  75.2391575  30.3791911  71.2401631  74.6009060
  30.3998665  70.5296947  75.9375761  30.3015720  65.9777790  83.4852587
  29.6714381  66.6594071  83.7187983  30.1951808  65.8660871  82.5405725
  25.5960692  65.6449586  74.4118511  24.8059746  65.9007114  73.9358621
  26.0871940  66.4597924  74.5170551  27.5475438  66.0094165  71.3701987
  26.7506601  66.1212859  71.8885483  27.3201030  66.3480817  70.5042878
  23.8798395  65.8980076  76.8433502  24.1306434  66.7827086  77.1091077
  24.4157944  65.7184678  76.0708593  29.5796463  60.2798556  85.8477838
  29.1863408  59.7264754  86.5225482  30.3962603  60.5909134  86.2384355
  32.4964424  61.6956435  83.4398094  33.2374137  62.2963588  83.3602557
  32.7282347  60.9534073  82.8816137  27.6405762  66.8812802  81.7176324
  27.5259277  65.9798059  82.0183423  26.7850280  67.1276499  81.3661140
  29.4784721  76.3526344  77.8424503  30.0292146  76.2243407  77.0701497
  28.6396197  76.6521233  77.4919396  33.2751892  72.6177472  82.1868734
  33.8080229  71.8565760  81.9568042  32.7465973  72.3251124  82.9292889
  24.5107437  70.0471068  70.5350978  25.3482659  70.4568077  70.3184686
  24.6885705  69.1070510  70.5051172  31.7661013  60.1780923  74.6877791
  32.6314010  59.9823731  74.3283680  31.8338522  59.9491274  75.6147148
  29.3723332  62.4083131  72.0594158  29.9467084  62.1858312  71.3267351
  29.9594315  62.4771825  72.8122759  31.6746000  59.2824379  70.7869227
  31.0210412  58.9673397  70.1625842  31.6326474  58.6600120  71.5129050
  24.5333608  67.3861783  71.2061711  24.3358008  66.7931144  70.4812778
  23.9780272  67.0813994  71.9237650  29.9436767  63.4680305  76.7007918
  30.5836146  63.3269064  76.0030882  29.1114297  63.1814819  76.3246520
  27.0279834  66.9125817  68.8902664  26.0977422  66.8510273  69.1072626
  27.1237306  66.3901770  68.0939305  26.9465383  63.4380630  71.4780905
  27.2072201  64.3525963  71.3690066  27.7682556  62.9705073  71.6277518
  28.4190309  64.8518387  78.6479730  29.0913362  64.6435750  77.9992379
  27.5920095  64.6540473  78.2084962  34.3215881  61.4780328  80.6645391
  33.6743796  62.1770278  80.5709867  35.0916896  61.9116472  81.0321639
  34.4980015  69.3161093  78.7242210  35.4272075  69.4672253  78.5511178
  34.0771045  69.4045114  77.8690857  28.8217806  68.1260990  79.4082167
  28.6837604  67.3941229  80.0093706  29.7322729  68.0369890  79.1266355
  31.4500106  67.8380950  78.8965847  32.1599725  67.1974142  78.8552465
  31.4069415  68.0893845  79.8192027  30.1629040  64.8246168  80.7161486
  29.6266397  64.3736906  81.3683082  29.5745749  64.9592076  79.9731950
  28.4577584  81.5910217  74.6106145  28.6974182  82.2228741  75.2885163
  27.6146780  81.2398257  74.8971504  21.0933440  69.0711979  73.3729457
  21.7804479  68.7573709  72.7850472  20.9381568  69.9753343  73.0996708
  25.8968162  63.9602175  77.8014481  25.8126350  63.3527845  77.0664890
  25.0750868  64.4511194  77.8023977  30.4816043  75.0470617  79.9911378
  31.1825502  75.6807100  80.1440772  30.0111158  75.3885348  79.2307017
  26.0783761  74.5806972  76.9242481  26.6637198  73.8350660  77.0570385
  25.8808599  74.8910929  77.8079145  20.6701416  67.1512572  75.6446924
  20.7085515  66.6176163  76.4384042  20.1641708  66.6247778  75.0257901
  33.0727685  79.6501963  78.5387582  33.6245993  79.8133584  79.3036667
  33.4133878  80.2406401  77.8667606  28.0492178  61.9977113  79.1409466
  28.1133504  62.8591943  78.7286864  27.9859298  61.3851114  78.4081825
  27.5244450  64.0700245  82.7882501  28.1516489  63.6877322  83.4020025
  26.6672369  63.8514447  83.1538193  24.3009993  65.8776674  68.7200855
  24.5963434  64.9687353  68.6667909  23.3998029  65.8564414  68.3981858
  27.8304240  63.9532671  74.7028404  27.1090826  64.5668638  74.5635877
  28.6197496  64.4890436  74.6245050  30.6330554  61.2887097  80.9769056
  31.1564956  61.5349394  81.7395365  30.4142887  62.1207132  80.5572193
  26.0297835  63.5590772  68.8440180  25.7010541  62.6788151  68.6615286
  26.3837206  63.5038441  69.7316570  32.4899571  59.3150105  77.1146049
  33.3125640  58.8410583  76.9924940  32.7337634  60.0940589  77.6144736
  30.0138149  66.0069225  74.9238028  29.8682730  66.3209529  75.8162309
  29.5363353  66.6254126  74.3708927  24.4883812  68.5474570  77.8625689
  23.9437280  69.3234378  77.9945963  25.3663161  68.8945374  77.7044810
  25.2749833  67.6744466  80.7555846  24.5331569  67.8227101  81.3420476
  24.9542578  67.9352732  79.8922595  33.2414108  79.3698354  72.7841612
  32.8019098  78.8774733  73.4774469  33.9922225  78.8271322  72.5433688
  30.6887980  74.9136363  74.8563914  30.0667990  74.2507068  74.5566142
  31.3592847  74.9397495  74.1737562  23.9215052  73.4796221  73.7455174
  23.0846960  73.0518396  73.5639175  23.8938698  73.6728665  74.6825965
  30.7612508  63.3918151  84.4496420  30.8100663  64.2680274  84.0674190
  31.3035022  62.8495544  83.8768063  32.9911796  64.1449523  81.2042779
  32.1215106  64.4383090  80.9325367  33.2271277  64.7289968  81.9250042
  23.2364549  66.5405569  73.5304106  22.9167333  65.6870878  73.2378480
  22.6897977  66.7554148  74.2862074  27.0144456  69.2568010  77.2473613
  27.2330466  70.1885118  77.2661647  27.4270230  68.8975985  78.0328417
  31.8872322  64.8301216  86.6376362  31.7869048  65.7795573  86.5688453
  31.6693864  64.5019455  85.7652432  31.0885393  62.0786141  63.2217039
  31.9504557  62.4041040  63.4812856  31.2735737  61.2917637  62.7090105
  23.1052809  70.1608481  75.4997228  22.4116280  69.7462434  74.9867182
  23.8525800  70.2029017  74.9030647  25.0189551  70.0926735  73.3763243
  24.9960239  70.1914422  72.4245126  25.3290188  70.9391885  73.6980409
  27.6776929  72.1502890  77.4909857  28.6320183  72.1186832  77.4239789
  27.4789453  71.6893513  78.3060083  28.2676311  70.7204006  80.0580655
  29.0869200  71.2148084  80.0815492  28.5413119  69.8035974  80.0298222
  26.0327158  77.6922509  74.5080055  25.8981626  76.9322910  73.9418053
  25.6159220  78.4163409  74.0408844  29.1896284  78.5891826  74.7198498
  29.0728668  79.5337259  74.6177188  28.3688730  78.2865388  75.1084297
  23.5211226  65.0542140  80.7572852  24.1670089  64.5441094  81.2460077
  23.3128377  65.7910821  81.3316277  30.2150798  79.2420088  77.9354426
  31.1178045  79.2743698  78.2520921  29.9888168  78.3120539  77.9500762
  31.9704400  77.9951075  74.5964505  31.0200031  77.9952936  74.4828877
  32.2736886  77.2483809  74.0800539  27.8608717  62.2009757  84.8547866
  28.7240178  61.8446562  85.0651191  27.2874127  61.8623652  85.5423270
  47.7057093  83.8311613  75.6610267  48.3435503  83.7118360  74.9573607
  47.5877936  84.7792457  75.7198219  44.5146800  83.7839041  75.5971792
  44.1765311  83.6680106  74.7092327  45.3836568  83.3830206  75.5772798
  40.3733615  85.6374518  71.5868683  39.8098481  85.5464455  70.8184970
  40.2586010  84.8174422  72.0671175  44.9966583  84.9373893  81.5557997
  44.9855223  84.5426691  80.6838501  45.1587222  84.2039965  82.1491769
  37.9198047  87.1325709  74.4252903  38.7119339  86.7916534  74.0099202
  38.1594698  87.2420684  75.3455056  45.9533174  89.3045485  66.8983148
  45.3021154  89.8899566  66.5117161  46.7477537  89.8351680  66.9578185
  39.8788801  86.3934622  67.2970282  40.6519677  85.8463609  67.1583158
  40.2314200  87.2578872  67.5084743  41.7173844  87.7211005  80.5037181
  41.4263710  88.6256636  80.3883848  42.3530828  87.7627532  81.2181251
  42.6430051  85.0987853  77.0938541  43.2393623  84.8743876  76.3795504
  42.7005022  84.3572599  77.6963989  42.2155079  82.5527289  64.9288732
  42.4680600  82.0308810  64.1672195  41.2779638  82.3893434  65.0315415
  47.4308439  86.9935917  67.4352132  46.7954272  87.0670544  68.1473037
  47.1005846  87.5829516  66.7571211  41.9351368  84.4555394  67.1313107
  41.8187626  83.7800298  67.7994191  42.0453628  83.9687768  66.3145260
  44.2782909  83.9165542  70.8359796  43.9141116  83.3896163  71.5472718
  45.1350025  83.5264011  70.6626281  46.6763729  87.4072420  77.4986975
  46.3764452  88.3097459  77.3902782  46.3314788  87.1404603  78.3508128
  43.8977617  81.4013099  66.8167811  43.7777242  81.8470150  67.6553292
  43.2030205  81.7498416  66.2581350  37.4885021  83.5019491  74.3667468
  37.6177403  83.7553970  75.2806880  36.8082473  84.0947199  74.0472124
  41.6584509  94.1716741  70.4657943  41.5808538  95.1224566  70.5446423
  41.0546152  93.8262613  71.1232869  42.4048111  84.1530059  82.6837277
  43.1462795  84.6915103  82.4072100  41.6985096  84.7796348  82.8408828
  47.8803450  86.2959200  81.2809438  48.2886806  85.8541610  80.5364070
  47.1580712  85.7211827  81.5343631  44.2334520  81.2331807  78.6542995
  45.0795716  81.6571220  78.7977644  44.1733158  80.5765431  79.3481558
  48.2032265  86.8560390  75.0361727  47.5741128  87.0206105  74.3337795
  47.8157927  87.2702000  75.8072691  52.0821497  87.7914828  72.3906091
  51.3972535  88.1713730  71.8403124  52.1665346  88.4010155  73.1238038
  49.3372429  85.4374787  78.9901434  49.5489324  86.0806547  78.3135815
  49.2902177  84.6037104  78.5223364  43.7560227  86.5934799  72.3011812
  44.2198573  86.8722501  71.5116435  43.4917025  85.6918243  72.1184903
  40.6484308  86.1406280  75.2391575  41.2185665  86.5693548  74.6009060
  41.2392420  85.8588865  75.9375761  42.6929113  82.7157951  69.1101377
  43.3953156  83.1678995  69.5775304  42.3609742  82.0741770  69.7381270
  41.1409475  81.3069708  83.4852587  40.5108135  81.9885988  83.7187983
  41.0345562  81.1952789  82.5405725  50.4518257  88.3146743  77.1623792
  51.2735700  87.9126930  76.8806473  50.4480659  88.2114977  78.1139907
  44.2174860  87.8630786  79.3184502  44.2819293  88.3251193  80.1542674
  43.5085784  87.2328151  79.4466812  34.7192150  81.2271994  76.8433502
  34.9700188  82.1119004  77.1091077  35.2551698  81.0476596  76.0708593
  43.9322878  89.5298893  69.1863482  43.7968552  90.3750429  69.6148330
  44.4732690  89.7318171  68.4229416  37.3852275  87.0474332  69.7591407
  37.8976796  87.8417582  69.9096972  38.0374988  86.3500622  69.6925009
  39.1947160  90.1640088  71.8414161  39.3713788  91.0858053  71.6535145
  39.9903993  89.8498507  72.2708540  38.4799516  82.2104720  81.7176324
  38.3653031  81.3089977  82.0183423  37.6244034  82.4568416  81.3661140
  45.5591354  90.1522460  83.3163824  45.1155208  89.3658839  82.9984729
  46.2208568  90.3401611  82.6507715  40.3178475  91.6818262  77.8424503
  40.8685900  91.5535325  77.0701497  39.4789951  91.9813151  77.4919396
  47.6572592  90.4325260  81.3445226  47.6391067  91.2534141  80.8525495
  48.5792512  90.3079335  81.5695367  44.1145646  87.9469389  82.1868734
  44.6473983  87.1857678  81.9568042  43.5859727  87.6543041  82.9292889
  35.3501192  85.3762986  70.5350978  36.1876414  85.7859994  70.3184686
  35.5279460  84.4362428  70.5051172  47.2465624  83.0438066  66.2234811
  46.7312247  83.8142671  66.4623198  46.9742932  82.3703203  66.8467872
  45.4798359  87.0755382  69.6987546  44.9519721  86.3408141  69.3860784
  44.9785862  87.8530058  69.4527514  50.4591205  85.2704402  74.8154592
  49.8014879  85.9603664  74.9034721  51.2631604  85.6600834  75.1588579
  43.6250959  84.8935592  62.7022519  42.7178021  84.6624846  62.9013668
  44.1221991  84.0973211  62.8896501  46.5319038  93.6033099  65.6219205
  45.8580737  93.9064796  66.2304163  46.9184860  94.4062180  65.2724662
  45.7477495  81.0998231  75.1116875  44.8300056  81.3213178  74.9538563
  46.1637638  81.1744541  74.2528582  44.8039193  84.9948187  67.2246509
  43.8950412  84.7107220  67.3218979  44.8334276  85.4147266  66.3649816
  50.0358460  88.6054777  70.9937677  49.5820787  87.7645686  71.0502867
  49.4052427  89.2416175  71.3312457  48.4791399  90.4431273  71.9287495
  48.7714374  91.0036330  71.2099861  48.9890020  90.7359834  72.6840654
  35.3727363  82.7153701  71.2061711  35.1751763  82.1223062  70.4812778
  34.8174027  82.4105911  71.9237650  43.3524087  82.6076808  73.3256305
  43.4072696  81.6550644  73.2498781  42.5415289  82.7636247  73.8097603
  44.5015280  86.5356931  64.5634588  44.0634710  85.8192790  64.1040225
  45.2425721  86.7633046  64.0019679  43.4425024  91.2211624  73.0180948
  43.4001203  91.4472471  72.0889480  44.3587723  90.9874999  73.1666749
  46.8890658  81.6895692  79.9161577  47.2440046  81.9167165  80.7756043
  47.5362789  82.0214069  79.2938833  52.6457775  86.8790655  75.6322178
  53.0794281  86.7865944  76.4805232  53.3589355  86.8548155  74.9942194
  41.5590825  88.0974653  72.8142911  42.3531424  87.6024973  72.6125486
  40.8482518  87.5692516  72.4510616  46.3785670  90.4792749  77.1655278
  46.4322692  91.0483685  77.9332994  45.5100451  90.6494634  76.8009316
  39.2584063  80.1810305  78.6479730  39.9307116  79.9727667  77.9992379
  38.4313850  79.9832391  78.2084962  53.5073324  86.9214355  78.1655063
  53.7009214  87.8260166  78.4114338  53.4073942  86.4621774  78.9993648
  48.5688433  87.0721098  83.7395944  48.4173939  86.8431650  82.8226028
  48.5593112  88.0291700  83.7527289  45.3373769  84.6453011  78.7242210
  46.2665829  84.7964170  78.5511178  44.9164799  84.7337032  77.8690857
  44.1362101  88.6703675  76.4940748  43.9973187  88.3022460  77.3666686
  43.3476697  89.1851315  76.3224706  44.7310253  93.7712772  67.8366284
  44.9062009  93.3000815  68.6511907  44.0443041  94.3978538  68.0647545
  45.6867316  88.0485278  73.8829586  45.3517149  88.0086048  74.7787236
  45.1871262  87.3829994  73.4099996  39.6611560  83.4552908  79.4082167
  39.5231358  82.7233147  80.0093706  40.5716484  83.3661808  79.1266355
  42.2893861  83.1672867  78.8965847  42.9993479  82.5266060  78.8552465
  42.2463169  83.4185762  79.8192027  50.2780640  90.1040221  81.8172426
  50.2193186  89.4199441  81.1503009  50.6800158  90.8459211  81.3653052
  41.0022795  80.1538085  80.7161486  40.4660152  79.7028824  81.3683082
  40.4139503  80.2883994  79.9731950  39.2971338  96.9202135  74.6106145
  39.5367937  97.5520659  75.2885163  38.4540535  96.5690175  74.8971504
  50.2798047  88.0679805  80.0486405  49.3924826  87.7305726  80.1712804
  50.8496598  87.3362836  80.2855171  31.9327194  84.4003896  73.3729457
  32.6198234  84.0865626  72.7850472  31.7775323  85.3045261  73.0996708
  43.8099200  92.7281257  77.0147649  43.7369372  93.5336228  77.5266953
  43.3676593  92.9273223  76.1895670  43.5988980  91.9653027  70.5250470
  42.8156502  92.5074707  70.6188695  44.2981725  92.4827007  70.9244711
  46.2697884  92.6268091  79.1705807  46.9825856  93.2615556  79.0981709
  45.7787912  92.7231957  78.3545809  47.9915411  86.5319344  70.7423099
  47.0571689  86.6520806  70.5727803  48.1692079  85.6291810  70.4783109
  41.3209797  90.3762534  79.9911378  42.0219257  91.0099017  80.1440772
  40.8504912  90.7177266  79.2307017  49.4464193  88.7180484  68.2759285
  49.7224037  88.6037079  69.1853159  48.5768692  88.3197969  68.2371458
  49.1211083  82.9307142  77.8163928  48.4682534  83.1783049  77.1616381
  49.4991463  82.1171280  77.4826406  46.0818257  92.9666835  71.9192099
  46.2640652  92.1488491  72.3819851  46.9051243  93.1834527  71.4816989
  46.4160423  91.8935020  69.1807147  46.9448189  91.3827475  68.5677309
  46.6788642  91.5777550  70.0452680  45.1698656  83.6726953  84.3029966
  44.4939293  83.5721082  84.9732341  45.9926290  83.5166167  84.7665963
  36.9177515  89.9098890  76.9242481  37.5030952  89.1642577  77.0570385
  36.7202354  90.2202846  77.8079145  39.7716171  92.9450137  71.9404923
  39.1026546  93.4296265  71.4568963  39.6329040  93.1919357  72.8548302
  31.5095170  82.4804490  75.6446924  31.5479270  81.9468080  76.4384042
  31.0035463  81.9539695  75.0257901  43.9121439  94.9793880  78.5387582
  44.4639747  95.1425502  79.3036667  44.2527633  95.5698318  77.8667606
  38.3638205  79.3992163  82.7882501  38.9910244  79.0169240  83.4020025
  37.5066124  79.1806365  83.1538193  48.7632314  89.8055138  84.3936236
  49.3072218  90.4185096  83.8991191  48.1819158  90.3634716  84.9103249
  35.1403748  81.2068592  68.7200855  35.4357189  80.2979270  68.6667909
  34.2391784  81.1856331  68.3981858  47.0489827  92.9275856  75.5251264
  46.9240966  92.1265596  75.0162209  47.7068918  93.4222049  75.0365234
  49.1124735  90.7284876  77.1530814  48.1655070  90.6090227  77.0809141
  49.4607508  89.8407374  77.2357075  46.1171168  90.5237592  73.3535166
  45.9696131  89.5954300  73.5342736  46.9424662  90.5457683  72.8692241
  49.7205290  91.3466151  74.4400039  50.6451838  91.1409012  74.3024490
  49.5520593  91.0982552  75.3489380  49.5100606  91.8651818  69.7962130
  49.6837484  91.2998241  69.0435983  50.0029497  92.6652713  69.6141620
  35.3277566  83.8766488  77.8625689  34.7831034  84.6526295  77.9945963
  36.2056916  84.2237292  77.7044810  50.4975779  91.1818583  66.8959029
  51.1926683  91.8025276  67.1146343  50.8398929  90.3313934  67.1711406
  36.1143588  83.0036384  80.7555846  35.3725324  83.1519019  81.3420476
  35.7936332  83.2644649  79.8922595  44.0587251  92.5452362  80.5536236
  44.3674377  92.3001509  81.4258936  44.8562733  92.7499000  80.0655106
  44.0807863  94.6990272  72.7841612  43.6412853  94.2066650  73.4774469
  44.8315980  94.1563239  72.5433688  36.5600202  90.8901813  72.7866241
  37.3858222  90.5905584  72.4064884  36.2094254  90.1209435  73.2356029
  41.5281735  90.2428281  74.8563914  40.9061744  89.5798986  74.5566142
  42.1986602  90.2689413  74.1737562  34.7608807  88.8088139  73.7455174
  33.9240715  88.3810313  73.5639175  34.7332452  89.0020582  74.6825965
  52.0861108  89.2651192  83.7297557  51.2956652  89.2475331  83.1902057
  51.8494462  89.8039486  84.4846594  52.2058983  86.1143658  81.0430286
  52.2556988  85.9493666  81.9845809  52.0972906  85.2470917  80.6528167
  41.0895242  88.7932204  68.3322375  41.2383362  89.4767668  67.6789047
  41.8961685  88.7737294  68.8471830  49.4962745  82.0974586  82.3589592
  50.3972608  81.9581051  82.0673590  49.5710720  82.2629041  83.2987770
  53.7077180  88.5340600  81.2872307  53.4161988  88.8970580  82.1235768
  53.0949311  87.8207608  81.1085639  51.9564368  83.6573215  79.7552365
  52.4318490  83.8500861  78.9471217  51.0329933  83.7132400  79.5095749
  38.8447875  84.8197382  69.3383444  38.5993917  83.9159712  69.5363654
  39.0143789  84.8214532  68.3962922  44.5890647  91.2880335  65.8034122
  44.0164614  91.9070522  65.3504594  45.1623441  91.8379696  66.3374044
  47.8087907  91.5717485  66.9342704  48.7418580  91.5063046  67.1375580
  47.7211120  92.4073752  66.4757237  50.4375924  90.8883355  63.8946652
  50.3589555  90.5543219  64.7882410  51.2585590  91.3805123  63.8938124
  44.8576138  86.6758893  84.6050832  45.7779148  86.8537492  84.7990878
  44.8225721  85.7314939  84.4530531  34.0758303  81.8697487  73.5304106
  33.7561088  81.0162795  73.2378480  33.5291731  82.0846065  74.2862074
  37.8538211  84.5859928  77.2473613  38.0724221  85.5177036  77.2661647
  38.2663985  84.2267902  78.0328417  42.7266076  80.1593134  86.6376362
  42.6262803  81.1087491  86.5688453  42.5087618  79.8311373  85.7652432
  33.9446563  85.4900399  75.4997228  33.2510035  85.0754351  74.9867182
  34.6919554  85.5320935  74.9030647  42.5897346  83.5890273  85.4541423
  42.1064428  84.3890633  85.6605312  42.6758285  83.5998218  84.5008867
  35.8583306  85.4218652  73.3763243  35.8353994  85.5206340  72.4245126
  36.1683942  86.2683803  73.6980409  38.5170684  87.4794807  77.4909857
  39.4713937  87.4478750  77.4239789  38.3183207  87.0185431  78.3060083
  39.1070066  86.0495923  80.0580655  39.9262955  86.5440002  80.0815492
  39.3806873  85.1327892  80.0298222  36.8720912  93.0214427  74.5080055
  36.7375380  92.2614828  73.9418053  36.4552975  93.7455327  74.0408844
  48.0079875  88.2051350  63.5156630  48.7115726  88.4101353  64.1314286
  47.2842524  88.7728112  63.7805714  40.0290038  93.9183744  74.7198498
  39.9122422  94.8629176  74.6177188  39.2082485  93.6157305  75.1084297
  49.9166573  88.6433880  65.5655090  50.7512177  88.2115078  65.3832565
  49.7550916  88.4715893  66.4931985  49.5712465  85.1465993  66.9311430
  49.5161269  84.9810264  65.9899874  48.9458520  85.8542026  67.0873619
  34.3604980  80.3834057  80.7572852  35.0063844  79.8733011  81.2460077
  34.1522131  81.1202739  81.3316277  46.8858372  87.4514905  86.2564992
  47.7549532  87.6255557  85.8951627  46.4065124  88.2709322  86.1340722
  41.0544552  94.5712006  77.9354426  41.9571799  94.6035616  78.2520921
  40.8281922  93.6412457  77.9500762  42.8098154  93.3242992  74.5964505
  41.8593785  93.3244854  74.4828877  43.1130641  92.5775727  74.0800539
  58.5450848  99.1603531  75.6610267  59.1829258  99.0410278  74.9573607
  58.4271691 100.1084375  75.7198219  55.3540554  99.1130959  75.5971792
  55.0159066  98.9972024  74.7092327  56.2230322  98.7122124  75.5772798
  51.2127370 100.9666435  71.5868683  50.6492235 100.8756372  70.8184970
  51.0979765 100.1466340  72.0671175  55.8360337 100.2665811  81.5557997
  55.8248978  99.8718609  80.6838501  55.9980977  99.5331883  82.1491769
  48.7591802 102.4617627  74.4252903  49.5513094 102.1208451  74.0099202
  48.9988452 102.5712602  75.3455056  56.7926929 104.6337403  66.8983148
  56.1414908 105.2191483  66.5117161  57.5871291 105.1643598  66.9578185
  50.7182556 101.7226540  67.2970282  51.4913432 101.1755527  67.1583158
  51.0707955 102.5870789  67.5084743  52.5567598 103.0502922  80.5037181
  52.2657464 103.9548553  80.3883848  53.1924583 103.0919450  81.2181251
  53.4823805 100.4279771  77.0938541  54.0787377 100.2035793  76.3795504
  53.5398777  99.6864516  77.6963989  53.0548834  97.8819206  64.9288732
  53.3074354  97.3600727  64.1672195  52.1173393  97.7185352  65.0315415
  58.0992116  96.8854985  72.7363475  58.8855206  96.4674408  72.3853892
  58.3630821  97.7901077  72.9045123  58.2702194 102.3227835  67.4352132
  57.6348027 102.3962461  68.1473037  57.9399600 102.9121434  66.7571211
  63.5000544  96.8230218  73.6396454  64.2325715  96.2529435  73.8734283
  62.7439899  96.4351818  74.0802959  52.7745122  99.7847312  67.1313107
  52.6581380  99.1092216  67.7994191  52.8847382  99.2979686  66.3145260
  55.1176663  99.2457459  70.8359796  54.7534870  98.7188080  71.5472718
  55.9743779  98.8555928  70.6626281  61.0225964  90.5351792  78.0991062
  60.6909289  91.4047203  77.8752277  60.4271577  90.2188076  78.7785093
  54.7582150  94.2747359  65.8321145  54.9256553  95.1427595  66.1991616
  54.5679319  94.4374641  64.9082434  57.5157483 102.7364338  77.4986975
  57.2158207 103.6389377  77.3902782  57.1708543 102.4696521  78.3508128
  50.9669965  99.1878135  73.5323679  50.0420461  99.0554349  73.7401371
  51.2154378  99.9672354  74.0293622  60.9154627  95.2546878  75.1784412
  60.0071505  95.1862286  74.8843173  60.8642223  95.7318823  76.0066238
  54.7371371  96.7305016  66.8167811  54.6170996  97.1762067  67.6553292
  54.0423959  97.0790334  66.2581350  48.3278776  98.8311408  74.3667468
  48.4571157  99.0845887  75.2806880  47.6476227  99.4239116  74.0472124
  52.4978263 109.5008658  70.4657943  52.4202293 110.4516483  70.5446423
  51.8939907 109.1554531  71.1232869  54.9895493  96.6736524  83.1219310
  54.2128827  97.2330444  83.1122174  55.6286056  97.1593307  83.6434180
  62.7816274  93.4563316  76.9562286  62.1390654  93.7495850  76.3102081
  62.2771202  93.3416237  77.7615483  60.4356437  97.2026490  67.6448145
  61.3474293  97.4353876  67.4695843  59.9266084  97.7863534  67.0823224
  53.2441865  99.4821977  82.6837277  53.9856550 100.0207021  82.4072100
  52.5378851 100.1088266  82.8408828  58.7197205 101.6251117  81.2809438
  59.1280561 101.1833528  80.5364070  57.9974466 101.0503745  81.5343631
  55.0728275  96.5623724  78.6542995  55.9189470  96.9863138  78.7977644
  55.0126913  95.9057349  79.3481558  59.0426020 102.1852308  75.0361727
  58.4134882 102.3498022  74.3337795  58.6551682 102.5993918  75.8072691
  62.9215251 103.1206746  72.3906091  62.2366290 103.5005647  71.8403124
  63.0059101 103.7302073  73.1238038  58.2227720  94.2228093  80.3124169
  57.9788652  94.9770153  79.7758444  58.4987651  94.6013440  81.1471416
  60.1766183 100.7666705  78.9901434  60.3883078 101.4098465  78.3135815
  60.1295931  99.9329022  78.5223364  57.7792412  93.3784526  75.8938006
  56.9176891  93.6765779  76.1854744  57.8054847  93.5954925  74.9619039
  54.5953981 101.9226716  72.3011812  55.0592327 102.2014419  71.5116435
  54.3310780 101.0210161  72.1184903  51.4878063 101.4698198  75.2391575
  52.0579420 101.8985466  74.6009060  52.0786174 101.1880782  75.9375761
  53.5322868  98.0449869  69.1101377  54.2346911  98.4970912  69.5775304
  53.2003496  97.4033687  69.7381270  51.9803229  96.6361625  83.4852587
  51.3501890  97.3177906  83.7187983  51.8739317  96.5244707  82.5405725
  47.2748201  96.3033421  74.4118511  46.4847255  96.5590950  73.9358621
  47.7659449  97.1181759  74.5170551  61.2912011 103.6438660  77.1623792
  62.1129455 103.2418848  76.8806473  61.2874414 103.5406895  78.1139907
  49.2262947  96.6678000  71.3701987  48.4294110  96.7796695  71.8885483
  48.9988539  97.0064653  70.5042878  55.0568614 103.1922704  79.3184502
  55.1213047 103.6543111  80.1542674  54.3479538 102.5620069  79.4466812
  45.5585904  96.5563912  76.8433502  45.8093943  97.4410922  77.1091077
  46.0945453  96.3768513  76.0708593  69.3818004  99.9877409  73.5108763
  68.6281712  99.4184807  73.3552767  69.5165545  99.9540073  74.4579398
  54.7716632 104.8590811  69.1863482  54.6362307 105.7042347  69.6148330
  55.3126445 105.0610089  68.4229416  51.2583972  90.9382391  85.8477838
  50.8650917  90.3848590  86.5225482  52.0750112  91.2492969  86.2384355
  48.2246030 102.3766249  69.7591407  48.7370550 103.1709499  69.9096972
  48.8768742 101.6792540  69.6925009  50.0340914 105.4932005  71.8414161
  50.2107543 106.4149970  71.6535145  50.8297748 105.1790425  72.2708540
  54.1751933  92.3540270  83.4398094  54.9161646  92.9547423  83.3602557
  54.4069856  91.6117908  82.8816137  49.3193271  97.5396637  81.7176324
  49.2046786  96.6381895  82.0183423  48.4637789  97.7860334  81.3661140
  56.3985109 105.4814378  83.3163824  55.9548963 104.6950756  82.9984729
  57.0602322 105.6693528  82.6507715  51.1572230 107.0110179  77.8424503
  51.7079655 106.8827243  77.0701497  50.3183706 107.3105068  77.4919396
  58.4966347 105.7617178  81.3445226  58.4784822 106.5826059  80.8525495
  59.4186267 105.6371253  81.5695367  54.9539401 103.2761307  82.1868734
  55.4867738 102.5149595  81.9568042  54.4253482 102.9834959  82.9292889
  46.1894946 100.7054904  70.5350978  47.0270168 101.1151912  70.3184686
  46.3673214  99.7654346  70.5051172  58.0859378  98.3729984  66.2234811
  57.5706002  99.1434589  66.4623198  57.8136687  97.6995120  66.8467872
  55.6706489  93.2179685  71.2820049  54.8148086  92.8286535  71.1025688
  56.0833441  93.2971646  70.4219835  57.2005636  90.7526028  75.6811609
  56.6970432  90.7156163  74.8679414  57.4936243  91.6618771  75.7408266
  53.4448522  90.8364758  74.6877791  54.3101519  90.6407567  74.3283680
  53.5126031  90.6075110  75.6147148  63.0593653 101.1262339  68.1587984
  62.2823095 100.7873498  67.7143147  63.7385134 101.1314962  67.4842949
  57.8745682  96.2457076  68.0494592  57.5695817  96.5603225  68.9004735
  58.8276124  96.3238496  68.0921925  56.3192113 102.4047300  69.6987546
  55.7913475 101.6700059  69.3860784  55.8179616 103.1821976  69.4527514
  61.2984959 100.5996320  74.8154592  60.6408634 101.2895581  74.9034721
  62.1025359 100.9892752  75.1588579  51.0510841  93.0666966  72.0594158
  51.6254593  92.8442147  71.3267351  51.6381823  93.1355660  72.8122759
  60.1090418  98.9540693  72.8658534  60.6222300  99.5870685  73.3680244
  60.7591642  98.3541888  72.5001894  51.3780428  95.0971427  66.0790043
  50.5417740  95.4346113  66.3999318  51.2385198  94.9620407  65.1417180
  53.3533509  89.9408215  70.7869227  52.6997921  89.6257232  70.1625842
  53.3113983  89.3183955  71.5129050  54.4644714 100.2227510  62.7022519
  53.5571775  99.9916763  62.9013668  54.9615746  99.4265129  62.8896501
  57.3712793 108.9325017  65.6219205  56.6974491 109.2356714  66.2304163
  57.7578614 109.7354097  65.2724662  56.5871249  96.4290148  75.1116875
  55.6693811  96.6505095  74.9538563  57.0031393  96.5036459  74.2528582
  57.3706297  97.8281564  70.2419555  58.1178116  98.3402961  69.9326677
  57.6397886  97.5065617  71.1023949  55.6432947 100.3240105  67.2246509
  54.7344166 100.0399138  67.3218979  55.6728031 100.7439183  66.3649816
  60.8752214 103.9346694  70.9937677  60.4214542 103.0937604  71.0502867
  60.2446181 104.5708093  71.3312457  59.8185134  94.8638680  72.2238344
  59.0807891  94.3516066  72.5548587  60.0711908  94.4239062  71.4121621
  59.3185154 105.7723191  71.9287495  59.6108128 106.3328248  71.2099861
  59.8283774 106.0651752  72.6840654  46.2121117  98.0445619  71.2061711
  46.0145517  97.4514980  70.4812778  45.6567781  97.7397829  71.9237650
  54.1917841  97.9368725  73.3256305  54.2466451  96.9842562  73.2498781
  53.3809043  98.0928164  73.8097603  55.3409035 101.8648848  64.5634588
  54.9028465 101.1484707  64.1040225  56.0819476 102.0924963  64.0019679
  52.1310201  96.5545785  71.0846683  51.3178067  96.8539956  71.4911876
  52.6269195  96.1601474  71.8021166  54.2818779 106.5503542  73.0180948
  54.2394958 106.7764388  72.0889480  55.1981478 106.3166917  73.1666749
  57.7284413  97.0187610  79.9161577  58.0833800  97.2459083  80.7756043
  58.3756544  97.3505986  79.2938833  63.4582150 100.1406045  70.6210906
  63.3200048 100.3307641  69.6932096  63.1018368 100.9025428  71.0778958
  51.6224276  94.1264141  76.7007918  52.2623655  93.9852900  76.0030882
  50.7901806  93.8398654  76.3246520  63.4851529 102.2082572  75.6322178
  63.9188036 102.1157862  76.4805232  64.1983110 102.1840073  74.9942194
  52.3984580 103.4266571  72.8142911  53.1925178 102.9316891  72.6125486
  51.6876272 102.8984434  72.4510616  57.2179424 105.8084667  77.1655278
  57.2716446 106.3775603  77.9332994  56.3494206 105.9786552  76.8009316
  48.7067343  97.5709653  68.8902664  47.7764931  97.5094108  69.1072626
  48.8024815  97.0485605  68.0939305  48.6252892  94.0964466  71.4780905
  48.8859710  95.0109799  71.3690066  49.4470065  93.6288908  71.6277518
  50.0977818  95.5102223  78.6479730  50.7700871  95.3019585  77.9992379
  49.2707604  95.3124309  78.2084962  64.3467079 102.2506273  78.1655063
  64.5402969 103.1552084  78.4114338  64.2467697 101.7913692  78.9993648
  56.0003390  92.1364164  80.6645391  55.3531305  92.8354113  80.5709867
  56.7704405  92.5700308  81.0321639  59.4082187 102.4013016  83.7395944
  59.2567694 102.1723568  82.8226028  59.3986867 103.3583617  83.7527289
  56.1767524  99.9744929  78.7242210  57.1059584 100.1256088  78.5511178
  55.7558554 100.0628949  77.8690857  54.9755856 103.9995593  76.4940748
  54.8366941 103.6314377  77.3666686  54.1870452 104.5143232  76.3224706
  55.5704008 109.1004689  67.8366284  55.7455763 108.6292733  68.6511907
  54.8836796 109.7270456  68.0647545  56.5261071 103.3777196  73.8829586
  56.1910903 103.3377966  74.7787236  56.0265017 102.7121912  73.4099996
  50.5005315  98.7844826  79.4082167  50.3625113  98.0525065  80.0093706
  51.4110238  98.6953726  79.1266355  59.4620262 100.7233230  64.1566645
  58.8449433  99.9980058  64.0599698  58.9936751 101.4842590  63.8133720
  53.1287615  98.4964785  78.8965847  53.8387234  97.8557977  78.8552465
  53.0856924  98.7477680  79.8192027  61.1174394 105.4332138  81.8172426
  61.0586940 104.7491359  81.1503009  61.5193913 106.1751128  81.3653052
  51.8416549  95.4830003  80.7161486  51.3053906  95.0320741  81.3683082
  51.2533258  95.6175912  79.9731950  50.1365093 112.2494052  74.6106145
  50.3761691 112.8812576  75.2885163  49.2934289 111.8982092  74.8971504
  51.2518808  94.9418654  63.2787950  50.3748275  94.8207455  62.9150196
  51.7276561  94.1504733  63.0266838  61.1191801 103.3971722  80.0486405
  60.2318580 103.0597644  80.1712804  61.6890352 102.6654754  80.2855171
  42.7720949  99.7295814  73.3729457  43.4591988  99.4157544  72.7850472
  42.6169077 100.6337179  73.0996708  47.5755671  94.6186011  77.8014481
  47.4913859  94.0111680  77.0664890  46.7538377  95.1095029  77.8023977
  54.6492955 108.0573175  77.0147649  54.5763126 108.8628146  77.5266953
  54.2070348 108.2565140  76.1895670  54.4382734 107.2944945  70.5250470
  53.6550256 107.8366625  70.6188695  55.1375480 107.8118924  70.9244711
  57.7479385  93.1039574  73.1684676  58.2448084  92.3509536  72.8485746
  56.9766366  93.1403891  72.6027885  65.6009142  98.8079940  74.8102967
  65.5899018  99.6904655  74.4396900  64.7326521  98.4551491  74.6157504
  57.1091638 107.9560009  79.1705807  57.8219611 108.5907474  79.0981709
  56.6181667 108.0523875  78.3545809  58.8309165 101.8611261  70.7423099
  57.8965444 101.9812724  70.5727803  59.0085834 100.9583728  70.4783109
  54.3314353  95.2456957  72.8956360  53.9612141  94.6927998  73.5837266
  54.8273446  94.6415091  72.3431360  62.2181717  97.7028581  71.2773133
  62.6842169  98.5356572  71.2033436  62.6689217  97.2373562  71.9818392
  52.1603552 105.7054452  79.9911378  52.8613011 106.3390935  80.1440772
  51.6898667 106.0469184  79.2307017  60.2857948 104.0472402  68.2759285
  60.5617792 103.9328997  69.1853159  59.4162446 103.6489887  68.2371458
  60.1898379  90.0709168  75.3164034  59.2761459  90.3013394  75.4846241
  60.6191481  90.1547612  76.1678067  59.9604838  98.2599060  77.8163928
  59.3076288  98.5074967  77.1616381  60.3385218  97.4463198  77.4826406
  56.9212012 108.2958753  71.9192099  57.1034406 107.4780409  72.3819851
  57.7444998 108.5126445  71.4816989  57.2554177 107.2226938  69.1807147
  57.7841944 106.7119392  68.5677309  57.5182397 106.9069468  70.0452680
  56.0092411  99.0018871  84.3029966  55.3333048  98.9013000  84.9732341
  56.8320045  98.8458084  84.7665963  47.7571270 105.2390807  76.9242481
  48.3424707 104.4934495  77.0570385  47.5596108 105.5494764  77.8079145
  50.6109925 108.2742055  71.9404923  49.9420300 108.7588182  71.4568963
  50.4722795 108.5211275  72.8548302  42.3488925  97.8096407  75.6446924
  42.3873024  97.2759998  76.4384042  41.8429217  97.2831613  75.0257901
  54.7515194 110.3085798  78.5387582  55.3033502 110.4717420  79.3036667
  55.0921387 110.8990236  77.8667606  49.7279687  92.6560948  79.1409466
  49.7921013  93.5175779  78.7286864  49.6646807  92.0434950  78.4081825
  49.2031959  94.7284080  82.7882501  49.8303998  94.3461158  83.4020025
  48.3459878  94.5098282  83.1538193  59.6026068 105.1347056  84.3936236
  60.1465972 105.7477014  83.8991191  59.0212913 105.6926634  84.9103249
  45.9797502  96.5360510  68.7200855  46.2750943  95.6271188  68.6667909
  45.0785538  96.5148249  68.3981858  57.8883581 108.2567774  75.5251264
  57.7634720 107.4557513  75.0162209  58.5462672 108.7513967  75.0365234
  49.5091749  94.6116506  74.7028404  48.7878335  95.2252474  74.5635877
  50.2985005  95.1474271  74.6245050  59.9518489 106.0576794  77.1530814
  59.0048825 105.9382145  77.0809141  60.3001262 105.1699292  77.2357075
  52.3118063  91.9470933  80.9769056  52.8352465  92.1933229  81.7395365
  52.0930396  92.7790967  80.5572193  47.7085344  94.2174607  68.8440180
  47.3798050  93.3371986  68.6615286  48.0624715  94.1622276  69.7316570
  56.9564923 105.8529510  73.3535166  56.8089885 104.9246217  73.5342736
  57.7818416 105.8749601  72.8692241  50.8227167  94.5047577  69.2115658
  51.1623239  95.0333498  68.4894267  51.2699287  94.8427983  69.9874225
  60.5599045 106.6758069  74.4400039  61.4845592 106.4700930  74.3024490
  60.3914348 106.4274470  75.3489380  53.5170608  92.8884628  78.6618726
  53.1767428  92.0892441  79.0639406  52.8109614  93.1886339  78.0895559
  54.1687080  89.9733940  77.1146049  54.9913149  89.4994418  76.9924940
  54.4125143  90.7524424  77.6144736  52.8095314  93.0022199  67.4108951
  53.5303677  93.3803451  66.9072668  52.1860618  93.7211075  67.5143929
  56.9526437  93.7067348  68.3467283  57.1690051  94.5891985  68.0456111
  56.4720504  93.3153561  67.6172925  51.6925658  96.6653061  74.9238028
  51.5470239  96.9793364  75.8162309  51.2150862  97.2837961  74.3708927
  53.5522041  93.6555609  74.9718917  53.5383610  92.7596702  74.6351215
  54.2694469  93.6626273  75.6057203  55.4048172  94.0892949  77.0172045
  55.1465950  95.0110020  77.0156375  54.8733212  93.6923384  77.7072509
  60.3494361 107.1943736  69.7962130  60.5231238 106.6290159  69.0435983
  60.8423252 107.9944631  69.6141620  46.1671321  99.2058405  77.8625689
  45.6224789  99.9818213  77.9945963  47.0450670  99.5529210  77.7044810
  52.9558937  92.5369989  70.2406488  53.0774848  91.6086635  70.4397375
  52.6660980  92.5508675  69.3284803  55.8250128  90.2224900  73.3773207
  55.8471824  90.2864233  72.4225187  56.2418187  89.3829408  73.5713714
  66.2033752  99.9580159  71.4152430  66.6464898  99.2087484  71.0171553
  65.3260262  99.9490295  71.0326162  61.3369533 106.5110501  66.8959029
  62.0320438 107.1317193  67.1146343  61.6792683 105.6605852  67.1711406
  46.9537342  98.3328301  80.7555846  46.2119078  98.4810937  81.3420476
  46.6330087  98.5936567  79.8922595  63.2360956 103.9610206  68.4246359
  63.7612280 104.2997479  67.6995679  63.1483309 103.0257221  68.2409494
  54.8981005 107.8744280  80.5536236  55.2068131 107.6293426  81.4258936
  55.6956487 108.0790918  80.0655106  54.9201617 110.0282189  72.7841612
  54.4806607 109.5358568  73.4774469  55.6709734 109.4855157  72.5433688
  47.3993956 106.2193730  72.7866241  48.2251976 105.9197502  72.4064884
  47.0488008 105.4501353  73.2356029  52.3675489 105.5720198  74.8563914
  51.7455499 104.9090903  74.5566142  53.0380356 105.5981330  74.1737562
  45.6002561 104.1380057  73.7455174  44.7634469 103.7102231  73.5639175
  45.5726207 104.3312500  74.6825965  52.4400017  94.0501986  84.4496420
  52.4888172  94.9264109  84.0674190  52.9822531  93.5079379  83.8768063
  62.9254862 104.5943110  83.7297557  62.1350406 104.5767249  83.1902057
  62.6888217 105.1331403  84.4846594  63.0452737 101.4435576  81.0430286
  63.0950742 101.2785584  81.9845809  62.9366661 100.5762835  80.6528167
  51.9288996 104.1224122  68.3322375  52.0777117 104.8059586  67.6789047
  52.7355440 104.1029212  68.8471830  60.3356500  97.4266504  82.3589592
  61.2366363  97.2872969  82.0673590  60.4104474  97.5920959  83.2987770
  54.6699305  94.8033359  81.2042779  53.8002615  95.0966925  80.9325367
  54.9058786  95.3873804  81.9250042  64.5470934 103.8632518  81.2872307
  64.2555743 104.2262498  82.1235768  63.9343066 103.1499526  81.1085639
  65.7466617 101.4285397  73.8074878  66.5813508 101.8675201  73.9712438
  65.8825745 100.9524051  72.9883123  62.7958123  98.9865132  79.7552365
  63.2712244  99.1792779  78.9471217  61.8723688  99.0424318  79.5095749
  49.6841629 100.1489299  69.3383444  49.4387671  99.2451629  69.5363654
  49.8537544 100.1506450  68.3962922  57.3738339  91.0212976  78.7208199
  57.8920283  91.7574003  78.3954688  57.0193472  91.3276969  79.5554958
  48.9537277  95.8817657  66.8369605  48.2606522  95.9562012  66.1809641
  48.7089029  95.1178001  67.3591122  55.4284402 106.6172252  65.8034122
  54.8558369 107.2362439  65.3504594  56.0017195 107.1671614  66.3374044
  61.4959792  95.8630892  77.9880671  62.4477214  95.9628990  78.0092895
  61.3263242  95.0709161  78.4978755  59.5174171  92.9486476  78.1740072
  58.9224103  93.2291488  77.4786560  59.2323868  93.4380376  78.9456813
  58.6481661 106.9009402  66.9342704  59.5812335 106.8354964  67.1375580
  58.5604874 107.7365669  66.4757237  61.2769678 106.2175273  63.8946652
  61.1983310 105.8835136  64.7882410  62.0979345 106.7097041  63.8938124
  63.9747869  99.0837012  77.1022971  63.9424189  98.1453013  77.2882654
  64.5848493  99.1621049  76.3688795  55.8131200  97.9533065  63.1450175
  56.7590305  97.8239273  63.2138593  55.4345445  97.2147727  63.6219603
  64.1242358  95.8748055  77.1481254  63.6081406  95.0906512  76.9611183
  65.0082306  95.5466772  77.3127773  69.7924419 100.1453019  76.2429007
  70.5227808  99.8838307  76.8036711  69.1831365  99.4081741  76.2831075
  67.8739716  98.2860881  76.8403459  67.1472880  98.1516846  76.2319950
  67.4587003  98.5937710  77.6460177  55.6969893 102.0050811  84.6050832
  56.6172902 102.1829410  84.7990878  55.6619476 101.0606856  84.4530531
  53.9974117  95.8783041  63.0805060  53.0905573  95.5816154  63.1567773
  54.2750098  95.5812859  62.2139346  44.9152058  97.1989405  73.5304106
  44.5954842  96.3454713  73.2378480  44.3685486  97.4137983  74.2862074
  48.6931965  99.9151846  77.2473613  48.9117975 100.8468954  77.2661647
  49.1057739  99.5559820  78.0328417  53.5659831  95.4885052  86.6376362
  53.4656557  96.4379408  86.5688453  53.3481373  95.1603290  85.7652432
  52.7672902  92.7369977  63.2217039  53.6292066  93.0624875  63.4812856
  52.9523246  91.9501472  62.7090105  44.7840318 100.8192316  75.4997228
  44.0903789 100.4046269  74.9867182  45.5313309 100.8612853  74.9030647
  60.9205538  91.6098503  70.3652262  60.3404207  92.2683307  69.9830314
  60.6541471  90.7875848  69.9539680  59.3709105  91.0103561  72.5673582
  59.8708883  91.1220095  71.7587901  60.0144713  90.7064614  73.2074391
  53.4291101  98.9182190  85.4541423  52.9458182  99.7182550  85.6605312
  53.5152040  98.9290135  84.5008867  46.6977060 100.7510570  73.3763243
  46.6747748 100.8498257  72.4245126  47.0077697 101.5975721  73.6980409
  49.3564438 102.8086725  77.4909857  50.3107692 102.7770667  77.4239789
  49.1576962 102.3477349  78.3060083  49.9463820 101.3787841  80.0580655
  50.7656709 101.8731920  80.0815492  50.2200628 100.4619809  80.0298222
  59.7030416  93.7698593  69.4208610  58.8156271  94.0548244  69.2028805
  60.1184406  93.6092357  68.5735887  63.0544953  93.7945114  73.1362950
  63.8305343  94.2841567  73.4087566  62.3293087  94.2203169  73.5934819
  65.4917511  94.5072734  74.1936890  66.0862002  94.2668470  73.4830198
  65.5644095  93.7879864  74.8210426  47.7114667 108.3506345  74.5080055
  47.5769135 107.5906745  73.9418053  47.2946729 109.0747244  74.0408844
  58.8473630 103.5343268  63.5156630  59.5509480 103.7393271  64.1314286
  58.1236279 104.1020030  63.7805714  59.6771440  99.2853129  69.6358900
  59.6206642  99.7421681  68.7966533  60.2299783  98.5243814  69.4581743
  63.4876246  95.0742861  70.4609020  63.2313180  94.6739497  71.2917228
  62.8629114  95.7886655  70.3359159  67.7988584  97.8138934  72.9680311
  67.2388142  97.8832124  73.7411873  67.1932087  97.6379919  72.2479808
  50.8683793 109.2475662  74.7198498  50.7516177 110.1921094  74.6177188
  50.0476239 108.9449223  75.1084297  60.7560327 103.9725797  65.5655090
  61.5905931 103.5406996  65.3832565  60.5944670 103.8007811  66.4931985
  60.4106220 100.4757911  66.9311430  60.3555023 100.3102182  65.9899874
  59.7852275 101.1833944  67.0873619  45.1998734  95.7125975  80.7572852
  45.8457598  95.2024929  81.2460077  44.9915886  96.4494657  81.3316277
  57.7252127 102.7806822  86.2564992  58.5943286 102.9547475  85.8951627
  57.2458878 103.6001239  86.1340722  51.8938307 109.9003923  77.9354426
  52.7965554 109.9327534  78.2520921  51.6675677 108.9704374  77.9500762
  53.6491909 108.6534910  74.5964505  52.6987540 108.6536772  74.4828877
  53.9524395 107.9067645  74.0800539  49.5396225  92.8593592  84.8547866
  50.4027687  92.5030397  85.0651191  48.9661636  92.5207487  85.5423270
  69.3844602 114.4895448  75.6610267  70.0223012 114.3702196  74.9573607
  69.2665445 115.4376292  75.7198219  66.1934309 114.4422877  75.5971792
  65.8552820 114.3263941  74.7092327  67.0624077 114.0414042  75.5772798
  62.0521124 116.2958353  71.5868683  61.4885990 116.2048290  70.8184970
  61.9373519 115.4758257  72.0671175  66.6754092 115.5957728  81.5557997
  66.6642732 115.2010526  80.6838501  66.8374731 114.8623801  82.1491769
  59.5985556 117.7909545  74.4252903  60.3906848 117.4500369  74.0099202
  59.8382206 117.9004520  75.3455056  67.6320683 119.9629321  66.8983148
  66.9808663 120.5483401  66.5117161  68.4265046 120.4935516  66.9578185
  61.5576310 117.0518458  67.2970282  62.3307186 116.5047445  67.1583158
  61.9101709 117.9162707  67.5084743  63.3961353 118.3794840  80.5037181
  63.1051219 119.2840471  80.3883848  64.0318337 118.4211368  81.2181251
  64.3217560 115.7571689  77.0938541  64.9181132 115.5327711  76.3795504
  64.3792531 115.0156434  77.6963989  63.8942588 113.2111124  64.9288732
  64.1468109 112.6892645  64.1672195  62.9567147 113.0477269  65.0315415
  68.9385871 112.2146902  72.7363475  69.7248960 111.7966325  72.3853892
  69.2024575 113.1192994  72.9045123  69.1095948 117.6519753  67.4352132
  68.4741781 117.7254379  68.1473037  68.7793355 118.2413351  66.7571211
  74.3394298 112.1522135  73.6396454  75.0719470 111.5821352  73.8734283
  73.5833654 111.7643736  74.0802959  63.6138877 115.1139230  67.1313107
  63.4975135 114.4384133  67.7994191  63.7241137 114.6271604  66.3145260
  65.9570418 114.5749377  70.8359796  65.5928625 114.0479998  71.5472718
  66.8137534 114.1847846  70.6626281  71.8619718 105.8643710  78.0991062
  71.5303043 106.7339121  77.8752277  71.2665332 105.5479994  78.7785093
  65.5975905 109.6039277  65.8321145  65.7650307 110.4719513  66.1991616
  65.4073074 109.7666558  64.9082434  68.3551238 118.0656256  77.4986975
  68.0551961 118.9681294  77.3902782  68.0102297 117.7988439  78.3508128
  61.8063719 114.5170052  73.5323679  60.8814216 114.3846266  73.7401371
  62.0548133 115.2964272  74.0293622  71.7548382 110.5838796  75.1784412
  70.8465259 110.5154204  74.8843173  71.7035977 111.0610741  76.0066238
  65.5765126 112.0596934  66.8167811  65.4564751 112.5053985  67.6553292
  64.8817714 112.4082252  66.2581350  59.1672530 114.1603326  74.3667468
  59.2964912 114.4137805  75.2806880  58.4869982 114.7531034  74.0472124
  63.3372018 124.8300576  70.4657943  63.2596047 125.7808401  70.5446423
  62.7333661 124.4846448  71.1232869  65.8289247 112.0028441  83.1219310
  65.0522582 112.5622361  83.1122174  66.4679811 112.4885224  83.6434180
  73.6210028 108.7855234  76.9562286  72.9784408 109.0787767  76.3102081
  73.1164957 108.6708154  77.7615483  71.2750192 112.5318407  67.6448145
  72.1868048 112.7645794  67.4695843  70.7659839 113.1155452  67.0823224
  64.0835620 114.8113895  82.6837277  64.8250304 115.3498939  82.4072100
  63.3772605 115.4380183  82.8408828  69.5590959 116.9543035  81.2809438
  69.9674315 116.5125446  80.5364070  68.8368221 116.3795663  81.5343631
  65.9122029 111.8915642  78.6542995  66.7583225 112.3155055  78.7977644
  65.8520667 111.2349266  79.3481558  69.8819774 117.5144226  75.0361727
  69.2528637 117.6789940  74.3337795  69.4945436 117.9285835  75.8072691
  73.7609006 118.4498664  72.3906091  73.0760044 118.8297565  71.8403124
  73.8452855 119.0593990  73.1238038  69.0621475 109.5520010  80.3124169
  68.8182407 110.3062071  79.7758444  69.3381405 109.9305358  81.1471416
  71.0159938 116.0958623  78.9901434  71.2276833 116.7390383  78.3135815
  70.9689686 115.2620939  78.5223364  68.6186167 108.7076443  75.8938006
  67.7570646 109.0057697  76.1854744  68.6448601 108.9246842  74.9619039
  65.4347736 117.2518634  72.3011812  65.8986081 117.5306337  71.5116435
  65.1704534 116.3502078  72.1184903  62.3271817 116.7990115  75.2391575
  62.8973174 117.2277384  74.6009060  62.9179929 116.5172700  75.9375761
  64.3716622 113.3741786  69.1101377  65.0740665 113.8262830  69.5775304
  64.0397251 112.7325605  69.7381270  62.8196984 111.9653543  83.4852587
  62.1895644 112.6469824  83.7187983  62.7133071 111.8536624  82.5405725
  58.1141956 111.6325339  74.4118511  57.3241010 111.8882867  73.9358621
  58.6053203 112.4473677  74.5170551  72.1305766 118.9730578  77.1623792
  72.9523209 118.5710765  76.8806473  72.1268168 118.8698812  78.1139907
  60.0656701 111.9969918  71.3701987  59.2687865 112.1088612  71.8885483
  59.8382294 112.3356570  70.5042878  65.8962369 118.5214621  79.3184502
  65.9606801 118.9835029  80.1542674  65.1873293 117.8911986  79.4466812
  56.3979659 111.8855829  76.8433502  56.6487697 112.7702839  77.1091077
  56.9339207 111.7060431  76.0708593  80.2211759 115.3169327  73.5108763
  79.4675467 114.7476725  73.3552767  80.3559300 115.2831991  74.4579398
  65.6110387 120.1882729  69.1863482  65.4756061 121.0334265  69.6148330
  66.1520199 120.3902006  68.4229416  62.0977726 106.2674309  85.8477838
  61.7044672 105.7140507  86.5225482  62.9143867 106.5784887  86.2384355
  59.0639784 117.7058167  69.7591407  59.5764305 118.5001417  69.9096972
  59.7162497 117.0084457  69.6925009  60.8734669 120.8223923  71.8414161
  61.0501297 121.7441888  71.6535145  61.6691502 120.5082342  72.2708540
  65.0145687 107.6832188  83.4398094  65.7555401 108.2839341  83.3602557
  65.2463610 106.9409826  82.8816137  60.1587025 112.8688555  81.7176324
  60.0440540 111.9673812  82.0183423  59.3031543 113.1152252  81.3661140
  67.2378863 120.8106295  83.3163824  66.7942717 120.0242674  82.9984729
  67.8996077 120.9985446  82.6507715  61.9965984 122.3402097  77.8424503
  62.5473409 122.2119160  77.0701497  61.1577460 122.6396986  77.4919396
  69.3360101 121.0909095  81.3445226  69.3178576 121.9117976  80.8525495
  70.2580021 120.9663171  81.5695367  65.7933155 118.6053225  82.1868734
  66.3261492 117.8441513  81.9568042  65.2647236 118.3126877  82.9292889
  68.9602850 103.7113291  77.7162376  68.6167120 104.6014932  77.6401486
  69.3281813 103.5214948  76.8531961  57.0288701 116.0346821  70.5350978
  57.8663923 116.4443830  70.3184686  57.2066969 115.0946263  70.5051172
  68.9253133 113.7021902  66.2234811  68.4099756 114.4726506  66.4623198
  68.6530441 113.0287038  66.8467872  66.5100244 108.5471603  71.2820049
  65.6541840 108.1578453  71.1025688  66.9227196 108.6263563  70.4219835
  68.0399391 106.0817946  75.6811609  67.5364186 106.0448081  74.8679414
  68.3329997 106.9910689  75.7408266  64.2842276 106.1656676  74.6877791
  65.1495273 105.9699484  74.3283680  64.3519785 105.9367027  75.6147148
  73.8987407 116.4554256  68.1587984  73.1216850 116.1165416  67.7143147
  74.5778888 116.4606880  67.4842949  68.7139436 111.5748994  68.0494592
  68.4089572 111.8895143  68.9004735  69.6669878 111.6530414  68.0921925
  67.1585868 117.7339217  69.6987546  66.6307230 116.9991977  69.3860784
  66.6573371 118.5113894  69.4527514  72.1378714 115.9288238  74.8154592
  71.4802388 116.6187499  74.9034721  72.9419113 116.3184670  75.1588579
  61.8904596 108.3958884  72.0594158  62.4648347 108.1734065  71.3267351
  62.4775578 108.4647578  72.8122759  70.9484173 114.2832610  72.8658534
  71.4616055 114.9162602  73.3680244  71.5985397 113.6833806  72.5001894
  62.2174183 110.4263345  66.0790043  61.3811495 110.7638031  66.3999318
  62.0778952 110.2912324  65.1417180  64.1927263 105.2700132  70.7869227
  63.5391676 104.9549150  70.1625842  64.1507737 104.6475873  71.5129050
  65.3038468 115.5519428  62.7022519  64.3965530 115.3208681  62.9013668
  65.8009500 114.7557047  62.8896501  68.2106547 124.2616935  65.6219205
  67.5368246 124.5648631  66.2304163  68.5972369 125.0646015  65.2724662
  67.4265004 111.7582066  75.1116875  66.5087565 111.9797013  74.9538563
  67.8425147 111.8328376  74.2528582  68.2100051 113.1573482  70.2419555
  68.9571870 113.6694879  69.9326677  68.4791641 112.8357534  71.1023949
  66.4826702 115.6532022  67.2246509  65.5737921 115.3691055  67.3218979
  66.5121785 116.0731101  66.3649816  71.7145969 119.2638612  70.9937677
  71.2608296 118.4229522  71.0502867  71.0839936 119.9000010  71.3312457
  70.6578889 110.1930598  72.2238344  69.9201645 109.6807984  72.5548587
  70.9105662 109.7530980  71.4121621  70.1578908 121.1015109  71.9287495
  70.4501883 121.6620166  71.2099861  70.6677529 121.3943670  72.6840654
  70.7590516 102.9706850  72.8180114  71.0649393 102.1104213  72.5306029
  71.4843121 103.5624470  72.6179107  57.0514872 113.3737537  71.2061711
  56.8539272 112.7806897  70.4812778  56.4961536 113.0689747  71.9237650
  65.0311596 113.2660643  73.3256305  65.0860205 112.3134479  73.2498781
  64.2202798 113.4220082  73.8097603  66.1802789 117.1940766  64.5634588
  65.7422219 116.4776625  64.1040225  66.9213230 117.4216881  64.0019679
  62.9703956 111.8837703  71.0846683  62.1571821 112.1831873  71.4911876
  63.4662950 111.4893392  71.8021166  65.1212533 121.8795460  73.0180948
  65.0788712 122.1056306  72.0889480  66.0375232 121.6458834  73.1666749
  68.5678167 112.3479527  79.9161577  68.9227555 112.5751000  80.7756043
  69.2150298 112.6797904  79.2938833  74.2975904 115.4697963  70.6210906
  74.1593803 115.6599559  69.6932096  73.9412123 116.2317346  71.0778958
  62.4618030 109.4556058  76.7007918  63.1017410 109.3144817  76.0030882
  61.6295561 109.1690572  76.3246520  74.3245284 117.5374490  75.6322178
  74.7581790 117.4449779  76.4805232  75.0376864 117.5131991  74.9942194
  63.2378334 118.7558489  72.8142911  64.0318933 118.2608809  72.6125486
  62.5270027 118.2276352  72.4510616  68.0573179 121.1376584  77.1655278
  68.1110201 121.7067521  77.9332994  67.1887960 121.3078469  76.8009316
  59.5461098 112.9001570  68.8902664  58.6158686 112.8386026  69.1072626
  59.6418570 112.3777523  68.0939305  59.4646647 109.4256383  71.4780905
  59.7253464 110.3401716  71.3690066  60.2863819 108.9580826  71.6277518
  60.9371572 110.8394140  78.6479730  61.6094625 110.6311503  77.9992379
  60.1101359 110.6416226  78.2084962  75.1860833 117.5798191  78.1655063
  75.3796723 118.4844001  78.4114338  75.0861451 117.1205610  78.9993648
  66.8397144 107.4656081  80.6645391  66.1925059 108.1646031  80.5709867
  67.6098159 107.8992225  81.0321639  70.2475942 117.7304934  83.7395944
  70.0961448 117.5015485  82.8226028  70.2380621 118.6875535  83.7527289
  67.0161278 115.3036846  78.7242210  67.9453338 115.4548006  78.5511178
  66.5952308 115.3920867  77.8690857  65.8149610 119.3287511  76.4940748
  65.6760696 118.9606295  77.3666686  65.0264206 119.8435150  76.3224706
  66.4097762 124.4296607  67.8366284  66.5849518 123.9584650  68.6511907
  65.7230550 125.0562373  68.0647545  67.3654825 118.7069113  73.8829586
  67.0304658 118.6669883  74.7787236  66.8658771 118.0413829  73.4099996
  61.3399069 114.1136743  79.4082167  61.2018867 113.3816982  80.0093706
  62.2503993 114.0245643  79.1266355  70.3014017 116.0525148  64.1566645
  69.6843188 115.3271976  64.0599698  69.8330505 116.8134508  63.8133720
  63.9681370 113.8256703  78.8965847  64.6780988 113.1849895  78.8552465
  63.9250678 114.0769598  79.8192027  71.9568149 120.7624056  81.8172426
  71.8980695 120.0783276  81.1503009  72.3587667 121.5043046  81.3653052
  62.6810304 110.8121921  80.7161486  62.1447661 110.3612659  81.3683082
  62.0927012 110.9467829  79.9731950  62.0912563 110.2710572  63.2787950
  61.2142029 110.1499373  62.9150196  62.5670316 109.4796650  63.0266838
  71.9585556 118.7263640  80.0486405  71.0712335 118.3889562  80.1712804
  72.5284107 117.9946671  80.2855171  53.6114703 115.0587732  73.3729457
  54.2985743 114.7449462  72.7850472  53.4562832 115.9629096  73.0996708
  58.4149425 109.9477928  77.8014481  58.3307614 109.3403598  77.0664890
  57.5932132 110.4386947  77.8023977  65.4886709 123.3865092  77.0147649
  65.4156881 124.1920064  77.5266953  65.0464102 123.5857058  76.1895670
  65.2776489 122.6236862  70.5250470  64.4944011 123.1658543  70.6188695
  65.9769234 123.1410842  70.9244711  68.5873139 108.4331492  73.1684676
  69.0841839 107.6801454  72.8485746  67.8160121 108.4695808  72.6027885
  76.4402896 114.1371857  74.8102967  76.4292773 115.0196573  74.4396900
  75.5720276 113.7843408  74.6157504  67.9485393 123.2851926  79.1705807
  68.6613365 123.9199391  79.0981709  67.4575421 123.3815792  78.3545809
  69.6702920 117.1903179  70.7423099  68.7359198 117.3104642  70.5727803
  69.8479588 116.2875646  70.4783109  65.1708108 110.5748875  72.8956360
  64.8005895 110.0219915  73.5837266  65.6667200 109.9707008  72.3431360
  73.0575471 113.0320498  71.2773133  73.5235923 113.8648490  71.2033436
  73.5082972 112.5665480  71.9818392  62.9997306 121.0346370  79.9911378
  63.7006766 121.6682853  80.1440772  62.5292421 121.3761101  79.2307017
  71.1251702 119.3764320  68.2759285  71.4011546 119.2620914  69.1853159
  70.2556201 118.9781804  68.2371458  71.0292134 105.4001085  75.3164034
  70.1155214 105.6305312  75.4846241  71.4585235 105.4839529  76.1678067
  70.7998592 113.5890977  77.8163928  70.1470043 113.8366885  77.1616381
  71.1778972 112.7755115  77.4826406  67.7605766 123.6250670  71.9192099
  67.9428161 122.8072326  72.3819851  68.5838752 123.8418363  71.4816989
  68.0947932 122.5518856  69.1807147  68.6235698 122.0411310  68.5677309
  68.3576151 122.2361386  70.0452680  66.8486165 114.3310788  84.3029966
  66.1726802 114.2304918  84.9732341  67.6713799 114.1750002  84.7665963
  58.5965024 120.5682725  76.9242481  59.1818461 119.8226413  77.0570385
  58.3989863 120.8786682  77.8079145  61.4503680 123.6033972  71.9404923
  60.7814055 124.0880100  71.4568963  61.3116549 123.8503193  72.8548302
  53.1882679 113.1388325  75.6446924  53.2266779 112.6051916  76.4384042
  52.6822972 112.6123531  75.0257901  65.5908948 125.6377716  78.5387582
  66.1427256 125.8009337  79.3036667  65.9315142 126.2282154  77.8667606
  60.5673441 107.9852866  79.1409466  60.6314768 108.8467696  78.7286864
  60.5040562 107.3726867  78.4081825  60.0425714 110.0575998  82.7882501
  60.6697753 109.6753075  83.4020025  59.1853633 109.8390200  83.1538193
  70.4419823 120.4638973  84.3936236  70.9859727 121.0768932  83.8991191
  69.8606667 121.0218552  84.9103249  56.8191257 111.8652427  68.7200855
  57.1144698 110.9563106  68.6667909  55.9179292 111.8440167  68.3981858
  68.7277335 123.5859691  75.5251264  68.6028475 122.7849431  75.0162209
  69.3856427 124.0805885  75.0365234  60.3485504 109.9408424  74.7028404
  59.6272089 110.5544392  74.5635877  61.1378759 110.4766189  74.6245050
  70.7912244 121.3868711  77.1530814  69.8442579 121.2674063  77.0809141
  71.1395017 120.4991209  77.2357075  63.1511817 107.2762850  80.9769056
  63.6746219 107.5225147  81.7395365  62.9324151 108.1082885  80.5572193
  58.5479098 109.5466525  68.8440180  58.2191804 108.6663904  68.6615286
  58.9018469 109.4914194  69.7316570  67.7958677 121.1821428  73.3535166
  67.6483640 120.2538135  73.5342736  68.6212171 121.2041518  72.8692241
  61.6620921 109.8339495  69.2115658  62.0016994 110.3625416  68.4894267
  62.1093042 110.1719901  69.9874225  71.3992799 122.0049986  74.4400039
  72.3239346 121.7992848  74.3024490  71.2308102 121.7566388  75.3489380
  64.3564362 108.2176545  78.6618726  64.0161183 107.4184358  79.0639406
  63.6503369 108.5178256  78.0895559  65.0080834 105.3025858  77.1146049
  65.8306903 104.8286336  76.9924940  65.2518898 106.0816342  77.6144736
  63.6489069 108.3314116  67.4108951  64.3697431 108.7095369  66.9072668
  63.0254373 109.0502993  67.5143929  67.7920191 109.0359265  68.3467283
  68.0083806 109.9183903  68.0456111  67.3114259 108.6445479  67.6172925
  62.5319413 111.9944978  74.9238028  62.3863994 112.3085282  75.8162309
  62.0544617 112.6129879  74.3708927  64.3915796 108.9847526  74.9718917
  64.3777365 108.0888620  74.6351215  65.1088224 108.9918190  75.6057203
  66.2441926 109.4184867  77.0172045  65.9859704 110.3401937  77.0156375
  65.7126967 109.0215301  77.7072509  71.1888115 122.5235654  69.7962130
  71.3624993 121.9582076  69.0435983  71.6817006 123.3236549  69.6141620
  57.0065075 114.5350323  77.8625689  56.4618543 115.3110131  77.9945963
  57.8844425 114.8821127  77.7044810  63.7952692 107.8661907  70.2406488
  63.9168603 106.9378553  70.4397375  63.5054734 107.8800593  69.3284803
  66.6643882 105.5516817  73.3773207  66.6865579 105.6156150  72.4225187
  67.0811941 104.7121326  73.5713714  77.0427506 115.2872077  71.4152430
  77.4858652 114.5379402  71.0171553  76.1654017 115.2782213  71.0326162
  72.1763288 121.8402418  66.8959029  72.8714192 122.4609111  67.1146343
  72.5186438 120.9897769  67.1711406  57.7931097 113.6620219  80.7555846
  57.0512833 113.8102855  81.3420476  57.4723841 113.9228485  79.8922595
  74.0754711 119.2902124  68.4246359  74.6006035 119.6289396  67.6995679
  73.9877063 118.3549139  68.2409494  65.7374760 123.2036197  80.5536236
  66.0461886 122.9585344  81.4258936  66.5350242 123.4082836  80.0655106
  65.7595372 125.3574107  72.7841612  65.3200362 124.8650486  73.4774469
  66.5103489 124.8147075  72.5433688  58.2387711 121.5485648  72.7866241
  59.0645730 121.2489420  72.4064884  57.8881763 120.7793270  73.2356029
  63.2069244 120.9012116  74.8563914  62.5849253 120.2382821  74.5566142
  63.8774111 120.9273248  74.1737562  56.4396316 119.4671974  73.7455174
  55.6028224 119.0394149  73.5639175  56.4119961 119.6604418  74.6825965
  63.2793771 109.3793904  84.4496420  63.3281927 110.2556027  84.0674190
  63.8216285 108.8371297  83.8768063  73.7648617 119.9235027  83.7297557
  72.9744161 119.9059166  83.1902057  73.5281971 120.4623321  84.4846594
  73.8846492 116.7727494  81.0430286  73.9344497 116.6077501  81.9845809
  73.7760415 115.9054753  80.6528167  62.7682751 119.4516039  68.3322375
  62.9170871 120.1351504  67.6789047  63.5749194 119.4321129  68.8471830
  71.1750254 112.7558422  82.3589592  72.0760117 112.6164887  82.0673590
  71.2498229 112.9212877  83.2987770  65.5093060 110.1325277  81.2042779
  64.6396369 110.4258843  80.9325367  65.7452540 110.7165722  81.9250042
  75.3864689 119.1924435  81.2872307  75.0949497 119.5554416  82.1235768
  74.7736820 118.4791444  81.1085639  76.5860371 116.7577315  73.8074878
  77.4207262 117.1967119  73.9712438  76.7219500 116.2815968  72.9883123
  73.6351877 114.3157050  79.7552365  74.1105999 114.5084696  78.9471217
  72.7117442 114.3716236  79.5095749  60.5235384 115.4781217  69.3383444
  60.2781426 114.5743547  69.5363654  60.6931298 115.4798368  68.3962922
  68.2132094 106.3504893  78.7208199  68.7314037 107.0865920  78.3954688
  67.8587226 106.6568887  79.5554958  59.7931031 111.2109575  66.8369605
  59.1000276 111.2853930  66.1809641  59.5482783 110.4469918  67.3591122
  68.4644688 102.7705176  74.2409096  68.7446441 102.1028365  74.8669522
  69.2495295 102.9634272  73.7283760  66.2678156 121.9464170  65.8034122
  65.6952123 122.5654357  65.3504594  66.8410950 122.4963532  66.3374044
  72.3353546 111.1922810  77.9880671  73.2870969 111.2920908  78.0092895
  72.1656996 110.4001079  78.4978755  70.3567925 108.2778393  78.1740072
  69.7617858 108.5583406  77.4786560  70.0717622 108.7672294  78.9456813
  69.4875416 122.2301320  66.9342704  70.4206089 122.1646882  67.1375580
  69.3998629 123.0657587  66.4757237  72.1163433 121.5467190  63.8946652
  72.0377064 121.2127054  64.7882410  72.9373099 122.0388958  63.8938124
  74.8141624 114.4128930  77.1022971  74.7817944 113.4744930  77.2882654
  75.4242247 114.4912966  76.3688795  66.6524955 113.2824983  63.1450175
  67.5984059 113.1531191  63.2138593  66.2739200 112.5439645  63.6219603
  74.9636112 111.2039973  77.1481254  74.4475161 110.4198430  76.9611183
  75.8476061 110.8758690  77.3127773  72.6246839 104.9480989  73.1077066
  72.4271660 104.6396077  73.9920398  73.2346545 105.6742628  73.2374996
  80.6318174 115.4744937  76.2429007  81.3621562 115.2130225  76.8036711
  80.0225119 114.7373658  76.2831075  78.7133471 113.6152799  76.8403459
  77.9866634 113.4808764  76.2319950  78.2980758 113.9229628  77.6460177
  66.5363647 117.3342729  84.6050832  67.4566657 117.5121328  84.7990878
  66.5013230 116.3898774  84.4530531  64.8367872 111.2074959  63.0805060
  63.9299327 110.9108072  63.1567773  65.1143853 110.9104777  62.2139346
  55.7545812 112.5281322  73.5304106  55.4348597 111.6746631  73.2378480
  55.2079240 112.7429901  74.2862074  59.5325720 115.2443763  77.2473613
  59.7511730 116.1760871  77.2661647  59.9451494 114.8851738  78.0328417
  66.4529938 105.7511849  69.2349301  65.6430666 105.4058934  69.6104547
  67.1414354 105.4419392  69.8236913  68.3820486 104.8289896  70.8573598
  68.9351524 105.2485349  71.5163621  68.6190572 103.9025644  70.8996554
  64.4053585 110.8176969  86.6376362  64.3050312 111.7671326  86.5688453
  64.1875127 110.4895208  85.7652432  63.6066656 108.0661894  63.2217039
  64.4685820 108.3916793  63.4812856  63.7917001 107.2793390  62.7090105
  55.6234072 116.1484234  75.4997228  54.9297544 115.7338187  74.9867182
  56.3707063 116.1904770  74.9030647  71.7599293 106.9390421  70.3652262
  71.1797962 107.5975225  69.9830314  71.4935226 106.1167765  69.9539680
  70.2102859 106.3395478  72.5673582  70.7102638 106.4512013  71.7587901
  70.8538467 106.0356531  73.2074391  64.2684855 114.2474108  85.4541423
  63.7851937 115.0474468  85.6605312  64.3545794 114.2582053  84.5008867
  57.5370815 116.0802488  73.3763243  57.5141503 116.1790175  72.4245126
  57.8471451 116.9267639  73.6980409  60.1958193 118.1378643  77.4909857
  61.1501446 118.1062585  77.4239789  59.9970716 117.6769266  78.3060083
  60.7857575 116.7079759  80.0580655  61.6050464 117.2023837  80.0815492
  61.0594382 115.7911727  80.0298222  70.5424171 109.0990511  69.4208610
  69.6550026 109.3840162  69.2028805  70.9578160 108.9384274  68.5735887
  73.8938707 109.1237032  73.1362950  74.6699097 109.6133485  73.4087566
  73.1686841 109.5495086  73.5934819  76.3311266 109.8364651  74.1936890
  76.9255757 109.5960387  73.4830198  76.4037849 109.1171782  74.8210426
  69.6867384 118.8635186  63.5156630  70.3903235 119.0685188  64.1314286
  68.9630033 119.4311948  63.7805714  70.5165195 114.6145047  69.6358900
  70.4600396 115.0713598  68.7966533  71.0693537 113.8535732  69.4581743
  74.3270001 110.4034779  70.4609020  74.0706935 110.0031415  71.2917228
  73.7022869 111.1178573  70.3359159  78.6382338 113.1430852  72.9680311
  78.0781896 113.2124041  73.7411873  78.0325842 112.9671837  72.2479808
  71.5954082 119.3017715  65.5655090  72.4299686 118.8698913  65.3832565
  71.4338425 119.1299729  66.4931985  71.2499974 115.8049828  66.9311430
  71.1948778 115.6394100  65.9899874  70.6246029 116.5125861  67.0873619
  56.0392489 111.0417893  80.7572852  56.6851353 110.5316847  81.2460077
  55.8309640 111.7786574  81.3316277  68.5645881 118.1098740  86.2564992
  69.4337041 118.2839392  85.8951627  68.0852633 118.9293157  86.1340722
  64.5596099 105.3057937  66.5096748  64.5474769 106.2499777  66.6665019
  65.4519521 105.1228083  66.2156209  62.7332061 125.2295841  77.9354426
  63.6359308 125.2619451  78.2520921  62.5069431 124.2996292  77.9500762
  64.4885663 123.9826828  74.5964505  63.5381294 123.9828689  74.4828877
  64.7918150 123.2359562  74.0800539  68.3748219 101.9000714  70.7642685
  67.6080615 101.3459201  70.9099367  68.7858924 101.9722583  71.6256836
  60.3789980 108.1885510  84.8547866  61.2421442 107.8322315  85.0651191
  59.8055391 107.8499405  85.5423270  80.2238357 129.8187366  75.6610267
  80.8616767 129.6994113  74.9573607  80.1059200 130.7668210  75.7198219
  77.0328063 129.7714794  75.5971792  76.6946575 129.6555859  74.7092327
  77.9017831 129.3705959  75.5772798  77.5147846 130.9249646  81.5557997
  77.5036487 130.5302444  80.6838501  77.6768486 130.1915719  82.1491769
  74.7336343 128.5403042  64.9288732  74.9861863 128.0184563  64.1672195
  73.7960902 128.3769187  65.0315415  79.7779625 127.5438820  72.7363475
  80.5642715 127.1258243  72.3853892  80.0418330 128.4484912  72.9045123
  85.1788053 127.4814053  73.6396454  85.9113224 126.9113270  73.8734283
  84.4227408 127.0935654  74.0802959  76.7964172 129.9041295  70.8359796
  76.4322379 129.3771916  71.5472718  77.6531288 129.5139764  70.6626281
  82.7013473 121.1935627  78.0991062  82.3696798 122.0631038  77.8752277
  82.1059086 120.8771911  78.7785093  76.4369659 124.9331194  65.8321145
  76.6044062 125.8011431  66.1991616  76.2466828 125.0958476  64.9082434
  82.5942136 125.9130713  75.1784412  81.6859014 125.8446122  74.8843173
  82.5429732 126.3902658  76.0066238  76.4158880 127.3888852  66.8167811
  76.2958505 127.8345903  67.6553292  75.7211468 127.7374169  66.2581350
  76.6683002 127.3320359  83.1219310  75.8916336 127.8914279  83.1122174
  77.3073565 127.8177142  83.6434180  84.4603783 124.1147152  76.9562286
  83.8178163 124.4079685  76.3102081  83.9558711 124.0000072  77.7615483
  82.1143946 127.8610325  67.6448145  83.0261802 128.0937712  67.4695843
  81.6053593 128.4447369  67.0823224  76.7515784 127.2207560  78.6542995
  77.5976979 127.6446973  78.7977644  76.6914422 126.5641184  79.3481558
  79.9015229 124.8811928  80.3124169  79.6576161 125.6353988  79.7758444
  80.1775160 125.2597276  81.1471416  79.4579921 124.0368361  75.8938006
  78.5964400 124.3349615  76.1854744  79.4842356 124.2538760  74.9619039
  75.2110377 128.7033704  69.1101377  75.9134420 129.1554748  69.5775304
  74.8791005 128.0617523  69.7381270  73.6590738 127.2945461  83.4852587
  73.0289399 127.9761741  83.7187983  73.5526826 127.1828542  82.5405725
  68.9535710 126.9617257  74.4118511  68.1634764 127.2174785  73.9358621
  69.4446958 127.7765594  74.5170551  70.9050456 127.3261836  71.3701987
  70.1081619 127.4380530  71.8885483  70.6776048 127.6648488  70.5042878
  72.9371481 121.5966226  85.8477838  72.5438426 121.0432425  86.5225482
  73.7537621 121.9076805  86.2384355  75.8539442 123.0124105  83.4398094
  76.5949155 123.6131259  83.3602557  76.0857365 122.2701743  82.8816137
  79.7996605 119.0405208  77.7162376  79.4560874 119.9306850  77.6401486
  80.1675567 118.8506866  76.8531961  79.7646887 129.0313820  66.2234811
  79.2493511 129.8018424  66.4623198  79.4924196 128.3578956  66.8467872
  77.3493998 123.8763520  71.2820049  76.4935595 123.4870371  71.1025688
  77.7620950 123.9555481  70.4219835  78.8793145 121.4109864  75.6811609
  78.3757941 121.3739999  74.8679414  79.1723752 122.3202606  75.7408266
  75.1236031 121.4948593  74.6877791  75.9889028 121.2991402  74.3283680
  75.1913540 121.2658945  75.6147148  79.5533191 126.9040912  68.0494592
  79.2483326 127.2187061  68.9004735  80.5063633 126.9822332  68.0921925
  72.7298350 123.7250801  72.0594158  73.3042102 123.5025983  71.3267351
  73.3169332 123.7939496  72.8122759  81.7877927 129.6124528  72.8658534
  82.3009809 130.2454520  73.3680244  82.4379151 129.0125724  72.5001894
  73.0567937 125.7555262  66.0790043  72.2205249 126.0929949  66.3999318
  72.9172707 125.6204242  65.1417180  75.0321018 120.5992050  70.7869227
  74.3785430 120.2841067  70.1625842  74.9901492 119.9767791  71.5129050
  78.2658758 127.0873984  75.1116875  77.3481319 127.3088931  74.9538563
  78.6818902 127.1620294  74.2528582  79.0493806 128.4865399  70.2419555
  79.7965625 128.9986797  69.9326677  79.3185395 128.1649452  71.1023949
  81.4972643 125.5222516  72.2238344  80.7595400 125.0099902  72.5548587
  81.7499417 125.0822897  71.4121621  81.5984270 118.2998768  72.8180114
  81.9043147 117.4396131  72.5306029  82.3236875 118.8916388  72.6179107
  75.8705350 128.5952561  73.3256305  75.9253960 127.6426397  73.2498781
  75.0596552 128.7512000  73.8097603  73.8097710 127.2129620  71.0846683
  72.9965576 127.5123791  71.4911876  74.3056704 126.8185309  71.8021166
  79.4071922 127.6771445  79.9161577  79.7621309 127.9042918  80.7756043
  80.0544053 128.0089822  79.2938833  73.3011785 124.7847976  76.7007918
  73.9411164 124.6436735  76.0030882  72.4689315 124.4982489  76.3246520
  70.3854852 128.2293488  68.8902664  69.4552440 128.1677944  69.1072626
  70.4812324 127.7069441  68.0939305  70.3040401 124.7548301  71.4780905
  70.5647218 125.6693634  71.3690066  71.1257574 124.2872743  71.6277518
  71.7765327 126.1686058  78.6479730  72.4488380 125.9603420  77.9992379
  70.9495113 125.9708144  78.2084962  77.6790899 122.7947999  80.6645391
  77.0318814 123.4937949  80.5709867  78.4491914 123.2284143  81.0321639
  77.8555033 130.6328764  78.7242210  78.7847093 130.7839924  78.5511178
  77.4346063 130.7212785  77.8690857  81.1407771 131.3817065  64.1566645
  80.5236942 130.6563894  64.0599698  80.6724260 132.1426426  63.8133720
  74.8075124 129.1548620  78.8965847  75.5174743 128.5141813  78.8552465
  74.7644433 129.4061515  79.8192027  73.5204058 126.1413838  80.7161486
  72.9841415 125.6904577  81.3683082  72.9320767 126.2759747  79.9731950
  72.9306317 125.6002490  63.2787950  72.0535784 125.4791290  62.9150196
  73.4064070 124.8088568  63.0266838  69.2543180 125.2769846  77.8014481
  69.1701368 124.6695516  77.0664890  68.4325886 125.7678864  77.8023977
  79.4266894 123.7623410  73.1684676  79.9235593 123.0093372  72.8485746
  78.6553875 123.7987726  72.6027885  76.0101862 125.9040792  72.8956360
  75.6399650 125.3511833  73.5837266  76.5060955 125.2998926  72.3431360
  83.8969226 128.3612416  71.2773133  84.3629678 129.1940408  71.2033436
  84.3476726 127.8957398  71.9818392  81.8685888 120.7293003  75.3164034
  80.9548968 120.9597230  75.4846241  82.2978990 120.8131447  76.1678067
  81.6392347 128.9182895  77.8163928  80.9863797 129.1658802  77.1616381
  82.0172727 128.1047033  77.4826406  77.6879920 129.6602706  84.3029966
  77.0120557 129.5596835  84.9732341  78.5107554 129.5041920  84.7665963
  71.4067196 123.3144783  79.1409466  71.4708522 124.1759614  78.7286864
  71.3434316 122.7018785  78.4081825  70.8819468 125.3867916  82.7882501
  71.5091507 125.0044993  83.4020025  70.0247387 125.1682118  83.1538193
  67.6585011 127.1944345  68.7200855  67.9538452 126.2855023  68.6667909
  66.7573047 127.1732084  68.3981858  71.1879258 125.2700341  74.7028404
  70.4665844 125.8836309  74.5635877  71.9772514 125.8058106  74.6245050
  73.9905572 122.6054768  80.9769056  74.5139974 122.8517065  81.7395365
  73.7717905 123.4374803  80.5572193  69.3872853 124.8758443  68.8440180
  69.0585559 123.9955821  68.6615286  69.7412223 124.8206111  69.7316570
  72.5014676 125.1631412  69.2115658  72.8410748 125.6917334  68.4894267
  72.9486796 125.5011818  69.9874225  75.1958117 123.5468463  78.6618726
  74.8554937 122.7476276  79.0639406  74.4897123 123.8470174  78.0895559
  75.8474589 120.6317776  77.1146049  76.6700658 120.1578254  76.9924940
  76.0912652 121.4108259  77.6144736  74.4882823 123.6606034  67.4108951
  75.2091186 124.0387287  66.9072668  73.8648127 124.3794911  67.5143929
  78.6313946 124.3651183  68.3467283  78.8477560 125.2475821  68.0456111
  78.1508013 123.9737396  67.6172925  73.3713167 127.3236896  74.9238028
  73.2257748 127.6377199  75.8162309  72.8938371 127.9421796  74.3708927
  75.2309550 124.3139444  74.9718917  75.2171119 123.4180537  74.6351215
  75.9481978 124.3210108  75.6057203  77.0835681 124.7476784  77.0172045
  76.8253459 125.6693855  77.0156375  76.5520721 124.3507219  77.7072509
  74.6346446 123.1953824  70.2406488  74.7562357 122.2670471  70.4397375
  74.3448489 123.2092510  69.3284803  77.5037637 120.8808735  73.3773207
  77.5259333 120.9448068  72.4225187  77.9205696 120.0413244  73.5713714
  74.1187526 124.7085822  84.4496420  74.1675681 125.5847945  84.0674190
  74.6610040 124.1663215  83.8768063  82.0144009 128.0850339  82.3589592
  82.9153872 127.9456804  82.0673590  82.0891983 128.2504794  83.2987770
  76.3486814 125.4617194  81.2042779  75.4790124 125.7550760  80.9325367
  76.5846295 126.0457639  81.9250042  79.0525848 121.6796811  78.7208199
  79.5707792 122.4157838  78.3954688  78.6980981 121.9860804  79.5554958
  70.6324786 126.5401492  66.8369605  69.9394031 126.6145847  66.1809641
  70.3876538 125.7761836  67.3591122  79.3038442 118.0997094  74.2409096
  79.5840196 117.4320283  74.8669522  80.0889049 118.2926189  73.7283760
  83.1747301 126.5214728  77.9880671  84.1264723 126.6212825  78.0092895
  83.0050751 125.7292996  78.4978755  81.1961680 123.6070311  78.1740072
  80.6011612 123.8875324  77.4786560  80.9111377 124.0964212  78.9456813
  77.4918709 128.6116900  63.1450175  78.4377814 128.4823108  63.2138593
  77.1132954 127.8731562  63.6219603  85.8029867 126.5331891  77.1481254
  85.2868915 125.7490347  76.9611183  86.6869815 126.2050607  77.3127773
  83.4640594 120.2772906  73.1077066  83.2665415 119.9687995  73.9920398
  84.0740299 121.0034545  73.2374996  75.6761626 126.5366877  63.0805060
  74.7693082 126.2399989  63.1567773  75.9537607 126.2396695  62.2139346
  77.2923692 121.0803766  69.2349301  76.4824420 120.7350851  69.6104547
  77.9808109 120.7711310  69.8236913  79.2214240 120.1581813  70.8573598
  79.7745279 120.5777267  71.5163621  79.4584327 119.2317561  70.8996554
  75.2447340 126.1468887  86.6376362  75.1444066 127.0963244  86.5688453
  75.0268882 125.8187126  85.7652432  74.4460411 123.3953812  63.2217039
  75.3079575 123.7208710  63.4812856  74.6310755 122.6085308  62.7090105
  82.5993047 122.2682338  70.3652262  82.0191716 122.9267142  69.9830314
  82.3328980 121.4459683  69.9539680  81.0496614 121.6687396  72.5673582
  81.5496392 121.7803931  71.7587901  81.6932222 121.3648449  73.2074391
  81.3817925 124.4282429  69.4208610  80.4943780 124.7132079  69.2028805
  81.7971915 124.2676192  68.5735887  84.7332462 124.4528950  73.1362950
  85.5092852 124.9425402  73.4087566  84.0080596 124.8787004  73.5934819
  87.1705020 125.1656569  74.1936890  87.7649511 124.9252305  73.4830198
  87.2431604 124.4463700  74.8210426  81.3558949 129.9436965  69.6358900
  81.2994151 130.4005516  68.7966533  81.9087292 129.1827649  69.4581743
  85.1663755 125.7326697  70.4609020  84.9100689 125.3323332  71.2917228
  84.5416623 126.4470491  70.3359159  82.0893728 131.1341746  66.9311430
  82.0342532 130.9686017  65.9899874  81.4639784 131.8417779  67.0873619
  66.8786243 126.3709810  80.7572852  67.5245107 125.8608764  81.2460077
  66.6703395 127.1078492  81.3316277  75.3989854 120.6349855  66.5096748
  75.3868524 121.5791695  66.6665019  76.2913276 120.4520000  66.2156209
  79.2141973 117.2292632  70.7642685  78.4474369 116.6751118  70.9099367
  79.6252678 117.3014500  71.6256836  71.2183734 123.5177427  84.8547866
  72.0815196 123.1614232  85.0651191  70.6449145 123.1791322  85.5423270
  15.1875831  14.8497983  62.3855574  15.8254241  14.7304730  61.6818914
  15.0696674  15.7978827  62.4443526  11.9965538  14.8025411  62.3217098
  11.6584049  14.6866475  61.4337633  12.8655306  14.4016576  62.3018105
   7.8552353  16.6560887  58.3113989   7.2917218  16.5650824  57.5430277
   7.7404748  15.8360792  58.7916482  12.4785320  15.9560262  68.2803304
  12.4673961  15.5613061  67.4083808  12.6405960  15.2226335  68.8737075
   5.4016785  18.1512079  61.1498210   6.1938077  17.8102903  60.7344509
   5.6413435  18.2607054  62.0700363  13.4351912  20.3231855  53.6228454
  12.7839892  20.9085935  53.2362468  14.2296275  20.8538050  53.6823492
   7.3607539  17.4120992  54.0215589   8.1338415  16.8649979  53.8828464
   7.7132938  18.2765241  54.2330050   9.1992582  18.7397374  67.2282488
   8.9082448  19.6443005  67.1129154   9.8349566  18.7813902  67.9426557
  10.1248788  16.1174223  63.8183848  10.7212361  15.8930245  63.1040810
  10.1823760  15.3758968  64.4209295   9.6973817  13.5713658  51.6534039
   9.9499338  13.0495179  50.8917502   8.7598376  13.4079804  51.7560722
  14.7417100  12.5749436  59.4608782  15.5280189  12.1568860  59.1099199
  15.0055804  13.4795529  59.6290430  14.9127177  18.0122287  54.1597439
  14.2773010  18.0856913  54.8718343  14.5824583  18.6015886  53.4816518
  20.1425527  12.5124670  60.3641760  20.8750699  11.9423886  60.5979590
  19.3864883  12.1246270  60.8048266   9.4170106  15.4741764  53.8558413
   9.3006364  14.7986667  54.5239498   9.5272366  14.9874138  53.0390567
  11.7601647  14.9351911  57.5605103  11.3959854  14.4082532  58.2718024
  12.6168762  14.5450380  57.3871588  14.1582467  18.4258790  64.2232282
  13.8583190  19.3283829  64.1148089  13.8133526  18.1590973  65.0753434
   7.6094948  14.8772587  60.2568986   6.6845445  14.7448801  60.4646678
   7.8579361  15.6566806  60.7538928  17.5579611  10.9441330  61.9029719
  16.6496488  10.8756738  61.6088480  17.5067206  11.4213275  62.7311544
  11.3796354  12.4199468  53.5413118  11.2595980  12.8656519  54.3798598
  10.6848943  12.7684786  52.9826656   9.1403247  25.1903110  57.1903249
   9.0627276  26.1410935  57.2691730   8.5364890  24.8448983  57.8478176
  11.6320476  12.3630976  69.8464616  10.8553810  12.9224896  69.8367481
  12.2711039  12.8487759  70.3679486  19.4241257   9.1457768  63.6807593
  18.7815637   9.4390301  63.0347387  18.9196185   9.0310689  64.4860789
  17.0781421  12.8920942  54.3693452  17.9899277  13.1248328  54.1941150
  16.5691068  13.4757986  53.8068531   9.8866849  15.1716429  69.4082583
  10.6281533  15.7101473  69.1317407   9.1803834  15.7982718  69.5654135
  15.3622188  17.3145569  68.0054745  15.7705544  16.8727980  67.2609377
  14.6399450  16.7398197  68.2588938  11.7153258  12.2518176  65.3788302
  12.5614453  12.6757590  65.5222951  11.6551896  11.5951800  66.0726865
  15.6851003  17.8746760  61.7607034  15.0559865  18.0392474  61.0583101
  15.2976665  18.2888370  62.5317998  19.5640235  18.8101198  59.1151397
  18.8791273  19.1900099  58.5648431  19.6484084  19.4196524  59.8483345
  14.8652704   9.9122544  67.0369475  14.6213635  10.6664605  66.5003751
  15.1412634  10.2907892  67.8716722  16.8191166  16.4561157  65.7146741
  17.0308062  17.0992917  65.0381122  16.7720915  15.6223473  65.2468671
  14.4217395   9.0678977  62.6183313  13.5601874   9.3660231  62.9100051
  14.4479830   9.2849376  61.6864346  11.2378965  17.6121168  59.0257119
  11.7017310  17.8908871  58.2361741  10.9735763  16.7104613  58.8430209
   8.1303046  17.1592650  61.9636882   8.7004403  17.5879918  61.3254366
   8.7211158  16.8775234  62.6621068  10.1747851  13.7344320  55.8346684
  10.8771894  14.1865364  56.3020610   9.8428479  13.0928139  56.4626577
  17.9336994  19.3333112  63.8869098  18.7554438  18.9313300  63.6051780
  17.9299397  19.2301346  64.8385214  11.6993598  18.8817156  66.0429809
  11.7638030  19.3437563  66.8787981  10.9904522  18.2514520  66.1712119
  26.0242987  15.6771861  60.2354070  25.2706696  15.1079259  60.0798074
  26.1590529  15.6434525  61.1824704  11.4141615  20.5485263  55.9108789
  11.2787290  21.3936799  56.3393637  11.9551428  20.7504541  55.1474723
   4.8671013  18.0660701  56.4836714   5.3795533  18.8603951  56.6342279
   5.5193726  17.3686992  56.4170316   6.6765898  21.1826457  58.5659467
   6.8532526  22.1044422  58.3780451   7.4722731  20.8684877  58.9953847
  13.0410092  21.1708830  70.0409131  12.5973946  20.3845208  69.7230036
  13.7027305  21.3587980  69.3753022   7.7997213  22.7004631  64.5669810
   8.3504638  22.5721695  63.7946804   6.9608689  22.9999520  64.2164702
  15.1391330  21.4511629  68.0690532  15.1209805  22.2720511  67.5770802
  16.0611250  21.3265705  68.2940674  11.5964384  18.9655759  68.9114041
  12.1292721  18.2044047  68.6813349  11.0678465  18.6729411  69.6538195
  14.7284362  14.0624436  52.9480118  14.2130985  14.8329041  53.1868505
  14.4561670  13.3889572  53.5713179  19.7018636  16.8156791  54.8833291
  18.9248079  16.4767950  54.4388453  20.3810117  16.8209414  54.2088256
  14.5170665  11.9351528  54.7739899  14.2120800  12.2497677  55.6250042
  15.4701107  12.0132948  54.8167232  12.9617097  18.0941751  56.4232853
  12.4338458  17.3594511  56.1106090  12.4604599  18.8716428  56.1772821
  17.9409943  16.2890772  61.5399899  17.2833617  16.9790033  61.6280028
  18.7450342  16.6787204  61.8833885  16.7515402  14.6435145  59.5903841
  17.2647283  15.2765136  60.0925551  17.4016625  14.0436340  59.2247201
  11.1069697  15.9121962  49.4267826  10.1996759  15.6811215  49.6258975
  11.6040729  15.1159581  49.6141807  14.0137776  24.6219469  52.3464512
  13.3399475  24.9251166  52.9549470  14.4003598  25.4248549  51.9969969
  13.2296232  12.1184600  61.8362181  12.3118794  12.3399547  61.6783869
  13.6456376  12.1930911  60.9773889  14.0131280  13.5176016  56.9664862
  14.7603099  14.0297413  56.6571984  14.2822870  13.1960069  57.8269255
  12.2857930  16.0134557  53.9491816  11.3769150  15.7293589  54.0464286
  12.3153014  16.4333635  53.0895123  17.5177198  19.6241146  57.7182983
  17.0639525  18.7832056  57.7748174  16.8871164  20.2602544  58.0557764
  16.4610117  10.5533132  58.9483651  15.7232874  10.0410518  59.2793893
  16.7136891  10.1133514  58.1366928  15.9610137  21.4617643  58.6532802
  16.2533111  22.0222700  57.9345167  16.4708758  21.7546204  59.4085961
  10.8342824  13.6263177  60.0501611  10.8891434  12.6737014  59.9744088
  10.0234026  13.7822616  60.5342910  11.9834018  17.5543300  51.2879894
  11.5453448  16.8379159  50.8285532  12.7244459  17.7819415  50.7264986
  10.9243762  22.2397994  59.7426255  10.8819941  22.4658840  58.8134787
  11.8406461  22.0061368  59.8912056  14.3709396  12.7082061  66.6406884
  14.7258784  12.9353535  67.5001350  15.0181527  13.0400438  66.0184139
  20.1007133  15.8300497  57.3456213  19.9625032  16.0202093  56.4177402
  19.7443352  16.5919880  57.8024264  20.1276513  17.8977024  62.3567485
  20.5613019  17.8052313  63.2050539  20.8408093  17.8734525  61.7187501
   9.0409563  19.1161023  59.5388218   9.8350161  18.6211343  59.3370792
   8.3301255  18.5878886  59.1755923  13.8604407  21.4979118  63.8900585
  13.9141430  22.0670055  64.6578301  12.9919189  21.6681003  63.5254622
  20.9892062  17.9400725  64.8900370  21.1827952  18.8446535  65.1359645
  20.8892680  17.4808144  65.7238955  16.0507171  18.0907468  70.4641251
  15.8992677  17.8618019  69.5471334  16.0411850  19.0478069  70.4772596
  12.8192507  15.6639380  65.4487517  13.7484567  15.8150540  65.2756484
  12.3983537  15.7523401  64.5936163  11.6180839  19.6890045  63.2186055
  11.4791925  19.3208829  64.0911993  10.8295435  20.2037684  63.0470012
  12.2128991  24.7899141  54.5611591  12.3880747  24.3187185  55.3757214
  11.5261779  25.4164908  54.7892852  13.1686054  19.0671648  60.6074892
  12.8335887  19.0272418  61.5032542  12.6690000  18.4016363  60.1345303
   7.1430298  14.4739278  66.1327474   7.0050096  13.7419516  66.7339013
   8.0535222  14.3848178  65.8511661  16.1045246  16.4127682  50.8811952
  15.4874416  15.6874510  50.7845005  15.6361734  17.1737042  50.5379026
   9.7712599  14.1859237  65.6211153  10.4812217  13.5452429  65.5797772
   9.7281907  14.4372132  66.5437334  17.7599377  21.1226590  68.5417732
  17.7011924  20.4385810  67.8748315  18.1618896  21.8645580  68.0898358
   6.7790076  27.9388504  61.3351451   7.0186674  28.5707028  62.0130470
   5.9359273  27.5876544  61.6216811  17.7616785  19.0866174  66.7731712
  16.8743563  18.7492096  66.8958111  18.3315336  18.3549205  67.0100477
  11.2917938  23.7467627  63.7392955  11.2188110  24.5522598  64.2512260
  10.8495331  23.9459592  62.9140977  11.0807718  22.9839397  57.2495777
  10.2975240  23.5261077  57.3434001  11.7800463  23.5013376  57.6490018
  14.3904368   8.7934026  59.8929982  14.8873067   8.0403988  59.5731052
  13.6191349   8.8298343  59.3273192  22.2434125  14.4974392  61.5348274
  22.2324001  15.3799107  61.1642207  21.3751505  14.1445942  61.3402811
  13.7516622  23.6454461  65.8951114  14.4644594  24.2801925  65.8227015
  13.2606650  23.7418327  65.0791116  15.4734149  17.5505713  57.4668406
  14.5390427  17.6707176  57.2973110  15.6510817  16.6478180  57.2028415
  18.8606700  13.3923033  58.0018440  19.3267152  14.2251024  57.9278742
  19.3114200  12.9268014  58.7063698   8.8028535  21.3948904  66.7156685
   9.5037995  22.0285387  66.8686079   8.3323650  21.7363636  65.9552324
  16.9282931  19.7366854  55.0004592  17.2042775  19.6223448  55.9098466
  16.0587430  19.3384339  54.9616765  16.6029821  13.9493511  64.5409235
  15.9501271  14.1969419  63.8861688  16.9810201  13.1357650  64.2071712
  13.5636995  23.9853205  58.6437405  13.7459390  23.1674861  59.1065158
  14.3869981  24.2020897  58.2062295  13.8979160  22.9121390  55.9052454
  14.4266927  22.4013844  55.2922616  14.1607380  22.5963920  56.7697987
  12.6517394  14.6913323  71.0275272  11.9758031  14.5907452  71.6977647
  13.4745028  14.5352536  71.4911269   4.3996253  20.9285259  63.6487787
   4.9849690  20.1828947  63.7815692   4.2021092  21.2389216  64.5324451
   7.2534908  23.9636506  58.6650230   6.5845284  24.4482634  58.1814270
   7.1147778  24.2105727  59.5793608  11.3940177  25.9980250  65.2632888
  11.9458485  26.1611872  66.0281973  11.7346370  26.5884688  64.5912913
  16.2451051  20.8241508  71.1181543  16.7890955  21.4371466  70.6236497
  15.6637896  21.3821086  71.6348556  14.5308564  23.9462226  62.2496570
  14.4059704  23.1451965  61.7407516  15.1887655  24.4408419  61.7610540
  16.5943473  21.7471246  63.8776120  15.6473808  21.6276597  63.8054447
  16.9426246  20.8593744  63.9602382  13.5989906  21.5423962  60.0780473
  13.4514868  20.6140669  60.2588043  14.4243399  21.5644053  59.5937548
  17.2024028  22.3652521  61.1645345  18.1270575  22.1595382  61.0269797
  17.0339331  22.1168922  62.0734687  16.9919344  22.8838188  56.5207437
  17.1656222  22.3184610  55.7681289  17.4848235  23.6839083  56.3386927
  22.8458735  15.6474611  58.1397737  23.2889881  14.8981936  57.7416860
  21.9685245  15.6384747  57.7571469  17.9794517  22.2004952  53.6204335
  18.6745421  22.8211645  53.8391650  18.3217667  21.3500304  53.8956713
  19.8785940  19.6504658  55.1491666  20.4037264  19.9891931  54.4240986
  19.7908292  18.7151673  54.9654801  11.5405988  23.5638732  67.2781543
  11.8493115  23.3187878  68.1504242  12.3381470  23.7685370  66.7900413
  11.5626600  25.7176641  59.5086919  11.1231591  25.2253020  60.2019776
  12.3134717  25.1749609  59.2678994   4.0418939  21.9088182  59.5111547
   4.8676959  21.6091954  59.1310191   3.6912991  21.1395805  59.9601336
   9.0100473  21.2614650  61.5809221   8.3880482  20.5985355  61.2811449
   9.6805339  21.2875782  60.8982869   2.2427544  19.8274509  60.4700481
   1.4059453  19.3996683  60.2884482   2.2151190  20.0206952  61.4071272
  19.5679846  20.2837562  70.4542864  18.7775389  20.2661700  69.9147363
  19.3313200  20.8225855  71.2091900  19.6877721  17.1330028  67.7675592
  19.7375726  16.9680035  68.7091115  19.5791644  16.2657287  67.3773473
   8.5713979  19.8118574  55.0567681   8.7202100  20.4954038  54.4034354
   9.3780423  19.7923664  55.5717137  16.9781483  13.1160956  69.0834899
  17.8791346  12.9767421  68.7918897  17.0529458  13.2815411  70.0233077
  21.1895918  19.5526969  68.0117614  20.8980726  19.9156950  68.8481075
  20.5768049  18.8393978  67.8330946  22.3891600  17.1179849  60.5320184
  23.2238491  17.5569653  60.6957745  22.5250729  16.6418502  59.7128430
  19.4383106  14.6759584  66.4797672  19.9137227  14.8687230  65.6716523
  18.5148671  14.7318770  66.2341056   6.3266612  15.8383751  56.0628750
   6.0812654  14.9346081  56.2608960   6.4962527  15.8400902  55.1208228
  12.0709385  22.3066704  52.5279429  11.4983352  22.9256891  52.0749901
  12.6442179  22.8566066  53.0619351  18.1384775  11.5525344  64.7125978
  19.0902198  11.6523442  64.7338202  17.9688225  10.7603613  65.2224062
  16.1599154   8.6380927  64.8985378  15.5649086   8.9185940  64.2031867
  15.8748851   9.1274828  65.6702120  15.2906645  22.5903854  53.6588011
  16.2237318  22.5249416  53.8620887  15.2029858  23.4260121  53.2002544
  17.9194661  21.9069725  50.6191959  17.8408293  21.5729588  51.5127716
  18.7404328  22.3991492  50.6183431  20.6172853  14.7731464  63.8268277
  20.5849173  13.8347465  64.0127961  21.2273476  14.8515501  63.0934102
  12.4556183  13.6427517  49.8695481  13.4015288  13.5133725  49.9383899
  12.0770428  12.9042179  50.3464909  20.7667341  11.5642507  63.8726560
  20.2506390  10.7800964  63.6856489  21.6507290  11.2361224  64.0373080
  26.4349402  15.8347471  62.9674314  27.1652791  15.5732759  63.5282017
  25.8256348  15.0976193  63.0076382  24.5164700  13.9755333  63.5648765
  23.7897863  13.8411298  62.9565257  24.1011986  14.2832162  64.3705483
  12.3394876  17.6945263  71.3296138  13.2597885  17.8723862  71.5236185
  12.3044459  16.7501308  71.1775837   5.3356949  15.6046298  63.9718919
   5.5542958  16.5363405  63.9906953   5.7482722  15.2454272  64.7573723
  17.5630522   7.2992955  57.0897569  16.9829191   7.9577759  56.7075621
  17.2966454   6.4770300  56.6784986  10.0716084  14.6076642  72.1786730
   9.5883166  15.4077002  72.3850619  10.1577023  14.6184587  71.2254174
   3.3402044  16.4405022  60.1008549   3.3172732  16.5392709  59.1490432
   3.6502680  17.2870173  60.4225715   5.9989421  18.4981177  64.2155164
   6.9532675  18.4665119  64.1485095   5.8001945  18.0371801  65.0305390
   6.5888804  17.0682293  66.7825961   7.4081693  17.5626372  66.8060799
   6.8625611  16.1514261  66.7543529  16.3455400   9.4593045  56.1453917
  15.4581255   9.7442696  55.9274112  16.7609389   9.2986809  55.2981194
  19.6969936   9.4839566  59.8608256  20.4730326   9.9736019  60.1332873
  18.9718070   9.9097620  60.3180126  22.1342495  10.1967186  60.9182197
  22.7286985   9.9562921  60.2075505  22.2069078   9.4774316  61.5455733
   4.3539650  24.0400796  61.2325362   4.2194118  23.2801197  60.6663360
   3.9371712  24.7641696  60.7654150  15.4898613  19.2237720  50.2401937
  16.1934463  19.4287722  50.8559593  14.7661262  19.7914482  50.5051020
  16.3196423  14.9747581  56.3604207  16.2631625  15.4316133  55.5211839
  16.8724766  14.2138266  56.1827050  20.1301229  10.7637313  57.1854327
  19.8738164  10.3633949  58.0162534  19.5054097  11.4781107  57.0604466
  24.4413567  13.5033386  59.6925618  23.8813125  13.5726576  60.4657180
  23.8357071  13.3274371  58.9725114   7.5108776  24.9370113  61.4443804
   7.3941160  25.8815546  61.3422495   6.6901222  24.6343675  61.8329603
  17.3985311  19.6620249  52.2900397  18.2330915  19.2301448  52.1077872
  17.2369654  19.4902263  53.2177291  17.0531203  16.1652362  53.6556736
  16.9980007  15.9996634  52.7145180  16.4277258  16.8728395  53.8118926
  14.3677110  18.4701274  72.9810299  15.2368270  18.6441927  72.6196934
  13.8883861  19.2895691  72.8586028   8.5363290  25.5898375  64.6599733
   9.4390537  25.6221986  64.9766228   8.3100660  24.6598826  64.6746068
  10.2916892  24.3429362  61.3209811   9.3412523  24.3431224  61.2074184
  10.5949378  23.5962096  60.8045846  26.0269586  30.1789900  62.3855574
  26.6647996  30.0596648  61.6818914  25.9090429  31.1270744  62.4443526
  22.8359292  30.1317328  62.3217098  22.4977804  30.0158393  61.4337633
  23.7049060  29.7308493  62.3018105  18.6946108  31.9852805  58.3113989
  18.1310973  31.8942742  57.5430277  18.5798503  31.1652709  58.7916482
  23.3179075  31.2852180  68.2803304  23.3067716  30.8904978  67.4083808
  23.4799714  30.5518253  68.8737075  16.2410540  33.4803996  61.1498210
  17.0331832  33.1394821  60.7344509  16.4807190  33.5898971  62.0700363
  24.2745666  35.6523772  53.6228454  23.6233646  36.2377853  53.2362468
  25.0690029  36.1829967  53.6823492  18.2001294  32.7412910  54.0215589
  18.9732170  32.1941897  53.8828464  18.5526692  33.6057159  54.2330050
  20.0386336  34.0689292  67.2282488  19.7476202  34.9734923  67.1129154
  20.6743320  34.1105820  67.9426557  20.9642543  31.4466140  63.8183848
  21.5606115  31.2222163  63.1040810  21.0217515  30.7050886  64.4209295
  20.5367571  28.9005576  51.6534039  20.7893092  28.3787097  50.8917502
  19.5992130  28.7371721  51.7560722  25.5810854  27.9041354  59.4608782
  26.3673943  27.4860777  59.1099199  25.8449559  28.8087446  59.6290430
  25.7520932  33.3414204  54.1597439  25.1166765  33.4148831  54.8718343
  25.4218338  33.9307803  53.4816518  30.9819281  27.8416587  60.3641760
  31.7144453  27.2715804  60.5979590  30.2258637  27.4538188  60.8048266
  20.2563860  30.8033682  53.8558413  20.1400118  30.1278585  54.5239498
  20.3666120  30.3166056  53.0390567  22.5995401  30.2643829  57.5605103
  22.2353608  29.7374450  58.2718024  23.4562517  29.8742298  57.3871588
  28.5044702  21.5538161  64.8236369  28.1728026  22.4233572  64.5997584
  27.9090315  21.2374445  65.5030399  22.2400888  25.2933729  52.5566451
  22.4075290  26.1613965  52.9236922  22.0498057  25.4561010  51.6327740
  24.9976221  33.7550707  64.2232282  24.6976944  34.6575746  64.1148089
  24.6527281  33.4882891  65.0753434  18.4488703  30.2064504  60.2568986
  17.5239199  30.0740718  60.4646678  18.6973116  30.9858724  60.7538928
  28.3973365  26.2733248  61.9029719  27.4890242  26.2048656  61.6088480
  28.3460961  26.7505193  62.7311544  22.2190109  27.7491386  53.5413118
  22.0989734  28.1948437  54.3798598  21.5242697  28.0976704  52.9826656
  15.8097514  29.8497778  61.0912775  15.9389895  30.1032257  62.0052187
  15.1294965  30.4425486  60.7717430  19.9797001  40.5195028  57.1903249
  19.9021031  41.4702853  57.2691730  19.3758645  40.1740900  57.8478176
  22.4714231  27.6922893  69.8464616  21.6947565  28.2516813  69.8367481
  23.1104794  28.1779676  70.3679486  30.2635011  24.4749686  63.6807593
  29.6209392  24.7682219  63.0347387  29.7589940  24.3602606  64.4860789
  27.9175175  28.2212859  54.3693452  28.8293031  28.4540246  54.1941150
  27.4084822  28.8049903  53.8068531  20.7260603  30.5008347  69.4082583
  21.4675287  31.0393391  69.1317407  20.0197589  31.1274635  69.5654135
  26.2015943  32.6437487  68.0054745  26.6099299  32.2019898  67.2609377
  25.4793204  32.0690115  68.2588938  22.5547013  27.5810094  65.3788302
  23.4008208  28.0049507  65.5222951  22.4945650  26.9243718  66.0726865
  26.5244757  33.2038678  61.7607034  25.8953620  33.3684392  61.0583101
  26.1370419  33.6180287  62.5317998  30.4033989  34.1393116  59.1151397
  29.7185027  34.5192017  58.5648431  30.4877839  34.7488442  59.8483345
  25.7046458  25.2414462  67.0369475  25.4607390  25.9956523  66.5003751
  25.9806389  25.6199810  67.8716722  27.6584921  31.7853075  65.7146741
  27.8701816  32.4284834  65.0381122  27.6114669  30.9515391  65.2468671
  25.2611150  24.3970895  62.6183313  24.3995629  24.6952149  62.9100051
  25.2873584  24.6141294  61.6864346  22.0772719  32.9413086  59.0257119
  22.5411065  33.2200789  58.2361741  21.8129517  32.0396530  58.8430209
  18.9696800  32.4884567  61.9636882  19.5398157  32.9171836  61.3254366
  19.5604912  32.2067152  62.6621068  21.0141605  29.0636238  55.8346684
  21.7165649  29.5157282  56.3020610  20.6822234  28.4220057  56.4626577
  19.4621967  27.6547995  70.2097893  18.8320627  28.3364276  70.4433290
  19.3558055  27.5431076  69.2651031  14.7566939  27.3219791  61.1363817
  13.9665993  27.5777319  60.6603928  15.2478187  28.1368129  61.2415858
  28.7730749  34.6625030  63.8869098  29.5948193  34.2605217  63.6051780
  28.7693152  34.5593264  64.8385214  16.7081685  27.6864370  58.0947294
  15.9112848  27.7983064  58.6130790  16.4807277  28.0251022  57.2288185
  22.5387352  34.2109073  66.0429809  22.6031785  34.6729480  66.8787981
  21.8298276  33.5806438  66.1712119  13.0404642  27.5750281  63.5678808
  13.2912681  28.4597291  63.8336384  13.5764191  27.3954883  62.7953900
  36.8636742  31.0063778  60.2354070  36.1100450  30.4371177  60.0798074
  36.9984283  30.9726443  61.1824704  22.2535370  35.8777181  55.9108789
  22.1181045  36.7228716  56.3393637  22.7945182  36.0796458  55.1474723
  18.7402710  21.9568761  72.5723144  18.3469655  21.4034959  73.2470788
  19.5568850  22.2679339  72.9629662  15.7064767  33.3952619  56.4836714
  16.2189288  34.1895869  56.6342279  16.3587480  32.6978909  56.4170316
  17.5159652  36.5118375  58.5659467  17.6926280  37.4336340  58.3780451
  18.3116486  36.1976794  58.9953847  21.6570671  23.3726640  70.1643401
  22.3980384  23.9733793  70.0847863  21.8888593  22.6304277  69.6061443
  16.8012009  28.5583007  68.4421630  16.6865524  27.6568264  68.7428729
  15.9456526  28.8046704  68.0906447  23.8803846  36.5000747  70.0409131
  23.4367700  35.7137126  69.7230036  24.5421060  36.6879898  69.3753022
  18.6390967  38.0296549  64.5669810  19.1898393  37.9013612  63.7946804
  17.8002443  38.3291438  64.2164702  25.9785084  36.7803547  68.0690532
  25.9603560  37.6012428  67.5770802  26.9005004  36.6557622  68.2940674
  22.4358139  34.2947677  68.9114041  22.9686475  33.5335965  68.6813349
  21.9072220  34.0021328  69.6538195  25.6027833  19.4007743  64.4407682
  25.2592103  20.2909384  64.3646793  25.9706796  19.2109400  63.5777267
  13.6713684  31.7241273  57.2596285  14.5088906  32.1338281  57.0429992
  13.8491952  30.7840715  57.2296479  25.5678116  29.3916354  52.9480118
  25.0524740  30.1620958  53.1868505  25.2955425  28.7181490  53.5713179
  23.1525227  24.2366055  58.0065356  22.2966824  23.8472905  57.8270995
  23.5652179  24.3158015  57.1465141  24.6824374  21.7712398  62.4056916
  24.1789169  21.7342533  61.5924721  24.9754981  22.6805140  62.4653572
  20.9267260  21.8551127  61.4123097  21.7920257  21.6593936  61.0528987
  20.9944769  21.6261479  62.3392454  30.5412390  32.1448708  54.8833291
  29.7641833  31.8059868  54.4388453  31.2203871  32.1501332  54.2088256
  25.3564419  27.2643446  54.7739899  25.0514555  27.5789595  55.6250042
  26.3094862  27.3424866  54.8167232  23.8010851  33.4233669  56.4232853
  23.2732213  32.6886429  56.1106090  23.2998354  34.2008345  56.1772821
  28.7803697  31.6182690  61.5399899  28.1227372  32.3081951  61.6280028
  29.5844096  32.0079122  61.8833885  18.5329579  24.0853335  58.7839464
  19.1073331  23.8628517  58.0512657  19.1200561  24.1542030  59.5368066
  27.5909156  29.9727062  59.5903841  28.1041038  30.6057054  60.0925551
  28.2410380  29.3728258  59.2247201  18.8599166  26.1157796  52.8035350
  18.0236478  26.4532483  53.1244624  18.7203936  25.9806776  51.8662487
  20.8352247  20.9594584  57.5114534  20.1816659  20.6443601  56.8871148
  20.7932721  20.3370325  58.2374357  21.9463451  31.2413879  49.4267826
  21.0390513  31.0103133  49.6258975  22.4434483  30.4451499  49.6141807
  24.8531530  39.9511387  52.3464512  24.1793229  40.2543083  52.9549470
  25.2397352  40.7540467  51.9969969  24.0689987  27.4476518  61.8362181
  23.1512548  27.6691465  61.6783869  24.4850131  27.5222828  60.9773889
  24.8525035  28.8467934  56.9664862  25.5996854  29.3589331  56.6571984
  25.1216624  28.5251986  57.8269255  23.1251685  31.3426474  53.9491816
  22.2162904  31.0585507  54.0464286  23.1546769  31.7625553  53.0895123
  28.3570952  34.9533064  57.7182983  27.9033279  34.1123974  57.7748174
  27.7264919  35.5894462  58.0557764  27.3003872  25.8825050  58.9483651
  26.5626629  25.3702436  59.2793893  27.5530645  25.4425431  58.1366928
  26.8003892  36.7909560  58.6532802  27.0926866  37.3514618  57.9345167
  27.3102512  37.0838121  59.4085961  27.4015499  18.6601302  59.5425420
  27.7074376  17.7998665  59.2551335  28.1268104  19.2518922  59.3424414
  13.6939855  29.0631988  57.9307018  13.4964255  28.4701349  57.2058085
  13.1386519  28.7584199  58.6482957  21.6736579  28.9555095  60.0501611
  21.7285189  28.0028931  59.9744088  20.8627781  29.1114534  60.5342910
  22.8227773  32.8835218  51.2879894  22.3847203  32.1671077  50.8285532
  23.5638214  33.1111333  50.7264986  19.6128939  27.5732155  57.8091990
  18.7996804  27.8726325  58.2157182  20.1087933  27.1787843  58.5266472
  21.7637517  37.5689912  59.7426255  21.7213695  37.7950758  58.8134787
  22.6800216  37.3353286  59.8912056  25.2103150  28.0373979  66.6406884
  25.5652538  28.2645452  67.5001350  25.8575282  28.3692356  66.0184139
  30.9400887  31.1592415  57.3456213  30.8018786  31.3494011  56.4177402
  30.5837106  31.9211798  57.8024264  19.1043014  25.1450510  63.4253225
  19.7442393  25.0039269  62.7276188  18.2720544  24.8585024  63.0491827
  30.9670267  33.2268942  62.3567485  31.4006774  33.1344231  63.2050539
  31.6801848  33.2026442  61.7187501  19.8803317  34.4452941  59.5388218
  20.6743916  33.9503261  59.3370792  19.1695010  33.9170804  59.1755923
  24.6998162  36.8271036  63.8900585  24.7535184  37.3961972  64.6578301
  23.8312943  36.9972921  63.5254622  16.1886081  28.5896022  55.6147970
  15.2583669  28.5280478  55.8317932  16.2843553  28.0671975  54.8184611
  16.1071630  25.1150835  58.2026212  16.3678447  26.0296168  58.0935372
  16.9288802  24.6475278  58.3522825  17.5796555  26.5288592  65.3725036
  18.2519609  26.3205954  64.7237685  16.7526342  26.3310678  64.9330269
  31.8285817  33.2692643  64.8900370  32.0221707  34.1738453  65.1359645
  31.7286435  32.8100062  65.7238955  23.4822127  23.1550533  67.3890697
  22.8350042  23.8540483  67.2955174  24.2523143  23.5886677  67.7566945
  26.8900925  33.4199385  70.4641251  26.7386432  33.1909937  69.5471334
  26.8805605  34.3769987  70.4772596  23.6586262  30.9931298  65.4487517
  24.5878322  31.1442458  65.2756484  23.2377292  31.0815319  64.5936163
  22.4574593  35.0181963  63.2186055  22.3185679  34.6500747  64.0911993
  21.6689190  35.5329602  63.0470012  23.0522745  40.1191059  54.5611591
  23.2274501  39.6479102  55.3757214  22.3655533  40.7456825  54.7892852
  24.0079809  34.3963565  60.6074892  23.6729641  34.3564335  61.5032542
  23.5083754  33.7308281  60.1345303  17.9824053  29.8031195  66.1327474
  17.8443851  29.0711434  66.7339013  18.8928976  29.7140095  65.8511661
  26.9439000  31.7419600  50.8811952  26.3268171  31.0166428  50.7845005
  26.4755489  32.5028960  50.5379026  20.6106353  29.5151155  65.6211153
  21.3205972  28.8744347  65.5797772  20.5675661  29.7664049  66.5437334
  28.5993132  36.4518508  68.5417732  28.5405678  35.7677728  67.8748315
  29.0012650  37.1937498  68.0898358  19.3235287  26.5016372  67.4406793
  18.7872644  26.0507111  68.0928389  18.7351996  26.6362281  66.6977257
  17.6183831  43.2680422  61.3351451  17.8580429  43.8998946  62.0130470
  16.7753027  42.9168462  61.6216811  18.7337546  25.9605024  50.0033256
  17.8567012  25.8393825  49.6395503  19.2095299  25.1691102  49.7512145
  28.6010539  34.4158092  66.7731712  27.7137318  34.0784014  66.8958111
  29.1709090  33.6841123  67.0100477  10.2539686  30.7482184  60.0974763
  10.9410726  30.4343914  59.5095779  10.0987815  31.6523548  59.8242015
  15.0574408  25.6372380  64.5259787  14.9732597  25.0298050  63.7910197
  14.2357115  26.1281398  64.5269283  22.1311693  39.0759544  63.7392955
  22.0581864  39.8814516  64.2512260  21.6889086  39.2751510  62.9140977
  21.9201472  38.3131314  57.2495777  21.1368994  38.8552994  57.3434001
  22.6194217  38.8305294  57.6490018  25.2298122  24.1225944  59.8929982
  25.7266822  23.3695906  59.5731052  24.4585104  24.1590260  59.3273192
  33.0827880  29.8266309  61.5348274  33.0717756  30.7091025  61.1642207
  32.2145259  29.4737860  61.3402811  24.5910376  38.9746378  65.8951114
  25.3038348  39.6093843  65.8227015  24.1000405  39.0710244  65.0791116
  26.3127903  32.8797631  57.4668406  25.3784182  32.9999093  57.2973110
  26.4904571  31.9770098  57.2028415  21.8133091  26.2643327  59.6201667
  21.4430879  25.7114367  60.3082572  22.3092184  25.6601460  59.0676667
  29.7000454  28.7214950  58.0018440  30.1660907  29.5542942  57.9278742
  30.1507955  28.2559932  58.7063698  19.6422290  36.7240822  66.7156685
  20.3431749  37.3577305  66.8686079  19.1717405  37.0655553  65.9552324
  27.7676685  35.0658772  55.0004592  28.0436529  34.9515366  55.9098466
  26.8981184  34.6676256  54.9616765  27.6717117  21.0895537  62.0409341
  26.7580197  21.3199764  62.2091548  28.1010219  21.1733981  62.8923373
  27.4423576  29.2785429  64.5409235  26.7895026  29.5261337  63.8861688
  27.8203956  28.4649567  64.2071712  24.4030749  39.3145122  58.6437405
  24.5853144  38.4966778  59.1065158  25.2263736  39.5312815  58.2062295
  24.7372915  38.2413307  55.9052454  25.2660681  37.7305762  55.2922616
  25.0001135  37.9255838  56.7697987  23.4911149  30.0205240  71.0275272
  22.8151786  29.9199370  71.6977647  24.3138783  29.8644454  71.4911269
  15.2390008  36.2577177  63.6487787  15.8243445  35.5120865  63.7815692
  15.0414846  36.5681133  64.5324451  18.0928663  39.2928424  58.6650230
  17.4239038  39.7774552  58.1814270  17.9541533  39.5397645  59.5793608
   9.8307662  28.8282777  62.3692231   9.8691762  28.2946368  63.1629349
   9.3247955  28.3017982  61.7503208  22.2333932  41.3272168  65.2632888
  22.7852240  41.4903789  66.0281973  22.5740125  41.9176606  64.5912913
  17.2098425  23.6747317  65.8654773  17.2739751  24.5362148  65.4532171
  17.1465545  23.0621319  65.1327131  16.6850697  25.7470450  69.5127807
  17.3122736  25.3647527  70.1265331  15.8278616  25.5284652  69.8783500
  27.0844806  36.1533425  71.1181543  27.6284710  36.7663383  70.6236497
  26.5031651  36.7113004  71.6348556  13.4616240  27.5546879  55.4446162
  13.7569681  26.6457558  55.3913216  12.5604276  27.5334619  55.1227164
  25.3702319  39.2754143  62.2496570  25.2453458  38.4743883  61.7407516
  26.0281410  39.7700337  61.7610540  16.9910487  25.6302876  61.4273711
  16.2697073  26.2438843  61.2881184  17.7803743  26.1660641  61.3490357
  27.4337227  37.0763163  63.8776120  26.4867563  36.9568514  63.8054447
  27.7820000  36.1885661  63.9602382  19.7936801  22.9657302  67.7014362
  20.3171202  23.2119599  68.4640672  19.5749134  23.7977337  67.2817500
  15.1904082  25.2360977  55.5685487  14.8616788  24.3558356  55.3860593
  15.5443452  25.1808645  56.4561876  24.4383660  36.8715880  60.0780473
  24.2908623  35.9432587  60.2588043  25.2637154  36.8935970  59.5937548
  18.3045905  25.5233947  55.9360965  18.6441977  26.0519868  55.2139573
  18.7518025  25.8614353  56.7119531  28.0417782  37.6944438  61.1645345
  28.9664330  37.4887300  61.0269797  27.8733086  37.4460839  62.0734687
  20.9989346  23.9070997  65.3864033  20.6586166  23.1078810  65.7884713
  20.2928352  24.2072708  64.8140866  21.6505817  20.9920310  63.8391356
  22.4731887  20.5180788  63.7170246  21.8943881  21.7710793  64.3390042
  20.2914052  24.0208568  54.1354258  21.0122414  24.3989821  53.6317974
  19.6679356  24.7397445  54.2389236  24.4345175  24.7253717  55.0712590
  24.6508789  25.6078355  54.7701418  23.9539242  24.3339931  54.3418232
  19.1744396  27.6839430  61.6483334  19.0288977  27.9979733  62.5407616
  18.6969600  28.3024331  61.0954233  21.0340779  24.6741978  61.6964224
  21.0202348  23.7783072  61.3596522  21.7513207  24.6812642  62.3302510
  22.8866910  25.1079319  63.7417351  22.6284688  26.0296389  63.7401682
  22.3551950  24.7109753  64.4317816  27.8313099  38.2130106  56.5207437
  28.0049976  37.6476528  55.7681289  28.3241990  39.0131001  56.3386927
  13.6490058  30.2244775  64.5870996  13.1043526  31.0004583  64.7191270
  14.5269408  30.5715579  64.4290117  20.4377675  23.5556359  56.9651794
  20.5593586  22.6273005  57.1642682  20.1479717  23.5695045  56.0530110
  23.3068865  21.2411269  60.1018514  23.3290562  21.3050602  59.1470494
  23.7236924  20.4015778  60.2959020  33.6852490  30.9766529  58.1397737
  34.1283636  30.2273854  57.7416860  32.8079000  30.9676665  57.7571469
  28.8188271  37.5296870  53.6204335  29.5139176  38.1503563  53.8391650
  29.1611421  36.6792221  53.8956713  14.4356080  29.3514671  67.4801153
  13.6937816  29.4997306  68.0665783  14.1148824  29.6122937  66.6167902
  30.7179694  34.9796576  55.1491666  31.2431018  35.3183848  54.4240986
  30.6302047  34.0443591  54.9654801  22.3799743  38.8930649  67.2781543
  22.6886869  38.6479796  68.1504242  23.1775225  39.0977288  66.7900413
  22.4020355  41.0468559  59.5086919  21.9625345  40.5544938  60.2019776
  23.1528472  40.5041527  59.2678994  14.8812694  37.2380100  59.5111547
  15.7070714  36.9383872  59.1310191  14.5306746  36.4687722  59.9601336
  19.8494227  36.5906568  61.5809221  19.2274236  35.9277273  61.2811449
  20.5199094  36.6167700  60.8982869  13.0821299  35.1566426  60.4700481
  12.2453207  34.7288601  60.2884482  13.0544944  35.3498870  61.4071272
  19.9218755  25.0688356  71.1741727  19.9706910  25.9450479  70.7919496
  20.4641269  24.5265749  70.6013370  30.4073600  35.6129479  70.4542864
  29.6169144  35.5953618  69.9147363  30.1706955  36.1517773  71.2091900
  30.5271475  32.4621946  67.7675592  30.5769480  32.2971953  68.7091115
  30.4185399  31.5949205  67.3773473  19.4107734  35.1410491  55.0567681
  19.5595854  35.8245956  54.4034354  20.2174177  35.1215581  55.5717137
  27.8175238  28.4452874  69.0834899  28.7185100  28.3059339  68.7918897
  27.8923212  28.6107328  70.0233077  22.1518043  25.8219728  67.9288085
  21.2821352  26.1153294  67.6570674  22.3877523  26.4060173  68.6495349
  32.0289672  34.8818887  68.0117614  31.7374480  35.2448868  68.8481075
  31.4161803  34.1685895  67.8330946  33.2285354  32.4471767  60.5320184
  34.0632246  32.8861571  60.6957745  33.3644483  31.9710420  59.7128430
  30.2776860  30.0051502  66.4797672  30.7530982  30.1979148  65.6716523
  29.3542426  30.0610688  66.2341056  17.1660367  31.1675669  56.0628750
  16.9206409  30.2637999  56.2608960  17.3356281  31.1692819  55.1208228
  24.8557077  22.0399345  65.4453506  25.3739021  22.7760372  65.1199994
  24.5012210  22.3463339  66.2800265  16.4356014  26.9004027  53.5614912
  15.7425259  26.9748382  52.9054948  16.1907766  26.1364370  54.0836429
  25.1069671  18.4599628  60.9654402  25.3871425  17.7922817  61.5914829
  25.8920278  18.6528723  60.4529066  22.9103139  37.6358622  52.5279429
  22.3377107  38.2548809  52.0749901  23.4835933  38.1857983  53.0619351
  28.9778529  26.8817262  64.7125978  29.9295952  26.9815360  64.7338202
  28.8081980  26.0895530  65.2224062  26.9992909  23.9672845  64.8985378
  26.4042841  24.2477858  64.2031867  26.7142605  24.4566746  65.6702120
  26.1300399  37.9195772  53.6588011  27.0631072  37.8541334  53.8620887
  26.0423612  38.7552039  53.2002544  28.7588416  37.2361642  50.6191959
  28.6802047  36.9021506  51.5127716  29.5798083  37.7283410  50.6183431
  31.4566607  30.1023382  63.8268277  31.4242927  29.1639382  64.0127961
  32.0667231  30.1807418  63.0934102  23.2949938  28.9719435  49.8695481
  24.2409043  28.8425643  49.9383899  22.9164183  28.2334096  50.3464909
  31.6061096  26.8934425  63.8726560  31.0900144  26.1092882  63.6856489
  32.4901044  26.5653142  64.0373080  29.2671823  20.6375441  59.8322373
  29.0696644  20.3290529  60.7165705  29.8771528  21.3637079  59.9620303
  37.2743157  31.1639388  62.9674314  38.0046545  30.9024677  63.5282017
  36.6650102  30.4268110  63.0076382  35.3558454  29.3047251  63.5648765
  34.6291618  29.1703216  62.9565257  34.9405741  29.6124080  64.3705483
  23.1788630  33.0237181  71.3296138  24.0991640  33.2015780  71.5236185
  23.1438214  32.0793226  71.1775837  21.4792855  26.8969411  49.8050366
  20.5724311  26.6002524  49.8813080  21.7568836  26.5999229  48.9384653
  12.3970795  28.2175774  60.2549413  12.0773580  27.3641083  59.9623787
  11.8504224  28.4324352  61.0107380  16.1750703  30.9338215  63.9718919
  16.3936713  31.8655323  63.9906953  16.5876477  30.5746190  64.7573723
  23.0954921  21.4406301  55.9594608  22.2855649  21.0953386  56.3349854
  23.7839338  21.1313844  56.5482219  25.0245469  20.5184347  57.5818904
  25.5776508  20.9379801  58.2408927  25.2615555  19.5920096  57.6241860
  21.0478568  26.5071421  73.3621668  20.9475295  27.4565778  73.2933759
  20.8300110  26.1789660  72.4897738  20.2491640  23.7556346  49.9462346
  21.1110804  24.0811244  50.2058163  20.4341984  22.9687842  49.4335411
  12.2659056  31.8378686  62.2242534  11.5722527  31.4232639  61.7112489
  13.0132047  31.8799222  61.6275953  28.4024276  22.6284873  57.0897569
  27.8222945  23.2869677  56.7075621  28.1360209  21.8062217  56.6784986
  26.8527843  22.0289930  59.2918889  27.3527621  22.1406465  58.4833208
  27.4963451  21.7250983  59.9319697  20.9109838  29.9368560  72.1786730
  20.4276920  30.7368920  72.3850619  20.9970777  29.9476505  71.2254174
  14.1795798  31.7696940  60.1008549  14.1566486  31.8684627  59.1490432
  14.4896435  32.6162090  60.4225715  16.8383176  33.8273095  64.2155164
  17.7926429  33.7957037  64.1485095  16.6395699  33.3663718  65.0305390
  17.4282558  32.3974211  66.7825961  18.2475447  32.8918289  66.8060799
  17.7019366  31.4806179  66.7543529  27.1849154  24.7884963  56.1453917
  26.2975009  25.0734614  55.9274112  27.6003143  24.6278726  55.2981194
  30.5363690  24.8131484  59.8608256  31.3124080  25.3027936  60.1332873
  29.8111825  25.2389538  60.3180126  32.9736249  25.5259103  60.9182197
  33.5680740  25.2854839  60.2075505  33.0462833  24.8066234  61.5455733
  15.1933405  39.3692714  61.2325362  15.0587873  38.6093115  60.6663360
  14.7765467  40.0933614  60.7654150  26.3292368  34.5529638  50.2401937
  27.0328218  34.7579640  50.8559593  25.6055016  35.1206400  50.5051020
  27.1590178  30.3039499  56.3604207  27.1025379  30.7608050  55.5211839
  27.7118520  29.5430184  56.1827050  30.9694984  26.0929231  57.1854327
  30.7131918  25.6925866  58.0162534  30.3447852  26.8073025  57.0604466
  35.2807322  28.8325304  59.6925618  34.7206880  28.9018493  60.4657180
  34.6750825  28.6566289  58.9725114  18.3502531  40.2662031  61.4443804
  18.2334915  41.2107464  61.3422495  17.5294977  39.9635593  61.8329603
  28.2379065  34.9912167  52.2900397  29.0724669  34.5593365  52.1077872
  28.0763408  34.8194181  53.2177291  27.8924957  31.4944280  53.6556736
  27.8373761  31.3288552  52.7145180  27.2671013  32.2020313  53.8118926
  12.6817472  26.7312345  67.4818158  13.3276336  26.2211299  67.9705384
  12.4734623  27.4681026  68.0561584  25.2070864  33.7993192  72.9810299
  26.0762024  33.9733844  72.6196934  24.7277616  34.6187609  72.8586028
  21.2021083  20.9952389  53.2342055  21.1899753  21.9394229  53.3910326
  22.0944505  20.8122535  52.9401516  19.3757045  40.9190293  64.6599733
  20.2784291  40.9513903  64.9766228  19.1494415  39.9890744  64.6746068
  21.1310647  39.6721280  61.3209811  20.1806278  39.6723141  61.2074184
  21.4343133  38.9254014  60.8045846  25.0173202  17.5895166  57.4887991
  24.2505598  17.0353653  57.6344674  25.4283907  17.6617035  58.3502143
  17.0214963  23.8779962  71.5793173  17.8846425  23.5216766  71.7896497
  16.4480374  23.5393856  72.2668577  36.8663340  45.5081818  62.3855574
  37.5041750  45.3888565  61.6818914  36.7484183  46.4562662  62.4443526
  33.6753046  45.4609246  62.3217098  33.3371558  45.3450311  61.4337633
  34.5442815  45.0600411  62.3018105  29.5339862  47.3144722  58.3113989
  28.9704727  47.2234659  57.5430277  29.4192257  46.4944627  58.7916482
  34.1572829  46.6144098  68.2803304  34.1461470  46.2196896  67.4083808
  34.3193469  45.8810170  68.8737075  27.0804294  48.8095914  61.1498210
  27.8725586  48.4686739  60.7344509  27.3200944  48.9190889  62.0700363
  29.0395048  48.0704827  54.0215589  29.8125924  47.5233814  53.8828464
  29.3920447  48.9349077  54.2330050  30.8780091  49.3981210  67.2282488
  30.5869957  50.3026840  67.1129154  31.5137075  49.4397737  67.9426557
  31.8036297  46.7758058  63.8183848  32.3999870  46.5514081  63.1040810
  31.8611269  46.0342804  64.4209295  31.3761326  44.2297493  51.6534039
  31.6286847  43.7079015  50.8917502  30.4385885  44.0663639  51.7560722
  36.4204609  43.2333272  59.4608782  37.2067698  42.8152695  59.1099199
  36.6843313  44.1379364  59.6290430  31.0957615  46.1325599  53.8558413
  30.9793873  45.4570503  54.5239498  31.2059875  45.6457973  53.0390567
  33.4389156  45.5935747  57.5605103  33.0747363  45.0666367  58.2718024
  34.2956271  45.2034216  57.3871588  39.3438456  36.8830079  64.8236369
  39.0121781  37.7525490  64.5997584  38.7484070  36.5666363  65.5030399
  33.0794643  40.6225646  52.5566451  33.2469045  41.4905883  52.9236922
  32.8891812  40.7852928  51.6327740  35.8369976  49.0842625  64.2232282
  35.5370699  49.9867664  64.1148089  35.4921035  48.8174808  65.0753434
  29.2882457  45.5356422  60.2568986  28.3632954  45.4032636  60.4646678
  29.5366870  46.3150641  60.7538928  39.2367119  41.6025165  61.9029719
  38.3283997  41.5340574  61.6088480  39.1854715  42.0797110  62.7311544
  33.0583863  43.0783304  53.5413118  32.9383489  43.5240354  54.3798598
  32.3636452  43.4268621  52.9826656  26.6491268  45.1789695  61.0912775
  26.7783649  45.4324174  62.0052187  25.9688720  45.7717404  60.7717430
  33.3107985  43.0214811  69.8464616  32.5341319  43.5808731  69.8367481
  33.9498548  43.5071594  70.3679486  41.1028766  39.8041604  63.6807593
  40.4603146  40.0974137  63.0347387  40.5983694  39.6894524  64.4860789
  38.7568930  43.5504777  54.3693452  39.6686786  43.7832164  54.1941150
  38.2478577  44.1341821  53.8068531  31.5654358  45.8300264  69.4082583
  32.3069042  46.3685308  69.1317407  30.8591343  46.4566553  69.5654135
  37.0409697  47.9729405  68.0054745  37.4493053  47.5311815  67.2609377
  36.3186959  47.3982032  68.2588938  33.3940767  42.9102011  65.3788302
  34.2401962  43.3341425  65.5222951  33.3339405  42.2535636  66.0726865
  36.5440213  40.5706380  67.0369475  36.3001144  41.3248440  66.5003751
  36.8200143  40.9491727  67.8716722  36.1004904  39.7262813  62.6183313
  35.2389383  40.0244066  62.9100051  36.1267339  39.9433212  61.6864346
  32.9166474  48.2705003  59.0257119  33.3804819  48.5492706  58.2361741
  32.6523272  47.3688448  58.8430209  29.8090555  47.8176485  61.9636882
  30.3791912  48.2463753  61.3254366  30.3998667  47.5359070  62.6621068
  31.8535360  44.3928156  55.8346684  32.5559403  44.8449199  56.3020610
  31.5215988  43.7511975  56.4626577  30.3015721  42.9839912  70.2097893
  29.6714382  43.6656193  70.4433290  30.1951809  42.8722994  69.2651031
  25.5960694  42.6511708  61.1363817  24.8059748  42.9069237  60.6603928
  26.0871941  43.4660046  61.2415858  27.5475439  43.0156288  58.0947294
  26.7506602  43.1274982  58.6130790  27.3201031  43.3542940  57.2288185
  33.3781107  49.5400991  66.0429809  33.4425539  50.0021398  66.8787981
  32.6692031  48.9098356  66.1712119  23.8798397  42.9042199  63.5678808
  24.1306435  43.7889209  63.8336384  24.4157945  42.7246800  62.7953900
  29.5796464  37.2860678  72.5723144  29.1863410  36.7326877  73.2470788
  30.3962604  37.5971257  72.9629662  26.5458522  48.7244536  56.4836714
  27.0583042  49.5187787  56.6342279  27.1981235  48.0270827  56.4170316
  28.3553407  51.8410293  58.5659467  28.5320035  52.7628257  58.3780451
  29.1510240  51.5268712  58.9953847  32.4964425  38.7018557  70.1643401
  33.2374138  39.3025710  70.0847863  32.7282348  37.9596195  69.6061443
  27.6405763  43.8874925  68.4421630  27.5259278  42.9860182  68.7428729
  26.7850281  44.1338621  68.0906447  34.7197601  51.8292665  70.0409131
  34.2761455  51.0429043  69.7230036  35.3814814  52.0171815  69.3753022
  29.4784722  53.3588467  64.5669810  30.0292147  53.2305530  63.7946804
  28.6396198  53.6583356  64.2164702  33.2751893  49.6239594  68.9114041
  33.8080230  48.8627883  68.6813349  32.7465974  49.3313246  69.6538195
  36.4421588  34.7299660  64.4407682  36.0985857  35.6201302  64.3646793
  36.8100551  34.5401318  63.5777267  24.5107439  47.0533191  57.2596285
  25.3482661  47.4630199  57.0429992  24.6885706  46.1132633  57.2296479
  36.4071871  44.7208271  52.9480118  35.8918494  45.4912876  53.1868505
  36.1349179  44.0473408  53.5713179  33.9918982  39.5657972  58.0065356
  33.1360578  39.1764823  57.8270995  34.4045934  39.6449933  57.1465141
  35.5218128  37.1004315  62.4056916  35.0182924  37.0634451  61.5924721
  35.8148735  38.0097058  62.4653572  31.7661014  37.1843045  61.4123097
  32.6314011  36.9885854  61.0528987  31.8338523  36.9553397  62.3392454
  36.1958174  42.5935364  54.7739899  35.8908309  42.9081513  55.6250042
  37.1488616  42.6716783  54.8167232  29.3723333  39.4145253  58.7839464
  29.9467085  39.1920435  58.0512657  29.9594316  39.4833948  59.5368066
  38.4302911  45.3018980  59.5903841  38.9434792  45.9348972  60.0925551
  39.0804134  44.7020176  59.2247201  29.6992920  41.4449714  52.8035350
  28.8630233  41.7824401  53.1244624  29.5597690  41.3098694  51.8662487
  31.6746001  36.2886502  57.5114534  31.0210413  35.9735519  56.8871148
  31.6326475  35.6662242  58.2374357  32.7857206  46.5705797  49.4267826
  31.8784268  46.3395051  49.6258975  33.2828238  45.7743416  49.6141807
  34.9083741  42.7768436  61.8362181  33.9906303  42.9983383  61.6783869
  35.3243885  42.8514746  60.9773889  35.6918789  44.1759851  56.9664862
  36.4390608  44.6881248  56.6571984  35.9610379  43.8543904  57.8269255
  33.9645439  46.6718392  53.9491816  33.0556659  46.3877425  54.0464286
  33.9940523  47.0917471  53.0895123  38.1397626  41.2116967  58.9483651
  37.4020383  40.6994354  59.2793893  38.3924400  40.7717349  58.1366928
  38.2409254  33.9893219  59.5425420  38.5468130  33.1290583  59.2551335
  38.9661858  34.5810840  59.3424414  24.5333610  44.3923906  57.9307018
  24.3358010  43.7993267  57.2058085  23.9780274  44.0876116  58.6482957
  32.5130333  44.2847013  60.0501611  32.5678943  43.3320849  59.9744088
  31.7021535  44.4406452  60.5342910  33.6621527  48.2127136  51.2879894
  33.2240957  47.4962995  50.8285532  34.4031968  48.4403250  50.7264986
  30.4522693  42.9024072  57.8091990  29.6390559  43.2018243  58.2157182
  30.9481687  42.5079761  58.5266472  36.0496905  43.3665897  66.6406884
  36.4046293  43.5937370  67.5001350  36.6969036  43.6984274  66.0184139
  29.9436768  40.4742428  63.4253225  30.5836147  40.3331187  62.7276188
  29.1114299  40.1876941  63.0491827  30.7197072  49.7744858  59.5388218
  31.5137670  49.2795178  59.3370792  30.0088764  49.2462721  59.1755923
  27.0279835  43.9187940  55.6147970  26.0977424  43.8572395  55.8317932
  27.1237307  43.3963893  54.8184611  26.9465384  40.4442753  58.2026212
  27.2072202  41.3588086  58.0935372  27.7682557  39.9767195  58.3522825
  28.4190310  41.8580510  65.3725036  29.0913363  41.6497872  64.7237685
  27.5920096  41.6602596  64.9330269  34.3215882  38.4842451  67.3890697
  33.6743797  39.1832401  67.2955174  35.0916897  38.9178595  67.7566945
  37.7294680  48.7491303  70.4641251  37.5780186  48.5201855  69.5471334
  37.7199359  49.7061904  70.4772596  34.4980016  46.3223216  65.4487517
  35.4272076  46.4734375  65.2756484  34.0771046  46.4107237  64.5936163
  28.8217807  45.1323113  66.1327474  28.6837605  44.4003352  66.7339013
  29.7322731  45.0432013  65.8511661  37.7832755  47.0711517  50.8811952
  37.1661925  46.3458345  50.7845005  37.3149243  47.8320878  50.5379026
  31.4500108  44.8443072  65.6211153  32.1599726  44.2036264  65.5797772
  31.4069416  45.0955967  66.5437334  30.1629042  41.8308290  67.4406793
  29.6266399  41.3799029  68.0928389  29.5745750  41.9654199  66.6977257
  28.4577585  58.5972339  61.3351451  28.6974183  59.2290864  62.0130470
  27.6146782  58.2460379  61.6216811  29.5731301  41.2896942  50.0033256
  28.6960767  41.1685742  49.6395503  30.0489054  40.4983020  49.7512145
  21.0933441  46.0774101  60.0974763  21.7804481  45.7635831  59.5095779
  20.9381569  46.9815466  59.8242015  25.8968163  40.9664298  64.5259787
  25.8126352  40.3589967  63.7910197  25.0750869  41.4573316  64.5269283
  36.0691877  39.4517861  59.8929982  36.5660576  38.6987824  59.5731052
  35.2978858  39.4882178  59.3273192  32.6526846  41.5935244  59.6201667
  32.2824633  41.0406285  60.3082572  33.1485938  40.9893378  59.0676667
  30.4816044  52.0532739  66.7156685  31.1825504  52.6869222  66.8686079
  30.0111159  52.3947471  65.9552324  38.5110872  36.4187455  62.0409341
  37.5973951  36.6491682  62.2091548  38.9403973  36.5025899  62.8923373
  38.2817330  44.6077347  64.5409235  37.6288780  44.8553254  63.8861688
  38.6597710  43.7941485  64.2071712  34.3304903  45.3497158  71.0275272
  33.6545540  45.2491287  71.6977647  35.1532537  45.1936372  71.4911269
  26.0783762  51.5869094  63.6487787  26.6637199  50.8412782  63.7815692
  25.8808601  51.8973051  64.5324451  28.9322417  54.6220342  58.6650230
  28.2632793  55.1066469  58.1814270  28.7935287  54.8689562  59.5793608
  20.6701417  44.1574695  62.3692231  20.7085516  43.6238285  63.1629349
  20.1641710  43.6309900  61.7503208  28.0492179  39.0039235  65.8654773
  28.1133506  39.8654066  65.4532171  27.9859299  38.3913237  65.1327131
  27.5244452  41.0762368  69.5127807  28.1516491  40.6939445  70.1265331
  26.6672371  40.8576570  69.8783500  24.3009995  42.8838797  55.4446162
  24.5963436  41.9749475  55.3913216  23.3998030  42.8626536  55.1227164
  27.8304242  40.9594793  61.4273711  27.1090827  41.5730761  61.2881184
  28.6197497  41.4952558  61.3490357  30.6330555  38.2949220  67.7014362
  31.1564957  38.5411516  68.4640672  30.4142888  39.1269255  67.2817500
  26.0297836  40.5652894  55.5685487  25.7010542  39.6850273  55.3860593
  26.3837207  40.5100563  56.4561876  29.1439659  40.8525864  55.9360965
  29.4835732  41.3811786  55.2139573  29.5911780  41.1906270  56.7119531
  31.8383100  39.2362915  65.3864033  31.4979920  38.4370728  65.7884713
  31.1322106  39.5364626  64.8140866  32.4899572  36.3212227  63.8391356
  33.3125641  35.8472706  63.7170246  32.7337635  37.1002711  64.3390042
  31.1307806  39.3500486  54.1354258  31.8516169  39.7281739  53.6317974
  30.5073111  40.0689363  54.2389236  35.2738929  40.0545635  55.0712590
  35.4902544  40.9370273  54.7701418  34.7932996  39.6631848  54.3418232
  30.0138151  43.0131348  61.6483334  29.8682731  43.3271651  62.5407616
  29.5363354  43.6316248  61.0954233  31.8734534  40.0033896  61.6964224
  31.8596102  39.1074989  61.3596522  32.5906962  40.0104560  62.3302510
  33.7260664  40.4371236  63.7417351  33.4678442  41.3588307  63.7401682
  33.1945705  40.0401671  64.4317816  24.4883813  45.5536692  64.5870996
  23.9437281  46.3296500  64.7191270  25.3663163  45.9007497  64.4290117
  31.2771429  38.8848276  56.9651794  31.3987341  37.9564922  57.1642682
  30.9873472  38.8986962  56.0530110  34.1462620  36.5703187  60.1018514
  34.1684317  36.6342520  59.1470494  34.5630679  35.7307695  60.2959020
  25.2749835  44.6806589  67.4801153  24.5331571  44.8289224  68.0665783
  24.9542579  44.9414854  66.6167902  25.7206448  52.5672017  59.5111547
  26.5464468  52.2675789  59.1310191  25.3700500  51.7979640  59.9601336
  30.6887982  51.9198486  61.5809221  30.0667991  51.2569191  61.2811449
  31.3592848  51.9459618  60.8982869  23.9215053  50.4858344  60.4700481
  23.0846962  50.0580518  60.2884482  23.8938699  50.6790787  61.4071272
  30.7612509  40.3980274  71.1741727  30.8100664  41.2742396  70.7919496
  31.3035023  39.8557667  70.6013370  38.6568992  43.7744791  69.0834899
  39.5578855  43.6351256  68.7918897  38.7316967  43.9399246  70.0233077
  32.9911797  41.1511646  67.9288085  32.1215107  41.4445212  67.6570674
  33.2271278  41.7352091  68.6495349  28.0054121  46.4967587  56.0628750
  27.7600163  45.5929917  56.2608960  28.1750036  46.4984737  55.1208228
  35.6950831  37.3691263  65.4453506  36.2132775  38.1052290  65.1199994
  35.3405964  37.6755256  66.2800265  27.2749769  42.2295944  53.5614912
  26.5819014  42.3040299  52.9054948  27.0301521  41.4656288  54.0836429
  35.9463425  33.7891546  60.9654402  36.2265179  33.1214735  61.5914829
  36.7314032  33.9820641  60.4529066  39.8172284  42.2109180  64.7125978
  40.7689707  42.3107277  64.7338202  39.6475734  41.4187448  65.2224062
  37.8386663  39.2964763  64.8985378  37.2436595  39.5769775  64.2031867
  37.5536360  39.7858664  65.6702120  34.1343692  44.3011352  49.8695481
  35.0802797  44.1717560  49.9383899  33.7557937  43.5626014  50.3464909
  40.1065577  35.9667358  59.8322373  39.9090398  35.6582446  60.7165705
  40.7165283  36.6928997  59.9620303  34.0182385  48.3529098  71.3296138
  34.9385394  48.5307697  71.5236185  33.9831968  47.4085144  71.1775837
  32.3186610  42.2261329  49.8050366  31.4118065  41.9294441  49.8813080
  32.5962591  41.9291147  48.9384653  23.2364550  43.5467692  60.2549413
  22.9167334  42.6933000  59.9623787  22.6897978  43.7616270  61.0107380
  27.0144458  46.2630133  63.9718919  27.2330467  47.1947241  63.9906953
  27.4270231  45.9038107  64.7573723  33.9348675  36.7698218  55.9594608
  33.1249404  36.4245303  56.3349854  34.6233092  36.4605762  56.5482219
  35.8639224  35.8476265  57.5818904  36.4170262  36.2671719  58.2408927
  36.1009310  34.9212013  57.6241860  31.8872323  41.8363339  73.3621668
  31.7869050  42.7857696  73.2933759  31.6693865  41.5081578  72.4897738
  31.0885394  39.0848264  49.9462346  31.9504558  39.4103162  50.2058163
  31.2735738  38.2979760  49.4335411  23.1052810  47.1670603  62.2242534
  22.4116281  46.7524556  61.7112489  23.8525801  47.2091140  61.6275953
  39.2418031  37.9576790  57.0897569  38.6616700  38.6161594  56.7075621
  38.9753963  37.1354135  56.6784986  37.6921597  37.3581848  59.2918889
  38.1921375  37.4698383  58.4833208  38.3357205  37.0542901  59.9319697
  31.7503593  45.2660478  72.1786730  31.2670675  46.0660838  72.3850619
  31.8364532  45.2768422  71.2254174  25.0189553  47.0988857  60.1008549
  24.9960241  47.1976545  59.1490432  25.3290189  47.9454008  60.4225715
  27.6776930  49.1565012  64.2155164  28.6320184  49.1248955  64.1485095
  27.4789454  48.6955636  65.0305390  28.2676313  47.7266128  66.7825961
  29.0869202  48.2210207  66.8060799  28.5413120  46.8098096  66.7543529
  38.0242909  40.1176881  56.1453917  37.1368764  40.4026531  55.9274112
  38.4396898  39.9570644  55.2981194  41.3757445  40.1423402  59.8608256
  42.1517835  40.6319854  60.1332873  40.6505579  40.5681456  60.3180126
  26.0327159  54.6984632  61.2325362  25.8981627  53.9385033  60.6663360
  25.6159221  55.4225532  60.7654150  37.1686122  49.8821555  50.2401937
  37.8721972  50.0871558  50.8559593  36.4448771  50.4498317  50.5051020
  37.9983932  45.6331417  56.3604207  37.9419134  46.0899968  55.5211839
  38.5512275  44.8722101  56.1827050  29.1896285  55.5953949  61.4443804
  29.0728669  56.5399381  61.3422495  28.3688731  55.2927510  61.8329603
  38.7318712  46.8236198  53.6556736  38.6767516  46.6580469  52.7145180
  38.1064767  47.5312231  53.8118926  23.5211227  42.0604262  67.4818158
  24.1670090  41.5503216  67.9705384  23.3128378  42.7972944  68.0561584
  36.0464619  49.1285110  72.9810299  36.9155779  49.3025762  72.6196934
  35.5671370  49.9479527  72.8586028  32.0414837  36.3244307  53.2342055
  32.0293507  37.2686147  53.3910326  32.9338259  36.1414452  52.9401516
  35.8566957  32.9187083  57.4887991  35.0899353  32.3645570  57.6344674
  36.2677662  32.9908952  58.3502143  27.8608718  39.2071879  71.5793173
  28.7240179  38.8508684  71.7896497  27.2874128  38.8685774  72.2668577
  50.4375925  67.8945478  50.6191959  50.3589556  67.5605341  51.5127716
  51.2585592  68.3867246  50.6183431  56.7926930  81.6399526  53.6228454
  56.1414910  82.2253606  53.2362468  57.5871293  82.1705720  53.6823492
  53.0548835  74.8881329  51.6534039  53.3074356  74.3662850  50.8917502
  52.1173394  74.7247474  51.7560722  58.2702195  79.3289957  54.1597439
  57.6348028  79.4024584  54.8718343  57.9399601  79.9183556  53.4816518
  54.7371372  73.7367139  53.5413118  54.6170998  74.1824190  54.3798598
  54.0423961  74.0852457  52.9826656  53.5322869  75.0511991  55.8346684
  54.2346912  75.5033035  56.3020610  53.2003497  74.4095810  56.4626577
  49.2262948  73.6740123  58.0947294  48.4294111  73.7858817  58.6130790
  48.9988540  74.0126775  57.2288185  46.1894948  77.7117026  57.2596285
  47.0270170  78.1214034  57.0429992  46.3673215  76.7716468  57.2296479
  58.0859380  75.3792107  52.9480118  57.5706003  76.1496711  53.1868505
  57.8136688  74.7057243  53.5713179  63.0593654  78.1324461  54.8833291
  62.2823097  77.7935621  54.4388453  63.7385135  78.1377085  54.2088256
  57.8745683  73.2519199  54.7739899  57.5695818  73.5665348  55.6250042
  58.8276125  73.3300619  54.8167232  56.3192115  79.4109422  56.4232853
  55.7913476  78.6762182  56.1106090  55.8179617  80.1884099  56.1772821
  51.3780429  72.1033549  52.8035350  50.5417742  72.4408236  53.1244624
  51.2385199  71.9682529  51.8662487  54.4644715  77.2289632  49.4267826
  53.5571777  76.9978886  49.6258975  54.9615747  76.4327252  49.6141807
  55.6432948  77.3302227  53.9491816  54.7344168  77.0461260  54.0464286
  55.6728032  77.7501306  53.0895123  60.8752216  80.9408817  57.7182983
  60.4214543  80.0999727  57.7748174  60.2446182  81.5770215  58.0557764
  55.3409036  78.8710971  51.2879894  54.9028466  78.1546830  50.8285532
  56.0819477  79.0987086  50.7264986  52.1310202  73.5607908  57.8091990
  51.3178068  73.8602078  58.2157182  52.6269196  73.1663596  58.5266472
  48.7067344  74.5771775  55.6147970  47.7764933  74.5156231  55.8317932
  48.8024816  74.0547728  54.8184611  59.4620264  77.7295353  50.8811952
  58.8449434  77.0042181  50.7845005  58.9936752  78.4904713  50.5379026
  51.2518810  71.9480777  50.0033256  50.3748276  71.8269578  49.6395503
  51.7276563  71.1566855  49.7512145  42.7720950  76.7357937  60.0974763
  43.4591990  76.4219667  59.5095779  42.6169078  77.6399301  59.8242015
  52.1603553  82.7116575  66.7156685  52.8613013  83.3453058  66.8686079
  51.6898668  83.0531306  65.9552324  60.2857949  81.0534525  55.0004592
  60.5617793  80.9391119  55.9098466  59.4162448  80.6552009  54.9616765
  56.9526438  70.7129470  55.0712590  57.1690053  71.5954108  54.7701418
  56.4720505  70.3215684  54.3418232  61.3369534  83.5172623  53.6204335
  62.0320439  84.1379316  53.8391650  61.6792685  82.6667974  53.8956713
  63.2360958  80.9672329  55.1491666  63.7612282  81.3059601  54.4240986
  63.1483310  80.0319344  54.9654801  45.6002562  81.1442179  60.4700481
  44.7634471  80.7164354  60.2884482  45.5726208  81.3374623  61.4071272
  48.9537278  72.8879780  53.5614912  48.2606523  72.9624135  52.9054948
  48.7089030  72.1240123  54.0836429  55.4284403  83.6234375  52.5279429
  54.8558370  84.2424562  52.0749901  56.0017197  84.1733736  53.0619351
  61.2769679  83.2237395  50.6191959  61.1983311  82.8897259  51.5127716
  62.0979346  83.7159163  50.6183431  55.8131201  74.9595188  49.8695481
  56.7590306  74.8301396  49.9383899  55.4345446  74.2209849  50.3464909
  53.9974119  72.8845164  49.8050366  53.0905574  72.5878277  49.8813080
  54.2750100  72.5874982  48.9384653  58.8473631  80.5405391  50.2401937
  59.5509481  80.7455393  50.8559593  58.1236280  81.1082153  50.5051020
  60.7560329  80.9787920  52.2900397  61.5905933  80.5469118  52.1077872
  60.5944672  80.8069934  53.2177291  60.4106221  77.4820033  53.6556736
  60.3555025  77.3164305  52.7145180  59.7852276  78.1896066  53.8118926
  51.8938308  86.9066046  64.6599733  52.7965555  86.9389656  64.9766228
  51.6675678  85.9766497  64.6746068  69.3844604  91.4957571  62.3855574
  70.0223014  91.3764318  61.6818914  69.2665447  92.4438415  62.4443526
  66.1934310  91.4484999  62.3217098  65.8552821  91.3326064  61.4337633
  67.0624078  91.0476164  62.3018105  62.0521126  93.3020476  58.3113989
  61.4885991  93.2110412  57.5430277  61.9373521  92.4820380  58.7916482
  59.5985558  94.7971667  61.1498210  60.3906850  94.4562492  60.7344509
  59.8382208  94.9066642  62.0700363  67.6320684  96.9691443  53.6228454
  66.9808664  97.5545524  53.2362468  68.4265047  97.4997638  53.6823492
  61.5576312  94.0580580  54.0215589  62.3307188  93.5109567  53.8828464
  61.9101710  94.9224830  54.2330050  63.3961354  95.3856963  67.2282488
  63.1051220  96.2902593  67.1129154  64.0318338  95.4273490  67.9426557
  64.3217561  92.7633811  63.8183848  64.9181133  92.5389834  63.1040810
  64.3792532  92.0218557  64.4209295  63.8942589  90.2173246  51.6534039
  64.1468110  89.6954768  50.8917502  62.9567148  90.0539392  51.7560722
  68.9385872  89.2209025  59.4608782  69.7248961  88.8028448  59.1099199
  69.2024576  90.1255117  59.6290430  69.1095950  94.6581875  54.1597439
  68.4741782  94.7316502  54.8718343  68.7793356  95.2475474  53.4816518
  74.3394299  89.1584258  60.3641760  75.0719471  88.5883475  60.5979590
  73.5833655  88.7705858  60.8048266  63.6138878  92.1201352  53.8558413
  63.4975136  91.4446256  54.5239498  63.7241138  91.6333726  53.0390567
  65.9570419  91.5811500  57.5605103  65.5928626  91.0542121  58.2718024
  66.8137535  91.1909969  57.3871588  65.5975906  86.6101399  52.5566451
  65.7650308  87.4781636  52.9236922  65.4073075  86.7728681  51.6327740
  68.3551239  95.0718378  64.2232282  68.0551962  95.9743417  64.1148089
  68.0102299  94.8050561  65.0753434  61.8063721  91.5232175  60.2568986
  60.8814217  91.3908389  60.4646678  62.0548134  92.3026394  60.7538928
  65.5765127  89.0659057  53.5413118  65.4564752  89.5116107  54.3798598
  64.8817715  89.4144374  52.9826656  59.1672532  91.1665449  61.0912775
  59.2964913  91.4199927  62.0052187  58.4869983  91.7593157  60.7717430
  63.3372019 101.8362698  57.1903249  63.2596049 102.7870524  57.2691730
  62.7333663 101.4908571  57.8478176  71.2750193  89.5380530  54.3693452
  72.1868049  89.7707917  54.1941150  70.7659840  90.1217574  53.8068531
  69.8819775  94.5206348  61.7607034  69.2528638  94.6852062  61.0583101
  69.4945437  94.9347958  62.5317998  73.7609007  95.4560786  59.1151397
  73.0760045  95.8359688  58.5648431  73.8452857  96.0656113  59.8483345
  71.0159939  93.1020745  65.7146741  71.2276834  93.7452505  65.0381122
  70.9689687  92.2683062  65.2468671  65.4347737  94.2580756  59.0257119
  65.8986083  94.5368459  58.2361741  65.1704535  93.3564201  58.8430209
  62.3271818  93.8052238  61.9636882  62.8973175  94.2339506  61.3254366
  62.9179930  93.5234823  62.6621068  64.3716623  90.3803909  55.8346684
  65.0740667  90.8324952  56.3020610  64.0397252  89.7387728  56.4626577
  72.1305767  95.9792701  63.8869098  72.9523211  95.5772888  63.6051780
  72.1268170  95.8760935  64.8385214  65.8962370  95.5276744  66.0429809
  65.9606803  95.9897151  66.8787981  65.1873294  94.8974109  66.1712119
  80.2211760  92.3231449  60.2354070  79.4675468  91.7538847  60.0798074
  80.3559301  92.2894114  61.1824704  65.6110388  97.1944851  55.9108789
  65.4756063  98.0396387  56.3393637  66.1520200  97.3964129  55.1474723
  59.0639785  94.7120289  56.4836714  59.5764306  95.5063540  56.6342279
  59.7162498  94.0146580  56.4170316  60.8734670  97.8286046  58.5659467
  61.0501298  98.7504010  58.3780451  61.6691504  97.5144465  58.9953847
  60.1587027  89.8750678  68.4421630  60.0440542  88.9735935  68.7428729
  59.3031544  90.1214374  68.0906447  67.2378864  97.8168418  70.0409131
  66.7942718  97.0304797  69.7230036  67.8996078  98.0047568  69.3753022
  61.9965985  99.3464220  64.5669810  62.5473411  99.2181283  63.7946804
  61.1577461  99.6459109  64.2164702  69.3360102  98.0971218  68.0690532
  69.3178578  98.9180099  67.5770802  70.2580022  97.9725293  68.2940674
  65.7933156  95.6115347  68.9114041  66.3261493  94.8503636  68.6813349
  65.2647238  95.3188999  69.6538195  57.0288702  93.0408944  57.2596285
  57.8663924  93.4505952  57.0429992  57.2066970  92.1008386  57.2296479
  68.9253134  90.7084024  52.9480118  68.4099758  91.4788629  53.1868505
  68.6530443  90.0349161  53.5713179  73.8987408  93.4616379  54.8833291
  73.1216851  93.1227539  54.4388453  74.5778889  93.4669002  54.2088256
  68.7139437  88.5811117  54.7739899  68.4089573  88.8957266  55.6250042
  69.6669879  88.6592536  54.8167232  67.1585869  94.7401340  56.4232853
  66.6307231  94.0054099  56.1106090  66.6573372  95.5176016  56.1772821
  72.1378715  92.9350360  61.5399899  71.4802390  93.6249622  61.6280028
  72.9419114  93.3246792  61.8833885  70.9484174  91.2894733  59.5903841
  71.4616056  91.9224725  60.0925551  71.5985398  90.6895929  59.2247201
  62.2174184  87.4325467  52.8035350  61.3811496  87.7700154  53.1244624
  62.0778954  87.2974447  51.8662487  65.3038469  92.5581550  49.4267826
  64.3965531  92.3270804  49.6258975  65.8009501  91.7619169  49.6141807
  68.2106548 101.2679057  52.3464512  67.5368247 101.5710754  52.9549470
  68.5972370 102.0708138  51.9969969  68.2100053  90.1635604  56.9664862
  68.9571872  90.6757001  56.6571984  68.4791642  89.8419657  57.8269255
  66.4826703  92.6594145  53.9491816  65.5737922  92.3753178  54.0464286
  66.5121787  93.0793224  53.0895123  71.7145970  96.2700734  57.7182983
  71.2608297  95.4291644  57.7748174  71.0839937  96.9062133  58.0557764
  70.1578909  98.1077231  58.6532802  70.4501884  98.6682288  57.9345167
  70.6677530  98.4005792  59.4085961  65.0311597  90.2722766  60.0501611
  65.0860207  89.3196602  59.9744088  64.2202799  90.4282205  60.5342910
  66.1802791  94.2002889  51.2879894  65.7422221  93.4838748  50.8285532
  66.9213231  94.4279003  50.7264986  65.1212535  98.8857582  59.7426255
  65.0788713  99.1118429  58.8134787  66.0375234  98.6520957  59.8912056
  74.2975905  92.4760086  57.3456213  74.1593804  92.6661682  56.4177402
  73.9412124  93.2379469  57.8024264  74.3245285  94.5436613  62.3567485
  74.7581792  94.4511902  63.2050539  75.0376866  94.5194113  61.7187501
  63.2378335  95.7620611  59.5388218  64.0318934  95.2670931  59.3370792
  62.5270028  95.2338474  59.1755923  68.0573180  98.1438707  63.8900585
  68.1110202  98.7129643  64.6578301  67.1887961  98.3140592  63.5254622
  75.1860835  94.5860313  64.8900370  75.3796725  95.4906124  65.1359645
  75.0861453  94.1267732  65.7238955  70.2475943  94.7367056  70.4641251
  70.0961450  94.5077608  69.5471334  70.2380623  95.6937658  70.4772596
  67.0161280  92.3098969  65.4487517  67.9453340  92.4610128  65.2756484
  66.5952310  92.3982990  64.5936163  65.8149611  96.3349633  63.2186055
  65.6760697  95.9668418  64.0911993  65.0264208  96.8497273  63.0470012
  66.4097763 101.4358730  54.5611591  66.5849519 100.9646773  55.3757214
  65.7230551 102.0624496  54.7892852  67.3654827  95.7131236  60.6074892
  67.0304659  95.6732006  61.5032542  66.8658772  95.0475952  60.1345303
  61.3399071  91.1198866  66.1327474  61.2018868  90.3879105  66.7339013
  62.2503994  91.0307766  65.8511661  70.3014018  93.0587270  50.8811952
  69.6843189  92.3334098  50.7845005  69.8330507  93.8196631  50.5379026
  63.9681371  90.8318825  65.6211153  64.6780990  90.1912017  65.5797772
  63.9250679  91.0831720  66.5437334  71.9568150  97.7686179  68.5417732
  71.8980696  97.0845399  67.8748315  72.3587668  98.5105169  68.0898358
  60.9758849 104.5848092  61.3351451  61.2155447 105.2166617  62.0130470
  60.1328045 104.2336133  61.6216811  62.0912564  87.2772695  50.0033256
  61.2142030  87.1561495  49.6395503  62.5670317  86.4858773  49.7512145
  71.9585557  95.7325763  66.7731712  71.0712336  95.3951684  66.8958111
  72.5284108  95.0008794  67.0100477  53.6114704  92.0649854  60.0974763
  54.2985744  91.7511584  59.5095779  53.4562833  92.9691219  59.8242015
  65.4886711 100.3927215  63.7392955  65.4156882 101.1982186  64.2512260
  65.0464104 100.5919181  62.9140977  65.2776490  99.6298985  57.2495777
  64.4944012 100.1720665  57.3434001  65.9769235 100.1472965  57.6490018
  76.4402898  91.1433980  61.5348274  76.4292774  92.0258695  61.1642207
  75.5720277  90.7905531  61.3402811  67.9485394 100.2914049  65.8951114
  68.6613366 100.9261514  65.8227015  67.4575423 100.3877915  65.0791116
  69.6702921  94.1965302  57.4668406  68.7359200  94.3166764  57.2973110
  69.8479589  93.2937768  57.2028415  73.0575472  90.0382621  58.0018440
  73.5235925  90.8710613  57.9278742  73.5082973  89.5727602  58.7063698
  62.9997308  98.0408492  66.7156685  63.7006767  98.6744975  66.8686079
  62.5292423  98.3823224  65.9552324  71.1251703  96.3826442  55.0004592
  71.4011547  96.2683037  55.9098466  70.2556202  95.9843927  54.9616765
  70.7998594  90.5953100  64.5409235  70.1470044  90.8429007  63.8861688
  71.1778973  89.7817238  64.2071712  67.7605767 100.6312793  58.6437405
  67.9428162  99.8134449  59.1065158  68.5838753 100.8480485  58.2062295
  68.0947933  99.5580978  55.9052454  68.6235699  99.0473433  55.2922616
  68.3576153  99.2423508  56.7697987  58.5965026  97.5744847  63.6487787
  59.1818462  96.8288535  63.7815692  58.3989864  97.8848804  64.5324451
  61.4503681 100.6096095  58.6650230  60.7814056 101.0942222  58.1814270
  61.3116551 100.8565315  59.5793608  53.1882680  90.1450448  62.3692231
  53.2266780  89.6114038  63.1629349  52.6822973  89.6185653  61.7503208
  65.5908949 102.6439838  65.2632888  66.1427258 102.8071460  66.0281973
  65.9315143 103.2344276  64.5912913  70.4419824  97.4701096  71.1181543
  70.9859728  98.0831054  70.6236497  69.8606669  98.0280674  71.6348556
  68.7277337 100.5921814  62.2496570  68.6028476  99.7911554  61.7407516
  69.3856428 101.0868007  61.7610540  70.7912245  98.3930834  63.8776120
  69.8442581  98.2736185  63.8054447  71.1395018  97.5053332  63.9602382
  67.7958678  98.1883550  60.0780473  67.6483641  97.2600258  60.2588043
  68.6212172  98.2103641  59.5937548  71.3992800  99.0112109  61.1645345
  72.3239348  98.8054970  61.0269797  71.2308104  98.7628510  62.0734687
  63.6489070  85.3376239  54.1354258  64.3697432  85.7157492  53.6317974
  63.0254374  86.0565116  54.2389236  62.5319414  89.0007101  61.6483334
  62.3863995  89.3147404  62.5407616  62.0544618  89.6192001  61.0954233
  71.1888116  99.5297776  56.5207437  71.3624994  98.9644199  55.7681289
  71.6817008 100.3298671  56.3386927  77.0427508  92.2934199  58.1397737
  77.4858654  91.5441525  57.7416860  76.1654018  92.2844336  57.7571469
  72.1763289  98.8464541  53.6204335  72.8714194  99.4671233  53.8391650
  72.5186439  97.9959892  53.8956713  74.0754712  96.2964246  55.1491666
  74.6006036  96.6351519  54.4240986  73.9877065  95.3611262  54.9654801
  65.7374761 100.2098320  67.2781543  66.0461887  99.9647467  68.1504242
  66.5350243 100.4144958  66.7900413  65.7595373 102.3636230  59.5086919
  65.3200363 101.8712608  60.2019776  66.5103490 101.8209197  59.2678994
  58.2387712  98.5547770  59.5111547  59.0645732  98.2551542  59.1310191
  57.8881764  97.7855393  59.9601336  63.2069245  97.9074239  61.5809221
  62.5849254  97.2444944  61.2811449  63.8774112  97.9335371  60.8982869
  56.4396317  96.4734097  60.4700481  55.6028225  96.0456271  60.2884482
  56.4119962  96.6666540  61.4071272  73.7648618  96.9297150  70.4542864
  72.9744162  96.9121289  69.9147363  73.5281973  97.4685444  71.2091900
  73.8846493  93.7789616  67.7675592  73.9344498  93.6139624  68.7091115
  73.7760417  92.9116875  67.3773473  62.7682752  96.4578162  55.0567681
  62.9170872  97.1413626  54.4034354  63.5749195  96.4383252  55.5717137
  75.3864690  96.1986558  68.0117614  75.0949498  96.5616538  68.8481075
  74.7736821  95.4853566  67.8330946  76.5860372  93.7639438  60.5320184
  77.4207264  94.2029242  60.6957745  76.7219501  93.2878091  59.7128430
  73.6351878  91.3219172  66.4797672  74.1106000  91.5146819  65.6716523
  72.7117444  91.3778358  66.2341056  60.5235385  92.4843340  56.0628750
  60.2781427  91.5805670  56.2608960  60.6931299  92.4860490  55.1208228
  66.2678157  98.9526292  52.5279429  65.6952125  99.5716480  52.0749901
  66.8410951  99.5025654  53.0619351  69.4875417  99.2363443  53.6588011
  70.4206090  99.1709004  53.8620887  69.3998630 100.0719709  53.2002544
  72.1163434  98.5529313  50.6191959  72.0377065  98.2189177  51.5127716
  72.9373101  99.0451081  50.6183431  74.8141625  91.4191052  63.8268277
  74.7817945  90.4807053  64.0127961  75.4242249  91.4975089  63.0934102
  66.6524956  90.2887105  49.8695481  67.5984061  90.1593313  49.9383899
  66.2739201  89.5501767  50.3464909  80.6318175  92.4807059  62.9674314
  81.3621563  92.2192347  63.5282017  80.0225120  91.7435781  63.0076382
  78.7133472  90.6214922  63.5648765  77.9866636  90.4870887  62.9565257
  78.2980759  90.9291750  64.3705483  66.5363648  94.3404851  71.3296138
  67.4566658  94.5183450  71.5236185  66.5013232  93.3960897  71.1775837
  64.8367873  88.2137082  49.8050366  63.9299328  87.9170194  49.8813080
  65.1143854  87.9166900  48.9384653  59.5325721  92.2505886  63.9718919
  59.7511731  93.1822994  63.9906953  59.9451495  91.8913860  64.7573723
  66.4529939  82.7573971  55.9594608  65.6430667  82.4121056  56.3349854
  67.1414356  82.4481515  56.5482219  63.6066658  85.0724017  49.9462346
  64.4685822  85.3978915  50.2058163  63.7917002  84.2855513  49.4335411
  55.6234073  93.1546357  62.2242534  54.9297545  92.7400309  61.7112489
  56.3707064  93.1966893  61.6275953  64.2684856  91.2536231  72.1786730
  63.7851938  92.0536591  72.3850619  64.3545795  91.2644175  71.2254174
  57.5370816  93.0864610  60.1008549  57.5141504  93.1852298  59.1490432
  57.8471452  93.9329761  60.4225715  60.1958194  95.1440765  64.2155164
  61.1501447  95.1124708  64.1485095  59.9970717  94.6831389  65.0305390
  60.7857576  93.7141881  66.7825961  61.6050465  94.2085960  66.8060799
  61.0594384  92.7973850  66.7543529  76.3311267  86.8426774  60.9182197
  76.9255758  86.6022510  60.2075505  76.4037851  86.1233904  61.5455733
  58.5508423 100.6860385  61.2325362  58.4162891  99.9260786  60.6663360
  58.1340485 101.4101285  60.7654150  69.6867386  95.8697308  50.2401937
  70.3903236  96.0747311  50.8559593  68.9630034  96.4374070  50.5051020
  70.5165196  91.6207170  56.3604207  70.4600397  92.0775721  55.5211839
  71.0693538  90.8597854  56.1827050  74.3270002  87.4096901  57.1854327
  74.0706936  87.0093537  58.0162534  73.7022870  88.1240695  57.0604466
  78.6382340  90.1492975  59.6925618  78.0781898  90.2186164  60.4657180
  78.0325843  89.9733959  58.9725114  61.7077549 101.5829702  61.4443804
  61.5909933 102.5275134  61.3422495  60.8869995 101.2803263  61.8329603
  71.5954083  96.3079838  52.2900397  72.4299687  95.8761036  52.1077872
  71.4338426  96.1361851  53.2177291  71.2499975  92.8111951  53.6556736
  71.1948779  92.6456222  52.7145180  70.6246031  93.5187984  53.8118926
  68.5645882  95.1160863  72.9810299  69.4337042  95.2901515  72.6196934
  68.0852634  95.9355280  72.8586028  64.5596101  82.3120060  53.2342055
  64.5474771  83.2561900  53.3910326  65.4519523  82.1290205  52.9401516
  62.7332063 102.2357964  64.6599733  63.6359309 102.2681574  64.9766228
  62.5069433 101.3058415  64.6746068  64.4885665 100.9888950  61.3209811
  63.5381296 100.9890812  61.2074184  64.7918151 100.2421685  60.8045846
  80.2238358 106.8249489  62.3855574  80.8616768 106.7056236  61.6818914
  80.1059201 107.7730333  62.4443526  77.0328064 106.7776917  62.3217098
  76.6946576 106.6617981  61.4337633  77.9017833 106.3768082  62.3018105
  72.8914880 108.6312393  58.3113989  72.3279745 108.5402330  57.5430277
  72.7767275 107.8112298  58.7916482  77.5147847 107.9311768  68.2803304
  77.5036488 107.5364567  67.4083808  77.6768487 107.1977841  68.8737075
  70.4379312 110.1263585  61.1498210  71.2300604 109.7854409  60.7344509
  70.6775962 110.2358560  62.0700363  78.4714439 112.2983361  53.6228454
  77.8202419 112.8837441  53.2362468  79.2658802 112.8289556  53.6823492
  72.3970066 109.3872498  54.0215589  73.1700942 108.8401485  53.8828464
  72.7495465 110.2516747  54.2330050  74.2355109 110.7148880  67.2282488
  73.9444975 111.6194511  67.1129154  74.8712093 110.7565408  67.9426557
  75.1611315 108.0925729  63.8183848  75.7574888 107.8681751  63.1040810
  75.2186287 107.3510474  64.4209295  74.7336344 105.5465164  51.6534039
  74.9861865 105.0246685  50.8917502  73.7960903 105.3831310  51.7560722
  79.7779627 104.5500943  59.4608782  80.5642716 104.1320366  59.1099199
  80.0418331 105.4547035  59.6290430  79.9489704 109.9873793  54.1597439
  79.3135537 110.0608419  54.8718343  79.6187110 110.5767392  53.4816518
  85.1788054 104.4876176  60.3641760  85.9113226 103.9175393  60.5979590
  84.4227409 104.0997776  60.8048266  74.4532633 107.4493270  53.8558413
  74.3368891 106.7738173  54.5239498  74.5634892 106.9625644  53.0390567
  76.7964174 106.9103417  57.5605103  76.4322381 106.3834038  58.2718024
  77.6531289 106.5201886  57.3871588  82.7013474  98.1997750  64.8236369
  82.3696799  99.0693161  64.5997584  82.1059088  97.8834034  65.5030399
  76.4369660 101.9393317  52.5566451  76.6044063 102.8073553  52.9236922
  76.2466830 102.1020599  51.6327740  79.1944994 110.4010296  64.2232282
  78.8945717 111.3035335  64.1148089  78.8496053 110.1342479  65.0753434
  72.6457475 106.8524093  60.2568986  71.7207972 106.7200307  60.4646678
  72.8941888 107.6318312  60.7538928  82.5942137 102.9192836  61.9029719
  81.6859015 102.8508244  61.6088480  82.5429733 103.3964781  62.7311544
  76.4158881 104.3950974  53.5413118  76.2958507 104.8408025  54.3798598
  75.7211470 104.7436292  52.9826656  70.0066286 106.4957366  61.0912775
  70.1358667 106.7491845  62.0052187  69.3263737 107.0885074  60.7717430
  74.1765773 117.1654616  57.1903249  74.0989803 118.1162441  57.2691730
  73.5727417 116.8200489  57.8478176  76.6683003 104.3382482  69.8464616
  75.8916337 104.8976402  69.8367481  77.3073566 104.8239265  70.3679486
  84.4603784 101.1209274  63.6807593  83.8178164 101.4141808  63.0347387
  83.9558712 101.0062195  64.4860789  82.1143948 104.8672448  54.3693452
  83.0261804 105.0999834  54.1941150  81.6053595 105.4509492  53.8068531
  74.9229376 107.1467935  69.4082583  75.6644060 107.6852979  69.1317407
  74.2166361 107.7734224  69.5654135  80.3984715 109.2897075  68.0054745
  80.8068071 108.8479486  67.2609377  79.6761977 108.7149703  68.2588938
  76.7515785 104.2269682  65.3788302  77.5976980 104.6509096  65.5222951
  76.6914423 103.5703307  66.0726865  80.7213530 109.8498266  61.7607034
  80.0922392 110.0143980  61.0583101  80.3339192 110.2639876  62.5317998
  84.6002762 110.7852704  59.1151397  83.9153800 111.1651605  58.5648431
  84.6846611 111.3948031  59.8483345  79.9015231 101.8874051  67.0369475
  79.6576162 102.6416111  66.5003751  80.1775161 102.2659398  67.8716722
  81.8553693 108.4312663  65.7146741  82.0670589 109.0744423  65.0381122
  81.8083442 107.5974979  65.2468671  79.4579922 101.0430484  62.6183313
  78.5964401 101.3411737  62.9100051  79.4842357 101.2600882  61.6864346
  76.2741492 109.5872674  59.0257119  76.7379837 109.8660377  58.2361741
  76.0098290 108.6856119  58.8430209  73.1665573 109.1344156  61.9636882
  73.7366930 109.5631424  61.3254366  73.7573685 108.8526740  62.6621068
  75.2110378 105.7095827  55.8346684  75.9134421 106.1616870  56.3020610
  74.8791006 105.0679645  56.4626577  73.6590739 104.3007583  70.2097893
  73.0289400 104.9823864  70.4433290  73.5526827 104.1890665  69.2651031
  68.9535712 103.9679379  61.1363817  68.1634766 104.2236908  60.6603928
  69.4446959 104.7827717  61.2415858  82.9699521 111.3084618  63.8869098
  83.7916965 110.9064806  63.6051780  82.9661924 111.2052853  64.8385214
  70.9050457 104.3323958  58.0947294  70.1081620 104.4442653  58.6130790
  70.6776049 104.6710611  57.2288185  76.7356125 110.8568662  66.0429809
  76.8000557 111.3189069  66.8787981  76.0267049 110.2266027  66.1712119
  67.2373415 104.2209870  63.5678808  67.4881453 105.1056880  63.8336384
  67.7732963 104.0414471  62.7953900  91.0605514 107.6523367  60.2354070
  90.3069223 107.0830765  60.0798074  91.1953056 107.6186031  61.1824704
  76.4504142 112.5236769  55.9108789  76.3149817 113.3688305  56.3393637
  76.9913955 112.7256047  55.1474723  72.9371482  98.6028349  72.5723144
  72.5438428  98.0494548  73.2470788  73.7537622  98.9138927  72.9629662
  69.9033540 110.0412207  56.4836714  70.4158060 110.8355457  56.6342279
  70.5556253 109.3438498  56.4170316  71.7128424 113.1577963  58.5659467
  71.8895053 114.0795928  58.3780451  72.5085258 112.8436383  58.9953847
  75.8539443 100.0186228  70.1643401  76.5949156 100.6193381  70.0847863
  76.0857366  99.2763866  69.6061443  70.9980781 105.2042595  68.4421630
  70.8834296 104.3027853  68.7428729  70.1425299 105.4506292  68.0906447
  78.0772619 113.1460336  70.0409131  77.6336473 112.3596714  69.7230036
  78.7389832 113.3339486  69.3753022  72.8359740 114.6756137  64.5669810
  73.3867165 114.5473201  63.7946804  71.9971216 114.9751026  64.2164702
  80.1753857 113.4263136  68.0690532  80.1572332 114.2472017  67.5770802
  81.0973777 113.3017211  68.2940674  76.6326911 110.9407265  68.9114041
  77.1655248 110.1795553  68.6813349  76.1040992 110.6480917  69.6538195
  79.7996606  96.0467331  64.4407682  79.4560875  96.9368973  64.3646793
  80.1675569  95.8568989  63.5777267  67.8682457 108.3700861  57.2596285
  68.7057679 108.7797870  57.0429992  68.0460724 107.4300304  57.2296479
  79.7646889 106.0375942  52.9480118  79.2493512 106.8080547  53.1868505
  79.4924197 105.3641078  53.5713179  77.3494000 100.8825643  58.0065356
  76.4935596 100.4932493  57.8270995  77.7620951 100.9617604  57.1465141
  78.8793146  98.4171986  62.4056916  78.3757942  98.3802121  61.5924721
  79.1723753  99.3264729  62.4653572  75.1236032  98.5010716  61.4123097
  75.9889029  98.3053525  61.0528987  75.1913541  98.2721068  62.3392454
  84.7381163 108.7908297  54.8833291  83.9610606 108.4519456  54.4388453
  85.4172644 108.7960920  54.2088256  79.5533192 103.9103034  54.7739899
  79.2483327 104.2249183  55.6250042  80.5063634 103.9884454  54.8167232
  77.9979624 110.0693258  56.4232853  77.4700985 109.3346017  56.1106090
  77.4967126 110.8467934  56.1772821  82.9772470 108.2642278  61.5399899
  82.3196144 108.9541539  61.6280028  83.7812869 108.6538710  61.8833885
  72.7298351 100.7312924  58.7839464  73.3042103 100.5088105  58.0512657
  73.3169334 100.8001618  59.5368066  81.7877929 106.6186651  59.5903841
  82.3009810 107.2516643  60.0925551  82.4379152 106.0187846  59.2247201
  73.0567938 102.7617385  52.8035350  72.2205251 103.0992071  53.1244624
  72.9172708 102.6266365  51.8662487  75.0321019  97.6054173  57.5114534
  74.3785431  97.2903190  56.8871148  74.9901493  96.9829913  58.2374357
  76.1432224 107.8873468  49.4267826  75.2359286 107.6562721  49.6258975
  76.6403256 107.0911087  49.6141807  79.0500303 116.5970975  52.3464512
  78.3762002 116.9002672  52.9549470  79.4366125 117.4000055  51.9969969
  78.2658759 104.0936106  61.8362181  77.3481321 104.3151053  61.6783869
  78.6818903 104.1682417  60.9773889  79.0493807 105.4927522  56.9664862
  79.7965626 106.0048919  56.6571984  79.3185397 105.1711575  57.8269255
  77.3220457 107.9886063  53.9491816  76.4131677 107.7045095  54.0464286
  77.3515541 108.4085141  53.0895123  82.5539725 111.5992652  57.7182983
  82.1002052 110.7583562  57.7748174  81.9233691 112.2354051  58.0557764
  81.4972644 102.5284638  58.9483651  80.7595401 102.0162024  59.2793893
  81.7499418 102.0885020  58.1366928  80.9972664 113.4369149  58.6532802
  81.2895638 113.9974206  57.9345167  81.5071285 113.7297710  59.4085961
  81.5984272  95.3060890  59.5425420  81.9043148  94.4458254  59.2551335
  82.3236876  95.8978510  59.3424414  67.8908628 105.7091577  57.9307018
  67.6933028 105.1160937  57.2058085  67.3355292 105.4043787  58.6482957
  75.8705351 105.6014683  60.0501611  75.9253961 104.6488520  59.9744088
  75.0596553 105.7574122  60.5342910  77.0196545 109.5294806  51.2879894
  76.5815975 108.8130665  50.8285532  77.7606986 109.7570921  50.7264986
  73.8097711 104.2191743  57.8091990  72.9965577 104.5185914  58.2157182
  74.3056705 103.8247432  58.5266472  75.9606289 114.2149500  59.7426255
  75.9182468 114.4410346  58.8134787  76.8768988 113.9812875  59.8912056
  79.4071923 104.6833567  66.6406884  79.7621311 104.9105041  67.5001350
  80.0544054 105.0151944  66.0184139  85.1369660 107.8052003  57.3456213
  84.9987558 107.9953599  56.4177402  84.7805879 108.5671386  57.8024264
  73.3011786 101.7910099  63.4253225  73.9411165 101.6498858  62.7276188
  72.4689317 101.5044612  63.0491827  85.1639039 109.8728530  62.3567485
  85.5975546 109.7803819  63.2050539  85.8770620 109.8486031  61.7187501
  74.0772090 111.0912529  59.5388218  74.8712688 110.5962849  59.3370792
  73.3663782 110.5630392  59.1755923  78.8966934 113.4730624  63.8900585
  78.9503957 114.0421561  64.6578301  78.0281716 113.6432510  63.5254622
  70.3854853 105.2355611  55.6147970  69.4552441 105.1740066  55.8317932
  70.4812325 104.7131563  54.8184611  70.3040402 101.7610424  58.2026212
  70.5647220 102.6755757  58.0935372  71.1257575 101.2934866  58.3522825
  71.7765328 103.1748181  65.3725036  72.4488381 102.9665543  64.7237685
  70.9495114 102.9770267  64.9330269  86.0254589 109.9152231  64.8900370
  86.2190479 110.8198042  65.1359645  85.9255207 109.4559650  65.7238955
  77.6790900  99.8010122  67.3890697  77.0318815 100.5000071  67.2955174
  78.4491915 100.2346266  67.7566945  81.0869698 110.0658974  70.4641251
  80.9355204 109.8369525  69.5471334  81.0774377 111.0229575  70.4772596
  77.8555034 107.6390887  65.4487517  78.7847094 107.7902046  65.2756484
  77.4346064 107.7274907  64.5936163  76.6543366 111.6641551  63.2186055
  76.5154452 111.2960335  64.0911993  75.8657962 112.1789190  63.0470012
  77.2491518 116.7650647  54.5611591  77.4243274 116.2938691  55.3757214
  76.5624306 117.3916414  54.7892852  78.2048581 111.0423154  60.6074892
  77.8698414 111.0023924  61.5032542  77.7052527 110.3767870  60.1345303
  72.1792825 106.4490784  66.1327474  72.0412623 105.7171022  66.7339013
  73.0897749 106.3599684  65.8511661  81.1407773 108.3879188  50.8811952
  80.5236943 107.6626016  50.7845005  80.6724261 109.1488548  50.5379026
  74.8075126 106.1610743  65.6211153  75.5174744 105.5203935  65.5797772
  74.7644434 106.4123638  66.5437334  82.7961904 113.0978096  68.5417732
  82.7374451 112.4137316  67.8748315  83.1981423 113.8397086  68.0898358
  73.5204060 103.1475961  67.4406793  72.9841417 102.6966699  68.0928389
  72.9320768 103.2821870  66.6977257  71.8152603 119.9140010  61.3351451
  72.0549201 120.5458534  62.0130470  70.9721800 119.5628050  61.6216811
  72.9306319 102.6064612  50.0033256  72.0535785 102.4853413  49.6395503
  73.4064072 101.8150691  49.7512145  82.7979312 111.0617680  66.7731712
  81.9106090 110.7243602  66.8958111  83.3677863 110.3300711  67.0100477
  64.4508459 107.3941772  60.0974763  65.1379499 107.0803502  59.5095779
  64.2956587 108.2983137  59.8242015  69.2543181 102.2831969  64.5259787
  69.1701370 101.6757638  63.7910197  68.4325887 102.7740987  64.5269283
  76.3280465 115.7219133  63.7392955  76.2550637 116.5274104  64.2512260
  75.8857858 115.9211098  62.9140977  76.1170245 114.9590903  57.2495777
  75.3337767 115.5012583  57.3434001  76.8162990 115.4764882  57.6490018
  79.4266895 100.7685532  59.8929982  79.9235594 100.0155494  59.5731052
  78.6553876 100.8049849  59.3273192  87.2796652 106.4725898  61.5348274
  87.2686528 107.3550613  61.1642207  86.4114032 106.1197448  61.3402811
  78.7879149 115.6205967  65.8951114  79.5007121 116.2553431  65.8227015
  78.2969177 115.7169833  65.0791116  80.5096675 109.5257219  57.4668406
  79.5752954 109.6458682  57.2973110  80.6873344 108.6229686  57.2028415
  76.0101864 102.9102915  59.6201667  75.6399651 102.3573955  60.3082572
  76.5060956 102.3061049  59.0676667  83.8969227 105.3674539  58.0018440
  84.3629679 106.2002530  57.9278742  84.3476727 104.9019520  58.7063698
  73.8391062 113.3700410  66.7156685  74.5400522 114.0036893  66.8686079
  73.3686177 113.7115142  65.9552324  81.9645458 111.7118360  55.0004592
  82.2405302 111.5974954  55.9098466  81.0949957 111.3135845  54.9616765
  81.8685890  97.7355126  62.0409341  80.9548969  97.9659352  62.2091548
  82.2978991  97.8193570  62.8923373  81.6392348 105.9245018  64.5409235
  80.9863798 106.1720925  63.8861688  82.0172728 105.1109156  64.2071712
  78.5999522 115.9604711  58.6437405  78.7821916 115.1426367  59.1065158
  79.4232508 116.1772403  58.2062295  78.9341687 114.8872896  55.9052454
  79.4629454 114.3765350  55.2922616  79.1969907 114.5715426  56.7697987
  77.6879921 106.6664829  71.0275272  77.0120558 106.5658958  71.6977647
  78.5107555 106.5104042  71.4911269  69.4358780 112.9036765  63.6487787
  70.0212217 112.1580453  63.7815692  69.2383619 113.2140722  64.5324451
  72.2897435 115.9388013  58.6650230  71.6207811 116.4234140  58.1814270
  72.1510305 116.1857233  59.5793608  64.0276435 105.4742365  62.3692231
  64.0660534 104.9405956  63.1629349  63.5216728 104.9477571  61.7503208
  76.4302704 117.9731756  65.2632888  76.9821012 118.1363378  66.0281973
  76.7708897 118.5636194  64.5912913  71.4067197 100.3206906  65.8654773
  71.4708524 101.1821737  65.4532171  71.3434317  99.7080908  65.1327131
  70.8819470 102.3930038  69.5127807  71.5091509 102.0107116  70.1265331
  70.0247389 102.1744240  69.8783500  81.2813578 112.7993014  71.1181543
  81.8253482 113.4122972  70.6236497  80.7000423 113.3572592  71.6348556
  67.6585012 104.2006468  55.4446162  67.9538454 103.2917146  55.3913216
  66.7573048 104.1794207  55.1227164  79.5671091 115.9213732  62.2496570
  79.4422231 115.1203471  61.7407516  80.2250182 116.4159925  61.7610540
  71.1879259 102.2762464  61.4273711  70.4665845 102.8898432  61.2881184
  71.9772515 102.8120229  61.3490357  81.6306000 113.7222752  63.8776120
  80.6836335 113.6028103  63.8054447  81.9788773 112.8345250  63.9602382
  73.9905573  99.6116891  67.7014362  74.5139975  99.8579187  68.4640672
  73.7717906 100.4436925  67.2817500  69.3872854 101.8820565  55.5685487
  69.0585560 101.0017944  55.3860593  69.7412225 101.8268234  56.4561876
  78.6352433 113.5175468  60.0780473  78.4877395 112.5892175  60.2588043
  79.4605926 113.5395559  59.5937548  72.5014677 102.1693535  55.9360965
  72.8410750 102.6979456  55.2139573  72.9486798 102.5073941  56.7119531
  82.2386555 114.3404027  61.1645345  83.1633102 114.1346888  61.0269797
  82.0701858 114.0920428  62.0734687  75.1958118 100.5530586  65.3864033
  74.8554938  99.7538399  65.7884713  74.4897124 100.8532297  64.8140866
  75.8474590  97.6379898  63.8391356  76.6700659  97.1640376  63.7170246
  76.0912653  98.4170382  64.3390042  74.4882824 100.6668157  54.1354258
  75.2091187 101.0449409  53.6317974  73.8648128 101.3857033  54.2389236
  78.6313947 101.3713306  55.0712590  78.8477562 102.2537943  54.7701418
  78.1508014 100.9799519  54.3418232  73.3713169 104.3299019  61.6483334
  73.2257749 104.6439322  62.5407616  72.8938372 104.9483919  61.0954233
  75.2309552 101.3201567  61.6964224  75.2171120 100.4242660  61.3596522
  75.9481980 101.3272230  62.3302510  77.0835682 101.7538907  63.7417351
  76.8253460 102.6755978  63.7401682  76.5520723 101.3569341  64.4317816
  82.0281871 114.8589694  56.5207437  82.2018749 114.2936117  55.7681289
  82.5210762 115.6590589  56.3386927  67.8458831 106.8704363  64.5870996
  67.3012299 107.6464171  64.7191270  68.7238181 107.2175168  64.4290117
  74.6346447 100.2015947  56.9651794  74.7562359  99.2732593  57.1642682
  74.3448490 100.2154633  56.0530110  77.5037638  97.8870857  60.1018514
  77.5259335  97.9510191  59.1470494  77.9205697  97.0475366  60.2959020
  87.8821262 107.6226117  58.1397737  88.3252408 106.8733442  57.7416860
  87.0047772 107.6136253  57.7571469  83.0157043 114.1756458  53.6204335
  83.7107948 114.7963151  53.8391650  83.3580194 113.3251810  53.8956713
  68.6324853 105.9974259  67.4801153  67.8906589 106.1456895  68.0665783
  68.3117597 106.2582525  66.6167902  84.9148467 111.6256164  55.1491666
  85.4399791 111.9643437  54.4240986  84.8270819 110.6903179  54.9654801
  76.5768515 115.5390238  67.2781543  76.8855642 115.2939384  68.1504242
  77.3743997 115.7436876  66.7900413  76.5989127 117.6928147  59.5086919
  76.1594118 117.2004526  60.2019776  77.3497244 117.1501115  59.2678994
  69.0781466 113.8839688  59.5111547  69.9039486 113.5843460  59.1310191
  68.7275518 113.1147311  59.9601336  74.0462999 113.2366156  61.5809221
  73.4243009 112.5736861  61.2811449  74.7167866 113.2627288  60.8982869
  67.2790071 111.8026015  60.4700481  66.4421980 111.3748189  60.2884482
  67.2513717 111.9958458  61.4071272  74.1187527 101.7147944  71.1741727
  74.1675682 102.5910067  70.7919496  74.6610041 101.1725337  70.6013370
  84.6042373 112.2589068  70.4542864  83.8137916 112.2413206  69.9147363
  84.3675727 112.7977361  71.2091900  84.7240248 109.1081534  67.7675592
  84.7738253 108.9431541  68.7091115  84.6154171 108.2408793  67.3773473
  73.6076506 111.7870080  55.0567681  73.7564627 112.4705544  54.4034354
  74.4142950 111.7675170  55.5717137  82.0144010 105.0912462  69.0834899
  82.9153873 104.9518927  68.7918897  82.0891985 105.2566917  70.0233077
  76.3486815 102.4679317  67.9288085  75.4790125 102.7612883  67.6570674
  76.5846296 103.0519762  68.6495349  86.2258445 111.5278476  68.0117614
  85.9343253 111.8908456  68.8481075  85.6130576 110.8145484  67.8330946
  87.4254127 109.0931355  60.5320184  88.2601018 109.5321159  60.6957745
  87.5613256 108.6170009  59.7128430  84.4745633 106.6511090  66.4797672
  84.9499754 106.8438736  65.6716523  83.5511198 106.7070276  66.2341056
  71.3629139 107.8135257  56.0628750  71.1175181 106.9097587  56.2608960
  71.5325054 107.8152408  55.1208228  79.0525849  98.6858934  65.4453506
  79.5707793  99.4219961  65.1199994  78.6980982  98.9922927  66.2800265
  70.6324787 103.5463615  53.5614912  69.9394032 103.6207970  52.9054948
  70.3876539 102.7823959  54.0836429  79.3038443  95.1059216  60.9654402
  79.5840197  94.4382405  61.5914829  80.0889050  95.2988312  60.4529066
  77.1071912 114.2818210  52.5279429  76.5345879 114.9008397  52.0749901
  77.6804706 114.8317572  53.0619351  83.1747302 103.5276850  64.7125978
  84.1264725 103.6274948  64.7338202  83.0050752 102.7355119  65.2224062
  81.1961681 100.6132433  64.8985378  80.6011613 100.8937446  64.2031867
  80.9111378 101.1026334  65.6702120  80.3269172 114.5655360  53.6588011
  81.2599845 114.5000922  53.8620887  80.2392385 115.4011627  53.2002544
  82.9557188 113.8821231  50.6191959  82.8770820 113.5481094  51.5127716
  83.7766855 114.3742999  50.6183431  85.6535380 106.7482970  63.8268277
  85.6211700 105.8098971  64.0127961  86.2636003 106.8267007  63.0934102
  77.4918710 105.6179023  49.8695481  78.4377815 105.4885231  49.9383899
  77.1132955 104.8793685  50.3464909  85.8029868 103.5394013  63.8726560
  85.2868917 102.7552470  63.6856489  86.6869817 103.2112730  64.0373080
  83.4640595  97.2835029  59.8322373  83.2665416  96.9750117  60.7165705
  84.0740301  98.0096668  59.9620303  91.4711929 107.8098977  62.9674314
  92.2015318 107.5484265  63.5282017  90.8618875 107.0727699  63.0076382
  89.5527227 105.9506839  63.5648765  88.8260390 105.8162804  62.9565257
  89.1374513 106.2583668  64.3705483  77.3757403 109.6696769  71.3296138
  78.2960412 109.8475368  71.5236185  77.3406986 108.7252814  71.1775837
  75.6761628 103.5428999  49.8050366  74.7693083 103.2462112  49.8813080
  75.9537609 103.2458817  48.9384653  66.5939568 104.8635363  60.2549413
  66.2742352 104.0100671  59.9623787  66.0472996 105.0783941  61.0107380
  70.3719476 107.5797804  63.9718919  70.5905485 108.5114912  63.9906953
  70.7845249 107.2205778  64.7573723  77.2923693  98.0865889  55.9594608
  76.4824422  97.7412974  56.3349854  77.9808110  97.7773433  56.5482219
  79.2214242  97.1643936  57.5818904  79.7745280  97.5839389  58.2408927
  79.4584328  96.2379684  57.6241860  75.2447341 103.1531009  73.3621668
  75.1444068 104.1025366  73.2933759  75.0268883 102.8249248  72.4897738
  74.4460412 100.4015935  49.9462346  75.3079576 100.7270833  50.2058163
  74.6310756  99.6147430  49.4335411  66.4627828 108.4838274  62.2242534
  65.7691299 108.0692227  61.7112489  67.2100819 108.5258811  61.6275953
  82.5993049  99.2744461  57.0897569  82.0191718  99.9329265  56.7075621
  82.3328981  98.4521806  56.6784986  81.0496615  98.6749519  59.2918889
  81.5496393  98.7866053  58.4833208  81.6932223  98.3710572  59.9319697
  75.1078611 106.5828148  72.1786730  74.6245693 107.3828508  72.3850619
  75.1939550 106.5936093  71.2254174  68.3764570 108.4156528  60.1008549
  68.3535259 108.5144215  59.1490432  68.6865207 109.2621679  60.4225715
  71.0351948 110.4732683  64.2155164  71.9895202 110.4416625  64.1485095
  70.8364472 110.0123307  65.0305390  71.6251330 109.0433799  66.7825961
  72.4444219 109.5377878  66.8060799  71.8988138 108.1265767  66.7543529
  81.3817927 101.4344551  56.1453917  80.4943782 101.7194202  55.9274112
  81.7971916 101.2738315  55.2981194  84.7332463 101.4591072  59.8608256
  85.5092853 101.9487525  60.1332873  84.0080597 101.8849127  60.3180126
  87.1705021 102.1718692  60.9182197  87.7649512 101.9314428  60.2075505
  87.2431605 101.4525822  61.5455733  69.3902177 116.0152303  61.2325362
  69.2556645 115.2552703  60.6663360  68.9734239 116.7393202  60.7654150
  80.5261140 111.1989226  50.2401937  81.2296990 111.4039229  50.8559593
  79.8023789 111.7665988  50.5051020  81.3558950 106.9499087  56.3604207
  81.2994152 107.4067639  55.5211839  81.9087293 106.1889772  56.1827050
  85.1663756 102.7388819  57.1854327  84.9100691 102.3385455  58.0162534
  84.5416624 103.4532613  57.0604466  89.4776094 105.4784892  59.6925618
  88.9175652 105.5478082  60.4657180  88.8719598 105.3025877  58.9725114
  72.5471303 116.9121620  61.4443804  72.4303687 117.8567052  61.3422495
  71.7263749 116.6095181  61.8329603  82.4347838 111.6371755  52.2900397
  83.2693441 111.2052954  52.1077872  82.2732180 111.4653769  53.2177291
  82.0893730 108.1403869  53.6556736  82.0342534 107.9748140  52.7145180
  81.4639785 108.8479901  53.8118926  66.8786245 103.3771933  67.4818158
  67.5245108 102.8670887  67.9705384  66.6703396 104.1140615  68.0561584
  79.4039637 110.4452780  72.9810299  80.2730797 110.6193433  72.6196934
  78.9246388 111.2647197  72.8586028  75.3989855  97.6411978  53.2342055
  75.3868525  98.5853817  53.3910326  76.2913277  97.4582123  52.9401516
  73.5725817 117.5649881  64.6599733  74.4753064 117.5973492  64.9766228
  73.3463187 116.6350332  64.6746068  75.3279419 116.3180868  61.3209811
  74.3775050 116.3182730  61.2074184  75.6311905 115.5713603  60.8045846
  79.2141975  94.2354754  57.4887991  78.4474370  93.6813241  57.6344674
  79.6252680  94.3076623  58.3502143  71.2183736 100.5239550  71.5793173
  72.0815197 100.1676355  71.7896497  70.6449146 100.1853445  72.2668577
  91.0632113 122.1541406  62.3855574  91.7010523 122.0348154  61.6818914
  90.9452956 123.1022250  62.4443526  87.8721819 122.1068834  62.3217098
  87.5340330 121.9909899  61.4337633  88.7411587 121.7060000  62.3018105
  83.7308635 123.9604311  58.3113989  83.1673500 123.8694248  57.5430277
  83.6161030 123.1404215  58.7916482  88.3541602 123.2603686  68.2803304
  88.3430243 122.8656484  67.4083808  88.5162241 122.5269759  68.8737075
  81.2773067 125.4555502  61.1498210  82.0694358 125.1146327  60.7344509
  81.5169717 125.5650478  62.0700363  83.2363820 124.7164416  54.0215589
  84.0094696 124.1693403  53.8828464  83.5889219 125.5808665  54.2330050
  85.0748863 126.0440798  67.2282488  84.7838729 126.9486429  67.1129154
  85.7105847 126.0857326  67.9426557  86.0005070 123.4217647  63.8183848
  86.5968642 123.1973669  63.1040810  86.0580041 122.6802392  64.4209295
  85.5730098 120.8757082  51.6534039  85.8255619 120.3538603  50.8917502
  84.6354657 120.7123227  51.7560722  90.6173381 119.8792860  59.4608782
  91.4036470 119.4612283  59.1099199  90.8812085 120.7838952  59.6290430
  96.0181808 119.8168093  60.3641760  96.7506980 119.2467310  60.5979590
  95.2621164 119.4289694  60.8048266  85.2926387 122.7785188  53.8558413
  85.1762645 122.1030091  54.5239498  85.4028647 122.2917562  53.0390567
  87.6357928 122.2395335  57.5605103  87.2716135 121.7125956  58.2718024
  88.4925044 121.8493804  57.3871588  93.5407229 113.5289668  64.8236369
  93.2090553 114.3985078  64.5997584  92.9452842 113.2125952  65.5030399
  87.2763415 117.2685235  52.5566451  87.4437817 118.1365471  52.9236922
  87.0860584 117.4312516  51.6327740  83.4851230 122.1816010  60.2568986
  82.5601726 122.0492224  60.4646678  83.7335643 122.9610230  60.7538928
  93.4335892 118.2484754  61.9029719  92.5252769 118.1800162  61.6088480
  93.3823488 118.7256699  62.7311544  87.2552636 119.7242892  53.5413118
  87.1352261 120.1699943  54.3798598  86.5605224 120.0728210  52.9826656
  80.8460041 121.8249284  61.0912775  80.9752422 122.0783763  62.0052187
  80.1657492 122.4176992  60.7717430  87.5076758 119.6674399  69.8464616
  86.7310092 120.2268319  69.8367481  88.1467321 120.1531182  70.3679486
  95.2997538 116.4501192  63.6807593  94.6571919 116.7433725  63.0347387
  94.7952467 116.3354112  64.4860789  92.9537702 120.1964365  54.3693452
  93.8655558 120.4291752  54.1941150  92.4447349 120.7801409  53.8068531
  85.7623130 122.4759853  69.4082583  86.5037814 123.0144897  69.1317407
  85.0560115 123.1026141  69.5654135  91.2378470 124.6188993  68.0054745
  91.6461826 124.1771404  67.2609377  90.5155731 124.0441621  68.2588938
  87.5909540 119.5561600  65.3788302  88.4370735 119.9801013  65.5222951
  87.5308177 118.8995224  66.0726865  90.7408985 117.2165968  67.0369475
  90.4969917 117.9708029  66.5003751  91.0168916 117.5951316  67.8716722
  90.2973677 116.3722401  62.6183313  89.4358156 116.6703655  62.9100051
  90.3236111 116.5892800  61.6864346  87.1135246 124.9164592  59.0257119
  87.5773592 125.1952295  58.2361741  86.8492044 124.0148036  58.8430209
  84.0059327 124.4636073  61.9636882  84.5760684 124.8923342  61.3254366
  84.5967439 124.1818658  62.6621068  86.0504132 121.0387744  55.8346684
  86.7528176 121.4908788  56.3020610  85.7184761 120.3971563  56.4626577
  84.4984494 119.6299501  70.2097893  83.8683154 120.3115782  70.4433290
  84.3920582 119.5182582  69.2651031  79.7929466 119.2971297  61.1363817
  79.0028520 119.5528825  60.6603928  80.2840714 120.1119635  61.2415858
  81.7444212 119.6615876  58.0947294  80.9475375 119.7734570  58.6130790
  81.5169804 120.0002528  57.2288185  87.5749879 126.1860579  66.0429809
  87.6394312 126.6480987  66.8787981  86.8660803 125.5557944  66.1712119
  78.0767169 119.5501787  63.5678808  78.3275208 120.4348797  63.8336384
  78.6126718 119.3706389  62.7953900  83.7765237 113.9320267  72.5723144
  83.3832182 113.3786465  73.2470788  84.5931377 114.2430845  72.9629662
  80.7427294 125.3704125  56.4836714  81.2551815 126.1647375  56.6342279
  81.3950007 124.6730415  56.4170316  82.5522179 128.4869881  58.5659467
  82.7288807 129.4087846  58.3780451  83.3479012 128.1728300  58.9953847
  86.6933197 115.3478146  70.1643401  87.4342911 115.9485299  70.0847863
  86.9251120 114.6055784  69.6061443  81.8374536 120.5334513  68.4421630
  81.7228051 119.6319770  68.7428729  80.9819053 120.7798210  68.0906447
  83.6753494 130.0048055  64.5669810  84.2260920 129.8765118  63.7946804
  82.8364970 130.3042944  64.2164702  87.4720665 126.2699183  68.9114041
  88.0049002 125.5087471  68.6813349  86.9434747 125.9772835  69.6538195
  90.6390360 111.3759249  64.4407682  90.2954630 112.2660890  64.3646793
  91.0069323 111.1860906  63.5777267  78.7076211 123.6992779  57.2596285
  79.5451433 124.1089788  57.0429992  78.8854479 122.7592221  57.2296479
  90.6040643 121.3667860  52.9480118  90.0887267 122.1372464  53.1868505
  90.3317952 120.6932996  53.5713179  88.1887754 116.2117561  58.0065356
  87.3329351 115.8224411  57.8270995  88.6014706 116.2909521  57.1465141
  89.7186901 113.7463904  62.4056916  89.2151696 113.7094039  61.5924721
  90.0117508 114.6556647  62.4653572  85.9629787 113.8302634  61.4123097
  86.8282783 113.6345442  61.0528987  86.0307296 113.6012985  62.3392454
  90.3926946 119.2394952  54.7739899  90.0877082 119.5541101  55.6250042
  91.3457388 119.3176372  54.8167232  88.8373378 125.3985175  56.4232853
  88.3094740 124.6637935  56.1106090  88.3360881 126.1759852  56.1772821
  83.5692106 116.0604841  58.7839464  84.1435858 115.8380023  58.0512657
  84.1563088 116.1293536  59.5368066  92.6271683 121.9478568  59.5903841
  93.1403565 122.5808560  60.0925551  93.2772907 121.3479764  59.2247201
  83.8961693 118.0909303  52.8035350  83.0599005 118.4283989  53.1244624
  83.7566463 117.9558282  51.8662487  85.8714773 112.9346090  57.5114534
  85.2179186 112.6195108  56.8871148  85.8295248 112.3121831  58.2374357
  86.9825978 123.2165385  49.4267826  86.0753040 122.9854639  49.6258975
  87.4797010 122.4203005  49.6141807  89.1052514 119.4228024  61.8362181
  88.1875075 119.6442971  61.6783869  89.5212657 119.4974334  60.9773889
  89.8887562 120.8219440  56.9664862  90.6359381 121.3340837  56.6571984
  90.1579151 120.5003492  57.8269255  88.1614212 123.3177980  53.9491816
  87.2525431 123.0337013  54.0464286  88.1909296 123.7377059  53.0895123
  92.3366399 117.8576556  58.9483651  91.5989156 117.3453942  59.2793893
  92.5893172 117.4176937  58.1366928  92.4378026 110.6352808  59.5425420
  92.7436903 109.7750171  59.2551335  93.1630631 111.2270428  59.3424414
  78.7302382 121.0383494  57.9307018  78.5326782 120.4452855  57.2058085
  78.1749046 120.7335705  58.6482957  86.7099106 120.9306601  60.0501611
  86.7647716 119.9780437  59.9744088  85.8990308 121.0866040  60.5342910
  87.8590300 124.8586724  51.2879894  87.4209730 124.1422583  50.8285532
  88.6000740 125.0862839  50.7264986  84.6491466 119.5483661  57.8091990
  83.8359331 119.8477831  58.2157182  85.1450460 119.1539349  58.5266472
  90.2465677 120.0125485  66.6406884  90.6015065 120.2396958  67.5001350
  90.8937809 120.3443862  66.0184139  84.1405541 117.1202016  63.4253225
  84.7804920 116.9790775  62.7276188  83.3083071 116.8336530  63.0491827
  84.9165844 126.4204447  59.5388218  85.7106443 125.9254767  59.3370792
  84.2057537 125.8922310  59.1755923  81.2248608 120.5647528  55.6147970
  80.2946196 120.5031984  55.8317932  81.3206080 120.0423481  54.8184611
  81.1434157 117.0902341  58.2026212  81.4040974 118.0047674  58.0935372
  81.9651329 116.6226784  58.3522825  82.6159082 118.5040098  65.3725036
  83.2882136 118.2957460  64.7237685  81.7888869 118.3062184  64.9330269
  88.5184654 115.1302039  67.3890697  87.8712569 115.8291989  67.2955174
  89.2885670 115.5638183  67.7566945  88.6948789 122.9682804  65.4487517
  89.6240849 123.1193964  65.2756484  88.2739819 123.0566825  64.5936163
  87.4937120 126.9933469  63.2186055  87.3548206 126.6252253  64.0911993
  86.7051717 127.5081108  63.0470012  89.0442336 126.3715071  60.6074892
  88.7092168 126.3315841  61.5032542  88.5446281 125.7059787  60.1345303
  83.0186580 121.7782701  66.1327474  82.8806377 121.0462940  66.7339013
  83.9291503 121.6891601  65.8511661  91.9801527 123.7171106  50.8811952
  91.3630698 122.9917934  50.7845005  91.5118016 124.4780466  50.5379026
  85.6468880 121.4902661  65.6211153  86.3568499 120.8495853  65.5797772
  85.6038188 121.7415556  66.5437334  84.3597814 118.4767879  67.4406793
  83.8235171 118.0258617  68.0928389  83.7714523 118.6113787  66.6977257
  83.7700073 117.9356530  50.0033256  82.8929539 117.8145331  49.6395503
  84.2457826 117.1442608  49.7512145  75.2902213 122.7233690  60.0974763
  75.9773253 122.4095420  59.5095779  75.1350342 123.6275054  59.8242015
  80.0936935 117.6123886  64.5259787  80.0095124 117.0049556  63.7910197
  79.2719642 118.1032905  64.5269283  90.2660649 116.0977450  59.8929982
  90.7629349 115.3447412  59.5731052  89.4947631 116.1341766  59.3273192
  91.3490430 124.8549137  57.4668406  90.4146709 124.9750599  57.2973110
  91.5267098 123.9521604  57.2028415  86.8495618 118.2394833  59.6201667
  86.4793406 117.6865873  60.3082572  87.3454710 117.6352966  59.0676667
  94.7362981 120.6966456  58.0018440  95.2023434 121.5294448  57.9278742
  95.1870482 120.2311438  58.7063698  84.6784817 128.6992328  66.7156685
  85.3794276 129.3328811  66.8686079  84.2079932 129.0407059  65.9552324
  92.7079644 113.0647043  62.0409341  91.7942724 113.2951270  62.2091548
  93.1372746 113.1485487  62.8923373  92.4786103 121.2536935  64.5409235
  91.8257553 121.5012843  63.8861688  92.8566482 120.4401073  64.2071712
  88.5273676 121.9956746  71.0275272  87.8514313 121.8950876  71.6977647
  89.3501309 121.8395960  71.4911269  80.2752535 128.2328683  63.6487787
  80.8605971 127.4872371  63.7815692  80.0777373 128.5432640  64.5324451
  74.8670189 120.8034283  62.3692231  74.9054289 120.2697874  63.1629349
  74.3610482 120.2769489  61.7503208  82.2460952 115.6498824  65.8654773
  82.3102278 116.5113654  65.4532171  82.1828072 115.0372825  65.1327131
  81.7213224 117.7221956  69.5127807  82.3485263 117.3399033  70.1265331
  80.8641143 117.5036158  69.8783500  78.4978767 119.5298385  55.4446162
  78.7932208 118.6209064  55.3913216  77.5966803 119.5086125  55.1227164
  82.0273014 117.6054382  61.4273711  81.3059600 118.2190349  61.2881184
  82.8166270 118.1412147  61.3490357  84.8299327 114.9408808  67.7014362
  85.3533729 115.1871105  68.4640672  84.6111661 115.7728843  67.2817500
  80.2266609 117.2112483  55.5685487  79.8979315 116.3309862  55.3860593
  80.5805979 117.1560152  56.4561876  83.3408432 117.4985453  55.9360965
  83.6804504 118.0271374  55.2139573  83.7880552 117.8365859  56.7119531
  86.0351873 115.8822503  65.3864033  85.6948693 115.0830316  65.7884713
  85.3290879 116.1824214  64.8140866  86.6868344 112.9671816  63.8391356
  87.5094414 112.4932294  63.7170246  86.9306408 113.7462300  64.3390042
  85.3276579 115.9960074  54.1354258  86.0484941 116.3741327  53.6317974
  84.7041883 116.7148951  54.2389236  89.4707702 116.7005223  55.0712590
  89.6871316 117.5829861  54.7701418  88.9901769 116.3091437  54.3418232
  84.2106923 119.6590936  61.6483334  84.0651504 119.9731240  62.5407616
  83.7332127 120.2775837  61.0954233  86.0703306 116.6493484  61.6964224
  86.0564875 115.7534578  61.3596522  86.7875734 116.6564148  62.3302510
  87.9229437 117.0830825  63.7417351  87.6647215 118.0047895  63.7401682
  87.3914477 116.6861259  64.4317816  78.6852585 122.1996281  64.5870996
  78.1406053 122.9756089  64.7191270  79.5631935 122.5467085  64.4290117
  85.4740202 115.5307865  56.9651794  85.5956113 114.6024511  57.1642682
  85.1842244 115.5446551  56.0530110  88.3431392 113.2162775  60.1018514
  88.3653089 113.2802108  59.1470494  88.7599451 112.3767284  60.2959020
  79.4718607 121.3266177  67.4801153  78.7300343 121.4748812  68.0665783
  79.1511351 121.5874443  66.6167902  79.9175221 129.2131606  59.5111547
  80.7433241 128.9135378  59.1310191  79.5669273 128.4439228  59.9601336
  84.8856754 128.5658074  61.5809221  84.2636763 127.9028779  61.2811449
  85.5561621 128.5919206  60.8982869  78.1183826 127.1317932  60.4700481
  77.2815734 126.7040107  60.2884482  78.0907471 127.3250376  61.4071272
  84.9581281 117.0439862  71.1741727  85.0069437 117.9201985  70.7919496
  85.5003796 116.5017255  70.6013370  84.4470261 127.1161997  55.0567681
  84.5958381 127.7997462  54.4034354  85.2536704 127.0967087  55.5717137
  92.8537765 120.4204380  69.0834899  93.7547627 120.2810845  68.7918897
  92.9285739 120.5858835  70.0233077  87.1880570 117.7971234  67.9288085
  86.3183879 118.0904801  67.6570674  87.4240050 118.3811679  68.6495349
  82.2022894 123.1427175  56.0628750  81.9568936 122.2389505  56.2608960
  82.3718808 123.1444325  55.1208228  89.8919604 114.0150851  65.4453506
  90.4101548 114.7511878  65.1199994  89.5374737 114.3214845  66.2800265
  81.4718541 118.8755533  53.5614912  80.7787786 118.9499888  52.9054948
  81.2270293 118.1115876  54.0836429  90.1432198 110.4351134  60.9654402
  90.4233952 109.7674323  61.5914829  90.9282805 110.6280230  60.4529066
  94.0141056 118.8568768  64.7125978  94.9658479 118.9566866  64.7338202
  93.8444507 118.0647036  65.2224062  92.0355436 115.9424351  64.8985378
  91.4405368 116.2229364  64.2031867  91.7505132 116.4318252  65.6702120
  88.3312465 120.9470941  49.8695481  89.2771570 120.8177149  49.9383899
  87.9526710 120.2085602  50.3464909  96.6423623 118.8685931  63.8726560
  96.1262671 118.0844388  63.6856489  97.5263571 118.5404648  64.0373080
  94.3034349 112.6126947  59.8322373  94.1059171 112.3042035  60.7165705
  94.9134055 113.3388586  59.9620303  88.2151157 124.9988687  71.3296138
  89.1354167 125.1767286  71.5236185  88.1800740 124.0544732  71.1775837
  86.5155382 118.8720917  49.8050366  85.6086837 118.5754030  49.8813080
  86.7931363 118.5750735  48.9384653  77.4333322 120.1927280  60.2549413
  77.1136107 119.3392589  59.9623787  76.8866751 120.4075859  61.0107380
  81.2113230 122.9089721  63.9718919  81.4299240 123.8406829  63.9906953
  81.6239004 122.5497696  64.7573723  88.1317448 113.4157807  55.9594608
  87.3218176 113.0704892  56.3349854  88.8201865 113.1065350  56.5482219
  90.0607996 112.4935854  57.5818904  90.6139035 112.9131307  58.2408927
  90.2978082 111.5671602  57.6241860  86.0841095 118.4822927  73.3621668
  85.9837822 119.4317284  73.2933759  85.8662637 118.1541166  72.4897738
  85.2854167 115.7307852  49.9462346  86.1473331 116.0562751  50.2058163
  85.4704511 114.9439348  49.4335411  77.3021582 123.8130192  62.2242534
  76.6085054 123.3984145  61.7112489  78.0494573 123.8550728  61.6275953
  93.4386803 114.6036379  57.0897569  92.8585472 115.2621183  56.7075621
  93.1722736 113.7813723  56.6784986  91.8890370 114.0041436  59.2918889
  92.3890148 114.1157971  58.4833208  92.5325977 113.7002489  59.9319697
  85.9472365 121.9120066  72.1786730  85.4639447 122.7120426  72.3850619
  86.0333304 121.9228011  71.2254174  79.2158325 123.7448446  60.1008549
  79.1929013 123.8436133  59.1490432  79.5258961 124.5913596  60.4225715
  81.8745703 125.8024601  64.2155164  82.8288956 125.7708543  64.1485095
  81.6758226 125.3415224  65.0305390  82.4645085 124.3725717  66.7825961
  83.2837974 124.8669795  66.8060799  82.7381893 123.4557685  66.7543529
  92.2211681 116.7636469  56.1453917  91.3337536 117.0486120  55.9274112
  92.6365670 116.6030232  55.2981194  95.5726217 116.7882990  59.8608256
  96.3486607 117.2779442  60.1332873  94.8474351 117.2141044  60.3180126
  98.0098776 117.5010609  60.9182197  98.6043267 117.2606345  60.2075505
  98.0825360 116.7817740  61.5455733  92.1952705 122.2791005  56.3604207
  92.1387906 122.7359556  55.5211839  92.7481047 121.5181690  56.1827050
  96.0057511 118.0680737  57.1854327  95.7494445 117.6677373  58.0162534
  95.3810379 118.7824531  57.0604466  92.9287484 123.4695786  53.6556736
  92.8736288 123.3040058  52.7145180  92.3033540 124.1771819  53.8118926
  77.7179999 118.7063851  67.4818158  78.3638863 118.1962805  67.9705384
  77.5097150 119.4432532  68.0561584  86.2383610 112.9703895  53.2342055
  86.2262280 113.9145735  53.3910326  87.1307032 112.7874041  52.9401516
  90.0535729 109.5646672  57.4887991  89.2868125 109.0105159  57.6344674
  90.4646434 109.6368541  58.3502143  82.0577490 115.8531468  71.5793173
  82.9208952 115.4968273  71.7896497  81.4842901 115.5145362  72.2668577
  26.0269587   7.1852023  49.1100880  26.6647997   7.0658770  48.4064220
  25.9090430   8.1332867  49.1688832  22.8359293   7.1379451  49.0462405
  22.4977805   7.0220516  48.1582940  23.7049061   6.7370616  49.0263411
  18.6946109   8.9914927  45.0359296  18.1310974   8.9004864  44.2675584
  18.5798504   8.1714832  45.5161789  23.3179076   8.2914303  55.0048611
  23.3067717   7.8967101  54.1329114  23.4799716   7.5580375  55.5982382
  16.2410541  10.4866119  47.8743516  17.0331833  10.1456944  47.4589816
  16.4807191  10.5961094  48.7945670  24.2745668  12.6585895  40.3473761
  23.6233647  13.2439976  39.9607775  25.0690030  13.1892090  40.4068798
  18.2001295   9.7475032  40.7460895  18.9732171   9.2004019  40.6073771
  18.5526694  10.6119282  40.9575357  20.0386337  11.0751415  53.9527795
  19.7476203  11.9797045  53.8374461  20.6743322  11.1167942  54.6671864
  20.9642544   8.4528263  50.5429154  21.5606116   8.2284285  49.8286117
  21.0217516   7.7113009  51.1454602  20.5367573   5.9067698  38.3779345
  20.7893093   5.3849220  37.6162808  19.5992132   5.7433844  38.4806029
  25.5810855   4.9103477  46.1854088  26.3673945   4.4922900  45.8344505
  25.8449560   5.8149569  46.3535737  25.7520933  10.3476327  40.8842745
  25.1166766  10.4210954  41.5963650  25.4218339  10.9369926  40.2061824
  30.9819283   4.8478710  47.0887067  31.7144455   4.2777927  47.3224896
  30.2258638   4.4600310  47.5293572  20.2563861   7.8095804  40.5803720
  20.1400119   7.1340708  41.2484804  20.3666121   7.3228178  39.7635873
  22.5995402   7.2705951  44.2850409  22.2353610   6.7436572  44.9963331
  23.4562518   6.8804420  44.1116895  24.9976222  10.7612830  50.9477588
  24.6976946  11.6637869  50.8393395  24.6527282  10.4945013  51.7998741
  18.4488704   7.2126627  46.9814293  17.5239200   7.0802841  47.1891984
  18.6973117   7.9920846  47.4784235  28.3973366   3.2795370  48.6275026
  27.4890244   3.2110779  48.3333787  28.3460962   3.7567315  49.4556851
  22.2190110   4.7553509  40.2658425  22.0989735   5.2010559  41.1043905
  21.5242699   5.1038826  39.7071963  19.9797002  17.5257150  43.9148556
  19.9021032  18.4764975  43.9937036  19.3758646  17.1803023  44.5723482
  22.4714232   4.6985016  56.5709923  21.6947566   5.2578936  56.5612787
  23.1104795   5.1841799  57.0924793  30.2635013   1.4811809  50.4052899
  29.6209393   1.7744342  49.7592694  29.7589941   1.3664729  51.2106096
  27.9175176   5.2274982  41.0938759  28.8293032   5.4602369  40.9186456
  27.4084823   5.8112026  40.5313837  20.7260604   7.5070469  56.1327890
  21.4675289   8.0455513  55.8562713  20.0197590   8.1336758  56.2899442
  26.2015944   9.6499610  54.7300051  26.6099300   9.2082020  53.9854684
  25.4793205   9.0752237  54.9834244  22.5547014   4.5872216  52.1033608
  23.4008209   5.0111630  52.2468257  22.4945652   3.9305841  52.7972171
  26.5244759  10.2100800  48.4852340  25.8953621  10.3746514  47.7828408
  26.1370421  10.6242410  49.2563304  30.4033991  11.1455238  45.8396704
  29.7185029  11.5254139  45.2893737  30.4877840  11.7550565  46.5728652
  25.7046459   2.2476585  53.7614782  25.4607391   3.0018645  53.2249058
  25.9806390   2.6261932  54.5962029  27.6584922   8.7915197  52.4392047
  27.8701817   9.4346957  51.7626429  27.6114670   7.9577514  51.9713978
  25.2611151   1.4033018  49.3428620  24.3995630   1.7014271  49.6345357
  25.2873586   1.6203417  48.4109652  22.0772721   9.9475208  45.7502425
  22.5411066  10.2262911  44.9607048  21.8129519   9.0458653  45.5675516
  18.9696802   9.4946690  48.6882189  19.5398159   9.9233958  48.0499673
  19.5604913   9.2129275  49.3866374  21.0141607   6.0698361  42.5591990
  21.7165650   6.5219404  43.0265917  20.6822235   5.4282180  43.1871884
  28.7730750  11.6687153  50.6114405  29.5948194  11.2667340  50.3297086
  28.7693153  11.5655387  51.5630521  22.5387354  11.2171196  52.7675115
  22.6031786  11.6791603  53.6033287  21.8298277  10.5868561  52.8957425
  36.8636743   8.0125901  46.9599376  36.1100452   7.4433299  46.8043381
  36.9984284   7.9788566  47.9070011  22.2535371  12.8839303  42.6354096
  22.1181046  13.7290839  43.0638943  22.7945184  13.0858581  41.8720029
  15.7064769  10.4014741  43.2082021  16.2189289  11.1957992  43.3587585
  16.3587481   9.7041032  43.1415622  17.5159653  13.5180498  45.2904774
  17.6926282  14.4398462  45.1025758  18.3116487  13.2038917  45.7199154
  23.8803848  13.5062870  56.7654438  23.4367702  12.7199248  56.4475342
  24.5421061  13.6942020  56.0998329  18.6390969  15.0358671  51.2915116
  19.1898394  14.9075735  50.5192110  17.8002445  15.3353560  50.9410009
  25.9785086  13.7865670  54.7935839  25.9603561  14.6074551  54.3016108
  26.9005006  13.6619745  55.0185980  22.4358140  11.3009799  55.6359347
  22.9686477  10.5398087  55.4058655  21.9072221  11.0083451  56.3783502
  25.5678117   6.3978476  39.6725424  25.0524741   7.1683081  39.9113812
  25.2955426   5.7243612  40.2958486  30.5412392   9.1510831  41.6078598
  29.7641834   8.8121990  41.1633760  31.2203873   9.1563454  40.9333563
  25.3564421   4.2705568  41.4985205  25.0514556   4.5851718  42.3495349
  26.3094863   4.3486988  41.5412538  23.8010852  10.4295792  43.1478159
  23.2732214   9.6948551  42.8351397  23.2998355  11.2070468  42.9018128
  28.7803699   8.6244812  48.2645206  28.1227373   9.3144074  48.3525334
  29.5844098   9.0141244  48.6079192  27.5909157   6.9789185  46.3149147
  28.1041039   7.6119177  46.8170857  28.2410381   6.3790380  45.9492507
  21.9463453   8.2476002  36.1513132  21.0390514   8.0165255  36.3504281
  22.4434485   7.4513621  36.3387114  24.8531532  16.9573509  39.0709819
  24.1793230  17.2605206  39.6794776  25.2397354  17.7602590  38.7215276
  24.0689988   4.4538640  48.5607488  23.1512550   4.6753587  48.4029176
  24.4850132   4.5284951  47.7019195  24.8525036   5.8530056  43.6910168
  25.5996855   6.3651453  43.3817290  25.1216625   5.5314109  44.5514562
  23.1251686   8.3488597  40.6737123  22.2162905   8.0647630  40.7709592
  23.1546770   8.7687675  39.8140429  28.3570954  11.9595186  44.4428290
  27.9033281  11.1186096  44.4993481  27.7264920  12.5956585  44.7803070
  27.3003873   2.8887172  45.6728958  26.5626630   2.3764559  46.0039200
  27.5530647   2.4487554  44.8612234  26.8003893  13.7971683  45.3778108
  27.0926867  14.3576740  44.6590474  27.3102513  14.0900244  46.1331267
  21.6736580   5.9617217  46.7746918  21.7285190   5.0091054  46.6989394
  20.8627782   6.1176657  47.2588216  22.8227774   9.8897341  38.0125201
  22.3847204   9.1733199  37.5530838  23.5638215  10.1173455  37.4510292
  21.7637518  14.5752034  46.4671561  21.7213697  14.8012880  45.5380093
  22.6800217  14.3415409  46.6157363  25.2103152   5.0436102  53.3652191
  25.5652539   5.2707575  54.2246656  25.8575283   5.3754478  52.7429446
  30.9400889   8.1654538  44.0701520  30.8018787   8.3556134  43.1422709
  30.5837108   8.9273920  44.5269571  30.9670268  10.2331065  49.0812791
  31.4006775  10.1406354  49.9295845  31.6801849  10.2088565  48.4432807
  19.8803319  11.4515063  46.2633524  20.6743917  10.9565383  46.0616099
  19.1695011  10.9232926  45.9001230  24.6998163  13.8333159  50.6145892
  24.7535185  14.4024095  51.3823608  23.8312945  14.0035044  50.2499929
  31.8285818  10.2754765  51.6145677  32.0221708  11.1800576  51.8604951
  31.7286436   9.8162184  52.4484262  26.8900927  10.4261508  57.1886557
  26.7386433  10.1972060  56.2716641  26.8805606  11.3832109  57.2017902
  23.6586263   7.9993421  52.1732824  24.5878323   8.1504580  52.0001791
  23.2377293   8.0877442  51.3181470  22.4574595  12.0244085  49.9431361
  22.3185680  11.6562870  50.8157299  21.6689191  12.5391725  49.7715319
  23.0522747  17.1253182  41.2856898  23.2274502  16.6541225  42.1002520
  22.3655535  17.7518948  41.5138158  24.0079810  11.4025688  47.3320199
  23.6729642  11.3626458  48.2277849  23.5083756  10.7370404  46.8590609
  17.9824054   6.8093318  52.8572780  17.8443852   6.0773557  53.4584319
  18.8928977   6.7202218  52.5756968  26.9439002   8.7481722  37.6057259
  26.3268172   8.0228550  37.5090311  26.4755490   9.5091082  37.2624333
  20.6106355   6.5213277  52.3456460  21.3205973   5.8806469  52.3043078
  20.5675663   6.7726172  53.2682641  28.5993133  13.4580631  55.2663039
  28.5405679  12.7739851  54.5993622  29.0012652  14.1999621  54.8143665
  17.6183832  20.2742544  48.0596758  17.8580430  20.9061069  48.7375776
  16.7753028  19.9230584  48.3462117  28.6010540  11.4220214  53.4977019
  27.7137319  11.0846136  53.6203418  29.1709092  10.6903246  53.7345784
  22.1311694  16.0821667  50.4638262  22.0581865  16.8876638  50.9757566
  21.6889087  16.2813633  49.6386283  21.9201473  15.3193437  43.9741083
  21.1368995  15.8615117  44.0679308  22.6194219  15.8367416  44.3735325
  25.2298124   1.1288066  46.6175289  25.7266823   0.3758029  46.2976359
  24.4585105   1.1652383  46.0518498  33.0827881   6.8328432  48.2593580
  33.0717757   7.7153147  47.8887513  32.2145260   6.4799983  48.0648117
  24.5910377  15.9808501  52.6196421  25.3038350  16.6155966  52.5472322
  24.1000406  16.0772367  51.8036422  26.3127904   9.8859754  44.1913712
  25.3784183  10.0061216  44.0218417  26.4904573   8.9832220  43.9273722
  29.7000456   5.7277073  44.7263746  30.1660908   6.5605064  44.6524049
  30.1507956   5.2622054  45.4309005  19.6422291  13.7302944  53.4401991
  20.3431750  14.3639427  53.5931386  19.1717406  14.0717676  52.6797631
  27.7676687  12.0720894  41.7249898  28.0436531  11.9577489  42.6343772
  26.8981185  11.6738379  41.6862072  27.4423577   6.2847552  51.2654542
  26.7895027   6.5323459  50.6106995  27.8203957   5.4711690  50.9317019
  24.4030751  16.3207245  45.3682712  24.5853145  15.5028901  45.8310464
  25.2263737  16.5374937  44.9307602  24.7372916  15.2475430  42.6297761
  25.2660683  14.7367885  42.0167923  25.0001136  14.9317960  43.4943294
  23.4911150   7.0267363  57.7520579  22.8151787   6.9261492  58.4222954
  24.3138784   6.8706577  58.2156576  15.2390009  13.2639299  50.3733094
  15.8243446  12.5182987  50.5060998  15.0414847  13.5743256  51.2569758
  18.0928664  16.2990547  45.3895536  17.4239039  16.7836674  44.9059577
  17.9541534  16.5459767  46.3038915  22.2333933  18.3334290  51.9878195
  22.7852241  18.4965912  52.7527280  22.5740126  18.9238728  51.3158220
  27.0844807  13.1595548  57.8426849  27.6284711  13.7725506  57.3481804
  26.5031652  13.7175126  58.3593862  25.3702320  16.2816266  48.9741877
  25.2453459  15.4806006  48.4652822  26.0281411  16.7762459  48.4855847
  27.4337228  14.0825286  50.6021427  26.4867564  13.9630637  50.5299754
  27.7820002  13.1947784  50.6847689  24.4383662  13.8778002  46.8025779
  24.2908624  12.9494710  46.9833349  25.2637155  13.8998093  46.3182855
  28.0417784  14.7006561  47.8890652  28.9664331  14.4949422  47.7515103
  27.8733087  14.4522962  48.7979994  27.8313100  15.2192228  43.2452744
  28.0049977  14.6538651  42.4926596  28.3241991  16.0193123  43.0632233
  33.6852491   7.9828651  44.8643043  34.1283637   7.2335976  44.4662167
  32.8079001   7.9738788  44.4816775  28.8188272  14.5358993  40.3449642
  29.5139177  15.1565685  40.5636956  29.1611422  13.6854344  40.6202020
  30.7179695  11.9858698  41.8736973  31.2431019  12.3245971  41.1486293
  30.6302048  11.0505714  41.6900107  22.3799744  15.8992772  54.0026849
  22.6886871  15.6541919  54.8749549  23.1775226  16.1039410  53.5145719
  22.4020356  18.0530681  46.2332226  21.9625346  17.5607060  46.9265082
  23.1528473  17.5103649  45.9924301  14.8812695  14.2442222  46.2356854
  15.7070715  13.9445994  45.8555497  14.5306747  13.4749845  46.6846642
  19.8494228  13.5968691  48.3054527  19.2274238  12.9339396  48.0056755
  20.5199095  13.6229822  47.6228175  13.0821300  12.1628549  47.1945787
  12.2453208  11.7350723  47.0129789  13.0544946  12.3560992  48.1316579
  30.4073601  12.6191602  57.1788171  29.6169145  12.6015741  56.6392670
  30.1706956  13.1579896  57.9337207  30.5271477   9.4684068  54.4920899
  30.5769481   9.3034076  55.4336422  30.4185400   8.6011327  54.1018780
  19.4107735  12.1472614  41.7812988  19.5595856  12.8308078  41.1279661
  20.2174179  12.1277704  42.2962444  27.8175239   5.4514996  55.8080206
  28.7185102   5.3121461  55.5164204  27.8923213   5.6169451  56.7478383
  32.0289673  11.8881010  54.7362921  31.7374482  12.2510990  55.5726382
  31.4161805  11.1748018  54.5576253  33.2285356   9.4533890  47.2565491
  34.0632247   9.8923694  47.4203051  33.3644484   8.9772543  46.4373737
  30.2776862   7.0113624  53.2042979  30.7530983   7.2041271  52.3961830
  29.3542427   7.0672810  52.9586362  17.1660368   8.1737792  42.7874057
  16.9206410   7.2700122  42.9854267  17.3356283   8.1754942  41.8453535
  22.9103141  14.6420744  39.2524735  22.3377108  15.2610932  38.7995207
  23.4835934  15.1920106  39.7864657  28.9778531   3.8879384  51.4371284
  29.9295953   3.9877482  51.4583508  28.8081981   3.0957653  51.9469369
  26.9992910   0.9734968  51.6230685  26.4042842   1.2539980  50.9277174
  26.7142607   1.4628869  52.3947426  26.1300401  14.9257895  40.3833318
  27.0631074  14.8603456  40.5866193  26.0423613  15.7614161  39.9247850
  28.7588417  14.2423765  37.3437265  28.6802049  13.9083628  38.2373023
  29.5798084  14.7345533  37.3428738  31.4566608   7.1085504  50.5513584
  31.4242928   6.1701505  50.7373268  32.0667232   7.1869541  49.8179409
  23.2949939   5.9781557  36.5940788  24.2409044   5.8487765  36.6629206
  22.9164184   5.2396219  37.0710216  31.6061097   3.8996548  50.5971867
  31.0900145   3.1155004  50.4101796  32.4901045   3.5715264  50.7618386
  37.2743158   8.1701511  49.6919621  38.0046547   7.9086799  50.2527324
  36.6650104   7.4330233  49.7321689  35.3558455   6.3109374  50.2894072
  34.6291619   6.1765339  49.6810563  34.9405742   6.6186202  51.0950790
  23.1788632  10.0299303  58.0541445  24.0991641  10.2077902  58.2481491
  23.1438215   9.0855349  57.9021144  16.1750704   7.9400338  50.6964226
  16.3936714   8.8717446  50.7152260  16.5876478   7.5808312  51.4819030
  28.4024277  -0.3653005  43.8142875  27.8222947   0.2931799  43.4320928
  28.1360210  -1.1875660  43.4030293  20.9109840   6.9430683  58.9032037
  20.4276921   7.7431043  59.1095926  20.9970779   6.9538627  57.9499481
  14.1795799   8.7759062  46.8253856  14.1566487   8.8746749  45.8735739
  14.4896436   9.6224213  47.1471022  16.8383177  10.8335217  50.9400470
  17.7926431  10.8019160  50.8730402  16.6395701  10.3725841  51.7550696
  17.4282559   9.4036333  53.5071268  18.2475448   9.8980412  53.5306105
  17.7019367   8.4868301  53.4788836  27.1849155   1.7947086  42.8699224
  26.2975011   2.0796736  42.6519418  27.6003145   1.6340849  42.0226500
  30.5363692   1.8193607  46.5853563  31.3124082   2.3090059  46.8578180
  29.8111826   2.2451661  47.0425432  32.9736250   2.5321226  47.6427503
  33.5680741   2.2916962  46.9320812  33.0462834   1.8128356  48.2701040
  15.1933406  16.3754837  47.9570668  15.0587874  15.6155238  47.3908666
  14.7765468  17.0995737  47.4899457  26.3292369  11.5591760  36.9647244
  27.0328219  11.7641763  37.5804899  25.6055018  12.1268522  37.2296327
  27.1590179   7.3101622  43.0849514  27.1025381   7.7670173  42.2457146
  27.7118522   6.5492306  42.9072356  30.9694985   3.0991353  43.9099633
  30.7131919   2.6987989  44.7407841  30.3447853   3.8135147  43.7849772
  35.2807323   5.8387427  46.4170925  34.7206881   5.9080616  47.1902487
  34.6750826   5.6628411  45.6970421  18.3502532  17.2724154  48.1689111
  18.2334916  18.2169586  48.0667801  17.5294978  16.9697715  48.5574910
  28.2379066  11.9974289  39.0145704  29.0724670  11.5655488  38.8323178
  28.0763409  11.8256303  39.9422598  27.8924959   8.5006403  40.3802043
  27.8373762   8.3350674  39.4390487  27.2671014   9.2082436  40.5364233
  25.2070866  10.8055315  59.7055606  26.0762025  10.9795967  59.3442241
  24.7277617  11.6249731  59.5831335  19.3757046  17.9252416  51.3845039
  20.2784293  17.9576026  51.7011534  19.1494416  16.9952867  51.3991375
  21.1310648  16.6783402  48.0455118  20.1806279  16.6785264  47.9319490
  21.4343134  15.9316137  47.5291153  36.8663341  22.5143941  49.1100880
  37.5041751  22.3950688  48.4064220  36.7484184  23.4624785  49.1688832
  33.6753048  22.4671369  49.0462405  33.3371559  22.3512433  48.1582940
  34.5442816  22.0662534  49.0263411  29.5339863  24.3206845  45.0359296
  28.9704729  24.2296782  44.2675584  29.4192258  23.5006750  45.5161789
  34.1572831  23.6206220  55.0048611  34.1461471  23.2259019  54.1329114
  34.3193470  22.8872293  55.5982382  27.0804295  25.8158037  47.8743516
  27.8725587  25.4748861  47.4589816  27.3200946  25.9253012  48.7945670
  35.1139422  27.9877813  40.3473761  34.4627402  28.5731893  39.9607775
  35.9083785  28.5184008  40.4068798  29.0395049  25.0766950  40.7460895
  29.8125925  24.5295937  40.6073771  29.3920448  25.9411199  40.9575357
  30.8780092  26.4043332  53.9527795  30.5869958  27.3088963  53.8374461
  31.5137076  26.4459860  54.6671864  31.8036299  23.7820181  50.5429154
  32.3999871  23.5576203  49.8286117  31.8611270  23.0404926  51.1454602
  31.3761327  21.2359616  38.3779345  31.6286848  20.7141137  37.6162808
  30.4385886  21.0725761  38.4806029  36.4204610  20.2395394  46.1854088
  37.2067699  19.8214818  45.8344505  36.6843314  21.1441487  46.3535737
  36.5914687  25.6768245  40.8842745  35.9560520  25.7502871  41.5963650
  36.2612094  26.2661844  40.2061824  41.8213037  20.1770628  47.0887067
  42.5538209  19.6069844  47.3224896  41.0652393  19.7892228  47.5293572
  31.0957616  23.1387722  40.5803720  30.9793874  22.4632625  41.2484804
  31.2059876  22.6520096  39.7635873  33.4389157  22.5997869  44.2850409
  33.0747364  22.0728490  44.9963331  34.2956273  22.2096338  44.1116895
  39.3438457  13.8892202  51.5481675  39.0121782  14.7587613  51.3242890
  38.7484071  13.5728486  52.2275706  33.0794644  17.6287769  39.2811758
  33.2469046  18.4968005  39.6482229  32.8891813  17.7915051  38.3573047
  35.8369977  26.0904748  50.9477588  35.5370700  26.9929787  50.8393395
  35.4921036  25.8236931  51.7998741  29.2882458  22.5418545  46.9814293
  28.3632955  22.4094759  47.1891984  29.5366872  23.3212764  47.4784235
  39.2367121  18.6087288  48.6275026  38.3283998  18.5402696  48.3333787
  39.1854717  19.0859233  49.4556851  33.0583865  20.0845426  40.2658425
  32.9383490  20.5302477  41.1043905  32.3636453  20.4330744  39.7071963
  26.6491269  22.1851818  47.8158082  26.7783651  22.4386297  48.7297493
  25.9688721  22.7779526  47.4962737  30.8190757  32.8549068  43.9148556
  30.7414786  33.8056893  43.9937036  30.2152400  32.5094941  44.5723482
  33.3107987  20.0276933  56.5709923  32.5341321  20.5870854  56.5612787
  33.9498550  20.5133716  57.0924793  41.1028767  16.8103726  50.4052899
  40.4603147  17.1036259  49.7592694  40.5983696  16.6956647  51.2106096
  38.7568931  20.5566899  41.0938759  39.6686787  20.7894286  40.9186456
  38.2478578  21.1403944  40.5313837  31.5654359  22.8362387  56.1327890
  32.3069043  23.3747431  55.8562713  30.8591344  23.4628676  56.2899442
  37.0409698  24.9791527  54.7300051  37.4493055  24.5373938  53.9854684
  36.3186960  24.4044155  54.9834244  33.3940769  19.9164134  52.1033608
  34.2401964  20.3403548  52.2468257  33.3339406  19.2597758  52.7972171
  37.3638513  25.5392718  48.4852340  36.7347376  25.7038432  47.7828408
  36.9764175  25.9534327  49.2563304  41.2427745  26.4747156  45.8396704
  40.5578783  26.8546057  45.2893737  41.3271594  27.0842482  46.5728652
  36.5440214  17.5768502  53.7614782  36.3001146  18.3310563  53.2249058
  36.8200144  17.9553850  54.5962029  38.4978677  24.1207115  52.4392047
  38.7095572  24.7638875  51.7626429  38.4508425  23.2869431  51.9713978
  36.1004906  16.7324935  49.3428620  35.2389385  17.0306189  49.6345357
  36.1267340  16.9495334  48.4109652  32.9166475  25.2767126  45.7502425
  33.3804821  25.5554829  44.9607048  32.6523273  24.3750571  45.5675516
  29.8090556  24.8238608  48.6882189  30.3791913  25.2525876  48.0499673
  30.3998668  24.5421192  49.3866374  31.8535361  21.3990278  42.5591990
  32.5559404  21.8511322  43.0265917  31.5215990  20.7574097  43.1871884
  30.3015723  19.9902035  56.9343200  29.6714383  20.6718316  57.1678597
  30.1951810  19.8785117  55.9896338  25.5960695  19.6573831  47.8609124
  24.8059749  19.9131360  47.3849235  26.0871942  20.4722169  47.9661165
  39.6124505  26.9979070  50.6114405  40.4341948  26.5959258  50.3297086
  39.6086907  26.8947304  51.5630521  27.5475440  20.0218410  44.8192601
  26.7506604  20.1337105  45.3376096  27.3201033  20.3605063  43.9533491
  33.3781108  26.5463114  52.7675115  33.4425541  27.0083521  53.6033287
  32.6692032  25.9160478  52.8957425  23.8798398  19.9104321  50.2924115
  24.1306436  20.7951331  50.5581691  24.4157946  19.7308923  49.5199207
  47.7030498  23.3417819  46.9599376  46.9494206  22.7725217  46.8043381
  47.8378039  23.3080483  47.9070011  33.0929126  28.2131221  42.6354096
  32.9574800  29.0582757  43.0638943  33.6338938  28.4150499  41.8720029
  29.5796465  14.2922801  59.2968451  29.1863411  13.7388999  59.9716095
  30.3962606  14.6033379  59.6874968  26.5458523  25.7306659  43.2082021
  27.0583044  26.5249909  43.3587585  27.1981236  25.0332949  43.1415622
  28.3553408  28.8472415  45.2904774  28.5320036  29.7690380  45.1025758
  29.1510241  28.5330835  45.7199154  32.4964426  15.7080680  56.8888707
  33.2374140  16.3087833  56.8093170  32.7282349  14.9658318  56.3306750
  27.6405764  20.8937047  55.1666937  27.5259279  19.9922304  55.4674036
  26.7850282  21.1400744  54.8151754  34.7197602  28.8354788  56.7654438
  34.2761456  28.0491166  56.4475342  35.3814816  29.0233938  56.0998329
  29.4784723  30.3650589  51.2915116  30.0292148  30.2367652  50.5192110
  28.6396199  30.6645478  50.9410009  36.8178840  29.1157587  54.7935839
  36.7997315  29.9366468  54.3016108  37.7398760  28.9911663  55.0185980
  33.2751894  26.6301717  55.6359347  33.8080231  25.8690005  55.4058655
  32.7465975  26.3375369  56.3783502  36.4421589  11.7361783  51.1652989
  36.0985859  12.6263425  51.0892100  36.8100552  11.5463441  50.3022574
  24.5107440  24.0595313  43.9841591  25.3482662  24.4692322  43.7675299
  24.6885708  23.1194756  43.9541785  36.4071872  21.7270394  39.6725424
  35.8918495  22.4974999  39.9113812  36.1349180  21.0535530  40.2958486
  33.9918983  16.5720095  44.7310663  33.1360579  16.1826945  44.5516301
  34.4045935  16.6512056  43.8710448  35.5218130  14.1066438  49.1302222
  35.0182925  14.0696573  48.3170028  35.8148736  15.0159181  49.1898879
  31.7661016  14.1905168  48.1368404  32.6314012  13.9947976  47.7774294
  31.8338524  13.9615520  49.0637761  41.3806146  24.4802749  41.6078598
  40.6035589  24.1413908  41.1633760  42.0597627  24.4855372  40.9333563
  36.1958175  19.5997486  41.4985205  35.8908311  19.9143635  42.3495349
  37.1488617  19.6778906  41.5412538  34.6404607  25.7587709  43.1478159
  34.1125969  25.0240469  42.8351397  34.1392110  26.5362386  42.9018128
  39.6197453  23.9536730  48.2645206  38.9621127  24.6435991  48.3525334
  40.4237852  24.3433162  48.6079192  29.3723335  16.4207376  45.5084771
  29.9467086  16.1982557  44.7757964  29.9594317  16.4896070  46.2613372
  38.4302912  22.3081103  46.3149147  38.9434794  22.9411094  46.8170857
  39.0804136  21.7082298  45.9492507  29.6992922  18.4511837  39.5280656
  28.8630234  18.7886523  39.8489931  29.5597691  18.3160817  38.5907793
  31.6746002  13.2948625  44.2359840  31.0210415  12.9797642  43.6116455
  31.6326476  12.6724365  44.9619663  32.7857207  23.5767920  36.1513132
  31.8784269  23.3457173  36.3504281  33.2828239  22.7805539  36.3387114
  35.6925286  32.2865427  39.0709819  35.0186985  32.5897124  39.6794776
  36.0791108  33.0894507  38.7215276  34.9083743  19.7830558  48.5607488
  33.9906304  20.0045505  48.4029176  35.3243886  19.8576869  47.7019195
  35.6918790  21.1821974  43.6910168  36.4390609  21.6943371  43.3817290
  35.9610380  20.8606027  44.5514562  33.9645441  23.6780515  40.6737123
  33.0556660  23.3939547  40.7709592  33.9940524  24.0979593  39.8140429
  39.1964708  27.2887104  44.4428290  38.7427035  26.4478014  44.4993481
  38.5658675  27.9248502  44.7803070  38.1397628  18.2179090  45.6728958
  37.4020384  17.7056476  46.0039200  38.3924401  17.7779472  44.8612234
  37.6397647  29.1263601  45.3778108  37.9320622  29.6868658  44.6590474
  38.1496268  29.4192162  46.1331267  38.2409255  10.9955342  46.2670727
  38.5468132  10.1352706  45.9796642  38.9661860  11.5872962  46.0669721
  24.5333611  21.3986029  44.6552325  24.3358011  20.8055389  43.9303391
  23.9780275  21.0938239  45.3728264  32.5130335  21.2909135  46.7746918
  32.5678944  20.3382972  46.6989394  31.7021537  21.4468574  47.2588216
  33.6621528  25.2189258  38.0125201  33.2240958  24.5025117  37.5530838
  34.4031969  25.4465373  37.4510292  30.4522695  19.9086195  44.5337297
  29.6390560  20.2080365  44.9402489  30.9481689  19.5141884  45.2511779
  32.6031272  29.9043952  46.4671561  32.5607451  30.1304798  45.5380093
  33.5193971  29.6707326  46.6157363  36.0496906  20.3728019  53.3652191
  36.4046294  20.5999492  54.2246656  36.6969037  20.7046396  52.7429446
  41.7794643  23.4946455  44.0701520  41.6412542  23.6848051  43.1422709
  41.4230862  24.2565838  44.5269571  29.9436769  17.4804550  50.1498532
  30.5836149  17.3393310  49.4521495  29.1114300  17.1939064  49.7737134
  41.8064023  25.5622982  49.0812791  42.2400529  25.4698271  49.9295845
  42.5195603  25.5380483  48.4432807  30.7197073  26.7806981  46.2633524
  31.5137672  26.2857301  46.0616099  30.0088766  26.2524844  45.9001230
  35.5391918  29.1625076  50.6145892  35.5928940  29.7316013  51.3823608
  34.6706699  29.3326961  50.2499929  27.0279837  20.9250063  42.3393277
  26.0977425  20.8634518  42.5563239  27.1237309  20.4026015  41.5429918
  26.9465386  17.4504875  44.9271518  27.2072203  18.3650209  44.8180679
  27.7682558  16.9829318  45.0768131  28.4190311  18.8642633  52.0970343
  29.0913364  18.6559995  51.4482992  27.5920098  18.6664719  51.6575575
  42.6679572  25.6046683  51.6145677  42.8615462  26.5092493  51.8604951
  42.5680191  25.1454102  52.4484262  34.3215883  15.4904573  54.1136004
  33.6743798  16.1894523  54.0200480  35.0916898  15.9240717  54.4812252
  37.7294681  25.7553426  57.1886557  37.5780187  25.5263977  56.2716641
  37.7199360  26.7124027  57.2017902  34.4980017  23.3285338  52.1732824
  35.4272077  23.4796498  52.0001791  34.0771047  23.4169359  51.3181470
  33.2968349  27.3536003  49.9431361  33.1579435  26.9854787  50.8157299
  32.5082945  27.8683642  49.7715319  33.8916501  32.4545099  41.2856898
  34.0668257  31.9833142  42.1002520  33.2049289  33.0810865  41.5138158
  34.8473564  26.7317606  47.3320199  34.5123397  26.6918375  48.2277849
  34.3477510  26.0662321  46.8590609  28.8217808  22.1385236  52.8572780
  28.6837606  21.4065474  53.4584319  29.7322732  22.0494136  52.5756968
  37.7832756  24.0773640  37.6057259  37.1661927  23.3520468  37.5090311
  37.3149244  24.8383000  37.2624333  31.4500109  21.8505195  52.3456460
  32.1599728  21.2098387  52.3043078  31.4069417  22.1018090  53.2682641
  39.4386888  28.7872548  55.2663039  39.3799434  28.1031768  54.5993622
  39.8406406  29.5291538  54.8143665  30.1629043  18.8370413  54.1652099
  29.6266400  18.3861151  54.8173696  29.5745751  18.9716322  53.4222564
  28.4577586  35.6034462  48.0596758  28.6974185  36.2352986  48.7375776
  27.6146783  35.2522502  48.3462117  29.5731302  18.2959064  36.7278563
  28.6960768  18.1747865  36.3640810  30.0489055  17.5045142  36.4757452
  39.4404295  26.7512132  53.4977019  38.5531074  26.4138054  53.6203418
  40.0102846  26.0195163  53.7345784  21.0933442  23.0836224  46.8220070
  21.7804482  22.7697954  46.2341085  20.9381571  23.9877589  46.5487322
  25.8968164  17.9726420  51.2505094  25.8126353  17.3652090  50.5155504
  25.0750871  18.4635439  51.2514590  32.9705448  31.4113584  50.4638262
  32.8975620  32.2168556  50.9757566  32.5282841  31.6105550  49.6386283
  32.7595228  30.6485355  43.9741083  31.9762750  31.1907035  44.0679308
  33.4587973  31.1659334  44.3735325  36.0691878  16.4579984  46.6175289
  36.5660578  15.7049946  46.2976359  35.2978860  16.4944301  46.0518498
  43.9221635  22.1620350  48.2593580  43.9111512  23.0445065  47.8887513
  43.0539015  21.8091900  48.0648117  35.4304132  31.3100419  52.6196421
  36.1432104  31.9447883  52.5472322  34.9394160  31.4064285  51.8036422
  37.1521659  25.2151671  44.1913712  36.2177937  25.3353134  44.0218417
  37.3298327  24.3124138  43.9273722  32.6526847  18.5997367  46.3446973
  32.2824634  18.0468407  47.0327879  33.1485939  17.9955500  45.7921973
  40.5394210  21.0568990  44.7263746  41.0054662  21.8896982  44.6524049
  40.9901711  20.5913972  45.4309005  30.4816045  29.0594862  53.4401991
  31.1825505  29.6931345  53.5931386  30.0111160  29.4009594  52.6797631
  38.6070441  27.4012812  41.7249898  38.8830285  27.2869406  42.6343772
  37.7374940  27.0030297  41.6862072  38.5110873  13.4249577  48.7654648
  37.5973953  13.6553804  48.9336855  38.9403974  13.5088022  49.6168680
  38.2817331  21.6139469  51.2654542  37.6288782  21.8615377  50.6106995
  38.6597711  20.8003608  50.9317019  35.2424505  31.6499163  45.3682712
  35.4246900  30.8320819  45.8310464  36.0657491  31.8666855  44.9307602
  35.5766671  30.5767348  42.6297761  36.1054437  30.0659802  42.0167923
  35.8394890  30.2609878  43.4943294  34.3304904  22.3559280  57.7520579
  33.6545541  22.2553410  58.4222954  35.1532538  22.1998494  58.2156576
  26.0783763  28.5931217  50.3733094  26.6637200  27.8474905  50.5060998
  25.8808602  28.9035174  51.2569758  28.9322419  31.6282464  45.3895536
  28.2632794  32.1128592  44.9059577  28.7935288  31.8751685  46.3038915
  20.6701418  21.1636817  49.0937537  20.7085518  20.6300408  49.8874655
  20.1641711  20.6372023  48.4748514  33.0727687  33.6626208  51.9878195
  33.6245995  33.8257829  52.7527280  33.4133881  34.2530646  51.3158220
  28.0492180  16.0101358  52.5900080  28.1133507  16.8716189  52.1777477
  27.9859301  15.3975359  51.8572438  27.5244453  18.0824490  56.2373114
  28.1516492  17.7001568  56.8510638  26.6672372  17.8638692  56.6028806
  37.9238562  28.4887465  57.8426849  38.4678466  29.1017424  57.3481804
  37.3425406  29.0467044  58.3593862  24.3009996  19.8900919  42.1691469
  24.5963437  18.9811598  42.1158522  23.3998032  19.8688659  41.8472471
  36.2096075  31.6108183  48.9741877  36.0847214  30.8097923  48.4652822
  36.8675166  32.1054377  48.4855847  27.8304243  17.9656916  48.1519017
  27.1090829  18.5792884  48.0126491  28.6197499  18.5014681  48.0735663
  38.2730983  29.4117204  50.6021427  37.3261318  29.2922555  50.5299754
  38.6213756  28.5239702  50.6847689  30.6330556  15.3011342  54.4259669
  31.1564958  15.5473639  55.1885978  30.4142890  16.1331377  54.0062806
  26.0297837  17.5715017  42.2930794  25.7010544  16.6912396  42.1105900
  26.3837208  17.5162686  43.1807183  35.2777416  29.2069920  46.8025779
  35.1302379  28.2786627  46.9833349  36.1030910  29.2290010  46.3182855
  29.1439661  17.8587987  42.6606271  29.4835733  18.3873908  41.9384880
  29.5911781  18.1968393  43.4364838  38.8811538  30.0298478  47.8890652
  39.8058086  29.8241340  47.7515103  38.7126841  29.7814880  48.7979994
  31.8383101  16.2425038  52.1109340  31.4979922  15.4432851  52.5130019
  31.1322108  16.5426748  51.5386173  32.4899573  13.3274350  50.5636663
  33.3125642  12.8534828  50.4415553  32.7337637  14.1064834  51.0635349
  31.1307808  16.3562608  40.8599564  31.8516170  16.7343861  40.3563281
  30.5073112  17.0751485  40.9634542  35.2738931  17.0607757  41.7957897
  35.4902545  17.9432395  41.4946725  34.7932998  16.6693971  41.0663539
  30.0138152  20.0193471  48.3728641  29.8682733  20.3333774  49.2652923
  29.5363356  20.6378371  47.8199540  31.8734535  17.0096019  48.4209531
  31.8596104  16.1137112  48.0841829  32.5906963  17.0166682  49.0547817
  33.7260666  17.4433359  50.4662658  33.4678443  18.3650429  50.4646989
  33.1945706  17.0463793  51.1563122  38.6706854  30.5484146  43.2452744
  38.8443732  29.9830568  42.4926596  39.1635746  31.3485041  43.0632233
  24.4883814  22.5598815  51.3116302  23.9437282  23.3358623  51.4436577
  25.3663164  22.9069620  51.1535424  31.2771431  15.8910399  43.6897101
  31.3987342  14.9627045  43.8887988  30.9873473  15.9049085  42.7775416
  34.1462621  13.5765309  46.8263821  34.1684318  13.6404642  45.8715800
  34.5630680  12.7369818  47.0204327  44.5246245  23.3120569  44.8643043
  44.9677391  22.5627894  44.4662167  43.6472756  23.3030705  44.4816775
  39.6582027  29.8650910  40.3449642  40.3532931  30.4857603  40.5636956
  40.0005177  29.0146262  40.6202020  25.2749836  21.6868711  54.2046459
  24.5331572  21.8351347  54.7911090  24.9542580  21.9476977  53.3413209
  41.5573450  27.3150616  41.8736973  42.0824774  27.6537889  41.1486293
  41.4695802  26.3797631  41.6900107  33.2193499  31.2284690  54.0026849
  33.5280625  30.9833836  54.8749549  34.0168981  31.4331328  53.5145719
  33.2414111  33.3822599  46.2332226  32.8019101  32.8898978  46.9265082
  33.9922228  32.8395567  45.9924301  25.7206450  29.5734140  46.2356854
  26.5464470  29.2737912  45.8555497  25.3700502  28.8041762  46.6846642
  30.6887983  28.9260608  48.3054527  30.0667992  28.2631313  48.0056755
  31.3592850  28.9521740  47.6228175  23.9215055  27.4920466  47.1945787
  23.0846963  27.0642641  47.0129789  23.8938700  27.6852910  48.1316579
  30.7612510  17.4042396  57.8987033  30.8100666  18.2804519  57.5164803
  31.3035024  16.8619789  57.3258677  41.2467356  27.9483520  57.1788171
  40.4562900  27.9307658  56.6392670  41.0100711  28.4871813  57.9337207
  41.3665231  24.7975986  54.4920899  41.4163236  24.6325993  55.4336422
  41.2579154  23.9303245  54.1018780  30.2501490  27.4764532  41.7812988
  30.3989610  28.1599996  41.1279661  31.0567933  27.4569622  42.2962444
  38.6568993  20.7806914  55.8080206  39.5578856  20.6413379  55.5164204
  38.7316968  20.9461369  56.7478383  32.9911799  18.1573769  54.6533392
  32.1215108  18.4507335  54.3815981  33.2271279  18.7414214  55.3740656
  42.8683428  27.2172927  54.7362921  42.5768236  27.5802908  55.5726382
  42.2555559  26.5039936  54.5576253  44.0679110  24.7825807  47.2565491
  44.9026002  25.2215611  47.4203051  44.2038239  24.3064460  46.4373737
  41.1170616  22.3405542  53.2042979  41.5924738  22.5333188  52.3961830
  40.1936181  22.3964728  52.9586362  28.0054123  23.5029709  42.7874057
  27.7600165  22.5992039  42.9854267  28.1750037  23.5046860  41.8453535
  35.6950833  14.3753386  52.1698812  36.2132776  15.1114413  51.8445301
  35.3405965  14.6817379  53.0045572  27.2749770  19.2358067  40.2860218
  26.5819015  19.3102422  39.6300254  27.0301522  18.4718410  40.8081735
  35.9463427  10.7953668  47.6899709  36.2265180  10.1276857  48.3160136
  36.7314034  10.9882764  47.1774373  33.7496895  29.9712662  39.2524735
  33.1770862  30.5902849  38.7995207  34.3229689  30.5212024  39.7864657
  39.8172285  19.2171302  51.4371284  40.7689708  19.3169400  51.4583508
  39.6475735  18.4249571  51.9469369  37.8386665  16.3026885  51.6230685
  37.2436597  16.5831898  50.9277174  37.5536361  16.7920786  52.3947426
  36.9694155  30.2549812  40.3833318  37.9024828  30.1895374  40.5866193
  36.8817368  31.0906079  39.9247850  39.5982172  29.5715683  37.3437265
  39.5195803  29.2375546  38.2373023  40.4191838  30.0637450  37.3428738
  42.2960363  22.4377422  50.5513584  42.2636683  21.4993423  50.7373268
  42.9060987  22.5161459  49.8179409  34.1343694  21.3073475  36.5940788
  35.0802798  21.1779683  36.6629206  33.7557939  20.5688137  37.0710216
  42.4454851  19.2288465  50.5971867  41.9293900  18.4446922  50.4101796
  43.3294800  18.9007182  50.7618386  40.1065578  12.9729481  46.5567680
  39.9090399  12.6644569  47.4411012  40.7165284  13.6991120  46.6865610
  48.1136913  23.4993429  49.6919621  48.8440301  23.2378717  50.2527324
  47.5043858  22.7622151  49.7321689  46.1952210  21.6401291  50.2894072
  45.4685373  21.5057256  49.6810563  45.7799497  21.9478120  51.0950790
  34.0182386  25.3591221  58.0541445  34.9385396  25.5369820  58.2481491
  33.9831969  24.4147266  57.9021144  32.3186611  19.2323451  36.5295673
  31.4118066  18.9356564  36.6058387  32.5962592  18.9353269  35.6629959
  23.2364551  20.5529815  46.9794719  22.9167336  19.6995123  46.6869093
  22.6897979  20.7678393  47.7352687  27.0144459  23.2692256  50.6964226
  27.2330469  24.2009363  50.7152260  27.4270233  22.9100230  51.4819030
  33.9348677  13.7760341  42.6839914  33.1249405  13.4307426  43.0595160
  34.6233094  13.4667885  43.2727526  35.8639225  12.8538388  44.3064211
  36.4170263  13.2733841  44.9654234  36.1009311  11.9274136  44.3487167
  31.8872324  18.8425461  60.0866975  31.7869051  19.7919818  60.0179066
  31.6693866  18.5143700  59.2143045  31.0885395  16.0910386  36.6707652
  31.9504559  16.4165285  36.9303470  31.2735740  15.3041882  36.1580718
  23.1052811  24.1732726  48.9487841  22.4116283  23.7586679  48.4357795
  23.8525802  24.2153263  48.3521260  39.2418032  14.9638913  43.8142875
  38.6616701  15.6223717  43.4320928  38.9753965  14.1416257  43.4030293
  37.6921598  14.3643971  46.0164196  38.1921377  14.4760505  45.2078514
  38.3357206  14.0605023  46.6565004  31.7503594  22.2722600  58.9032037
  31.2670676  23.0722960  59.1095926  31.8364533  22.2830545  57.9499481
  25.0189554  24.1050980  46.8253856  24.9960242  24.2038667  45.8735739
  25.3290190  24.9516131  47.1471022  27.6776932  26.1627135  50.9400470
  28.6320185  26.1311077  50.8730402  27.4789455  25.7017759  51.7550696
  28.2676314  24.7328251  53.5071268  29.0869203  25.2272330  53.5306105
  28.5413121  23.8160219  53.4788836  38.0242910  17.1239003  42.8699224
  37.1368765  17.4088654  42.6519418  38.4396899  16.9632767  42.0226500
  41.3757446  17.1485524  46.5853563  42.1517836  17.6381977  46.8578180
  40.6505580  17.5743578  47.0425432  43.8130005  17.8613143  47.6427503
  44.4074496  17.6208879  46.9320812  43.8856588  17.1420274  48.2701040
  26.0327160  31.7046754  47.9570668  25.8981628  30.9447155  47.3908666
  25.6159223  32.4287654  47.4899457  37.1686123  26.8883678  36.9647244
  37.8721974  27.0933680  37.5804899  36.4448772  27.4560440  37.2296327
  37.9983934  22.6393539  43.0849514  37.9419135  23.0962091  42.2457146
  38.5512276  21.8784224  42.9072356  41.8088740  18.4283271  43.9099633
  41.5525674  18.0279907  44.7407841  41.1841608  19.1427065  43.7849772
  46.1201077  21.1679344  46.4170925  45.5600635  21.2372534  47.1902487
  45.5144581  20.9920329  45.6970421  29.1896286  32.6016071  48.1689111
  29.0728670  33.5461504  48.0667801  28.3688733  32.2989633  48.5574910
  39.0772821  27.3266207  39.0145704  39.9118425  26.8947406  38.8323178
  38.9157164  27.1548221  39.9422598  38.7318713  23.8298320  40.3802043
  38.6767517  23.6642592  39.4390487  38.1064768  24.5374353  40.5364233
  23.5211228  19.0666385  54.2063465  24.1670092  18.5565339  54.6950690
  23.3128379  19.8035066  54.7806890  36.0464620  26.1347232  59.7055606
  36.9155780  26.3087885  59.3442241  35.5671372  26.9541649  59.5831335
  32.0414839  13.3306429  39.9587361  32.0293508  14.2748269  40.1155632
  32.9338260  13.1476575  39.6646822  30.2150800  33.2544333  51.3845039
  31.1178047  33.2867944  51.7011534  29.9888171  32.3244784  51.3991375
  31.9704402  32.0075320  48.0455118  31.0200033  32.0077181  47.9319490
  32.2736889  31.2608054  47.5291153  35.8566958   9.9249206  44.2133298
  35.0899354   9.3707693  44.3589980  36.2677663   9.9971075  45.0747450
  27.8608719  16.2134002  58.3038479  28.7240181  15.8570807  58.5141804
  27.2874130  15.8747897  58.9913884  47.7057096  37.8435858  49.1100880
  48.3435506  37.7242606  48.4064220  47.5877939  38.7916702  49.1688832
  44.5146802  37.7963286  49.0462405  44.1765314  37.6804351  48.1582940
  45.3836570  37.3954451  49.0263411  40.3733618  39.6498763  45.0359296
  39.8098483  39.5588700  44.2675584  40.2586013  38.8298667  45.5161789
  37.9198050  41.1449954  47.8743516  38.7119342  40.8040779  47.4589816
  38.1594700  41.2544929  48.7945670  45.9533177  43.3169730  40.3473761
  45.3021156  43.9023811  39.9607775  46.7477539  43.8475925  40.4068798
  39.8788804  40.4058868  40.7460895  40.6519680  39.8587855  40.6073771
  40.2314203  41.2703117  40.9575357  41.7173846  41.7335250  53.9527795
  41.4263712  42.6380881  53.8374461  42.3530831  41.7751777  54.6671864
  42.6430053  39.1112098  50.5429154  43.2393625  38.8868121  49.8286117
  42.7005025  38.3696844  51.1454602  42.2155082  36.5651534  38.3779345
  42.4680602  36.0433055  37.6162808  41.2779641  36.4017679  38.4806029
  47.2598364  35.5687312  46.1854088  48.0461454  35.1506735  45.8344505
  47.5237069  36.4733404  46.3535737  47.4308442  41.0060162  40.8842745
  46.7954275  41.0794789  41.5963650  47.1005848  41.5953761  40.2061824
  52.6606792  35.5062545  47.0887067  53.3931964  34.9361762  47.3224896
  51.9046147  35.1184146  47.5293572  41.9351370  38.4679640  40.5803720
  41.8187628  37.7924543  41.2484804  42.0453630  37.9812014  39.7635873
  44.2782911  37.9289787  44.2850409  43.9141119  37.4020408  44.9963331
  45.1350027  37.5388256  44.1116895  50.1832212  29.2184119  51.5481675
  49.8515537  30.0879530  51.3242890  49.5877825  28.9020403  52.2275706
  43.9188398  32.9579686  39.2811758  44.0862801  33.8259923  39.6482229
  43.7285567  33.1206968  38.3573047  46.6763731  41.4196665  50.9477588
  46.3764455  42.3221704  50.8393395  46.3314791  41.1528849  51.7998741
  40.1276213  37.8710462  46.9814293  39.2026709  37.7386676  47.1891984
  40.3760626  38.6504681  47.4784235  50.0760875  33.9379206  48.6275026
  49.1677753  33.8694614  48.3333787  50.0248471  34.4151150  49.4556851
  43.8977619  35.4137344  40.2658425  43.7777244  35.8594395  41.1043905
  43.2030208  35.7622662  39.7071963  37.4885024  37.5143736  47.8158082
  37.6177405  37.7678215  48.7297493  36.8082475  38.1071444  47.4962737
  41.6584511  48.1840986  43.9148556  41.5808541  49.1348811  43.9937036
  41.0546155  47.8386858  44.5723482  51.9422522  32.1395644  50.4052899
  51.2996902  32.4328177  49.7592694  51.4377450  32.0248564  51.2106096
  49.5962685  35.8858817  41.0938759  50.5080541  36.1186204  40.9186456
  49.0872332  36.4695861  40.5313837  48.2032268  40.8684636  48.4852340
  47.5741130  41.0330350  47.7828408  47.8157930  41.2826245  49.2563304
  52.0821500  41.8039073  45.8396704  51.3972538  42.1837975  45.2893737
  52.1665349  42.4134400  46.5728652  46.9398660  32.0616853  49.3428620
  46.0783139  32.3598107  49.6345357  46.9661095  32.2787252  48.4109652
  43.7560229  40.6059044  45.7502425  44.2198575  40.8846747  44.9607048
  43.4917028  39.7042488  45.5675516  40.6484311  40.1530525  48.6882189
  41.2185668  40.5817794  48.0499673  41.2392422  39.8713110  49.3866374
  42.6929116  36.7282196  42.5591990  43.3953159  37.1803240  43.0265917
  42.3609744  36.0866015  43.1871884  41.1409477  35.3193953  56.9343200
  40.5108138  36.0010234  57.1678597  41.0345565  35.2077034  55.9896338
  36.4354449  34.9865749  47.8609124  35.6453503  35.2423277  47.3849235
  36.9265697  35.8014087  47.9661165  38.3869195  35.3510328  44.8192601
  37.5900358  35.4629022  45.3376096  38.1594787  35.6896980  43.9533491
  44.2174863  41.8755031  52.7675115  44.2819295  42.3375438  53.6033287
  43.5085786  41.2452396  52.8957425  34.7192152  35.2396239  50.2924115
  34.9700191  36.1243249  50.5581691  35.2551701  35.0600841  49.5199207
  58.5424252  38.6709736  46.9599376  57.7887960  38.1017134  46.8043381
  58.6771793  38.6372401  47.9070011  43.9322880  43.5423139  42.6354096
  43.7968555  44.3874674  43.0638943  44.4732693  43.7442416  41.8720029
  40.4190220  29.6214719  59.2968451  40.0257165  29.0680917  59.9716095
  41.2356360  29.9325297  59.6874968  37.3852278  41.0598577  43.2082021
  37.8976798  41.8541827  43.3587585  38.0374990  40.3624867  43.1415622
  39.1947162  44.1764333  45.2904774  39.3713791  45.0982298  45.1025758
  39.9903996  43.8622752  45.7199154  43.3358181  31.0372598  56.8888707
  44.0767894  31.6379751  56.8093170  43.5676104  30.2950235  56.3306750
  38.4799519  36.2228965  55.1666937  38.3653034  35.3214222  55.4674036
  37.6244037  36.4692662  54.8151754  40.3178478  45.6942507  51.2915116
  40.8685903  45.5659570  50.5192110  39.4789954  45.9937396  50.9410009
  47.2815344  27.0653701  51.1652989  46.9379613  27.9555342  51.0892100
  47.6494306  26.8755358  50.3022574  35.3501194  39.3887231  43.9841591
  36.1876416  39.7984239  43.7675299  35.5279462  38.4486673  43.9541785
  47.2465626  37.0562312  39.6725424  46.7312250  37.8266916  39.9113812
  46.9742935  36.3827448  40.2958486  44.8312737  31.9012012  44.7310663
  43.9754334  31.5118863  44.5516301  45.2439689  31.9803973  43.8710448
  46.3611884  29.4358356  49.1302222  45.8576680  29.3988491  48.3170028
  46.6542491  30.3451098  49.1898879  42.6054770  29.5197085  48.1368404
  43.4707767  29.3239894  47.7774294  42.6732279  29.2907437  49.0637761
  52.2199901  39.8094666  41.6078598  51.4429343  39.4705826  41.1633760
  52.8991382  39.8147289  40.9333563  47.0351930  34.9289404  41.4985205
  46.7302065  35.2435553  42.3495349  47.9882372  35.0070824  41.5412538
  45.4798361  41.0879627  43.1478159  44.9519723  40.3532387  42.8351397
  44.9785864  41.8654303  42.9018128  50.4591207  39.2828648  48.2645206
  49.8014882  39.9727909  48.3525334  51.2631607  39.6725080  48.6079192
  40.2117089  31.7499293  45.5084771  40.7860841  31.5274475  44.7757964
  40.7988072  31.8187988  46.2613372  49.2696666  37.6373020  46.3149147
  49.7828548  38.2703012  46.8170857  49.9197890  37.0374216  45.9492507
  40.5386676  33.7803754  39.5280656  39.7023988  34.1178441  39.8489931
  40.3991446  33.6452734  38.5907793  42.5139757  28.6240542  44.2359840
  41.8604169  28.3089559  43.6116455  42.4720231  28.0016283  44.9619663
  43.6250962  38.9059837  36.1513132  42.7178023  38.6749091  36.3504281
  44.1221994  38.1097457  36.3387114  46.5319041  47.6157345  39.0709819
  45.8580739  47.9189041  39.6794776  46.9184863  48.4186425  38.7215276
  45.7477497  35.1122476  48.5607488  44.8300059  35.3337423  48.4029176
  46.1637641  35.1868786  47.7019195  46.5312545  36.5113891  43.6910168
  47.2784364  37.0235289  43.3817290  46.8004134  36.1897944  44.5514562
  44.8039195  39.0072432  40.6737123  43.8950414  38.7231465  40.7709592
  44.8334279  39.4271511  39.8140429  48.9791382  33.5471008  45.6728958
  48.2414139  33.0348394  46.0039200  49.2318156  33.1071389  44.8612234
  49.0803009  26.3247260  46.2670727  49.3861886  25.4644623  45.9796642
  49.8055614  26.9164880  46.0669721  35.3727365  36.7277946  44.6552325
  35.1751765  36.1347307  43.9303391  34.8174029  36.4230157  45.3728264
  43.3524089  36.6201053  46.7746918  43.4072699  35.6674889  46.6989394
  42.5415291  36.7760492  47.2588216  44.5015283  40.5481176  38.0125201
  44.0634713  39.8317035  37.5530838  45.2425724  40.7757291  37.4510292
  41.2916449  35.2378113  44.5337297  40.4784315  35.5372283  44.9402489
  41.7875443  34.8433801  45.2511779  43.4425027  45.2335869  46.4671561
  43.4001206  45.4596716  45.5380093  44.3587726  44.9999244  46.6157363
  52.6188398  38.8238373  44.0701520  52.4806296  39.0139969  43.1422709
  52.2624616  39.5857756  44.5269571  40.7830524  32.8096468  50.1498532
  41.4229903  32.6685227  49.4521495  39.9508054  32.5230981  49.7737134
  52.6457777  40.8914900  49.0812791  53.0794284  40.7990189  49.9295845
  53.3589358  40.8672400  48.4432807  41.5590828  42.1098899  46.2633524
  42.3531426  41.6149219  46.0616099  40.8482520  41.5816762  45.9001230
  37.8673591  36.2541980  42.3393277  36.9371179  36.1926436  42.5563239
  37.9631063  35.7317933  41.5429918  37.7859140  32.7796793  44.9271518
  38.0465958  33.6942126  44.8180679  38.6076313  32.3121236  45.0768131
  39.2584066  34.1934550  52.0970343  39.9307119  33.9851912  51.4482992
  38.4313852  33.9956636  51.6575575  45.1609638  30.8196491  54.1136004
  44.5137553  31.5186441  54.0200480  45.9310653  31.2532635  54.4812252
  44.1362104  42.6827920  49.9431361  43.9973189  42.3146705  50.8157299
  43.3476700  43.1975560  49.7715319  44.7310256  47.7837017  41.2856898
  44.9062011  47.3125060  42.1002520  44.0443044  48.4102783  41.5138158
  45.6867319  42.0609523  47.3320199  45.3517151  42.0210293  48.2277849
  45.1871265  41.3954239  46.8590609  39.6611563  37.4677153  52.8572780
  39.5231361  36.7357392  53.4584319  40.5716486  37.3786053  52.5756968
  48.6226511  39.4065558  37.6057259  48.0055681  38.6812386  37.5090311
  48.1542999  40.1674918  37.2624333  42.2893863  37.1797113  52.3456460
  42.9993482  36.5390305  52.3043078  42.2463172  37.4310007  53.2682641
  41.0022797  34.1662330  54.1652099  40.4660154  33.7153069  54.8173696
  40.4139506  34.3008239  53.4222564  40.4125056  33.6250982  36.7278563
  39.5354523  33.5039783  36.3640810  40.8882809  32.8337060  36.4757452
  31.9327197  38.4128142  46.8220070  32.6198236  38.0989872  46.2341085
  31.7775325  39.3169506  46.5487322  36.7361919  33.3018338  51.2505094
  36.6520107  32.6944008  50.5155504  35.9144625  33.7927356  51.2514590
  43.5988982  45.9777272  43.9741083  42.8156504  46.5198952  44.0679308
  44.2981728  46.4951252  44.3735325  46.9085633  31.7871902  46.6175289
  47.4054332  31.0341864  46.2976359  46.1372614  31.8236218  46.0518498
  54.7615390  37.4912267  48.2593580  54.7505266  38.3736983  47.8887513
  53.8932769  37.1383818  48.0648117  47.9915413  40.5443589  44.1913712
  47.0571692  40.6645051  44.0218417  48.1692082  39.6416056  43.9273722
  43.4920601  33.9289285  46.3446973  43.1218389  33.3760325  47.0327879
  43.9879694  33.3247418  45.7921973  51.3787965  36.3860908  44.7263746
  51.8448417  37.2188900  44.6524049  51.8295465  35.9205890  45.4309005
  49.3504627  28.7541495  48.7654648  48.4367707  28.9845722  48.9336855
  49.7797729  28.8379939  49.6168680  36.9177518  43.9223135  50.3733094
  37.5030955  43.1766823  50.5060998  36.7202356  44.2327091  51.2569758
  39.7716173  46.9574382  45.3895536  39.1026548  47.4420510  44.9059577
  39.6329043  47.2043603  46.3038915  31.5095173  36.4928735  49.0937537
  31.5479272  35.9592326  49.8874655  31.0035465  35.9663940  48.4748514
  38.8885935  31.3393275  52.5900080  38.9527261  32.2008106  52.1777477
  38.8253055  30.7267277  51.8572438  38.3638208  33.4116408  56.2373114
  38.9910246  33.0293485  56.8510638  37.5066126  33.1930610  56.6028806
  35.1403750  35.2192837  42.1691469  35.4357191  34.3103515  42.1158522
  34.2391786  35.1980577  41.8472471  38.6697997  33.2948834  48.1519017
  37.9484583  33.9084801  48.0126491  39.4591253  33.8306598  48.0735663
  41.4724311  30.6303260  54.4259669  41.9958713  30.8765557  55.1885978
  41.2536644  31.4623295  54.0062806  36.8691592  32.9006935  42.2930794
  36.5404298  32.0204314  42.1105900  37.2230963  32.8454603  43.1807183
  39.9833415  33.1879905  42.6606271  40.3229488  33.7165826  41.9384880
  40.4305535  33.5260311  43.4364838  42.6776856  31.5716955  52.1109340
  42.3373676  30.7724768  52.5130019  41.9715862  31.8718666  51.5386173
  43.3293328  28.6566268  50.5636663  44.1519397  28.1826746  50.4415553
  43.5731391  29.4356751  51.0635349  41.9701562  31.6854526  40.8599564
  42.6909925  32.0635779  40.3563281  41.3466866  32.4043403  40.9634542
  46.1132685  32.3899675  41.7957897  46.3296299  33.2724313  41.4946725
  45.6326752  31.9985889  41.0663539  40.8531906  35.3485388  48.3728641
  40.7076487  35.6625691  49.2652923  40.3757110  35.9670289  47.8199540
  42.7128289  32.3387936  48.4209531  42.6989858  31.4429030  48.0841829
  43.4300717  32.3458600  49.0547817  44.5654420  32.7725277  50.4662658
  44.3072198  33.6942347  50.4646989  44.0339460  32.3755711  51.1563122
  35.3277569  37.8890733  51.3116302  34.7831037  38.6650541  51.4436577
  36.2056918  38.2361537  51.1535424  42.1165185  31.2202317  43.6897101
  42.2381096  30.2918963  43.8887988  41.8267228  31.2341003  42.7775416
  44.9856376  28.9057227  46.8263821  45.0078072  28.9696560  45.8715800
  45.4024435  28.0661736  47.0204327  55.3640000  38.6412487  44.8643043
  55.8071146  37.8919812  44.4662167  54.4866510  38.6322623  44.4816775
  36.1143590  37.0160629  54.2046459  35.3725326  37.1643264  54.7911090
  35.7936335  37.2768895  53.3413209  36.5600204  44.9026058  46.2356854
  37.3858224  44.6029830  45.8555497  36.2094256  44.1333680  46.6846642
  41.5281737  44.2552526  48.3054527  40.9061747  43.5923231  48.0056755
  42.1986604  44.2813658  47.6228175  34.7608809  42.8212384  47.1945787
  33.9240717  42.3934559  47.0129789  34.7332455  43.0144828  48.1316579
  41.6006265  32.7334314  57.8987033  41.6494420  33.6096437  57.5164803
  42.1428779  32.1911707  57.3258677  41.0895244  42.8056449  41.7812988
  41.2383365  43.4891914  41.1279661  41.8961688  42.7861539  42.2962444
  43.8305553  33.4865686  54.6533392  42.9608863  33.7799252  54.3815981
  44.0665034  34.0706131  55.3740656  54.9072865  40.1117725  47.2565491
  55.7419756  40.5507529  47.4203051  55.0431993  39.6356378  46.4373737
  38.8447877  38.8321627  42.7874057  38.5993919  37.9283957  42.9854267
  39.0143792  38.8338777  41.8453535  46.5344587  29.7045303  52.1698812
  47.0526531  30.4406330  51.8445301  46.1799720  30.0109297  53.0045572
  38.1143525  34.5649984  40.2860218  37.4212770  34.6394339  39.6300254
  37.8695277  33.8010328  40.8081735  46.7857181  26.1245586  47.6899709
  47.0658935  25.4568775  48.3160136  47.5707788  26.3174681  47.1774373
  44.5890650  45.3004580  39.2524735  44.0164617  45.9194767  38.7995207
  45.1623443  45.8503941  39.7864657  48.6780419  31.6318803  51.6230685
  48.0830351  31.9123816  50.9277174  48.3930116  32.1212704  52.3947426
  50.4375926  44.9007600  37.3437265  50.3589558  44.5667464  38.2373023
  51.2585593  45.3929368  37.3428738  53.1354117  37.7669340  50.5513584
  53.1030437  36.8285340  50.7373268  53.7454741  37.8453376  49.8179409
  44.9737448  36.6365392  36.5940788  45.9196553  36.5071601  36.6629206
  44.5951693  35.8980054  37.0710216  53.2848606  34.5580383  50.5971867
  52.7687654  33.7738840  50.4101796  54.1688554  34.2299100  50.7618386
  50.9459333  28.3021399  46.5567680  50.7484154  27.9936487  47.4411012
  51.5559038  29.0283037  46.6865610  58.9530667  38.8285346  49.6919621
  59.6834056  38.5670634  50.2527324  58.3437613  38.0914068  49.7321689
  57.0345964  36.9693209  50.2894072  56.3079128  36.8349174  49.6810563
  56.6193251  37.2770038  51.0950790  43.1580365  34.5615369  36.5295673
  42.2511821  34.2648482  36.6058387  43.4356346  34.2645187  35.6629959
  34.0758306  35.8821732  46.9794719  33.7561090  35.0287040  46.6869093
  33.5291734  36.0970310  47.7352687  37.8538213  38.5984173  50.6964226
  38.0724223  39.5301281  50.7152260  38.2663987  38.2392148  51.4819030
  44.7742431  29.1052259  42.6839914  43.9643159  28.7599344  43.0595160
  45.4626848  28.7959802  43.2727526  46.7032979  28.1830305  44.3064211
  47.2564018  28.6025759  44.9654234  46.9403066  27.2566053  44.3487167
  42.7266079  34.1717379  60.0866975  42.6262805  35.1211736  60.0179066
  42.5087621  33.8435618  59.2143045  41.9279150  31.4202304  36.6707652
  42.7898314  31.7457202  36.9303470  42.1129494  30.6333800  36.1580718
  33.9446566  39.5024644  48.9487841  33.2510037  39.0878597  48.4357795
  34.6919557  39.5445180  48.3521260  50.0811786  30.2930831  43.8142875
  49.5010456  30.9515635  43.4320928  49.8147719  29.4708175  43.4030293
  48.5315353  29.6935888  46.0164196  49.0315131  29.8052423  45.2078514
  49.1750961  29.3896941  46.6565004  35.8583308  39.4342898  46.8253856
  35.8353996  39.5330585  45.8735739  36.1683945  40.2808048  47.1471022
  38.5170686  41.4919053  50.9400470  39.4713940  41.4602995  50.8730402
  38.3183210  41.0309676  51.7550696  39.1070068  40.0620169  53.5071268
  39.9262957  40.5564247  53.5306105  39.3806876  39.1452137  53.4788836
  48.8636664  32.4530921  42.8699224  47.9762520  32.7380572  42.6519418
  49.2790654  32.2924684  42.0226500  52.2151201  32.4777442  46.5853563
  52.9911591  32.9673894  46.8578180  51.4899335  32.9035496  47.0425432
  54.6523759  33.1905061  47.6427503  55.2468250  32.9500797  46.9320812
  54.7250343  32.4712192  48.2701040  36.8720915  47.0338672  47.9570668
  36.7375383  46.2739073  47.3908666  36.4552977  47.7579572  47.4899457
  48.0079878  42.2175596  36.9647244  48.7115728  42.4225598  37.5804899
  47.2842527  42.7852357  37.2296327  48.8377688  37.9685457  43.0849514
  48.7812890  38.4254008  42.2457146  49.3906031  37.2076141  42.9072356
  52.6482494  33.7575189  43.9099633  52.3919428  33.3571824  44.7407841
  52.0235362  34.4718983  43.7849772  56.9594832  36.4971262  46.4170925
  56.3994390  36.5664451  47.1902487  56.3538335  36.3212247  45.6970421
  40.0290041  47.9307989  48.1689111  39.9122425  48.8753422  48.0667801
  39.2082487  47.6281551  48.5574910  49.5712468  39.1590238  40.3802043
  49.5161271  38.9934510  39.4390487  48.9458523  39.8666271  40.5364233
  34.3604983  34.3958302  54.2063465  35.0063846  33.8857256  54.6950690
  34.1522134  35.1326984  54.7806890  42.8808593  28.6598347  39.9587361
  42.8687263  29.6040187  40.1155632  43.7732015  28.4768493  39.6646822
  42.8098157  47.3367238  48.0455118  41.8593788  47.3369099  47.9319490
  43.1130643  46.5899972  47.5291153  46.6960712  25.2541124  44.2133298
  45.9293108  24.6999610  44.3589980  47.1071417  25.3262993  45.0747450
  38.7002474  31.5425920  58.3038479  39.5633935  31.1862724  58.5141804
  38.1267884  31.2039814  58.9913884  53.0548836  51.8943451  38.3779345
  53.3074357  51.3724973  37.6162808  52.1173395  51.7309597  38.4806029
  54.7582153  48.2871604  39.2811758  54.9256555  49.1551841  39.6482229
  54.5679322  48.4498886  38.3573047  53.3533511  43.9532460  44.2359840
  52.6997924  43.6381477  43.6116455  53.3113985  43.3308200  44.9619663
  59.8185137  48.8762925  45.6728958  59.0807893  48.3640312  46.0039200
  60.0711910  48.4363307  44.8612234  51.2518811  48.9542900  36.7278563
  50.3748277  48.8331700  36.3640810  51.7276564  48.1628978  36.4757452
  56.9526440  47.7191593  41.7957897  57.1690054  48.6016231  41.4946725
  56.4720507  47.3277806  41.0663539  55.8250130  44.2349145  46.8263821
  55.8471827  44.2988478  45.8715800  56.2418189  43.3953653  47.0204327
  53.9974120  49.8907287  36.5295673  53.0905575  49.5940399  36.6058387
  54.2750101  49.5937105  35.6629959  55.6136186  44.4344176  42.6839914
  54.8036914  44.0891261  43.0595160  56.3020603  44.1251720  43.2727526
  57.5426734  43.5122223  44.3064211  58.0957772  43.9317676  44.9654234
  57.7796820  42.5857971  44.3487167  52.7672904  46.7494222  36.6707652
  53.6292068  47.0749120  36.9303470  52.9523249  45.9625718  36.1580718
  60.9205541  45.6222748  43.8142875  60.3404210  46.2807552  43.4320928
  60.6541474  44.8000093  43.4030293  57.5354467  40.5833041  44.2133298
  56.7686863  40.0291528  44.3589980  57.9465172  40.6554910  45.0747450
  59.5985559  71.8033790  47.8743516  60.3906851  71.4624614  47.4589816
  59.8382209  71.9128765  48.7945670  67.6320686  73.9753566  40.3473761
  66.9808665  74.5607646  39.9607775  68.4265048  74.5059761  40.4068798
  61.5576313  71.0642703  40.7460895  62.3307189  70.5171690  40.6073771
  61.9101712  71.9286952  40.9575357  63.3372020  78.8424821  43.9148556
  63.2596050  79.7932646  43.9937036  62.7333664  78.4970694  44.5723482
  73.7609008  72.4622909  45.8396704  73.0760047  72.8421810  45.2893737
  73.8452858  73.0718235  46.5728652  80.2211761  69.3293572  46.9599376
  79.4675469  68.7600970  46.8043381  80.3559302  69.2956236  47.9070011
  65.6110389  74.2006974  42.6354096  65.4756064  75.0458510  43.0638943
  66.1520202  74.4026252  41.8720029  59.0639787  71.7182412  43.2082021
  59.5764307  72.5125662  43.3587585  59.7162499  71.0208703  43.1415622
  60.8734671  74.8348168  45.2904774  61.0501300  75.7566133  45.1025758
  61.6691505  74.5206588  45.7199154  61.9965987  76.3526342  51.2915116
  62.5473412  76.2243406  50.5192110  61.1577463  76.6521231  50.9410009
  57.0288703  70.0471066  43.9841591  57.8663925  70.4568075  43.7675299
  57.2066971  69.1070509  43.9541785  68.2106550  78.2741180  39.0709819
  67.5368248  78.5772877  39.6794776  68.5972371  79.0770260  38.7215276
  70.1578911  75.1139354  45.3778108  70.4501885  75.6744411  44.6590474
  70.6677531  75.4067915  46.1331267  57.0514874  67.3861782  44.6552325
  56.8539274  66.7931142  43.9303391  56.4961538  67.0813992  45.3728264
  65.1212536  75.8919705  46.4671561  65.0788715  76.1180551  45.5380093
  66.0375235  75.6583079  46.6157363  63.2378337  72.7682734  46.2633524
  64.0318935  72.2733054  46.0616099  62.5270029  72.2400597  45.9001230
  68.0573181  75.1500829  50.6145892  68.1110203  75.7191766  51.3823608
  67.1887963  75.3202714  50.2499929  65.8149613  73.3411756  49.9431361
  65.6760698  72.9730540  50.8157299  65.0264209  73.8559395  49.7715319
  66.4097765  78.4420852  41.2856898  66.5849520  77.9708896  42.1002520
  65.7230553  79.0686619  41.5138158  60.9758850  81.5910215  48.0596758
  61.2155448  82.2228739  48.7375776  60.1328046  81.2398255  48.3462117
  53.6114706  69.0711977  46.8220070  54.2985745  68.7573707  46.2341085
  53.4562834  69.9753342  46.5487322  65.4886712  77.3989338  50.4638262
  65.4156883  78.2044309  50.9757566  65.0464105  77.5981303  49.6386283
  65.2776491  76.6361108  43.9741083  64.4944013  77.1782788  44.0679308
  65.9769237  77.1535087  44.3735325  76.4402899  68.1496103  48.2593580
  76.4292775  69.0320818  47.8887513  75.5720278  67.7967653  48.0648117
  67.9485395  77.2976172  52.6196421  68.6613368  77.9323636  52.5472322
  67.4575424  77.3940038  51.8036422  67.7605769  77.6374916  45.3682712
  67.9428163  76.8196572  45.8310464  68.5838755  77.8542608  44.9307602
  68.0947934  76.5643101  42.6297761  68.6235701  76.0535555  42.0167923
  68.3576154  76.2485631  43.4943294  58.5965027  74.5806970  50.3733094
  59.1818464  73.8350658  50.5060998  58.3989865  74.8910927  51.2569758
  61.4503682  77.6158217  45.3895536  60.7814057  78.1004345  44.9059577
  61.3116552  77.8627438  46.3038915  65.5908951  79.6501961  51.9878195
  66.1427259  79.8133582  52.7527280  65.9315144  80.2406399  51.3158220
  68.7277338  77.5983937  48.9741877  68.6028477  76.7973676  48.4652822
  69.3856429  78.0930130  48.4855847  70.7912246  75.3992957  50.6021427
  69.8442582  75.2798308  50.5299754  71.1395020  74.5115455  50.6847689
  67.7958680  75.1945673  46.8025779  67.6483642  74.2662380  46.9833349
  68.6212173  75.2165764  46.3182855  71.3992802  76.0174232  47.8890652
  72.3239349  75.8117093  47.7515103  71.2308105  75.7690633  48.7979994
  71.1888118  76.5359899  43.2452744  71.3624995  75.9706321  42.4926596
  71.6817009  77.3360794  43.0632233  72.1763290  75.8526663  40.3449642
  72.8714195  76.4733356  40.5636956  72.5186440  75.0022015  40.6202020
  74.0754713  73.3026369  41.8736973  74.6006037  73.6413642  41.1486293
  73.9877066  72.3673384  41.6900107  65.7595374  79.3698352  46.2332226
  65.3200364  78.8774731  46.9265082  66.5103491  78.8271320  45.9924301
  58.2387713  75.5609893  46.2356854  59.0645733  75.2613665  45.8555497
  57.8881765  74.7917515  46.6846642  63.2069246  74.9136361  48.3054527
  62.5849256  74.2507066  48.0056755  63.8774113  74.9397493  47.6228175
  56.4396318  73.4796220  47.1945787  55.6028226  73.0518394  47.0129789
  56.4119964  73.6728663  48.1316579  62.7682753  73.4640285  41.7812988
  62.9170874  74.1475749  41.1279661  63.5749197  73.4445375  42.2962444
  76.5860374  70.7701560  47.2565491  77.4207265  71.2091364  47.4203051
  76.7219502  70.2940213  46.4373737  60.5235386  69.4905462  42.7874057
  60.2781428  68.5867792  42.9854267  60.6931301  69.4922613  41.8453535
  66.2678159  75.9588415  39.2524735  65.6952126  76.5778602  38.7995207
  66.8410952  76.5087777  39.7864657  69.4875418  76.2425565  40.3833318
  70.4206092  76.1771127  40.5866193  69.3998631  77.0781832  39.9247850
  80.6318176  69.4869182  49.6919621  81.3621565  69.2254470  50.2527324
  80.0225122  68.7497904  49.7321689  57.5370817  70.0926733  46.8253856
  57.5141505  70.1914420  45.8735739  57.8471454  70.9391884  47.1471022
  60.1958195  72.1502888  50.9400470  61.1501449  72.1186830  50.8730402
  59.9970719  71.6893512  51.7550696  58.5508424  77.6922507  47.9570668
  58.4162892  76.9322908  47.3908666  58.1340486  78.4163407  47.4899457
  78.6382341  67.1555097  46.4170925  78.0781899  67.2248287  47.1902487
  78.0325844  66.9796082  45.6970421  61.7077550  78.5891824  48.1689111
  61.5909934  79.5337257  48.0667801  60.8869996  78.2865386  48.5574910
  62.7332064  79.2420086  51.3845039  63.6359311  79.2743697  51.7011534
  62.5069434  78.3120537  51.3991375  64.4885666  77.9951073  48.0455118
  63.5381297  77.9952934  47.9319490  64.7918152  77.2483807  47.5291153
  80.2238359  83.8311611  49.1100880  80.8616769  83.7118359  48.4064220
  80.1059202  84.7792455  49.1688832  77.0328066  83.7839039  49.0462405
  76.6946577  83.6680104  48.1582940  77.9017834  83.3830204  49.0263411
  72.8914881  85.6374516  45.0359296  72.3279747  85.5464453  44.2675584
  72.7767276  84.8174420  45.5161789  70.4379313  87.1325707  47.8743516
  71.2300605  86.7916532  47.4589816  70.6775963  87.2420682  48.7945670
  78.4714440  89.3045483  40.3473761  77.8202420  89.8899564  39.9607775
  79.2658803  89.8351678  40.4068798  72.3970067  86.3934621  40.7460895
  73.1700943  85.8463608  40.6073771  72.7495466  87.2578870  40.9575357
  74.2355110  87.7211003  53.9527795  73.9444976  88.6256634  53.8374461
  74.8712094  87.7627531  54.6671864  75.1611317  85.0987851  50.5429154
  75.7574889  84.8743874  49.8286117  75.2186288  84.3572597  51.1454602
  74.7336345  82.5527287  38.3779345  74.9861866  82.0308808  37.6162808
  73.7960904  82.3893432  38.4806029  79.7779628  81.5563065  46.1854088
  80.5642717  81.1382488  45.8344505  80.0418332  82.4609157  46.3535737
  79.9489705  86.9935915  40.8842745  79.3135538  87.0670542  41.5963650
  79.6187112  87.5829514  40.2061824  85.1788055  81.4938298  47.0887067
  85.9113227  80.9237515  47.3224896  84.4227411  81.1059899  47.5293572
  74.4532634  84.4555393  40.5803720  74.3368892  83.7800296  41.2484804
  74.5634894  83.9687767  39.7635873  76.7964175  83.9165540  44.2850409
  76.4322382  83.3896161  44.9963331  77.6531291  83.5264009  44.1116895
  82.7013475  75.2059872  51.5481675  82.3696800  76.0755283  51.3242890
  82.1059089  74.8896156  52.2275706  76.4369662  78.9455440  39.2811758
  76.6044064  79.8135676  39.6482229  76.2466831  79.1082721  38.3573047
  79.1944995  87.4072418  50.9477588  78.8945718  88.3097457  50.8393395
  78.8496054  87.1404602  51.7998741  72.6457476  83.8586215  46.9814293
  71.7207973  83.7262429  47.1891984  72.8941890  84.6380434  47.4784235
  82.5942139  79.9254959  48.6275026  81.6859016  79.8570367  48.3333787
  82.5429734  80.4026904  49.4556851  76.4158883  81.4013097  40.2658425
  76.2958508  81.8470148  41.1043905  75.7211471  81.7498415  39.7071963
  70.0066287  83.5019489  47.8158082  70.1358669  83.7553968  48.7297493
  69.3263739  84.0947197  47.4962737  74.1765775  94.1716739  43.9148556
  74.0989804  95.1224564  43.9937036  73.5727418  93.8262611  44.5723482
  84.4603785  78.1271397  50.4052899  83.8178165  78.4203930  49.7592694
  83.9558714  78.0124317  51.2106096  82.1143949  81.8734570  41.0938759
  83.0261805  82.1061957  40.9186456  81.6053596  82.4571614  40.5313837
  80.3984716  86.2959198  54.7300051  80.8068072  85.8541609  53.9854684
  79.6761978  85.7211826  54.9834244  80.7213531  86.8560389  48.4852340
  80.0922394  87.0206103  47.7828408  80.3339193  87.2701998  49.2563304
  84.6002763  87.7914826  45.8396704  83.9153801  88.1713728  45.2893737
  84.6846612  88.4010153  46.5728652  79.9015232  78.8936173  53.7614782
  79.6576164  79.6478234  53.2249058  80.1775162  79.2721521  54.5962029
  81.8553695  85.4374786  52.4392047  82.0670590  86.0806545  51.7626429
  81.8083443  84.6037102  51.9713978  79.4579924  78.0492606  49.3428620
  78.5964403  78.3473860  49.6345357  79.4842358  78.2663005  48.4109652
  76.2741493  86.5934797  45.7502425  76.7379838  86.8722500  44.9607048
  76.0098291  85.6918241  45.5675516  73.1665574  86.1406278  48.6882189
  73.7366931  86.5693547  48.0499673  73.7573686  85.8588863  49.3866374
  75.2110379  82.7157949  42.5591990  75.9134422  83.1678993  43.0265917
  74.8791008  82.0741768  43.1871884  68.9535713  80.9741502  47.8609124
  68.1634767  81.2299030  47.3849235  69.4446960  81.7889840  47.9661165
  82.9699523  88.3146741  50.6114405  83.7916966  87.9126928  50.3297086
  82.9661925  88.2114975  51.5630521  70.9050458  81.3386081  44.8192601
  70.1081622  81.4504775  45.3376096  70.6776051  81.6772733  43.9533491
  76.7356126  87.8630784  52.7675115  76.8000558  88.3251191  53.6033287
  76.0267050  87.2328149  52.8957425  67.2373416  81.2271992  50.2924115
  67.4881454  82.1119002  50.5581691  67.7732964  81.0476594  49.5199207
  91.0605516  84.6585489  46.9599376  90.3069224  84.0892887  46.8043381
  91.1953057  84.6248154  47.9070011  76.4504144  89.5298892  42.6354096
  76.3149818  90.3750427  43.0638943  76.9913956  89.7318169  41.8720029
  69.9033541  87.0474330  43.2082021  70.4158062  87.8417580  43.3587585
  70.5556254  86.3500620  43.1415622  71.7128426  90.1640086  45.2904774
  71.8895054  91.0858051  45.1025758  72.5085259  89.8498505  45.7199154
  78.0772620  90.1522458  56.7654438  77.6336474  89.3658837  56.4475342
  78.7389834  90.3401609  56.0998329  72.8359741  91.6818260  51.2915116
  73.3867166  91.5535323  50.5192110  71.9971217  91.9813149  50.9410009
  80.1753858  90.4325258  54.7935839  80.1572333  91.2534139  54.3016108
  81.0973778  90.3079333  55.0185980  76.6326912  87.9469388  55.6359347
  77.1655249  87.1857676  55.4058655  76.1040993  87.6543039  56.3783502
  79.7996607  73.0529454  51.1652989  79.4560877  73.9431095  51.0892100
  80.1675570  72.8631111  50.3022574  67.8682458  85.3762984  43.9841591
  68.7057680  85.7859992  43.7675299  68.0460726  84.4362426  43.9541785
  79.7646890  83.0438065  39.6725424  79.2493513  83.8142669  39.9113812
  79.4924198  82.3703201  40.2958486  77.3494001  77.8887765  44.7310663
  76.4935597  77.4994616  44.5516301  77.7620953  77.9679726  43.8710448
  78.8793148  75.4234109  49.1302222  78.3757943  75.3864244  48.3170028
  79.1723754  76.3326851  49.1898879  75.1236033  75.5072838  48.1368404
  75.9889030  75.3115647  47.7774294  75.1913542  75.2783190  49.0637761
  84.7381164  85.7970419  41.6078598  83.9610607  85.4581579  41.1633760
  85.4172645  85.8023043  40.9333563  79.5533193  80.9165157  41.4985205
  79.2483329  81.2311306  42.3495349  80.5063635  80.9946577  41.5412538
  77.9979625  87.0755380  43.1478159  77.4700987  86.3408140  42.8351397
  77.4967128  87.8530056  42.9018128  82.9772471  85.2704401  48.2645206
  82.3196145  85.9603662  48.3525334  83.7812870  85.6600833  48.6079192
  72.7298353  77.7375046  45.5084771  73.3042104  77.5150228  44.7757964
  73.3169335  77.8063741  46.2613372  81.7877930  83.6248773  46.3149147
  82.3009812  84.2578765  46.8170857  82.4379154  83.0249969  45.9492507
  73.0567940  79.7679507  39.5280656  72.2205252  80.1054194  39.8489931
  72.9172709  79.6328487  38.5907793  75.0321020  74.6116295  44.2359840
  74.3785433  74.2965312  43.6116455  74.9901494  73.9892036  44.9619663
  76.1432225  84.8935590  36.1513132  75.2359287  84.6624844  36.3504281
  76.6403257  84.0973210  36.3387114  79.0500304  93.6033098  39.0709819
  78.3762003  93.9064794  39.6794776  79.4366126  94.4062178  38.7215276
  78.2658761  81.0998229  48.5607488  77.3481322  81.3213176  48.4029176
  78.6818904  81.1744539  47.7019195  79.0493808  82.4989645  43.6910168
  79.7965627  83.0111042  43.3817290  79.3185398  82.1773697  44.5514562
  77.3220459  84.9948185  40.6737123  76.4131678  84.7107218  40.7709592
  77.3515542  85.4147264  39.8140429  82.5539726  88.6054775  44.4428290
  82.1002053  87.7645685  44.4993481  81.9233693  89.2416173  44.7803070
  81.4972646  79.5346761  45.6728958  80.7595402  79.0224147  46.0039200
  81.7499419  79.0947142  44.8612234  80.9972665  90.4431271  45.3778108
  81.2895640  91.0036329  44.6590474  81.5071286  90.7359832  46.1331267
  81.5984273  72.3123013  46.2670727  81.9043150  71.4520376  45.9796642
  82.3236878  72.9040633  46.0669721  67.8908629  82.7153699  44.6552325
  67.6933029  82.1223060  43.9303391  67.3355293  82.4105910  45.3728264
  75.8705353  82.6076806  46.7746918  75.9253962  81.6550642  46.6989394
  75.0596555  82.7636245  47.2588216  77.0196546  86.5356929  38.0125201
  76.5815976  85.8192788  37.5530838  77.7606987  86.7633044  37.4510292
  73.8097713  81.2253866  44.5337297  72.9965578  81.5248036  44.9402489
  74.3056707  80.8309554  45.2511779  75.9606290  91.2211623  46.4671561
  75.9182469  91.4472469  45.5380093  76.8768989  90.9874997  46.6157363
  85.1369661  84.8114126  44.0701520  84.9987560  85.0015722  43.1422709
  84.7805880  85.5733509  44.5269571  73.3011787  78.7972221  50.1498532
  73.9411167  78.6560980  49.4521495  72.4689318  78.5106735  49.7737134
  85.1639041  86.8790653  49.0812791  85.5975547  86.7865942  49.9295845
  85.8770621  86.8548153  48.4432807  74.0772091  88.0974652  46.2633524
  74.8712690  87.6024972  46.0616099  73.3663784  87.5692515  45.9001230
  78.8966936  90.4792747  50.6145892  78.9503958  91.0483683  51.3823608
  78.0281717  90.6494632  50.2499929  70.3854855  82.2417733  42.3393277
  69.4552443  82.1802189  42.5563239  70.4812327  81.7193686  41.5429918
  70.3040404  78.7672546  44.9271518  70.5647221  79.6817879  44.8180679
  71.1257576  78.2996989  45.0768131  71.7765329  80.1810303  52.0970343
  72.4488382  79.9727665  51.4482992  70.9495116  79.9832389  51.6575575
  86.0254590  86.9214354  51.6145677  86.2190480  87.8260164  51.8604951
  85.9255208  86.4621773  52.4484262  81.0869699  87.0721096  57.1886557
  80.9355205  86.8431648  56.2716641  81.0774378  88.0291698  57.2017902
  77.8555035  84.6453009  52.1732824  78.7847095  84.7964169  52.0001791
  77.4346065  84.7337030  51.3181470  76.6543367  88.6703674  49.9431361
  76.5154453  88.3022458  50.8157299  75.8657963  89.1851313  49.7715319
  77.2491519  93.7712770  41.2856898  77.4243275  93.3000813  42.1002520
  76.5624307  94.3978536  41.5138158  78.2048582  88.0485276  47.3320199
  77.8698415  88.0086046  48.2277849  77.7052528  87.3829992  46.8590609
  72.1792826  83.4552906  52.8572780  72.0412624  82.7233145  53.4584319
  73.0897750  83.3661806  52.5756968  81.1407774  85.3941311  37.6057259
  80.5236945  84.6688139  37.5090311  80.6724262  86.1550671  37.2624333
  82.7961906  90.1040219  55.2663039  82.7374452  89.4199439  54.5993622
  83.1981424  90.8459209  54.8143665  71.8152604  96.9202133  48.0596758
  72.0549203  97.5520657  48.7375776  70.9721801  96.5690173  48.3462117
  72.9306320  79.6126735  36.7278563  72.0535786  79.4915536  36.3640810
  73.4064073  78.8212813  36.4757452  82.7979313  88.0679803  53.4977019
  81.9106092  87.7305725  53.6203418  83.3677864  87.3362834  53.7345784
  64.4508460  84.4003895  46.8220070  65.1379500  84.0865625  46.2341085
  64.2956589  85.3045259  46.5487322  69.2543182  79.2894091  51.2505094
  69.1701371  78.6819761  50.5155504  68.4325889  79.7803109  51.2514590
  76.3280466  92.7281255  50.4638262  76.2550638  93.5336227  50.9757566
  75.8857859  92.9273221  49.6386283  76.1170246  91.9653025  43.9741083
  75.3337768  92.5074705  44.0679308  76.8162991  92.4827005  44.3735325
  79.4266896  77.7747655  46.6175289  79.9235596  77.0217617  46.2976359
  78.6553878  77.8111971  46.0518498  87.2796653  83.4788020  48.2593580
  87.2686530  84.3612736  47.8887513  86.4114033  83.1259571  48.0648117
  78.7879150  92.6268089  52.6196421  79.5007122  93.2615554  52.5472322
  78.2969178  92.7231955  51.8036422  80.5096677  86.5319342  44.1913712
  79.5752955  86.6520804  44.0218417  80.6873345  85.6291809  43.9273722
  76.0101865  79.9165038  46.3446973  75.6399652  79.3636078  47.0327879
  76.5060957  79.3123171  45.7921973  83.8969228  82.3736661  44.7263746
  84.3629680  83.2064653  44.6524049  84.3476729  81.9081643  45.4309005
  73.8391063  90.3762533  53.4401991  74.5400523  91.0099016  53.5931386
  73.3686178  90.7177264  52.6797631  81.9645459  88.7180482  41.7249898
  82.2405303  88.6037077  42.6343772  81.0949958  88.3197967  41.6862072
  81.8685891  74.7417248  48.7654648  80.9548971  74.9721475  48.9336855
  82.2978992  74.8255692  49.6168680  81.6392349  82.9307140  51.2654542
  80.9863800  83.1783048  50.6106995  82.0172729  82.1171278  50.9317019
  78.5999523  92.9666833  45.3682712  78.7821918  92.1488489  45.8310464
  79.4232509  93.1834526  44.9307602  78.9341689  91.8935018  42.6297761
  79.4629455  91.3827473  42.0167923  79.1969908  91.5777549  43.4943294
  69.4358781  89.9098888  50.3733094  70.0212218  89.1642576  50.5060998
  69.2383620  90.2202844  51.2569758  72.2897437  92.9450135  45.3895536
  71.6207812  93.4296263  44.9059577  72.1510306  93.1919356  46.3038915
  64.0276436  82.4804488  49.0937537  64.0660536  81.9468079  49.8874655
  63.5216729  81.9539693  48.4748514  76.4302705  94.9793879  51.9878195
  76.9821013  95.1425500  52.7527280  76.7708899  95.5698316  51.3158220
  81.2813580  89.8055136  57.8426849  81.8253484  90.4185094  57.3481804
  80.7000424  90.3634715  58.3593862  67.6585014  81.2068590  42.1691469
  67.9538455  80.2979269  42.1158522  66.7573049  81.1856330  41.8472471
  79.5671092  92.9275854  48.9741877  79.4422232  92.1265594  48.4652822
  80.2250184  93.4222048  48.4855847  71.1879261  79.2824587  48.1519017
  70.4665846  79.8960554  48.0126491  71.9772516  79.8182352  48.0735663
  81.6306001  90.7284874  50.6021427  80.6836336  90.6090225  50.5299754
  81.9788774  89.8407372  50.6847689  69.3872855  78.8882688  42.2930794
  69.0585561  78.0080067  42.1105900  69.7412226  78.8330356  43.1807183
  78.6352434  90.5237590  46.8025779  78.4877397  89.5954298  46.9833349
  79.4605928  90.5457681  46.3182855  72.5014678  79.1755658  42.6606271
  72.8410751  79.7041579  41.9384880  72.9486799  79.5136064  43.4364838
  82.2386556  91.3466149  47.8890652  83.1633103  91.1409011  47.7515103
  82.0701859  91.0982550  48.7979994  74.4882826  77.6730279  40.8599564
  75.2091188  78.0511532  40.3563281  73.8648130  78.3919156  40.9634542
  78.6313948  78.3775428  41.7957897  78.8477563  79.2600066  41.4946725
  78.1508016  77.9861642  41.0663539  73.3713170  81.3361141  48.3728641
  73.2257751  81.6501444  49.2652923  72.8938374  81.9546042  47.8199540
  75.2309553  78.3263689  48.4209531  75.2171122  77.4304783  48.0841829
  75.9481981  78.3334353  49.0547817  77.0835683  78.7601030  50.4662658
  76.8253461  79.6818100  50.4646989  76.5520724  78.3631464  51.1563122
  82.0281872  91.8651817  43.2452744  82.2018750  91.2998239  42.4926596
  82.5210763  92.6652712  43.0632233  67.8458832  83.8766486  51.3116302
  67.3012300  84.6526294  51.4436577  68.7238182  84.2237290  51.1535424
  74.6346449  77.2078070  43.6897101  74.7562360  76.2794716  43.8887988
  74.3448491  77.2216756  42.7775416  77.5037639  74.8932980  46.8263821
  77.5259336  74.9572313  45.8715800  77.9205698  74.0537489  47.0204327
  87.8821263  84.6288240  44.8643043  88.3252409  83.8795565  44.4662167
  87.0047774  84.6198376  44.4816775  83.0157045  91.1818581  40.3449642
  83.7107949  91.8025274  40.5636956  83.3580195  90.3313932  40.6202020
  68.6324854  83.0036382  54.2046459  67.8906590  83.1519017  54.7911090
  68.3117598  83.2644648  53.3413209  84.9148468  88.6318287  41.8736973
  85.4399792  88.9705559  41.1486293  84.8270820  87.6965302  41.6900107
  76.5768517  92.5452360  54.0026849  76.8855643  92.3001507  54.8749549
  77.3743999  92.7498999  53.5145719  76.5989129  94.6990270  46.2332226
  76.1594119  94.2066649  46.9265082  77.3497246  94.1563238  45.9924301
  69.0781468  90.8901811  46.2356854  69.9039487  90.5905583  45.8555497
  68.7275520  90.1209433  46.6846642  74.0463001  90.2428279  48.3054527
  73.4243010  89.5798984  48.0056755  74.7167868  90.2689411  47.6228175
  67.2790073  88.8088137  47.1945787  66.4421981  88.3810312  47.0129789
  67.2513718  89.0020581  48.1316579  84.6042374  89.2651190  57.1788171
  83.8137918  89.2475329  56.6392670  84.3675728  89.8039484  57.9337207
  84.7240249  86.1143657  54.4920899  84.7738254  85.9493664  55.4336422
  84.6154172  85.2470916  54.1018780  73.6076508  88.7932202  41.7812988
  73.7564628  89.4767667  41.1279661  74.4142951  88.7737292  42.2962444
  82.0144011  82.0974585  55.8080206  82.9153874  81.9581049  55.5164204
  82.0891986  82.2629039  56.7478383  86.2258446  88.5340598  54.7362921
  85.9343254  88.8970579  55.5726382  85.6130577  87.8207606  54.5576253
  87.4254128  86.0993478  47.2565491  88.2601019  86.5383282  47.4203051
  87.5613257  85.6232131  46.4373737  84.4745634  83.6573213  53.2042979
  84.9499756  83.8500859  52.3961830  83.5511199  83.7132399  52.9586362
  71.3629141  84.8197380  42.7874057  71.1175183  83.9159710  42.9854267
  71.5325055  84.8214530  41.8453535  79.0525851  75.6921056  52.1698812
  79.5707794  76.4282083  51.8445301  78.6980983  75.9985050  53.0045572
  70.6324788  80.5525738  40.2860218  69.9394033  80.6270093  39.6300254
  70.3876540  79.7886081  40.8081735  79.3038445  72.1121339  47.6899709
  79.5840198  71.4444528  48.3160136  80.0889052  72.3050434  47.1774373
  77.1071913  91.2880333  39.2524735  76.5345880  91.9070520  38.7995207
  77.6804707  91.8379694  39.7864657  83.1747303  80.5338973  51.4371284
  84.1264726  80.6337071  51.4583508  83.0050753  79.7417241  51.9469369
  81.1961682  77.6194556  51.6230685  80.6011615  77.8999569  50.9277174
  80.9111379  78.1088457  52.3947426  80.3269173  91.5717483  40.3833318
  81.2599846  91.5063045  40.5866193  80.2392386  92.4073750  39.9247850
  82.9557190  90.8883353  37.3437265  82.8770821  90.5543217  38.2373023
  83.7766856  91.3805121  37.3428738  85.6535381  83.7545093  50.5513584
  85.6211701  82.8161093  50.7373268  86.2636004  83.8329129  49.8179409
  77.4918712  82.6241146  36.5940788  78.4377816  82.4947354  36.6629206
  77.1132957  81.8855807  37.0710216  85.8029869  80.5456136  50.5971867
  85.2868918  79.7614593  50.4101796  86.6869818  80.2174853  50.7618386
  83.4640596  74.2897152  46.5567680  83.2665417  73.9812240  47.4411012
  84.0740302  75.0158790  46.6865610  91.4711931  84.8161099  49.6919621
  92.2015319  84.5546388  50.2527324  90.8618876  84.0789821  49.7321689
  89.5527228  82.9568962  50.2894072  88.8260391  82.8224927  49.6810563
  89.1374515  83.2645791  51.0950790  75.6761629  80.5491122  36.5295673
  74.7693084  80.2524235  36.6058387  75.9537610  80.2520940  35.6629959
  66.5939569  81.8697485  46.9794719  66.2742354  81.0162793  46.6869093
  66.0472997  82.0846063  47.7352687  70.3719477  84.5859926  50.6964226
  70.5905487  85.5177034  50.7152260  70.7845251  84.2267901  51.4819030
  77.2923695  75.0928012  42.6839914  76.4824423  74.7475097  43.0595160
  77.9808111  74.7835555  43.2727526  79.2214243  74.1706058  44.3064211
  79.7745281  74.5901512  44.9654234  79.4584329  73.2441807  44.3487167
  66.4627829  85.4900397  48.9487841  65.7691301  85.0754350  48.4357795
  67.2100820  85.5320933  48.3521260  82.5993050  76.2806584  43.8142875
  82.0191719  76.9391388  43.4320928  82.3328983  75.4583928  43.4030293
  81.0496616  75.6811641  46.0164196  81.5496395  75.7928176  45.2078514
  81.6932224  75.3772694  46.6565004  68.3764572  85.4218651  46.8253856
  68.3535260  85.5206338  45.8735739  68.6865208  86.2683801  47.1471022
  71.0351950  87.4794806  50.9400470  71.9895203  87.4478748  50.8730402
  70.8364473  87.0185429  51.7550696  71.6251332  86.0495922  53.5071268
  72.4444221  86.5440000  53.5306105  71.8988139  85.1327890  53.4788836
  81.3817928  78.4406674  42.8699224  80.4943783  78.7256325  42.6519418
  81.7971917  78.2800437  42.0226500  84.7332464  78.4653195  46.5853563
  85.5092854  78.9549647  46.8578180  84.0080598  78.8911249  47.0425432
  87.1705023  79.1780814  47.6427503  87.7649514  78.9376550  46.9320812
  87.2431606  78.4587945  48.2701040  69.3902178  93.0214425  47.9570668
  69.2556646  92.2614826  47.3908666  68.9734241  93.7455325  47.4899457
  80.5261141  88.2051349  36.9647244  81.2296992  88.4101351  37.5804899
  79.8023790  88.7728111  37.2296327  81.3558952  83.9561210  43.0849514
  81.2994153  84.4129761  42.2457146  81.9087294  83.1951894  42.9072356
  85.1663758  79.7450942  43.9099633  84.9100692  79.3447577  44.7407841
  84.5416626  80.4594736  43.7849772  89.4776095  82.4847015  46.4170925
  88.9175653  82.5540204  47.1902487  88.8719599  82.3088000  45.6970421
  72.5471304  93.9183742  48.1689111  72.4303688  94.8629175  48.0667801
  71.7263751  93.6157304  48.5574910  82.4347839  88.6433878  39.0145704
  83.2693443  88.2115076  38.8323178  82.2732182  88.4715892  39.9422598
  82.0893731  85.1465991  40.3802043  82.0342535  84.9810263  39.4390487
  81.4639786  85.8542024  40.5364233  66.8786246  80.3834056  54.2063465
  67.5245110  79.8733009  54.6950690  66.6703397  81.1202737  54.7806890
  79.4039638  87.4514903  59.7055606  80.2730798  87.6255555  59.3442241
  78.9246390  88.2709320  59.5831335  75.3989856  74.6474100  39.9587361
  75.3868526  75.5915940  40.1155632  76.2913278  74.4644246  39.6646822
  73.5725818  94.5712004  51.3845039  74.4753065  94.6035614  51.7011534
  73.3463188  93.6412455  51.3991375  75.3279420  93.3242991  48.0455118
  74.3775051  93.3244852  47.9319490  75.6311907  92.5775725  47.5291153
  79.2141976  71.2416877  44.2133298  78.4474372  70.6875363  44.3589980
  79.6252681  71.3138746  45.0747450  91.0632114  99.1603529  49.1100880
  91.7010524  99.0410276  48.4064220  90.9452957 100.1084373  49.1688832
  87.8721820  99.1130957  49.0462405  87.5340332  98.9972022  48.1582940
  88.7411588  98.7122122  49.0263411  83.7308636 100.9666433  45.0359296
  83.1673501 100.8756370  44.2675584  83.6161031 100.1466338  45.5161789
  88.3541603 100.2665809  55.0048611  88.3430244  99.8718607  54.1329114
  88.5162243  99.5331881  55.5982382  81.2773068 102.4617625  47.8743516
  82.0694360 102.1208450  47.4589816  81.5169718 102.5712600  48.7945670
  89.3108195 104.6337401  40.3473761  88.6596174 105.2191482  39.9607775
  90.1052557 105.1643596  40.4068798  83.2363822 101.7226538  40.7460895
  84.0094698 101.1755525  40.6073771  83.5889221 102.5870788  40.9575357
  85.0748864 103.0502921  53.9527795  84.7838730 103.9548551  53.8374461
  85.7105849 103.0919448  54.6671864  86.0005071 100.4279769  50.5429154
  86.5968643 100.2035791  49.8286117  86.0580043  99.6864515  51.1454602
  85.5730100  97.8819204  38.3779345  85.8255620  97.3600726  37.6162808
  84.6354659  97.7185350  38.4806029  90.6173382  96.8854983  46.1854088
  91.4036472  96.4674406  45.8344505  90.8812087  97.7901075  46.3535737
  90.7883460 102.3227833  40.8842745  90.1529293 102.3962460  41.5963650
  90.4580866 102.9121432  40.2061824  96.0181810  96.8230216  47.0887067
  96.7506981  96.2529433  47.3224896  95.2621165  96.4351816  47.5293572
  85.2926388  99.7847310  40.5803720  85.1762646  99.1092214  41.2484804
  85.4028648  99.2979684  39.7635873  87.6357929  99.2457457  44.2850409
  87.2716136  98.7188078  44.9963331  88.4925045  98.8555927  44.1116895
  93.5407230  90.5351790  51.5481675  93.2090555  91.4047201  51.3242890
  92.9452843  90.2188074  52.2275706  87.2763416  94.2747357  39.2811758
  87.4437819  95.1427594  39.6482229  87.0860585  94.4374639  38.3573047
  90.0338749 102.7364336  50.9477588  89.7339472 103.6389375  50.8393395
  89.6889809 102.4696519  51.7998741  83.4851231  99.1878133  46.9814293
  82.5601727  99.0554347  47.1891984  83.7335644  99.9672352  47.4784235
  93.4335893  95.2546876  48.6275026  92.5252771  95.1862285  48.3333787
  93.3823489  95.7318821  49.4556851  87.2552637  96.7305015  40.2658425
  87.1352262  97.1762065  41.1043905  86.5605225  97.0790332  39.7071963
  80.8460042  98.8311406  47.8158082  80.9752423  99.0845885  48.7297493
  80.1657493  99.4239114  47.4962737  85.0159529 109.5008656  43.9148556
  84.9383559 110.4516482  43.9937036  84.4121173 109.1554529  44.5723482
  87.5076759  96.6736522  56.5709923  86.7310093  97.2330442  56.5612787
  88.1467322  97.1593305  57.0924793  95.2997540  93.4563315  50.4052899
  94.6571920  93.7495848  49.7592694  94.7952468  93.3416235  51.2106096
  92.9537703  97.2026488  41.0938759  93.8655559  97.4353875  40.9186456
  92.4447350  97.7863532  40.5313837  85.7623131  99.4821975  56.1327890
  86.5037816 100.0207019  55.8562713  85.0560117 100.1088264  56.2899442
  91.2378471 101.6251116  54.7300051  91.6461827 101.1833526  53.9854684
  90.5155732 101.0503743  54.9834244  87.5909541  96.5623722  52.1033608
  88.4370736  96.9863136  52.2468257  87.5308179  95.9057347  52.7972171
  91.5607286 102.1852306  48.4852340  90.9316148 102.3498020  47.7828408
  91.1732948 102.5993916  49.2563304  95.4396517 103.1206744  45.8396704
  94.7547556 103.5005646  45.2893737  95.5240367 103.7302071  46.5728652
  90.7408986  94.2228091  53.7614782  90.4969918  94.9770151  53.2249058
  91.0168917  94.6013438  54.5962029  92.6947449 100.7666703  52.4392047
  92.9064344 101.4098463  51.7626429  92.6477197  99.9329020  51.9713978
  90.2973678  93.3784524  49.3428620  89.4358157  93.6765777  49.6345357
  90.3236113  93.5954923  48.4109652  87.1135247 101.9226714  45.7502425
  87.5773593 102.2014417  44.9607048  86.8492046 101.0210159  45.5675516
  84.0059329 101.4698196  48.6882189  84.5760686 101.8985464  48.0499673
  84.5967440 101.1880781  49.3866374  86.0504134  98.0449867  42.5591990
  86.7528177  98.4970910  43.0265917  85.7184762  97.4033686  43.1871884
  84.4984495  96.6361623  56.9343200  83.8683156  97.3177904  57.1678597
  84.3920583  96.5244705  55.9896338  79.7929467  96.3033419  47.8609124
  79.0028521  96.5590948  47.3849235  80.2840715  97.1181757  47.9661165
  93.8093277 103.6438659  50.6114405  94.6310721 103.2418846  50.3297086
  93.8055680 103.5406893  51.5630521  81.7444213  96.6677999  44.8192601
  80.9475376  96.7796693  45.3376096  81.5169805  97.0064651  43.9533491
  87.5749880 103.1922702  52.7675115  87.6394313 103.6543109  53.6033287
  86.8660804 102.5620067  52.8957425  78.0767170  96.5563910  50.2924115
  78.3275209  97.4410920  50.5581691  78.6126719  96.3768511  49.5199207
 101.8999270  99.9877407  46.9599376 101.1462978  99.4184805  46.8043381
 102.0346811  99.9540072  47.9070011  87.2897898 104.8590809  42.6354096
  87.1543573 105.7042345  43.0638943  87.8307711 105.0610087  41.8720029
  83.7765238  90.9382389  59.2968451  83.3832183  90.3848588  59.9716095
  84.5931378  91.2492968  59.6874968  80.7427296 102.3766247  43.2082021
  81.2551816 103.1709498  43.3587585  81.3950008 101.6792538  43.1415622
  82.5522180 105.4932004  45.2904774  82.7288809 106.4149968  45.1025758
  83.3479014 105.1790423  45.7199154  86.6933199  92.3540268  56.8888707
  87.4342912  92.9547421  56.8093170  86.9251122  91.6117906  56.3306750
  81.8374537  97.5396636  55.1666937  81.7228052  96.6381893  55.4674036
  80.9819055  97.7860332  54.8151754  88.9166375 105.4814376  56.7654438
  88.4730229 104.6950754  56.4475342  89.5783588 105.6693526  56.0998329
  83.6753496 107.0110177  51.2915116  84.2260921 106.8827241  50.5192110
  82.8364972 107.3105067  50.9410009  91.0147613 105.7617176  54.7935839
  90.9966088 106.5826057  54.3016108  91.9367533 105.6371251  55.0185980
  87.4720667 103.2761305  55.6359347  88.0049004 102.5149593  55.4058655
  86.9434748 102.9834957  56.3783502  90.6390362  88.3821371  51.1652989
  90.2954631  89.2723013  51.0892100  91.0069324  88.1923029  50.3022574
  78.7076212 100.7054902  43.9841591  79.5451434 101.1151910  43.7675299
  78.8854480  99.7654344  43.9541785  90.6040644  98.3729982  39.6725424
  90.0887268  99.1434587  39.9113812  90.3317953  97.6995119  40.2958486
  88.1887755  93.2179683  44.7310663  87.3329352  92.8286534  44.5516301
  88.6014707  93.2971644  43.8710448  89.7186902  90.7526026  49.1302222
  89.2151698  90.7156162  48.3170028  90.0117509  91.6618769  49.1898879
  85.9629788  90.8364756  48.1368404  86.8282785  90.6407565  47.7774294
  86.0307297  90.6075108  49.0637761  95.5774919 101.1262337  41.6078598
  94.8004361 100.7873497  41.1633760  96.2566400 101.1314960  40.9333563
  90.3926948  96.2457074  41.4985205  90.0877083  96.5603224  42.3495349
  91.3457390  96.3238494  41.5412538  88.8373379 102.4047298  43.1478159
  88.3094741 101.6700057  42.8351397  88.3360882 103.1821974  42.9018128
  93.8166225 100.5996318  48.2645206  93.1589900 101.2895580  48.3525334
  94.6206625 100.9892750  48.6079192  83.5692107  93.0666964  45.5084771
  84.1435859  92.8442146  44.7757964  84.1563089  93.1355659  46.2613372
  92.6271684  98.9540691  46.3149147  93.1403566  99.5870683  46.8170857
  93.2772908  98.3541886  45.9492507  83.8961694  95.0971425  39.5280656
  83.0599006  95.4346112  39.8489931  83.7566464  94.9620405  38.5907793
  85.8714775  89.9408213  44.2359840  85.2179187  89.6257230  43.6116455
  85.8295249  89.3183953  44.9619663  86.9825980 100.2227508  36.1513132
  86.0753041  99.9916762  36.3504281  87.4797012  99.4265127  36.3387114
  89.8894058 108.9325015  39.0709819  89.2155757 109.2356712  39.6794776
  90.2759880 109.7354096  38.7215276  89.1052515  96.4290147  48.5607488
  88.1875076  96.6505094  48.4029176  89.5212659  96.5036457  47.7019195
  89.8887563  97.8281562  43.6910168  90.6359382  98.3402959  43.3817290
  90.1579152  97.5065615  44.5514562  88.1614213 100.3240103  40.6737123
  87.2525432 100.0399136  40.7709592  88.1909297 100.7439181  39.8140429
  93.3933480 103.9346692  44.4428290  92.9395808 103.0937602  44.4993481
  92.7627447 104.5708091  44.7803070  92.3366400  94.8638678  45.6728958
  91.5989157  94.3516065  46.0039200  92.5893174  94.4239060  44.8612234
  91.8366420 105.7723189  45.3778108  92.1289394 106.3328246  44.6590474
  92.3465040 106.0651750  46.1331267  92.4378027  87.6414930  46.2670727
  92.7436904  86.7812294  45.9796642  93.1630632  88.2332551  46.0669721
  78.7302383  98.0445617  44.6552325  78.5326783  97.4514978  43.9303391
  78.1749047  97.7397827  45.3728264  86.7099107  97.9368724  46.7746918
  86.7647717  96.9842560  46.6989394  85.8990309  98.0928163  47.2588216
  87.8590301 101.8648847  38.0125201  87.4209731 101.1484706  37.5530838
  88.6000742 102.0924961  37.4510292  84.6491467  96.5545783  44.5337297
  83.8359333  96.8539954  44.9402489  85.1450461  96.1601472  45.2511779
  86.8000045 106.5503540  46.4671561  86.7576224 106.7764387  45.5380093
  87.7162744 106.3166915  46.6157363  90.2465679  97.0187608  53.3652191
  90.6015066  97.2459081  54.2246656  90.8937810  97.3505985  52.7429446
  95.9763416 100.1406044  44.0701520  95.8381314 100.3307640  43.1422709
  95.6199634 100.9025426  44.5269571  84.1405542  94.1264139  50.1498532
  84.7804921  93.9852898  49.4521495  83.3083072  93.8398652  49.7737134
  96.0032795 102.2082571  49.0812791  96.4369302 102.1157860  49.9295845
  96.7164376 102.1840071  48.4432807  84.9165846 103.4266569  46.2633524
  85.7106444 102.9316889  46.0616099  84.2057538 102.8984432  45.9001230
  89.7360690 105.8084665  50.6145892  89.7897712 106.3775601  51.3823608
  88.8675472 105.9786550  50.2499929  81.2248609  97.5709651  42.3393277
  80.2946197  97.5094106  42.5563239  81.3206081  97.0485604  41.5429918
  81.1434158  94.0964464  44.9271518  81.4040975  95.0109797  44.8180679
  81.9651331  93.6288906  45.0768131  82.6159084  95.5102221  52.0970343
  83.2882137  95.3019583  51.4482992  81.7888870  95.3124307  51.6575575
  96.8648345 102.2506271  51.6145677  97.0584235 103.1552082  51.8604951
  96.7648963 101.7913690  52.4484262  88.5184656  92.1364162  54.1136004
  87.8712571  92.8354112  54.0200480  89.2885671  92.5700306  54.4812252
  91.9263453 102.4013014  57.1886557  91.7748960 102.1723566  56.2716641
  91.9168133 103.3583615  57.2017902  88.6948790  99.9744927  52.1732824
  89.6240850 100.1256086  52.0001791  88.2739820 100.0628948  51.3181470
  87.4937122 103.9995591  49.9431361  87.3548207 103.6314376  50.8157299
  86.7051718 104.5143231  49.7715319  88.0885274 109.1004688  41.2856898
  88.2637029 108.6292731  42.1002520  87.4018062 109.7270454  41.5138158
  89.0442337 103.3777194  47.3320199  88.7092169 103.3377964  48.2277849
  88.5446282 102.7121910  46.8590609  83.0186581  98.7844824  52.8572780
  82.8806379  98.0525063  53.4584319  83.9291504  98.6953724  52.5756968
  91.9801528 100.7233228  37.6057259  91.3630699  99.9980056  37.5090311
  91.5118017 101.4842589  37.2624333  85.6468881  98.4964783  52.3456460
  86.3568500  97.8557975  52.3043078  85.6038190  98.7477678  53.2682641
  93.6355660 105.4332137  55.2663039  93.5768206 104.7491357  54.5993622
  94.0375179 106.1751127  54.8143665  84.3597815  95.4830001  54.1652099
  83.8235172  95.0320740  54.8173696  83.7714524  95.6175910  53.4222564
  82.6546359 112.2494050  48.0596758  82.8942957 112.8812575  48.7375776
  81.8115555 111.8982090  48.3462117  83.7700074  94.9418653  36.7278563
  82.8929541  94.8207453  36.3640810  84.2457827  94.1504731  36.4757452
  93.6373067 103.3971721  53.4977019  92.7499846 103.0597642  53.6203418
  94.2071618 102.6654752  53.7345784  75.2902215  99.7295812  46.8220070
  75.9773254  99.4157542  46.2341085  75.1350343 100.6337177  46.5487322
  80.0936937  94.6186009  51.2505094  80.0095125  94.0111678  50.5155504
  79.2719643  95.1095027  51.2514590  87.1674221 108.0573173  50.4638262
  87.0944392 108.8628144  50.9757566  86.7251614 108.2565139  49.6386283
  86.9564000 107.2944943  43.9741083  86.1731522 107.8366623  44.0679308
  87.6556746 107.8118923  44.3735325  90.2660651  93.1039572  46.6175289
  90.7629350  92.3509535  46.2976359  89.4947632  93.1403889  46.0518498
  98.1190408  98.8079938  48.2593580  98.1080284  99.6904653  47.8887513
  97.2507787  98.4551489  48.0648117  89.6272904 107.9560007  52.6196421
  90.3400877 108.5907472  52.5472322  89.1362933 108.0523873  51.8036422
  91.3490431 101.8611260  44.1913712  90.4146710 101.9812722  44.0218417
  91.5267100 100.9583726  43.9273722  86.8495619  95.2456955  46.3446973
  86.4793407  94.6927996  47.0327879  87.3454712  94.6415089  45.7921973
  94.7362983  97.7028579  44.7263746  95.2023435  98.5356570  44.6524049
  95.1870483  97.2373560  45.4309005  84.6784818 105.7054450  53.4401991
  85.3794277 106.3390933  53.5931386  84.2079933 106.0469182  52.6797631
  92.8039214 104.0472400  41.7249898  93.0799058 103.9328995  42.6343772
  91.9343712 103.6489885  41.6862072  92.7079645  90.0709166  48.7654648
  91.7942725  90.3013393  48.9336855  93.1372747  90.1547610  49.6168680
  92.4786104  98.2599058  51.2654542  91.8257554  98.5074965  50.6106995
  92.8566484  97.4463196  50.9317019  89.4393278 108.2958751  45.3682712
  89.6215672 107.4780407  45.8310464  90.2626264 108.5126443  44.9307602
  89.7735443 107.2226936  42.6297761  90.3023210 106.7119391  42.0167923
  90.0363663 106.9069466  43.4943294  88.5273677  99.0018869  57.7520579
  87.8514314  98.9012998  58.4222954  89.3501311  98.8458083  58.2156576
  80.2752536 105.2390805  50.3733094  80.8605973 104.4934493  50.5060998
  80.0777374 105.5494762  51.2569758  83.1291191 108.2742053  45.3895536
  82.4601566 108.7588180  44.9059577  82.9904061 108.5211273  46.3038915
  74.8670191  97.8096406  49.0937537  74.9054290  97.2759996  49.8874655
  74.3610483  97.2831611  48.4748514  87.2696460 110.3085796  51.9878195
  87.8214768 110.4717418  52.7527280  87.6102653 110.8990234  51.3158220
  82.2460953  92.6560946  52.5900080  82.3102279  93.5175777  52.1777477
  82.1828073  92.0434948  51.8572438  81.7213225  94.7284079  56.2373114
  82.3485264  94.3461156  56.8510638  80.8641144  94.5098281  56.6028806
  92.1207334 105.1347054  57.8426849  92.6647238 105.7477012  57.3481804
  91.5394179 105.6926632  58.3593862  78.4978768  96.5360508  42.1691469
  78.7932209  95.6271186  42.1158522  77.5966804  96.5148247  41.8472471
  90.4064847 108.2567772  48.9741877  90.2815986 107.4557512  48.4652822
  91.0643938 108.7513965  48.4855847  82.0273015  94.6116504  48.1519017
  81.3059601  95.2252472  48.0126491  82.8166271  95.1474269  48.0735663
  92.4699755 106.0576792  50.6021427  91.5230091 105.9382143  50.5299754
  92.8182528 105.1699290  50.6847689  84.8299329  91.9470931  54.4259669
  85.3533731  92.1933227  55.1885978  84.6111662  92.7790966  54.0062806
  80.2266610  94.2174605  42.2930794  79.8979316  93.3371984  42.1105900
  80.5805980  94.1622274  43.1807183  89.4746189 105.8529508  46.8025779
  89.3271151 104.9246216  46.9833349  90.2999682 105.8749599  46.3182855
  83.3408433  94.5047575  42.6606271  83.6804505  95.0333496  41.9384880
  83.7880553  94.8427981  43.4364838  93.0780311 106.6758067  47.8890652
  94.0026858 106.4700928  47.7515103  92.9095614 106.4274468  48.7979994
  86.0351874  92.8884626  52.1109340  85.6948694  92.0892439  52.5130019
  85.3290880  93.1886337  51.5386173  86.6868346  89.9733938  50.5636663
  87.5094415  89.4994417  50.4415553  86.9306409  90.7524422  51.0635349
  85.3276580  93.0022197  40.8599564  86.0484943  93.3803450  40.3563281
  84.7041884  93.7211074  40.9634542  89.4707703  93.7067346  41.7957897
  89.6871317  94.5891984  41.4946725  88.9901770  93.3153559  41.0663539
  84.2106924  96.6653059  48.3728641  84.0651505  96.9793362  49.2652923
  83.7332128  97.2837959  47.8199540  86.0703307  93.6555607  48.4209531
  86.0564876  92.7596700  48.0841829  86.7875735  93.6626271  49.0547817
  87.9229438  94.0892947  50.4662658  87.6647216  95.0110018  50.4646989
  87.3914478  93.6923382  51.1563122  92.8675627 107.1943734  43.2452744
  93.0412504 106.6290157  42.4926596  93.3604518 107.9944629  43.0632233
  78.6852587  99.2058403  51.3116302  78.1406055  99.9818211  51.4436577
  79.5631936  99.5529208  51.1535424  85.4740203  92.5369987  43.6897101
  85.5956114  91.6086633  43.8887988  85.1842246  92.5508673  42.7775416
  88.3431394  90.2224898  46.8263821  88.3653090  90.2864231  45.8715800
  88.7599453  89.3829406  47.0204327  98.7215018  99.9580157  44.8643043
  99.1646164  99.2087482  44.4662167  97.8441528  99.9490294  44.4816775
  93.8550799 106.5110499  40.3449642  94.5501704 107.1317191  40.5636956
  94.1973949 105.6605850  40.6202020  79.4718608  98.3328300  54.2046459
  78.7300344  98.4810935  54.7911090  79.1511353  98.5936565  53.3413209
  95.7542222 103.9610204  41.8736973  96.2793546 104.2997477  41.1486293
  95.6664575 103.0257220  41.6900107  87.4162271 107.8744278  54.0026849
  87.7249397 107.6293425  54.8749549  88.2137753 108.0790916  53.5145719
  87.4382883 110.0282188  46.2332226  86.9987873 109.5358566  46.9265082
  88.1891000 109.4855155  45.9924301  79.9175222 106.2193728  46.2356854
  80.7433242 105.9197500  45.8555497  79.5669274 105.4501351  46.6846642
  84.8856755 105.5720197  48.3054527  84.2636765 104.9090902  48.0056755
  85.5561622 105.5981329  47.6228175  78.1183827 104.1380055  47.1945787
  77.2815735 103.7102229  47.0129789  78.0907473 104.3312498  48.1316579
  84.9581283  94.0501985  57.8987033  85.0069438  94.9264107  57.5164803
  85.5003797  93.5079378  57.3258677  95.4436128 104.5943108  57.1788171
  94.6531672 104.5767247  56.6392670  95.2069483 105.1331402  57.9337207
  95.5634003 101.4435574  54.4920899  95.6132008 101.2785582  55.4336422
  95.4547927 100.5762833  54.1018780  84.4470262 104.1224120  41.7812988
  84.5958383 104.8059584  41.1279661  85.2536706 104.1029210  42.2962444
  92.8537766  97.4266502  55.8080206  93.7547629  97.2872967  55.5164204
  92.9285740  97.5920957  56.7478383  87.1880571  94.8033357  54.6533392
  86.3183881  95.0966923  54.3815981  87.4240052  95.3873802  55.3740656
  97.0652200 103.8632516  54.7362921  96.7737009 104.2262496  55.5726382
  96.4524332 103.1499524  54.5576253  98.2647883 101.4285396  47.2565491
  99.0994774 101.8675200  47.4203051  98.4007011 100.9524049  46.4373737
  95.3139389  98.9865130  53.2042979  95.7893510  99.1792777  52.3961830
  94.3904954  99.0424316  52.9586362  82.2022895 100.1489298  42.7874057
  81.9568937  99.2451628  42.9854267  82.3718810 100.1506448  41.8453535
  89.8919605  91.0212974  52.1698812  90.4101549  91.7574001  51.8445301
  89.5374738  91.3276967  53.0045572  81.4718543  95.8817655  40.2860218
  80.7787788  95.9562010  39.6300254  81.2270295  95.1177999  40.8081735
  90.1432199  87.4413257  47.6899709  90.4233953  86.7736446  48.3160136
  90.9282806  87.6342352  47.1774373  87.9465668 106.6172250  39.2524735
  87.3739635 107.2362438  38.7995207  88.5198461 107.1671612  39.7864657
  94.0141058  95.8630891  51.4371284  94.9658480  95.9628988  51.4583508
  93.8444508  95.0709159  51.9469369  92.0355437  92.9486474  51.6230685
  91.4405369  93.2291486  50.9277174  91.7505134  93.4380375  52.3947426
  91.1662927 106.9009401  40.3833318  92.0993601 106.8354962  40.5866193
  91.0786140 107.7365667  39.9247850  93.7950944 106.2175271  37.3437265
  93.7164576 105.8835135  38.2373023  94.6160611 106.7097039  37.3428738
  96.4929135  99.0837010  50.5513584  96.4605455  98.1453011  50.7373268
  97.1029759  99.1621047  49.8179409  88.3312466  97.9533063  36.5940788
  89.2771571  97.8239271  36.6629206  87.9526711  97.2147725  37.0710216
  96.6423624  95.8748054  50.5971867  96.1262672  95.0906510  50.4101796
  97.5263572  95.5466770  50.7618386  94.3034351  89.6189069  46.5567680
  94.1059172  89.3104157  47.4411012  94.9134056  90.3450708  46.6865610
 102.3105685 100.1453017  49.6919621 103.0409074  99.8838305  50.2527324
 101.7012631  99.4081739  49.7321689 100.3920982  98.2860880  50.2894072
  99.6654146  98.1516845  49.6810563  99.9768269  98.5937708  51.0950790
  88.2151159 102.0050809  58.0541445  89.1354168 102.1829408  58.2481491
  88.1800742 101.0606855  57.9021144  86.5155383  95.8783040  36.5295673
  85.6086839  95.5816152  36.6058387  86.7931364  95.5812858  35.6629959
  77.4333324  97.1989403  46.9794719  77.1136108  96.3454711  46.6869093
  76.8866752  97.4137981  47.7352687  81.2113231  99.9151844  50.6964226
  81.4299241 100.8468952  50.7152260  81.6239005  99.5559818  51.4819030
  88.1317449  90.4219929  42.6839914  87.3218177  90.0767014  43.0595160
  88.8201866  90.1127473  43.2727526  90.0607997  89.4997976  44.3064211
  90.6139036  89.9193430  44.9654234  90.2978084  88.5733724  44.3487167
  86.0841097  95.4885050  60.0866975  85.9837823  96.4379407  60.0179066
  85.8662639  95.1603289  59.2143045  85.2854168  92.7369975  36.6707652
  86.1473332  93.0624873  36.9303470  85.4704512  91.9501471  36.1580718
  77.3021584 100.8192314  48.9487841  76.6085055 100.4046267  48.4357795
  78.0494575 100.8612851  48.3521260  93.4386804  91.6098501  43.8142875
  92.8585473  92.2683305  43.4320928  93.1722737  90.7875846  43.4030293
  91.8890371  91.0103559  46.0164196  92.3890149  91.1220093  45.2078514
  92.5325979  90.7064612  46.6565004  85.9472367  98.9182189  58.9032037
  85.4639448  99.7182549  59.1095926  86.0333306  98.9290133  57.9499481
  79.2158326 100.7510568  46.8253856  79.1929014 100.8498256  45.8735739
  79.5258963 101.5975719  47.1471022  81.8745704 102.8086723  50.9400470
  82.8288958 102.7770666  50.8730402  81.6758228 102.3477347  51.7550696
  82.4645086 101.3787839  53.5071268  83.2837975 101.8731918  53.5306105
  82.7381894 100.4619807  53.4788836  92.2211682  93.7698592  42.8699224
  91.3337537  94.0548242  42.6519418  92.6365672  93.6092355  42.0226500
  95.5726219  93.7945113  46.5853563  96.3486609  94.2841565  46.8578180
  94.8474353  94.2203167  47.0425432  98.0098777  94.5072732  47.6427503
  98.6043268  94.2668468  46.9320812  98.0825361  93.7879862  48.2701040
  80.2295933 108.3506343  47.9570668  80.0950401 107.5906744  47.3908666
  79.8127995 109.0747243  47.4899457  91.3654896 103.5343266  36.9647244
  92.0690746 103.7393269  37.5804899  90.6417545 104.1020028  37.2296327
  92.1952706  99.2853128  43.0849514  92.1387908  99.7421679  42.2457146
  92.7481049  98.5243812  42.9072356  96.0057512  95.0742859  43.9099633
  95.7494446  94.6739495  44.7407841  95.3810380  95.7886653  43.7849772
 100.3169850  97.8138933  46.4170925  99.7569408  97.8832122  47.1902487
  99.7113353  97.6379917  45.6970421  83.3865059 109.2475660  48.1689111
  83.2697443 110.1921092  48.0667801  82.5657505 108.9449221  48.5574910
  93.2741593 103.9725796  39.0145704  94.1087197 103.5406994  38.8323178
  93.1125936 103.8007809  39.9422598  92.9287485 100.4757909  40.3802043
  92.8736289 100.3102180  39.4390487  92.3033541 101.1833942  40.5364233
  77.7180000  95.7125973  54.2063465  78.3638864  95.2024927  54.6950690
  77.5097152  96.4494655  54.7806890  90.2433393 102.7806821  59.7055606
  91.1124552 102.9547473  59.3442241  89.7640144 103.6001238  59.5831335
  86.2383611  89.9766018  39.9587361  86.2262281  90.9207858  40.1155632
  87.1307033  89.7936163  39.6646822  84.4119573 109.9003922  51.3845039
  85.3146820 109.9327532  51.7011534  84.1856943 108.9704373  51.3991375
  86.1673175 108.6534908  48.0455118  85.2168806 108.6536770  47.9319490
  86.4705661 107.9067643  47.5291153  90.0535730  86.5708794  44.2133298
  89.2868126  86.0167281  44.3589980  90.4646435  86.6430663  45.0747450
  82.0577491  92.8593590  58.3038479  82.9208953  92.5030395  58.5141804
  81.4842902  92.5207485  58.9913884 101.9025868 114.4895447  49.1100880
 102.5404278 114.3702194  48.4064220 101.7846711 115.4376291  49.1688832
  98.7115575 114.4422875  49.0462405  98.3734086 114.3263939  48.1582940
  99.5805343 114.0414040  49.0263411  94.5702390 116.2958351  45.0359296
  94.0067256 116.2048288  44.2675584  94.4554785 115.4758256  45.5161789
  99.1935358 115.5957726  55.0048611  99.1823998 115.2010525  54.1329114
  99.3555997 114.8623799  55.5982382  92.1166822 117.7909543  47.8743516
  92.9088114 117.4500367  47.4589816  92.3563472 117.9004518  48.7945670
  94.0757576 117.0518456  40.7460895  94.8488452 116.5047443  40.6073771
  94.4282975 117.9162705  40.9575357  95.9142619 118.3794838  53.9527795
  95.6232485 119.2840469  53.8374461  96.5499603 118.4211366  54.6671864
  96.8398826 115.7571687  50.5429154  97.4362398 115.5327709  49.8286117
  96.8973797 115.0156432  51.1454602  96.4123854 113.2111122  38.3779345
  96.6649375 112.6892643  37.6162808  95.4748413 113.0477268  38.4806029
 101.4567137 112.2146900  46.1854088 102.2430226 111.7966324  45.8344505
 101.7205841 113.1192993  46.3535737 106.8575564 112.1522134  47.0887067
 107.5900736 111.5821350  47.3224896 106.1014920 111.7643734  47.5293572
  96.1320143 115.1139228  40.5803720  96.0156401 114.4384131  41.2484804
  96.2422403 114.6271602  39.7635873  98.4751684 114.5749375  44.2850409
  98.1109891 114.0479996  44.9963331  99.3318800 114.1847844  44.1116895
 104.3800984 105.8643708  51.5481675 104.0484309 106.7339119  51.3242890
 103.7846598 105.5479992  52.2275706  98.1157171 109.6039275  39.2811758
  98.2831573 110.4719511  39.6482229  97.9254340 109.7666557  38.3573047
  94.3244985 114.5170051  46.9814293  93.3995482 114.3846265  47.1891984
  94.5729399 115.2964270  47.4784235 104.2729648 110.5838794  48.6275026
 103.3646525 110.5154202  48.3333787 104.2217243 111.0610739  49.4556851
  98.0946392 112.0596932  40.2658425  97.9746017 112.5053983  41.1043905
  97.3998980 112.4082250  39.7071963  91.6853796 114.1603324  47.8158082
  91.8146178 114.4137803  48.7297493  91.0051248 114.7531032  47.4962737
  98.3470513 112.0028440  56.5709923  97.5703848 112.5622360  56.5612787
  98.9861077 112.4885223  57.0924793 106.1391294 108.7855232  50.4052899
 105.4965674 109.0787766  49.7592694 105.6346223 108.6708153  51.2106096
 103.7931458 112.5318406  41.0938759 104.7049314 112.7645792  40.9186456
 103.2841105 113.1155450  40.5313837  96.6016886 114.8113893  56.1327890
  97.3431570 115.3498937  55.8562713  95.8953871 115.4380182  56.2899442
 102.0772225 116.9543033  54.7300051 102.4855581 116.5125444  53.9854684
 101.3549487 116.3795661  54.9834244  98.4303295 111.8915640  52.1033608
  99.2764491 112.3155054  52.2468257  98.3701933 111.2349264  52.7972171
 101.5802741 109.5520008  53.7614782 101.3363673 110.3062069  53.2249058
 101.8562671 109.9305356  54.5962029 101.1367433 108.7076442  49.3428620
 100.2751912 109.0057695  49.6345357 101.1629867 108.9246840  48.4109652
  97.9529002 117.2518632  45.7502425  98.4167347 117.5306335  44.9607048
  97.6885800 116.3502077  45.5675516  94.8453083 116.7990114  48.6882189
  95.4154440 117.2277382  48.0499673  95.4361195 116.5172698  49.3866374
  96.8897888 113.3741784  42.5591990  97.5921931 113.8262828  43.0265917
  96.5578516 112.7325603  43.1871884  95.3378250 111.9653541  56.9343200
  94.7076910 112.6469822  57.1678597  95.2314337 111.8536623  55.9896338
  90.6323222 111.6325337  47.8609124  89.8422276 111.8882866  47.3849235
  91.1234469 112.4473675  47.9661165  92.5837967 111.9969916  44.8192601
  91.7869131 112.1088611  45.3376096  92.3563560 112.3356569  43.9533491
  98.4143635 118.5214620  52.7675115  98.4788067 118.9835027  53.6033287
  97.7054559 117.8911984  52.8957425  88.9160925 111.8855828  50.2924115
  89.1668963 112.7702837  50.5581691  89.4520473 111.7060429  49.5199207
  94.6158992 106.2674307  59.2968451  94.2225938 105.7140505  59.9716095
  95.4325133 106.5784885  59.6874968  91.5821050 117.7058165  43.2082021
  92.0945571 118.5001415  43.3587585  92.2343763 117.0084456  43.1415622
  93.3915935 120.8223921  45.2904774  93.5682563 121.7441886  45.1025758
  94.1872768 120.5082341  45.7199154  97.5326953 107.6832186  56.8888707
  98.2736667 108.2839339  56.8093170  97.7644876 106.9409824  56.3306750
  92.6768291 112.8688553  55.1666937  92.5621806 111.9673811  55.4674036
  91.8212809 113.1152250  54.8151754  94.5147250 122.3402095  51.2915116
  95.0654675 122.2119159  50.5192110  93.6758726 122.6396984  50.9410009
  98.3114421 118.6053223  55.6359347  98.8442758 117.8441511  55.4058655
  97.7828502 118.3126875  56.3783502 101.4784116 103.7113289  51.1652989
 101.1348386 104.6014931  51.0892100 101.8463079 103.5214947  50.3022574
  89.5469967 116.0346819  43.9841591  90.3845189 116.4443828  43.7675299
  89.7248234 115.0946262  43.9541785 101.4434399 113.7021900  39.6725424
 100.9281022 114.4726505  39.9113812 101.1711707 113.0287036  40.2958486
  99.0281510 108.5471601  44.7310663  98.1723106 108.1578451  44.5516301
  99.4408462 108.6263562  43.8710448 100.5580657 106.0817944  49.1302222
 100.0545452 106.0448079  48.3170028 100.8511263 106.9910687  49.1898879
  96.8023542 106.1656674  48.1368404  97.6676539 105.9699483  47.7774294
  96.8701051 105.9367026  49.0637761 101.2320702 111.5748992  41.4985205
 100.9270838 111.8895141  42.3495349 102.1851144 111.6530412  41.5412538
  99.6767134 117.7339215  43.1478159  99.1488495 116.9991975  42.8351397
  99.1754637 118.5113892  42.9018128  94.4085862 108.3958882  45.5084771
  94.9829613 108.1734063  44.7757964  94.9956844 108.4647576  46.2613372
 103.4665439 114.2832609  46.3149147 103.9797320 114.9162600  46.8170857
 104.1166663 113.6833804  45.9492507  94.7355449 110.4263343  39.5280656
  93.8992761 110.7638029  39.8489931  94.5960218 110.2912323  38.5907793
  96.7108529 105.2700131  44.2359840  96.0572942 104.9549148  43.6116455
  96.6689003 104.6475871  44.9619663  97.8219734 115.5519426  36.1513132
  96.9146796 115.3208679  36.3504281  98.3190766 114.7557045  36.3387114
  99.9446270 111.7582064  48.5607488  99.0268831 111.9797011  48.4029176
 100.3606413 111.8328375  47.7019195 100.7281317 113.1573480  43.6910168
 101.4753136 113.6694877  43.3817290 100.9972907 112.8357533  44.5514562
  99.0007968 115.6532021  40.6737123  98.0919187 115.3691053  40.7709592
  99.0303051 116.0731099  39.8140429 103.1760155 110.1930596  45.6728958
 102.4382911 109.6807982  46.0039200 103.4286928 109.7530978  44.8612234
 103.2771782 102.9706848  46.2670727 103.5830659 102.1104212  45.9796642
 104.0024387 103.5624468  46.0669721  89.5696138 113.3737535  44.6552325
  89.3720538 112.7806895  43.9303391  89.0142802 113.0689745  45.3728264
  97.5492862 113.2660641  46.7746918  97.6041471 112.3134478  46.6989394
  96.7384064 113.4220080  47.2588216  98.6984055 117.1940764  38.0125201
  98.2603485 116.4776623  37.5530838  99.4394496 117.4216879  37.4510292
  95.4885222 111.8837701  44.5337297  94.6753087 112.1831872  44.9402489
  95.9844216 111.4893390  45.2511779 101.0859433 112.3479525  53.3652191
 101.4408821 112.5750999  54.2246656 101.7331564 112.6797902  52.7429446
  94.9799296 109.4556056  50.1498532  95.6198676 109.3144816  49.4521495
  94.1476827 109.1690570  49.7737134  95.7559600 118.7558487  46.2633524
  96.5500199 118.2608807  46.0616099  95.0451293 118.2276350  45.9001230
  92.0642364 112.9001569  42.3393277  91.1339952 112.8386024  42.5563239
  92.1599836 112.3777521  41.5429918  91.9827913 109.4256381  44.9271518
  92.2434730 110.3401715  44.8180679  92.8045085 108.9580824  45.0768131
  93.4552838 110.8394139  52.0970343  94.1275891 110.6311501  51.4482992
  92.6282625 110.6416225  51.6575575  99.3578410 107.4656080  54.1136004
  98.7106325 108.1646029  54.0200480 100.1279425 107.8992223  54.4812252
  99.5342544 115.3036844  52.1732824 100.4634604 115.4548004  52.0001791
  99.1133574 115.3920865  51.3181470  98.3330876 119.3287509  49.9431361
  98.1941962 118.9606293  50.8157299  97.5445472 119.8435148  49.7715319
  99.8836091 118.7069112  47.3320199  99.5485924 118.6669882  48.2277849
  99.3840037 118.0413827  46.8590609  93.8580335 114.1136742  52.8572780
  93.7200133 113.3816980  53.4584319  94.7685259 114.0245642  52.5756968
 102.8195283 116.0525146  37.6057259 102.2024454 115.3271974  37.5090311
 102.3511771 116.8134506  37.2624333  96.4862636 113.8256701  52.3456460
  97.1962254 113.1849893  52.3043078  96.4431944 114.0769596  53.2682641
  95.1991570 110.8121919  54.1652099  94.6628927 110.3612657  54.8173696
  94.6108278 110.9467828  53.4222564  94.6093829 110.2710570  36.7278563
  93.7323295 110.1499371  36.3640810  95.0851582 109.4796649  36.4757452
  86.1295969 115.0587730  46.8220070  86.8167009 114.7449460  46.2341085
  85.9744098 115.9629095  46.5487322  90.9330691 109.9477927  51.2505094
  90.8488880 109.3403596  50.5155504  90.1113398 110.4386945  51.2514590
 101.1054405 108.4331490  46.6175289 101.6023105 107.6801452  46.2976359
 100.3341387 108.4695807  46.0518498 102.1884186 117.1903177  44.1913712
 101.2540464 117.3104640  44.0218417 102.3660854 116.2875644  43.9273722
  97.6889374 110.5748873  46.3446973  97.3187161 110.0219913  47.0327879
  98.1848466 109.9707007  45.7921973 105.5756737 113.0320497  44.7263746
 106.0417189 113.8648488  44.6524049 106.0264238 112.5665478  45.4309005
  95.5178572 121.0346368  53.4401991  96.2188032 121.6682851  53.5931386
  95.0473687 121.3761100  52.6797631 103.5473400 105.4001084  48.7654648
 102.6336480 105.6305310  48.9336855 103.9766501 105.4839528  49.6168680
 103.3179858 113.5890976  51.2654542 102.6651309 113.8366883  50.6106995
 103.6960238 112.7755114  50.9317019  99.3667431 114.3310787  57.7520579
  98.6908068 114.2304916  58.4222954 100.1895065 114.1750000  58.2156576
  91.1146290 120.5682723  50.3733094  91.6999727 119.8226411  50.5060998
  90.9171129 120.8786680  51.2569758  85.7063945 113.1388323  49.0937537
  85.7448045 112.6051914  49.8874655  85.2004238 112.6123529  48.4748514
  93.0854707 107.9852864  52.5900080  93.1496034 108.8467695  52.1777477
  93.0221828 107.3726865  51.8572438  92.5606980 110.0575996  56.2373114
  93.1879019 109.6753074  56.8510638  91.7034899 109.8390198  56.6028806
  89.3372523 111.8652425  42.1691469  89.6325964 110.9563104  42.1158522
  88.4360558 111.8440165  41.8472471  92.8666770 109.9408422  48.1519017
  92.1453355 110.5544390  48.0126491  93.6560025 110.4766187  48.0735663
  95.6693083 107.2762849  54.4259669  96.1927485 107.5225145  55.1885978
  95.4505417 108.1082883  54.0062806  91.0660364 109.5466523  42.2930794
  90.7373070 108.6663902  42.1105900  91.4199735 109.4914192  43.1807183
  94.1802187 109.8339493  42.6606271  94.5198260 110.3625414  41.9384880
  94.6274308 110.1719899  43.4364838  96.8745628 108.2176544  52.1109340
  96.5342449 107.4184357  52.5130019  96.1684635 108.5178254  51.5386173
  97.5262100 105.3025856  50.5636663  98.3488169 104.8286334  50.4415553
  97.7700164 106.0816340  51.0635349  96.1670335 108.3314115  40.8599564
  96.8878697 108.7095367  40.3563281  95.5435639 109.0502991  40.9634542
 100.3101457 109.0359263  41.7957897 100.5265072 109.9183901  41.4946725
  99.8295525 108.6445477  41.0663539  95.0500679 111.9944977  48.3728641
  94.9045260 112.3085280  49.2652923  94.5725882 112.6129877  47.8199540
  96.9097062 108.9847525  48.4209531  96.8958630 108.0888618  48.0841829
  97.6269490 108.9918188  49.0547817  98.7623192 109.4184865  50.4662658
  98.5040970 110.3401936  50.4646989  98.2308233 109.0215299  51.1563122
  89.5246341 114.5350321  51.3116302  88.9799809 115.3110129  51.4436577
  90.4025691 114.8821126  51.1535424  96.3133958 107.8661905  43.6897101
  96.4349869 106.9378551  43.8887988  96.0236000 107.8800591  42.7775416
  99.1825148 105.5516815  46.8263821  99.2046845 105.6156148  45.8715800
  99.5993207 104.7121324  47.0204327  90.3112363 113.6620217  54.2046459
  89.5694099 113.8102853  54.7911090  89.9905107 113.9228483  53.3413209
  90.7568977 121.5485646  46.2356854  91.5826996 121.2489418  45.8555497
  90.4063029 120.7793269  46.6846642  95.7250510 120.9012114  48.3054527
  95.1030519 120.2382819  48.0056755  96.3955377 120.9273246  47.6228175
  88.9577582 119.4671973  47.1945787  88.1209490 119.0394147  47.0129789
  88.9301227 119.6604416  48.1316579  95.7975037 109.3793902  57.8987033
  95.8463193 110.2556025  57.5164803  96.3397551 108.8371295  57.3258677
  95.2864017 119.4516038  41.7812988  95.4352137 120.1351502  41.1279661
  96.0930460 119.4321128  42.2962444 103.6931520 112.7558420  55.8080206
 104.5941383 112.6164885  55.5164204 103.7679495 112.9212875  56.7478383
  98.0274326 110.1325275  54.6533392  97.1577635 110.4258841  54.3815981
  98.2633806 110.7165720  55.3740656  93.0416650 115.4781215  42.7874057
  92.7962692 114.5743545  42.9854267  93.2112564 115.4798366  41.8453535
 100.7313359 106.3504892  52.1698812 101.2495303 107.0865919  51.8445301
 100.3768492 106.6568885  53.0045572  92.3112297 111.2109573  40.2860218
  91.6181542 111.2853928  39.6300254  92.0664049 110.4469917  40.8081735
 100.9825954 102.7705174  47.6899709 101.2627707 102.1028363  48.3160136
 101.7676561 102.9634270  47.1774373 104.8534812 111.1922808  51.4371284
 105.8052235 111.2920906  51.4583508 104.6838262 110.4001077  51.9469369
 102.8749191 108.2778391  51.6230685 102.2799124 108.5583404  50.9277174
 102.5898888 108.7672292  52.3947426  99.1706221 113.2824981  36.5940788
 100.1165325 113.1531189  36.6629206  98.7920466 112.5439643  37.0710216
 107.4817378 111.2039971  50.5971867 106.9656427 110.4198428  50.4101796
 108.3657327 110.8758688  50.7618386 105.1428105 104.9480987  46.5567680
 104.9452926 104.6396075  47.4411012 105.7527811 105.6742626  46.6865610
  99.0544913 117.3342727  58.0541445  99.9747923 117.5121326  58.2481491
  99.0194496 116.3898772  57.9021144  97.3549138 111.2074957  36.5295673
  96.4480593 110.9108070  36.6058387  97.6325119 110.9104775  35.6629959
  88.2727078 112.5281321  46.9794719  87.9529863 111.6746629  46.6869093
  87.7260506 112.7429899  47.7352687  92.0506986 115.2443762  50.6964226
  92.2692996 116.1760869  50.7152260  92.4632760 114.8851736  51.4819030
  98.9711204 105.7511847  42.6839914  98.1611932 105.4058932  43.0595160
  99.6595620 105.4419391  43.2727526 100.9001752 104.8289894  44.3064211
 101.4532790 105.2485347  44.9654234 101.1371838 103.9025642  44.3487167
  96.9234851 110.8176967  60.0866975  96.8231578 111.7671324  60.0179066
  96.7056393 110.4895206  59.2143045  96.1247922 108.0661892  36.6707652
  96.9867086 108.3916791  36.9303470  96.3098267 107.2793388  36.1580718
  88.1415338 116.1484232  48.9487841  87.4478810 115.7338185  48.4357795
  88.8888329 116.1904769  48.3521260 104.2780559 106.9390419  43.8142875
 103.6979228 107.5975223  43.4320928 104.0116492 106.1167764  43.4030293
 102.7284125 106.3395477  46.0164196 103.2283904 106.4512011  45.2078514
 103.3719733 106.0356529  46.6565004  96.7866121 114.2474106  58.9032037
  96.3033203 115.0474466  59.1095926  96.8727060 114.2582051  57.9499481
  90.0552081 116.0802486  46.8253856  90.0322769 116.1790173  45.8735739
  90.3652717 116.9267637  47.1471022  92.7139459 118.1378641  50.9400470
  93.6682712 118.1062583  50.8730402  92.5151982 117.6769265  51.7550696
  93.3038841 116.7079757  53.5071268  94.1231730 117.2023836  53.5306105
  93.5775648 115.7911725  53.4788836 103.0605437 109.0990509  42.8699224
 102.1731292 109.3840160  42.6519418 103.4759426 108.9384273  42.0226500
 106.4119973 109.1237030  46.5853563 107.1880363 109.6133483  46.8578180
 105.6868107 109.5495084  47.0425432 108.8492532 109.8364650  47.6427503
 109.4437022 109.5960385  46.9320812 108.9219115 109.1171780  48.2701040
  91.0689687 123.6798260  47.9570668  90.9344155 122.9198661  47.3908666
  90.6521750 124.4039160  47.4899457 103.0346461 114.6145045  43.0849514
 102.9781662 115.0713597  42.2457146 103.5874803 113.8535730  42.9072356
 106.8451267 110.4034777  43.9099633 106.5888201 110.0031413  44.7407841
 106.2204135 111.1178571  43.7849772 103.7681240 115.8049826  40.3802043
 103.7130044 115.6394098  39.4390487 103.1427295 116.5125859  40.5364233
  88.5573755 111.0417891  54.2063465  89.2032619 110.5316845  54.6950690
  88.3490906 111.7786573  54.7806890  97.0777365 105.3057935  39.9587361
  97.0656035 106.2499775  40.1155632  97.9700787 105.1228081  39.6646822
 100.8929485 101.9000712  44.2133298 100.1261881 101.3459199  44.3589980
 101.3040190 101.9722581  45.0747450  92.8971246 108.1885508  58.3038479
  93.7602708 107.8322313  58.5141804  92.3236657 107.8499403  58.9913884
  36.8663343  -0.4793937  35.8346187  37.5041753  -0.5987189  35.1309527
  36.7484186   0.4686907  35.8934139  33.6753049  -0.5266509  35.7707712
  33.3371561  -0.6425444  34.8828247  34.5442817  -0.9275344  35.7508718
  34.1572832   0.6268343  41.7293917  34.1461473   0.2321141  40.8574421
  34.3193471  -0.1065584  42.3227689  27.0804297   2.8220159  34.5988823
  27.8725589   2.4810984  34.1835122  27.3200947   2.9315134  35.5190976
  30.8780093   3.4105455  40.6773101  30.5869959   4.3151086  40.5619767
  31.5137077   3.4521982  41.3917171  31.8036300   0.7882303  37.2674461
  32.3999872   0.5638326  36.5531424  31.8611272   0.0467049  37.8699909
  41.8213038  -2.8167250  33.8132374  42.5538210  -3.3868033  34.0470203
  41.0652394  -3.2045649  34.2538879  35.8369978   3.0966870  37.6722895
  35.5370701   3.9991909  37.5638702  35.4921038   2.8299054  38.5244048
  39.2367122  -4.3850590  35.3520332  38.3283999  -4.4535181  35.0579093
  39.1854718  -3.9078645  36.1802158  30.8190758   9.8611191  30.6393863
  30.7414788  10.8119016  30.7182343  30.2152402   9.5157063  31.2968789
  33.3107988  -2.9660944  43.2955229  32.5341322  -2.4067024  43.2858094
  33.9498551  -2.4804161  43.8170100  41.1028768  -6.1834151  37.1298206
  40.4603149  -5.8901618  36.4838001  40.5983697  -6.2981231  37.9351403
  31.5654360  -0.1575491  42.8573196  32.3069044   0.3809553  42.5808020
  30.8591346   0.4690798  43.0144748  37.0409700   1.9853650  41.4545358
  37.4493056   1.5436060  40.7099990  36.3186961   1.4106277  41.7079551
  33.3940770  -3.0773743  38.8278915  34.2401965  -2.6534330  38.9713564
  33.3339407  -3.7340119  39.5217478  37.3638514   2.5454841  35.2097647
  36.7347377   2.7100555  34.5073715  36.9764176   2.9596450  35.9808611
  41.2427746   3.4809278  32.5642011  40.5578784   3.8608180  32.0139044
  41.3271596   4.0904605  33.2973958  36.5440215  -5.4169375  40.4860089
  36.3001147  -4.6627314  39.9494364  36.8200146  -5.0384027  41.3207336
  38.4978678   1.1269237  39.1637354  38.7095573   1.7700997  38.4871735
  38.4508426   0.2931554  38.6959284  29.8090557   1.8300730  35.4127495
  30.3791914   2.2587999  34.7744980  30.3998669   1.5483315  36.1111681
  39.6124506   4.0041193  37.3359711  40.4341950   3.6021380  37.0542393
  39.6086909   3.9009427  38.2875827  33.3781109   3.5525236  39.4920422
  33.4425542   4.0145643  40.3278594  32.6692033   2.9222601  39.6202732
  47.7030499   0.3479941  33.6844683  46.9494207  -0.2212661  33.5288687
  47.8378040   0.3142606  34.6315318  28.3553409   5.8534538  32.0150081
  28.5320037   6.7752503  31.8271064  29.1510243   5.5392957  32.4444460
  34.7197603   5.8416910  43.4899744  34.2761457   5.0553289  43.1720649
  35.3814817   6.0296061  42.8243635  29.4784724   7.3712712  38.0160423
  30.0292150   7.2429775  37.2437417  28.6396200   7.6707601  37.6655316
  36.8178841   6.1219710  41.5181146  36.7997317   6.9428591  41.0261415
  37.7398761   5.9973785  41.7431287  33.2751896   3.6363840  42.3604654
  33.8080232   2.8752128  42.1303962  32.7465977   3.3437491  43.1028808
  39.6197454   0.9598852  34.9890512  38.9621129   1.6498114  35.0770641
  40.4237853   1.3495284  35.3324499  38.4302913  -0.6856775  33.0394454
  38.9434795  -0.0526783  33.5416164  39.0804137  -1.2855579  32.6737814
  34.9083744  -3.2107319  35.2852795  33.9906305  -2.9892372  35.1274483
  35.3243888  -3.1361009  34.4264502  39.1964709   4.2949227  31.1673597
  38.7427036   3.4540137  31.2238787  38.5658676   4.9310625  31.5048377
  37.6397649   6.1325723  32.1023415  37.9320623   6.6930780  31.3835780
  38.1496269   6.4254284  32.8576574  32.6031274   6.9106074  33.1916868
  32.5607452   7.1366921  32.2625400  33.5193973   6.6769449  33.3402669
  36.0496908  -2.6209858  40.0897497  36.4046295  -2.3938385  40.9491963
  36.6969039  -2.2891481  39.4674753  41.7794644   0.5008578  30.7946826
  41.6412543   0.6910174  29.8668016  41.4230863   1.2627961  31.2514877
  41.8064024   2.5685105  35.8058098  42.2400531   2.4760394  36.6541152
  42.5195605   2.5442605  35.1678114  35.5391919   6.1687199  37.3391198
  35.5928941   6.7378135  38.1068914  34.6706700   6.3389084  36.9745236
  42.6679574   2.6108806  38.3390983  42.8615464   3.5154616  38.5850258
  42.5680192   2.1516225  39.1729568  37.7294682   2.7615548  43.9131864
  37.5780189   2.5326100  42.9961948  37.7199362   3.7186150  43.9263209
  34.4980019   0.3347461  38.8978130  35.4272079   0.4858621  38.7247098
  34.0771049   0.4231482  38.0426777  33.2968350   4.3598125  36.6676668
  33.1579436   3.9916910  37.5402606  32.5082947   4.8745765  36.4960626
  33.8916502   9.4607222  28.0102204  34.0668258   8.9895265  28.8247827
  33.2049290  10.0872988  28.2383465  34.8473566   3.7379728  34.0565506
  34.5123398   3.6980498  34.9523156  34.3477511   3.0724444  33.5835916
  28.8217810  -0.8552642  39.5818087  28.6837608  -1.5872403  40.1829626
  29.7322733  -0.9443742  39.3002275  31.4500110  -1.1432683  39.0701766
  32.1599729  -1.7839490  39.0288385  31.4069418  -0.8919788  39.9927947
  39.4386889   5.7934671  41.9908346  39.3799435   5.1093891  41.3238929
  39.8406407   6.5353661  41.5388972  28.4577588  12.6096585  34.7842065
  28.6974186  13.2415109  35.4621083  27.6146784  12.2584625  35.0707424
  39.4404296   3.7574255  40.2222325  38.5531075   3.4200177  40.3448724
  40.0102847   3.0257286  40.4591091  32.9705450   8.4175707  37.1883569
  32.8975621   9.2230679  37.7002873  32.5282843   8.6167673  36.3631590
  32.7595229   7.6547477  30.6986390  31.9762751   8.1969157  30.7924615
  33.4587974   8.1721457  31.0980631  43.9221637  -0.8317528  34.9838887
  43.9111513   0.0507188  34.6132820  43.0539016  -1.1845977  34.7893424
  35.4304133   8.3162541  39.3441727  36.1432105   8.9510006  39.2717629
  34.9394162   8.4126407  38.5281729  30.4816047   6.0656985  40.1647298
  31.1825506   6.6993468  40.3176692  30.0111162   6.4071716  39.4042937
  38.2817333  -1.3798408  37.9899848  37.6288783  -1.1322501  37.3352301
  38.6597713  -2.1934270  37.6562326  35.2424506   8.6561285  32.0928019
  35.4246901   7.8382941  32.5555771  36.0657493   8.8728977  31.6552909
  35.5766672   7.5829470  29.3543067  36.1054438   7.0721925  28.7413229
  35.8394892   7.2672001  30.2188600  34.3304906  -0.6378597  44.4765885
  33.6545543  -0.7384468  45.1468261  35.1532540  -0.7939383  44.9401883
  26.0783765   5.5993340  37.0978401  26.6637202   4.8537028  37.2306305
  25.8808603   5.9097296  37.9815065  28.9322420   8.6344587  32.1140843
  28.2632795   9.1190715  31.6304883  28.7935290   8.8813807  33.0284222
  33.0727689  10.6688331  38.7123501  33.6245997  10.8319952  39.4772587
  33.4133882  11.2592768  38.0403526  37.9238563   5.4949588  44.5672156
  38.4678467   6.1079546  44.0727111  37.3425408   6.0529166  45.0839169
  36.2096076   8.6170306  35.6987184  36.0847215   7.8160046  35.1898129
  36.8675167   9.1116499  35.2101154  38.2730984   6.4179326  37.3266734
  37.3261320   6.2984677  37.2545060  38.6213757   5.5301824  37.4092995
  35.2777417   6.2132042  33.5271086  35.1302380   5.2848750  33.7078656
  36.1030911   6.2352133  33.0428161  38.8811539   7.0360601  34.6135959
  39.8058087   6.8303462  34.4760410  38.7126843   6.7877002  35.5225300
  38.6706856   7.5546269  29.9698050  38.8443733   6.9892691  29.2171903
  39.1635747   8.3547163  29.7877540  44.5246247   0.3182691  31.5888350
  44.9677393  -0.4309983  31.1907473  43.6472757   0.3092828  31.2062082
  39.6582028   6.8713033  27.0694948  40.3532933   7.4919726  27.2882263
  40.0005178   6.0208384  27.3447326  41.5573451   4.3212738  28.5982279
  42.0824775   4.6600011  27.8731599  41.4695804   3.3859754  28.4145414
  33.2193500   8.2346812  40.7272156  33.5280626   7.9895959  41.5994855
  34.0168982   8.4393451  40.2391026  33.2414112  10.3884722  32.9577532
  32.8019102   9.8961100  33.6510389  33.9922229   9.8457689  32.7169608
  25.7206451   6.5796263  32.9602160  26.5464471   6.2800034  32.5800804
  25.3700503   5.8103885  33.4091949  30.6887984   5.9322731  35.0299834
  30.0667993   5.2693436  34.7302062  31.3592851   5.9583863  34.3473482
  41.2467357   4.9545642  43.9033477  40.4562901   4.9369781  43.3637977
  41.0100712   5.4933936  44.6582514  41.3665232   1.8038109  41.2166206
  41.4163237   1.6388116  42.1581728  41.2579156   0.9365368  40.8264086
  38.6568995  -2.2130963  42.5325512  39.5578857  -2.3524499  42.2409510
  38.7316969  -2.0476509  43.4723690  42.8683429   4.2235050  41.4608227
  42.5768237   4.5865031  42.2971688  42.2555560   3.5102058  41.2821559
  44.0679111   1.7887930  33.9810797  44.9026003   2.2277734  34.1448358
  44.2038240   1.3126583  33.1619043  41.1170617  -0.6532335  39.9288285
  41.5924739  -0.4604689  39.1207137  40.1936183  -0.5973150  39.6831669
  39.8172286  -3.7766575  38.1616591  40.7689709  -3.6768478  38.1828815
  39.6475737  -4.5688307  38.6714675  37.8386666  -6.6910992  38.3475992
  37.2436598  -6.4105979  37.6522480  37.5536362  -6.2017091  39.1192733
  42.2960364  -0.5560456  37.2758890  42.2636684  -1.4944455  37.4618574
  42.9060988  -0.4776419  36.5424715  42.4454853  -3.7649412  37.3217174
  41.9293901  -4.5490956  37.1347103  43.3294801  -4.0930696  37.4863693
  48.1136914   0.5055551  36.4164927  48.8440302   0.2440839  36.9772631
  47.5043859  -0.2315727  36.4566995  46.1952211  -1.3536586  37.0139378
  45.4685375  -1.4880621  36.4055870  45.7799498  -1.0459758  37.8196096
  34.0182388   2.3653344  44.7786751  34.9385397   2.5431943  44.9726798
  33.9831971   1.4209389  44.6266451  27.0144460   0.2754378  37.4209533
  27.2330470   1.2071486  37.4397566  27.4270234  -0.0837647  38.2064336
  31.7503595  -0.7215277  45.6277343  31.2670677   0.0785083  45.8341232
  31.8364534  -0.7107332  44.6744787  27.6776933   3.1689257  37.6645777
  28.6320186   3.1373200  37.5975709  27.4789456   2.7079881  38.4796003
  28.2676315   1.7390374  40.2316575  29.0869204   2.2334452  40.2551412
  28.5413123   0.8222342  40.2034142  43.8130006  -5.1324734  34.3672810
  44.4074497  -5.3728998  33.6566118  43.8856590  -5.8517603  34.9946346
  26.0327162   8.7108877  34.6815975  25.8981630   7.9509278  34.1153973
  25.6159224   9.4349777  34.2144764  46.1201079  -1.8258533  33.1416231
  45.5600637  -1.7565344  33.9147793  45.5144582  -2.0017548  32.4215727
  29.1896288   9.6078194  34.8934418  29.0728672  10.5523626  34.7913108
  28.3688734   9.3051756  35.2820217  36.0464621   3.1409355  46.4300912
  36.9155781   3.3150007  46.0687547  35.5671373   3.9603772  46.3076642
  30.2150802  10.2606456  38.1090346  31.1178048  10.2930066  38.4256841
  29.9888172   9.3306907  38.1236682  31.9704404   9.0137442  34.7700425
  31.0200035   9.0139304  34.6564797  32.2736890   8.2670177  34.2536459
  47.7057097  14.8497981  35.8346187  48.3435507  14.7304728  35.1309527
  47.5877940  15.7978825  35.8934139  44.5146803  14.8025409  35.7707712
  44.1765315  14.6866474  34.8828247  45.3836572  14.4016574  35.7508718
  40.3733619  16.6560885  31.7604603  39.8098484  16.5650822  30.9920890
  40.2586014  15.8360790  32.2407095  44.9966586  15.9560261  41.7293917
  44.9855227  15.5613059  40.8574421  45.1587226  15.2226333  42.3227689
  37.9198051  18.1512077  34.5988823  38.7119343  17.8102902  34.1835122
  38.1594701  18.2607052  35.5190976  45.9533178  20.3231853  27.0719068
  45.3021158  20.9085933  26.6853081  46.7477541  20.8538048  27.1314105
  39.8788805  17.4120990  27.4706202  40.6519681  16.8649977  27.3319078
  40.2314204  18.2765240  27.6820663  41.7173848  18.7397372  40.6773101
  41.4263714  19.6443003  40.5619767  42.3530832  18.7813900  41.3917171
  42.6430054  16.1174221  37.2674461  43.2393627  15.8930243  36.5531424
  42.7005026  15.3758966  37.8699909  42.2155083  13.5713656  25.1024652
  42.4680604  13.0495178  24.3408115  41.2779642  13.4079802  25.2051335
  47.2598366  12.5749435  32.9099395  48.0461455  12.1568858  32.5589812
  47.5237070  13.4795527  33.0781043  47.4308443  18.0122285  27.6088052
  46.7954276  18.0856912  28.3208956  47.1005849  18.6015884  26.9307131
  52.6606793  12.5124668  33.8132374  53.3931965  11.9423885  34.0470203
  51.9046149  12.1246268  34.2538879  41.9351372  15.4741762  27.3049027
  41.8187630  14.7986666  27.9730111  42.0453632  14.9874136  26.4881180
  44.2782913  14.9351909  31.0095716  43.9141120  14.4082530  31.7208637
  45.1350028  14.5450378  30.8362201  50.1832213   6.2246242  38.2726982
  49.8515538   7.0941653  38.0488197  49.5877827   5.9082526  38.9521013
  43.9188400   9.9641809  26.0057065  44.0862802  10.8322045  26.3727536
  43.7285569  10.1269091  25.0818354  46.6763733  18.4258788  37.6722895
  46.3764456  19.3283827  37.5638702  46.3314792  18.1590971  38.5244048
  40.1276214  14.8772585  33.7059599  39.2026711  14.7448799  33.9137291
  40.3760627  15.6566804  34.2029542  50.0760877  10.9441328  35.3520332
  49.1677754  10.8756737  35.0579093  50.0248472  11.4213273  36.1802158
  43.8977620  12.4199467  26.9903731  43.7777246  12.8656517  27.8289212
  43.2030209  12.7684784  26.4317269  37.4885025  14.5205858  34.5403388
  37.6177406  14.7740337  35.4542800  36.8082477  15.1133566  34.2208043
  41.6584513  25.1903108  30.6393863  41.5808542  26.1410933  30.7182343
  41.0546156  24.8448981  31.2968789  44.1501742  12.3630974  43.2955229
  43.3735076  12.9224894  43.2858094  44.7892305  12.8487757  43.8170100
  51.9422523   9.1457767  37.1298206  51.2996903   9.4390300  36.4838001
  51.4377451   9.0310687  37.9351403  49.5962687  12.8920940  27.8184065
  50.5080543  13.1248327  27.6431763  49.0872334  13.4757984  27.2559144
  42.4048115  15.1716427  42.8573196  43.1462799  15.7101471  42.5808020
  41.6985100  15.7982716  43.0144748  47.8803454  17.3145568  41.4545358
  48.2886810  16.8727978  40.7099990  47.1580716  16.7398195  41.7079551
  44.2334524  12.2518174  38.8278915  45.0795719  12.6757588  38.9713564
  44.1733162  11.5951799  39.5217478  48.2032269  17.8746758  35.2097647
  47.5741131  18.0392472  34.5073715  47.8157931  18.2888368  35.9808611
  52.0821501  18.8101196  32.5642011  51.3972539  19.1900097  32.0139044
  52.1665350  19.4196523  33.2973958  47.3833970   9.9122543  40.4860089
  47.1394901  10.6664603  39.9494364  47.6593900  10.2907890  41.3207336
  49.3372432  16.4561155  39.1637354  49.5489328  17.0992915  38.4871735
  49.2902181  15.6223472  38.6959284  46.9398661   9.0678976  36.0673926
  46.0783140   9.3660229  36.3590664  46.9661096   9.2849375  35.1354959
  43.7560231  17.6121166  32.4747732  44.2198576  17.8908869  31.6852354
  43.4917029  16.7104611  32.2920823  40.6484312  17.1592648  35.4127495
  41.2185669  17.5879916  34.7744980  41.2392424  16.8775233  36.1111681
  42.6929117  13.7344319  29.2837297  43.3953160  14.1865362  29.7511223
  42.3609745  13.0928138  29.9117190  41.1409478  12.3256075  43.6588506
  40.5108139  13.0072356  43.8923903  41.0345566  12.2139157  42.7141645
  36.4354451  11.9927871  34.5854431  35.6453505  12.2485400  34.1094541
  36.9265698  12.8076209  34.6906471  50.4518260  19.3333111  37.3359711
  51.2735704  18.9313298  37.0542393  50.4480663  19.2301345  38.2875827
  38.3869196  12.3572451  31.5437907  37.5900359  12.4691145  32.0621403
  38.1594788  12.6959103  30.6778798  44.2174864  18.8817154  39.4920422
  44.2819296  19.3437561  40.3278594  43.5085788  18.2514519  39.6202732
  34.7192154  12.2458362  37.0169421  34.9700192  13.1305372  37.2826997
  35.2551702  12.0662963  36.2444513  58.5424253  15.6771859  33.6844683
  57.7887962  15.1079257  33.5288687  58.6771795  15.6434523  34.6315318
  43.9322881  20.5485261  29.3599402  43.7968556  21.3936797  29.7884250
  44.4732694  20.7504539  28.5965336  40.4190221   6.6276841  46.0213758
  40.0257167   6.0743040  46.6961402  41.2356361   6.9387420  46.4120275
  37.3852279  18.0660699  29.9327327  37.8976799  18.8603950  30.0832892
  38.0374992  17.3686990  29.8660929  39.1947164  21.1826456  32.0150081
  39.3713792  22.1044420  31.8271064  39.9903997  20.8684875  32.4444460
  43.3358182   8.0434720  43.6134014  44.0767895   8.6441873  43.5338477
  43.5676105   7.3012358  43.0552057  38.4799520  13.2291087  41.8912244
  38.3653035  12.3276345  42.1919343  37.6244038  13.4754784  41.5397060
  45.5591358  21.1708828  43.4899744  45.1155212  20.3845206  43.1720649
  46.2208571  21.3587978  42.8243635  40.3178479  22.7004629  38.0160423
  40.8685904  22.5721693  37.2437417  39.4789955  22.9999518  37.6655316
  47.6572596  21.4511628  41.5181146  47.6391071  22.2720509  41.0261415
  48.5792516  21.3265703  41.7431287  44.1145650  18.9655757  42.3604654
  44.6473987  18.2044045  42.1303962  43.5859731  18.6729409  43.1028808
  47.2815345   4.0715823  37.8898296  46.9379614   4.9617465  37.8137406
  47.6494308   3.8817481  37.0267881  35.3501196  16.3949354  30.7086898
  36.1876418  16.8046362  30.4920606  35.5279463  15.4548796  30.6787092
  47.2465628  14.0624434  26.3970731  46.7312251  14.8329039  26.6359118
  46.9742936  13.3889570  27.0203792  44.8312739   8.9074135  31.4555969
  43.9754335   8.5180985  31.2761608  45.2439691   8.9866096  30.5955755
  46.3611885   6.4420478  35.8547529  45.8576681   6.4050613  35.0415334
  46.6542492   7.3513221  35.9144186  42.6054771   6.5259208  34.8613711
  43.4707768   6.3302017  34.5019600  42.6732280   6.2969560  35.7883067
  52.2199902  16.8156789  28.3323904  51.4429345  16.4767948  27.8879066
  52.8991383  16.8209412  27.6578869  47.0351931  11.9351526  28.2230512
  46.7302066  12.2497676  29.0740655  47.9882373  12.0132946  28.2657845
  45.4798363  18.0941750  29.8723466  44.9519724  17.3594509  29.5596703
  44.9785865  18.8716426  29.6263434  50.4591209  16.2890770  34.9890512
  49.8014883  16.9790032  35.0770641  51.2631608  16.6787202  35.3324499
  40.2117090   8.7561416  32.2330078  40.7860842   8.5336597  31.5003270
  40.7988073   8.8250110  32.9858679  49.2696668  14.6435143  33.0394454
  49.7828549  15.2765135  33.5416164  49.9197891  14.0436338  32.6737814
  40.5386677  10.7865877  26.2525963  39.7023990  11.1240564  26.5735238
  40.3991447  10.6514857  25.3153100  42.5139758   5.6302665  30.9605147
  41.8604170   5.3151682  30.3361762  42.4720232   5.0078405  31.6864970
  43.6250963  15.9121960  22.8758439  42.7178025  15.6811213  23.0749588
  44.1221995  15.1159579  23.0632421  46.5319042  24.6219467  25.7955125
  45.8580741  24.9251164  26.4040083  46.9184864  25.4248547  25.4460582
  45.7477498  12.1184598  35.2852795  44.8300060  12.3399545  35.1274483
  46.1637642  12.1930909  34.4264502  46.5312546  13.5176014  30.4155475
  47.2784365  14.0297411  30.1062597  46.8004136  13.1960067  31.2759868
  44.8039196  16.0134555  27.3982429  43.8950416  15.7293588  27.4954899
  44.8334280  16.4333633  26.5385736  50.0358464  19.6241144  31.1673597
  49.5820791  18.7832054  31.2238787  49.4052430  20.2602543  31.5048377
  48.9791383  10.5533130  32.3974264  48.2414140  10.0410517  32.7284507
  49.2318157  10.1133512  31.5857541  48.4791403  21.4617641  32.1023415
  48.7714377  22.0222698  31.3835780  48.9890024  21.7546202  32.8576574
  49.0803011   3.3309382  32.9916033  49.3861887   2.4706746  32.7041949
  49.8055615   3.9227003  32.7915027  35.3727367  13.7340069  31.3797631
  35.1751767  13.1409430  30.6548698  34.8174031  13.4292279  32.0973570
  43.3524090  13.6263175  33.4992225  43.4072700  12.6737012  33.4234701
  42.5415292  13.7822615  33.9833523  44.5015284  17.5543298  24.7370508
  44.0634714  16.8379157  24.2776145  45.2425725  17.7819413  24.1755599
  41.2916450  12.2440235  31.2582603  40.4784316  12.5434406  31.6647796
  41.7875444  11.8495924  31.9757086  43.4425028  22.2397992  33.1916868
  43.4001207  22.4658838  32.2625400  44.3587727  22.0061367  33.3402669
  46.8890662  12.7082060  40.0897497  47.2440050  12.9353533  40.9491963
  47.5362793  13.0400436  39.4674753  52.6188399  15.8300496  30.7946826
  52.4806298  16.0202091  29.8668016  52.2624618  16.5919878  31.2514877
  40.7830525   9.8158591  36.8743838  41.4229904   9.6747350  36.1766802
  39.9508056   9.5293104  36.4982440  52.6457779  17.8977023  35.8058098
  53.0794285  17.8052312  36.6541152  53.3589359  17.8734523  35.1678114
  41.5590829  19.1161021  32.9878831  42.3531427  18.6211341  32.7861406
  40.8482521  18.5878884  32.6246536  46.3785673  21.4979117  37.3391198
  46.4322696  22.0670053  38.1068914  45.5100455  21.6681002  36.9745236
  37.8673592  13.2604103  29.0638583  36.9371181  13.1988558  29.2808546
  37.9631064  12.7380056  28.2675225  37.7859141   9.7858916  31.6516825
  38.0465959  10.7004249  31.5425986  38.6076314   9.3183358  31.8013438
  39.2584067  11.1996673  38.8215650  39.9307120  10.9914035  38.1728299
  38.4313853  11.0018759  38.3820882  53.5073328  17.9400723  38.3390983
  53.7009218  18.8446534  38.5850258  53.4073946  17.4808142  39.1729568
  45.1609639   7.8258614  40.8381311  44.5137554   8.5248563  40.7445787
  45.9310654   8.2594758  41.2057559  48.5688437  18.0907466  43.9131864
  48.4173943  17.8618018  42.9961948  48.5593116  19.0478067  43.9263209
  45.3373773  15.6639379  38.8978130  46.2665833  15.8150538  38.7247098
  44.9164803  15.7523399  38.0426777  44.1362105  19.6890043  36.6676668
  43.9973191  19.3208827  37.5402606  43.3476701  20.2037683  36.4960626
  44.7310257  24.7899140  28.0102204  44.9062013  24.3187183  28.8247827
  44.0443045  25.4164906  28.2383465  45.6867320  19.0671646  34.0565506
  45.3517153  19.0272416  34.9523156  45.1871266  18.4016362  33.5835916
  39.6611564  14.4739276  39.5818087  39.5231362  13.7419515  40.1829626
  40.5716488  14.3848176  39.3002275  48.6226512  16.4127680  24.3302565
  48.0055682  15.6874508  24.2335618  48.1543000  17.1737040  23.9869640
  42.2893865  14.1859235  39.0701766  42.9993483  13.5452427  39.0288385
  42.2463173  14.4372130  39.9927947  50.2780643  21.1226588  41.9908346
  50.2193190  20.4385809  41.3238929  50.6800162  21.8645578  41.5388972
  41.0022799  11.1724453  40.8897406  40.4660156  10.7215191  41.5419002
  40.4139507  11.3070362  40.1467870  39.2971342  27.9388502  34.7842065
  39.5367940  28.5707026  35.4621083  38.4540539  27.5876542  35.0707424
  50.2798051  19.0866172  40.2222325  49.3924829  18.7492094  40.3448724
  50.8496602  18.3549204  40.4591091  31.9327198  15.4190264  33.5465377
  32.6198238  15.1051994  32.9586392  31.7775326  16.3231629  33.2732628
  36.7361920  10.3080461  37.9750400  36.6520109   9.7006130  37.2400810
  35.9144626  10.7989479  37.9759897  43.8099204  23.7467625  37.1883569
  43.7369376  24.5522596  37.7002873  43.3676597  23.9459591  36.3631590
  43.5988984  22.9839395  30.6986390  42.8156506  23.5261075  30.7924615
  44.2981729  23.5013374  31.0980631  46.9085634   8.7934024  33.3420595
  47.4054333   8.0403987  33.0221666  46.1372615   8.8298341  32.7763805
  54.7615391  14.4974390  34.9838887  54.7505267  15.3799105  34.6132820
  53.8932771  14.1445941  34.7893424  46.2697888  23.6454459  39.3441727
  46.9825860  24.2801924  39.2717629  45.7787916  23.7418325  38.5281729
  47.9915415  17.5505711  30.9159019  47.0571693  17.6707174  30.7463723
  48.1692083  16.6478178  30.6519029  43.4920603  10.9351407  33.0692280
  43.1218390  10.3822448  33.7573186  43.9879695  10.3309541  32.5167280
  51.3787966  13.3923031  31.4509053  51.8448418  14.2251022  31.3769356
  51.8295466  12.9268012  32.1554312  41.3209801  21.3948902  40.1647298
  42.0219261  22.0285385  40.3176692  40.8504916  21.7363634  39.4042937
  49.4464197  19.7366852  28.4495205  49.7224041  19.6223447  29.3589079
  48.5768696  19.3384337  28.4107378  49.3504629   5.7603618  35.4899954
  48.4367708   5.9907845  35.6582161  49.7797730   5.8442062  36.3413987
  49.1211087  13.9493510  37.9899848  48.4682537  14.1969417  37.3352301
  49.4991467  13.1357648  37.6562326  46.0818261  23.9853203  32.0928019
  46.2640656  23.1674859  32.5555771  46.9051247  24.2020895  31.6552909
  46.4160426  22.9121388  29.3543067  46.9448193  22.4013843  28.7413229
  46.6788646  22.5963918  30.2188600  45.1698660  14.6913321  44.4765885
  44.4939297  14.5907450  45.1468261  45.9926294  14.5352535  44.9401883
  36.9177519  20.9285257  37.0978401  37.5030956  20.1828945  37.2306305
  36.7202358  21.2389214  37.9815065  39.7716174  23.9636505  32.1140843
  39.1026550  24.4482632  31.6304883  39.6329044  24.2105725  33.0284222
  31.5095174  13.4990858  35.8182844  31.5479273  12.9654448  36.6119962
  31.0035467  12.9726063  35.1993821  43.9121443  25.9980248  38.7123501
  44.4639751  26.1611870  39.4772587  44.2527636  26.5884686  38.0403526
  38.8885936   8.3455398  39.3145386  38.9527263   9.2070229  38.9022784
  38.8253056   7.7329400  38.5817745  38.3638209  10.4178531  42.9618420
  38.9910248  10.0355608  43.5755945  37.5066128  10.1992733  43.3274113
  48.7632317  20.8241506  44.5672156  49.3072221  21.4371464  44.0727111
  48.1819162  21.3821084  45.0839169  35.1403752  12.2254960  28.8936775
  35.4357193  11.3165638  28.8403829  34.2391787  12.2042699  28.5717778
  47.0489830  23.9462224  35.6987184  46.9240970  23.1451964  35.1898129
  47.7068921  24.4408417  35.2101154  38.6697999  10.3010956  34.8764324
  37.9484584  10.9146924  34.7371797  39.4591254  10.8368721  34.7980970
  49.1124739  21.7471244  37.3266734  48.1655074  21.6276595  37.2545060
  49.4607512  20.8593742  37.4092995  41.4724312   7.6365383  41.1504976
  41.9958714   7.8827679  41.9131285  41.2536645   8.4685418  40.7308113
  36.8691593   9.9069057  29.0176100  36.5404299   9.0266436  28.8351206
  37.2230964   9.8516726  29.9052490  46.1171172  21.5423960  33.5271086
  45.9696134  20.6140667  33.7078656  46.9424665  21.5644051  33.0428161
  39.9833416  10.1942027  29.3851578  40.3229489  10.7227948  28.6630186
  40.4305537  10.5322433  30.1610145  49.7205294  22.3652519  34.6135959
  50.6451841  22.1595380  34.4760410  49.5520597  22.1168920  35.5225300
  42.6776857   8.5779078  38.8354646  42.3373677   7.7786891  39.2375326
  41.9715863   8.8780789  38.2631479  43.3293329   5.6628390  37.2881969
  44.1519398   5.1888868  37.1660859  43.5731392   6.4418874  37.7880655
  41.9701563   8.6916649  27.5844871  42.6909926   9.0697902  27.0808588
  41.3466868   9.4105526  27.6879849  46.1132686   9.3961798  28.5203203
  46.3296301  10.2786436  28.2192031  45.6326753   9.0048011  27.7908845
  40.8531908  12.3547511  35.0973948  40.7076488  12.6687814  35.9898229
  40.3757111  12.9732411  34.5444846  42.7128291   9.3450059  35.1454837
  42.6989859   8.4491152  34.8087135  43.4300719   9.3520723  35.7793123
  44.5654421   9.7787399  37.1907965  44.3072199  10.7004470  37.1892295
  44.0339462   9.3817834  37.8808429  49.5100610  22.8838186  29.9698050
  49.6837488  22.3184609  29.2171903  50.0029501  23.6839081  29.7877540
  35.3277570  14.8952855  38.0361609  34.7831038  15.6712663  38.1681883
  36.2056920  15.2423660  37.8780730  42.1165186   8.2264439  30.4142407
  42.2381098   7.2981085  30.6133295  41.8267229   8.2403125  29.5020723
  44.9856377   5.9119350  33.5509127  45.0078074   5.9758683  32.5961107
  45.4024436   5.0723858  33.7449633  55.3640001  15.6474609  31.5888350
  55.8071147  14.8981934  31.1907473  54.4866511  15.6384746  31.2062082
  50.4975783  22.2004951  27.0694948  51.1926687  22.8211643  27.2882263
  50.8398933  21.3500302  27.3447326  36.1143592  14.0222752  40.9291766
  35.3725328  14.1705387  41.5156396  35.7936336  14.2831017  40.0658515
  52.3967206  19.6504656  28.5982279  52.9218530  19.9891929  27.8731599
  52.3089558  18.7151671  28.4145414  44.0587254  23.5638730  40.7272156
  44.3674381  23.3187877  41.5994855  44.8562736  23.7685368  40.2391026
  44.0807866  25.7176639  32.9577532  43.6412857  25.2253018  33.6510389
  44.8315983  25.1749607  32.7169608  36.5600205  21.9088180  32.9602160
  37.3858225  21.6091952  32.5800804  36.2094257  21.1395803  33.4091949
  41.5281739  21.2614649  35.0299834  40.9061748  20.5985354  34.7302062
  42.1986605  21.2875780  34.3473482  34.7608810  19.8274507  33.9191094
  33.9240719  19.3996681  33.7375095  34.7332456  20.0206950  34.8561885
  41.6006266   9.7396437  44.6232340  41.6494421  10.6158559  44.2410110
  42.1428780   9.1973830  44.0503983  52.0861112  20.2837560  43.9033477
  51.2956655  20.2661699  43.3637977  51.8494466  20.8225853  44.6582514
  52.2058987  17.1330026  41.2166206  52.2556992  16.9680034  42.1581728
  52.0972910  16.2657285  40.8264086  41.0895245  19.8118572  28.5058295
  41.2383366  20.4954036  27.8524967  41.8961689  19.7923662  29.0207750
  49.4962749  13.1160954  42.5325512  50.3972612  12.9767419  42.2409510
  49.5710724  13.2815409  43.4723690  43.8305554  10.4927809  41.3778699
  42.9608864  10.7861375  41.1061287  44.0665035  11.0768254  42.0985962
  53.7077184  19.5526968  41.4608227  53.4161992  19.9156948  42.2971688
  53.0949315  18.8393976  41.2821559  54.9072866  17.1179847  33.9810797
  55.7419757  17.5569652  34.1448358  55.0431995  16.6418501  33.1619043
  51.9564372  14.6759582  39.9288285  52.4318493  14.8687229  39.1207137
  51.0329937  14.7318768  39.6831669  38.8447878  15.8383750  29.5119363
  38.5993920  14.9346080  29.7099574  39.0143793  15.8400900  28.5698841
  46.5344588   6.7107426  38.8944119  47.0526532   7.4468453  38.5690608
  46.1799721   7.0171419  39.7290878  38.1143526  11.5712107  27.0105525
  37.4212771  11.6456462  26.3545561  37.8695278  10.8072451  27.5327042
  46.7857182   3.1307708  34.4145016  47.0658936   2.4630897  35.0405442
  47.5707789   3.3236804  33.9019680  44.5890651  22.3066702  25.9770042
  44.0164618  22.9256889  25.5240514  45.1623445  22.8566064  26.5109964
  50.6566041  11.5525342  38.1616591  51.6083464  11.6523440  38.1828815
  50.4869491  10.7603611  38.6714675  48.6780420   8.6380926  38.3475992
  48.0830352   8.9185938  37.6522480  48.3930117   9.1274827  39.1192733
  47.8087911  22.5903852  27.1078624  48.7418584  22.5249414  27.3111500
  47.7211124  23.4260119  26.6493157  50.4375927  21.9069723  24.0682572
  50.3589559  21.5729586  24.9618330  51.2585594  22.3991491  24.0674044
  53.1354119  14.7731462  37.2758890  53.1030439  13.8347463  37.4618574
  53.7454742  14.8515499  36.5424715  44.9737449  13.6427515  23.3186095
  45.9196554  13.5133723  23.3874513  44.5951694  12.9042177  23.7955523
  53.2848607  11.5642506  37.3217174  52.7687656  10.7800962  37.1347103
  54.1688556  11.2361222  37.4863693  50.9459334   5.3083521  33.2812986
  50.7484155   4.9998609  34.1656318  51.5559040   6.0345160  33.4110916
  58.9530668  15.8347469  36.4164927  59.6834057  15.5732757  36.9772631
  58.3437614  15.0976191  36.4566995  57.0345966  13.9755332  37.0139378
  56.3079129  13.8411296  36.4055870  56.6193252  14.2832160  37.8196096
  44.8576142  17.6945261  44.7786751  45.7779151  17.8723860  44.9726798
  44.8225725  16.7501307  44.6266451  34.0758307  12.8883855  33.7040026
  33.7561091  12.0349163  33.4114400  33.5291735  13.1032433  34.4597993
  37.8538215  15.6046296  37.4209533  38.0724224  16.5363404  37.4397566
  38.2663988  15.2454270  38.2064336  44.7742432   6.1114381  29.4085221
  43.9643161   5.7661466  29.7840467  45.4626849   5.8021925  29.9972833
  46.7032981   5.1892428  31.0309518  47.2564019   5.6087881  31.6899541
  46.9403067   4.2628176  31.0732474  42.7266080  11.1779502  46.8112282
  42.6262807  12.1273859  46.7424373  42.5087622  10.8497741  45.9388352
  33.9446567  16.5086766  35.6733148  33.2510038  16.0940719  35.1603102
  34.6919558  16.5507303  35.0766567  50.0811788   7.2992953  30.5388182
  49.5010457   7.9577757  30.1566234  49.8147720   6.4770298  30.1275599
  48.5315354   6.6998011  32.7409502  49.0315132   6.8114545  31.9323821
  49.1750962   6.3959064  33.3810311  42.5897350  14.6076640  45.6277343
  42.1064432  15.4077001  45.8341232  42.6758289  14.6184585  44.6744787
  35.8583310  16.4405020  33.5499163  35.8353998  16.5392707  32.5981046
  36.1683946  17.2870171  33.8716329  38.5170687  18.4981175  37.6645777
  39.4713941  18.4665118  37.5975709  38.3183211  18.0371799  38.4796003
  39.1070070  17.0682291  40.2316575  39.9262959  17.5626370  40.2551412
  39.3806877  16.1514259  40.2034142  48.8636666   9.4593044  29.5944530
  47.9762521   9.7442694  29.3764725  49.2790655   9.2986807  28.7471807
  52.2151202   9.4839565  33.3098869  52.9911592   9.9736017  33.5823486
  51.4899336   9.9097619  33.7670739  54.6523760  10.1967184  34.3672810
  55.2468251   9.9562920  33.6566118  54.7250344   9.4774314  34.9946346
  36.8720916  24.0400795  34.6815975  36.7375384  23.2801196  34.1153973
  36.4552978  24.7641695  34.2144764  48.0079879  19.2237718  23.6892550
  48.7115729  19.4287721  24.3050206  47.2842528  19.7914480  23.9541634
  48.8377689  14.9747579  29.8094820  48.7812891  15.4316131  28.9702453
  49.3906032  14.2138264  29.6317663  52.6482495  10.7637311  30.6344940
  52.3919430  10.3633947  31.4653148  52.0235363  11.4781105  30.5095079
  56.9594833  13.5033385  33.1416231  56.3994391  13.5726574  33.9147793
  56.3538337  13.3274369  32.4215727  40.0290042  24.9370112  34.8934418
  39.9122426  25.8815544  34.7913108  39.2082488  24.6343673  35.2820217
  49.9166577  19.6620247  25.7391010  50.7512181  19.2301446  25.5568485
  49.7550920  19.4902261  26.6667905  49.5712469  16.1652361  27.1047350
  49.5161273  15.9996632  26.1635794  48.9458524  16.8728394  27.2609539
  34.3604984  11.4020425  40.9308772  35.0063847  10.8919379  41.4195997
  34.1522135  12.1389107  41.5052197  46.8858376  18.4701273  46.4300912
  47.7549536  18.6441925  46.0687547  46.4065127  19.2895689  46.3076642
  42.8808594   5.6660470  26.6832668  42.8687264   6.6102310  26.8400939
  43.7732016   5.4830615  26.3892129  41.0544556  25.5898374  38.1090346
  41.9571803  25.6221984  38.4256841  40.8281926  24.6598825  38.1236682
  42.8098158  24.3429360  34.7700425  41.8593789  24.3431222  34.6564797
  43.1130644  23.5962095  34.2536459  46.6960714   2.2603246  30.9378605
  45.9293110   1.7061733  31.0835287  47.1071419   2.3325115  31.7992756
  38.7002475   8.5488042  45.0283786  39.5633936   8.1924847  45.2387111
  38.1267885   8.2101937  45.7159190  58.5450852  30.1789899  35.8346187
  59.1829262  30.0596646  35.1309527  58.4271695  31.1270742  35.8934139
  55.3540558  30.1317327  35.7707712  55.0159070  30.0158391  34.8828247
  56.2230326  29.7308492  35.7508718  51.2127374  31.9852803  31.7604603
  50.6492239  31.8942740  30.9920890  51.0979769  31.1652707  32.2407095
  55.8360341  31.2852178  41.7293917  55.8248982  30.8904977  40.8574421
  55.9980980  30.5518251  42.3227689  48.7591806  33.4803995  34.5988823
  49.5513098  33.1394819  34.1835122  48.9988456  33.5898970  35.5190976
  56.7926932  35.6523771  27.0719068  56.1414912  36.2377851  26.6853081
  57.5871295  36.1829966  27.1314105  50.7182560  32.7412908  27.4706202
  51.4913436  32.1941895  27.3319078  51.0707958  33.6057157  27.6820663
  52.5567602  34.0689290  40.6773101  52.2657468  34.9734921  40.5619767
  53.1924586  34.1105818  41.3917171  53.4823809  31.4466139  37.2674461
  54.0787381  31.2222161  36.5531424  53.5398780  30.7050884  37.8699909
  53.0548837  28.9005574  25.1024652  53.3074358  28.3787095  24.3408115
  52.1173396  28.7371719  25.2051335  58.0992120  27.9041352  32.9099395
  58.8855209  27.4860776  32.5589812  58.3630825  28.8087445  33.0781043
  58.2702198  33.3414203  27.6088052  57.6348031  33.4148829  28.3208956
  57.9399604  33.9307801  26.9307131  63.5000547  27.8416586  33.8132374
  64.2325719  27.2715802  34.0470203  62.7439903  27.4538186  34.2538879
  52.7745126  30.8033680  27.3049027  52.6581384  30.1278583  27.9730111
  52.8847386  30.3166054  26.4881180  55.1176667  30.2643827  31.0095716
  54.7534874  29.7374448  31.7208637  55.9743783  29.8742296  30.8362201
  61.0225968  21.5538160  38.2726982  60.6909292  22.4233571  38.0488197
  60.4271581  21.2374444  38.9521013  54.7582154  25.2933727  26.0057065
  54.9256556  26.1613963  26.3727536  54.5679323  25.4561008  25.0818354
  57.5157487  33.7550706  37.6722895  57.2158210  34.6575744  37.5638702
  57.1708547  33.4882889  38.5244048  50.9669969  30.2064502  33.7059599
  50.0420465  30.0740717  33.9137291  51.2154382  30.9858722  34.2029542
  60.9154631  26.2733246  35.3520332  60.0071508  26.2048654  35.0579093
  60.8642227  26.7505191  36.1802158  54.7371375  27.7491384  26.9903731
  54.6171000  28.1948435  27.8289212  54.0423963  28.0976702  26.4317269
  48.3278780  29.8497776  34.5403388  48.4571161  30.1032255  35.4542800
  47.6476231  30.4425484  34.2208043  52.4978267  40.5195026  30.6393863
  52.4202297  41.4702851  30.7182343  51.8939911  40.1740899  31.2968789
  54.9895497  27.6922891  43.2955229  54.2128831  28.2516812  43.2858094
  55.6286060  28.1779674  43.8170100  62.7816277  24.4749684  37.1298206
  62.1390658  24.7682217  36.4838001  62.2771206  24.3602605  37.9351403
  60.4356441  28.2212857  27.8184065  61.3474297  28.4540244  27.6431763
  59.9266088  28.8049902  27.2559144  53.2441869  30.5008345  42.8573196
  53.9856553  31.0393389  42.5808020  52.5378855  31.1274634  43.0144748
  58.7197209  32.6437485  41.4545358  59.1280565  32.2019896  40.7099990
  57.9974470  32.0690113  41.7079551  55.0728279  27.5810092  38.8278915
  55.9189474  28.0049506  38.9713564  55.0126916  26.9243716  39.5217478
  59.0426023  33.2038676  35.2097647  58.4134886  33.3684390  34.5073715
  58.6551685  33.6180285  35.9808611  62.9215255  34.1393114  32.5642011
  62.2366293  34.5192015  32.0139044  63.0059105  34.7488440  33.2973958
  58.2227724  25.2414460  40.4860089  57.9788656  25.9956521  39.9494364
  58.4987655  25.6199808  41.3207336  60.1766187  31.7853073  39.1637354
  60.3883082  32.4284833  38.4871735  60.1295935  30.9515389  38.6959284
  57.7792416  24.3970893  36.0673926  56.9176895  24.6952147  36.3590664
  57.8054850  24.6141292  35.1354959  54.5953985  32.9413084  32.4747732
  55.0592331  33.2200787  31.6852354  54.3310783  32.0396529  32.2920823
  51.4878066  32.4884566  35.4127495  52.0579423  32.9171834  34.7744980
  52.0786178  32.2067150  36.1111681  53.5322871  29.0636236  29.2837297
  54.2346915  29.5157280  29.7511223  53.2003500  28.4220055  29.9117190
  51.9803233  27.6547993  43.6588506  51.3501893  28.3364274  43.8923903
  51.8739321  27.5431075  42.7141645  47.2748205  27.3219789  34.5854431
  46.4847259  27.5777318  34.1094541  47.7659453  28.1368127  34.6906471
  61.2912015  34.6625028  37.3359711  62.1129459  34.2605215  37.0542393
  61.2874418  34.5593262  38.2875827  49.2262951  27.6864368  31.5437907
  48.4294114  27.7983062  32.0621403  48.9988543  28.0251020  30.6778798
  55.0568618  34.2109071  39.4920422  55.1213051  34.6729479  40.3278594
  54.3479542  33.5806436  39.6202732  45.5585908  27.5750279  37.0169421
  45.8093947  28.4597289  37.2826997  46.0945457  27.3954881  36.2444513
  69.3818008  31.0063777  33.6844683  68.6281716  30.4371175  33.5288687
  69.5165549  30.9726441  34.6315318  54.7716636  35.8777179  29.3599402
  54.6362311  36.7228715  29.7884250  55.3126448  36.0796457  28.5965336
  51.2583976  21.9568759  46.0213758  50.8650921  21.4034957  46.6961402
  52.0750116  22.2679337  46.4120275  48.2246033  33.3952617  29.9327327
  48.7370554  34.1895867  30.0832892  48.8768746  32.6978907  29.8660929
  50.0340918  36.5118373  32.0150081  50.2107546  37.4336338  31.8271064
  50.8297752  36.1976792  32.4444460  54.1751937  23.3726638  43.6134014
  54.9161650  23.9733791  43.5338477  54.4069859  22.6304276  43.0552057
  49.3193275  28.5583005  41.8912244  49.2046790  27.6568262  42.1919343
  48.4637792  28.8046702  41.5397060  56.3985112  36.5000745  43.4899744
  55.9548966  35.7137124  43.1720649  57.0602326  36.6879896  42.8243635
  51.1572233  38.0296547  38.0160423  51.7079659  37.9013610  37.2437417
  50.3183709  38.3291436  37.6655316  58.4966350  36.7803545  41.5181146
  58.4784826  37.6012426  41.0261415  59.4186270  36.6557621  41.7431287
  54.9539405  34.2947675  42.3604654  55.4867741  33.5335963  42.1303962
  54.4253486  34.0021327  43.1028808  58.1209099  19.4007741  37.8898296
  57.7773369  20.2909383  37.8137406  58.4888062  19.2109398  37.0267881
  46.1894950  31.7241271  30.7086898  47.0270172  32.1338280  30.4920606
  46.3673218  30.7840713  30.6787092  58.0859382  29.3916352  26.3970731
  57.5706006  30.1620957  26.6359118  57.8136691  28.7181488  27.0203792
  55.6706493  24.2366053  31.4555969  54.8148090  23.8472903  31.2761608
  56.0833445  24.3158014  30.5955755  57.2005640  21.7712396  35.8547529
  56.6970435  21.7342531  35.0415334  57.4936247  22.6805139  35.9144186
  53.4448526  21.8551126  34.8613711  54.3101523  21.6593934  34.5019600
  53.5126035  21.6261477  35.7883067  63.0593656  32.1448707  28.3323904
  62.2823099  31.8059866  27.8879066  63.7385137  32.1501330  27.6578869
  57.8745685  27.2643444  28.2230512  57.5695821  27.5789593  29.0740655
  58.8276127  27.3424864  28.2657845  56.3192117  33.4233667  29.8723466
  55.7913479  32.6886427  29.5596703  55.8179620  34.2008344  29.6263434
  61.2984963  31.6182688  34.9890512  60.6408638  32.3081949  35.0770641
  62.1025362  32.0079120  35.3324499  51.0510845  24.0853334  32.2330078
  51.6254597  23.8628515  31.5003270  51.6381827  24.1542028  32.9858679
  60.1090422  29.9727061  33.0394454  60.6222304  30.6057052  33.5416164
  60.7591646  29.3728256  32.6737814  51.3780432  26.1157795  26.2525963
  50.5417744  26.4532481  26.5735238  51.2385202  25.9806774  25.3153100
  53.3533513  20.9594583  30.9605147  52.6997925  20.6443600  30.3361762
  53.3113987  20.3370323  31.6864970  54.4644717  31.2413878  22.8758439
  53.5571779  31.0103131  23.0749588  54.9615749  30.4451497  23.0632421
  57.3712796  39.9511385  25.7955125  56.6974495  40.2543082  26.4040083
  57.7578618  40.7540465  25.4460582  56.5871253  27.4476516  35.2852795
  55.6693814  27.6691463  35.1274483  57.0031397  27.5222827  34.4264502
  57.3706301  28.8467932  30.4155475  58.1178120  29.3589329  30.1062597
  57.6397890  28.5251984  31.2759868  55.6432951  31.3426472  27.3982429
  54.7344170  31.0585505  27.4954899  55.6728035  31.7625551  26.5385736
  60.8752218  34.9533062  31.1673597  60.4214545  34.1123972  31.2238787
  60.2446185  35.5894460  31.5048377  59.8185138  25.8825048  32.3974264
  59.0807895  25.3702434  32.7284507  60.0711911  25.4425430  31.5857541
  59.3185157  36.7909559  32.1023415  59.6108132  37.3514616  31.3835780
  59.8283778  37.0838120  32.8576574  59.9196765  18.6601300  32.9916033
  60.2255642  17.7998663  32.7041949  60.6449370  19.2518920  32.7915027
  46.2121121  29.0631987  31.3797631  46.0145521  28.4701347  30.6548698
  45.6567785  28.7584197  32.0973570  54.1917845  28.9555093  33.4992225
  54.2466455  28.0028929  33.4234701  53.3809047  29.1114532  33.9833523
  55.3409039  32.8835216  24.7370508  54.9028469  32.1671075  24.2776145
  56.0819480  33.1111331  24.1755599  52.1310205  27.5732153  31.2582603
  51.3178070  27.8726323  31.6647796  52.6269199  27.1787842  31.9757086
  54.2818783  37.5689910  33.1916868  54.2394961  37.7950756  32.2625400
  55.1981482  37.3353284  33.3402669  57.7284416  28.0373977  40.0897497
  58.0833804  28.2645450  40.9491963  58.3756548  28.3692354  39.4674753
  63.4582153  31.1592413  30.7946826  63.3200052  31.3494009  29.8668016
  63.1018372  31.9211796  31.2514877  51.6224280  25.1450508  36.8743838
  52.2623659  25.0039267  36.1766802  50.7901810  24.8585022  36.4982440
  63.4851533  33.2268940  35.8058098  63.9188040  33.1344229  36.6541152
  64.1983114  33.2026441  35.1678114  52.3984583  34.4452939  32.9878831
  53.1925182  33.9503259  32.7861406  51.6876276  33.9170802  32.6246536
  57.2179428  36.8271034  37.3391198  57.2716450  37.3961971  38.1068914
  56.3494209  36.9972919  36.9745236  48.7067347  28.5896021  29.0638583
  47.7764935  28.5280476  29.2808546  48.8024819  28.0671973  28.2675225
  48.6252896  25.1150833  31.6516825  48.8859713  26.0296167  31.5425986
  49.4470068  24.6475276  31.8013438  50.0977821  26.5288591  38.8215650
  50.7700875  26.3205953  38.1728299  49.2707608  26.3310677  38.3820882
  64.3467083  33.2692641  38.3390983  64.5402973  34.1738451  38.5850258
  64.2467701  32.8100060  39.1729568  56.0003393  23.1550531  40.8381311
  55.3531308  23.8540481  40.7445787  56.7704409  23.5886675  41.2057559
  59.4082191  33.4199384  43.9131864  59.2567698  33.1909935  42.9961948
  59.3986871  34.3769985  43.9263209  56.1767528  30.9931296  38.8978130
  57.1059588  31.1442456  38.7247098  55.7558558  31.0815317  38.0426777
  54.9755859  35.0181961  36.6676668  54.8366945  34.6500745  37.5402606
  54.1870456  35.5329600  36.4960626  55.5704011  40.1191057  28.0102204
  55.7455767  39.6479100  28.8247827  54.8836799  40.7456823  28.2383465
  56.5261075  34.3963563  34.0565506  56.1910907  34.3564333  34.9523156
  56.0265020  33.7308279  33.5835916  50.5005319  29.8031193  39.5818087
  50.3625117  29.0711432  40.1829626  51.4110242  29.7140094  39.3002275
  59.4620266  31.7419598  24.3302565  58.8449437  31.0166426  24.2335618
  58.9936755  32.5028958  23.9869640  53.1287619  29.5151153  39.0701766
  53.8387238  28.8744345  39.0288385  53.0856927  29.7664048  39.9927947
  61.1174398  36.4518506  41.9908346  61.0586944  35.7677726  41.3238929
  61.5193916  37.1937496  41.5388972  51.8416553  26.5016371  40.8897406
  51.3053910  26.0507109  41.5419002  51.2533262  26.6362280  40.1467870
  50.1365097  43.2680420  34.7842065  50.3761695  43.8998944  35.4621083
  49.2934293  42.9168460  35.0707424  51.2518812  25.9605022  23.4523870
  50.3748278  25.8393823  23.0886116  51.7276565  25.1691100  23.2002758
  61.1191805  34.4158090  40.2222325  60.2318584  34.0784012  40.3448724
  61.6890356  33.6841121  40.4591091  42.7720952  30.7482182  33.5465377
  43.4591992  30.4343912  32.9586392  42.6169081  31.6523546  33.2732628
  47.5755674  25.6372378  37.9750400  47.4913863  25.0298048  37.2400810
  46.7538381  26.1281397  37.9759897  54.6492959  39.0759542  37.1883569
  54.5763130  39.8814514  37.7002873  54.2070352  39.2751508  36.3631590
  54.4382738  38.3131312  30.6986390  53.6550260  38.8552993  30.7924615
  55.1375483  38.8305292  31.0980631  57.7479388  24.1225942  33.3420595
  58.2448088  23.3695904  33.0221666  56.9766370  24.1590259  32.7763805
  65.6009146  29.8266307  34.9838887  65.5899022  30.7091023  34.6132820
  64.7326525  29.4737858  34.7893424  57.1091642  38.9746376  39.3441727
  57.8219614  39.6093841  39.2717629  56.6181671  39.0710242  38.5281729
  58.8309169  32.8797629  30.9159019  57.8965448  32.9999092  30.7463723
  59.0085837  31.9770096  30.6519029  54.3314357  26.2643325  33.0692280
  53.9612145  25.7114365  33.7573186  54.8273450  25.6601458  32.5167280
  62.2181720  28.7214948  31.4509053  62.6842173  29.5542940  31.3769356
  62.6689221  28.2559930  32.1554312  52.1603556  36.7240820  40.1647298
  52.8613015  37.3577303  40.3176692  51.6898671  37.0655551  39.4042937
  60.2857951  35.0658770  28.4495205  60.5617795  34.9515364  29.3589079
  59.4162450  34.6676255  28.4107378  60.1898383  21.0895535  35.4899954
  59.2761463  21.3199762  35.6582161  60.6191485  21.1733979  36.3413987
  59.9604842  29.2785427  37.9899848  59.3076292  29.5261335  37.3352301
  60.3385221  28.4649566  37.6562326  56.9212015  39.3145121  32.0928019
  57.1034410  38.4966776  32.5555771  57.7445001  39.5312813  31.6552909
  57.2554181  38.2413306  29.3543067  57.7841947  37.7305760  28.7413229
  57.5182401  37.9255836  30.2188600  56.0092415  30.0205238  44.4765885
  55.3333052  29.9199368  45.1468261  56.8320049  29.8644452  44.9401883
  47.7571274  36.2577175  37.0978401  48.3424711  35.5120863  37.2306305
  47.5596112  36.5681132  37.9815065  50.6109929  39.2928422  32.1140843
  49.9420304  39.7774550  31.6304883  50.4722799  39.5397643  33.0284222
  42.3488928  28.8282775  35.8182844  42.3873028  28.2946366  36.6119962
  41.8429221  28.3017981  35.1993821  54.7515198  41.3272166  38.7123501
  55.3033506  41.4903787  39.4772587  55.0921391  41.9176604  38.0403526
  49.7279691  23.6747316  39.3145386  49.7921017  24.5362147  38.9022784
  49.6646811  23.0621317  38.5817745  49.2031963  25.7470448  42.9618420
  49.8304002  25.3647526  43.5755945  48.3459882  25.5284650  43.3274113
  59.6026072  36.1533423  44.5672156  60.1465976  36.7663382  44.0727111
  59.0212917  36.7113002  45.0839169  45.9797506  27.5546877  28.8936775
  46.2750947  26.6457556  28.8403829  45.0785542  27.5334617  28.5717778
  57.8883585  39.2754141  35.6987184  57.7634724  38.4743881  35.1898129
  58.5462676  39.7700335  35.2101154  49.5091753  25.6302874  34.8764324
  48.7878339  26.2438842  34.7371797  50.2985009  26.1660639  34.7980970
  59.9518493  37.0763162  37.3266734  59.0048829  36.9568513  37.2545060
  60.3001266  36.1885660  37.4092995  52.3118067  22.9657300  41.1504976
  52.8352468  23.2119597  41.9131285  52.0930400  23.7977335  40.7308113
  47.7085348  25.2360975  29.0176100  47.3798054  24.3558354  28.8351206
  48.0624718  25.1808644  29.9052490  56.9564926  36.8715878  33.5271086
  56.8089889  35.9432585  33.7078656  57.7818420  36.8935968  33.0428161
  50.8227171  25.5233945  29.3851578  51.1623243  26.0519866  28.6630186
  51.2699291  25.8614351  30.1610145  60.5599048  37.6944436  34.6135959
  61.4845596  37.4887298  34.4760410  60.3914352  37.4460838  35.5225300
  53.5170612  23.9070996  38.8354646  53.1767432  23.1078809  39.2375326
  52.8109618  24.2072706  38.2631479  54.1687083  20.9920308  37.2881969
  54.9913153  20.5180786  37.1660859  54.4125147  21.7710792  37.7880655
  52.8095318  24.0208566  27.5844871  53.5303680  24.3989819  27.0808588
  52.1860622  24.7397443  27.6879849  56.9526441  24.7253715  28.5203203
  57.1690055  25.6078353  28.2192031  56.4720508  24.3339929  27.7908845
  51.6925662  27.6839429  35.0973948  51.5470243  27.9979732  35.9898229
  51.2150866  28.3024329  34.5444846  53.5522045  24.6741977  35.1454837
  53.5383614  23.7783070  34.8087135  54.2694473  24.6812640  35.7793123
  55.4048176  25.1079317  37.1907965  55.1465954  26.0296387  37.1892295
  54.8733216  24.7109751  37.8808429  60.3494365  38.2130104  29.9698050
  60.5231242  37.6476526  29.2171903  60.8423256  39.0130999  29.7877540
  46.1671324  30.2244773  38.0361609  45.6224792  31.0004581  38.1681883
  47.0450674  30.5715577  37.8780730  52.9558941  23.5556357  30.4142407
  53.0774852  22.6273003  30.6133295  52.6660983  23.5695043  29.5020723
  55.8250131  21.2411267  33.5509127  55.8471828  21.3050600  32.5961107
  56.2418190  20.4015776  33.7449633  66.2033756  30.9766527  31.5888350
  66.6464902  30.2273852  31.1907473  65.3260266  30.9676663  31.2062082
  61.3369537  37.5296868  27.0694948  62.0320442  38.1503561  27.2882263
  61.6792687  36.6792220  27.3447326  46.9537346  29.3514669  40.9291766
  46.2119082  29.4997305  41.5156396  46.6330090  29.6122935  40.0658515
  63.2360960  34.9796574  28.5982279  63.7612284  35.3183847  27.8731599
  63.1483313  34.0443589  28.4145414  54.8981009  38.8930647  40.7272156
  55.2068135  38.6479794  41.5994855  55.6956491  39.0977286  40.2391026
  54.9201621  41.0468557  32.9577532  54.4806611  40.5544936  33.6510389
  55.6709738  40.5041525  32.7169608  47.3993960  37.2380098  32.9602160
  48.2251980  36.9383870  32.5800804  47.0488012  36.4687720  33.4091949
  52.3675493  36.5906566  35.0299834  51.7455502  35.9277271  34.7302062
  53.0380360  36.6167698  34.3473482  45.6002565  35.1566424  33.9191094
  44.7634473  34.7288599  33.7375095  45.5726210  35.3498868  34.8561885
  52.4400021  25.0688354  44.6232340  52.4888176  25.9450477  44.2410110
  52.9822535  24.5265747  44.0503983  62.9254866  35.6129477  43.9033477
  62.1350410  35.5953616  43.3637977  62.6888221  36.1517771  44.6582514
  63.0452741  32.4621944  41.2166206  63.0950746  32.2971951  42.1581728
  62.9366665  31.5949203  40.8264086  51.9289000  35.1410490  28.5058295
  52.0777120  35.8245954  27.8524967  52.7355443  35.1215580  29.0207750
  60.3356504  28.4452872  42.5325512  61.2366366  28.3059337  42.2409510
  60.4104478  28.6107327  43.4723690  54.6699309  25.8219727  41.3778699
  53.8002618  26.1153293  41.1061287  54.9058789  26.4060172  42.0985962
  64.5470938  34.8818885  41.4608227  64.2555746  35.2448866  42.2971688
  63.9343069  34.1685894  41.2821559  65.7466620  32.4471765  33.9810797
  66.5813512  32.8861569  34.1448358  65.8825749  31.9710418  33.1619043
  62.7958126  30.0051500  39.9288285  63.2712248  30.1979146  39.1207137
  61.8723692  30.0610686  39.6831669  49.6841633  31.1675667  29.5119363
  49.4387675  30.2637997  29.7099574  49.8537547  31.1692818  28.5698841
  57.3738343  22.0399344  38.8944119  57.8920287  22.7760370  38.5690608
  57.0193476  22.3463337  39.7290878  48.9537280  26.9004025  27.0105525
  48.2606525  26.9748380  26.3545561  48.7089032  26.1364368  27.5327042
  57.6250937  18.4599626  34.4145016  57.9052691  17.7922815  35.0405442
  58.4101544  18.6528722  33.9019680  55.4284405  37.6358620  25.9770042
  54.8558373  38.2548807  25.5240514  56.0017199  38.1857982  26.5109964
  61.4959795  26.8817260  38.1616591  62.4477218  26.9815358  38.1828815
  61.3263246  26.0895529  38.6714675  59.5174175  23.9672843  38.3475992
  58.9224107  24.2477856  37.6522480  59.2323871  24.4566744  39.1192733
  58.6481665  37.9195770  27.1078624  59.5812338  37.8541332  27.3111500
  58.5604878  38.7552037  26.6493157  61.2769682  37.2361640  24.0682572
  61.1983313  36.9021504  24.9618330  62.0979349  37.7283408  24.0674044
  63.9747873  30.1023380  37.2758890  63.9424193  29.1639381  37.4618574
  64.5848497  30.1807416  36.5424715  55.8131204  28.9719433  23.3186095
  56.7590309  28.8425641  23.3874513  55.4345449  28.2334095  23.7955523
  64.1242362  26.8934423  37.3217174  63.6081410  26.1092880  37.1347103
  65.0082310  26.5653140  37.4863693  61.7853088  20.6375439  33.2812986
  61.5877910  20.3290527  34.1656318  62.3952794  21.3637078  33.4110916
  69.7924423  31.1639387  36.4164927  70.5227811  30.9024675  36.9772631
  69.1831368  30.4268109  36.4566995  67.8739720  29.3047249  37.0139378
  67.1472884  29.1703214  36.4055870  67.4587007  29.6124078  37.8196096
  55.6969896  33.0237179  44.7786751  56.6172906  33.2015778  44.9726798
  55.6619480  32.0793224  44.6266451  53.9974121  26.8969409  23.2540980
  53.0905576  26.6002522  23.3303693  54.2750102  26.5999227  22.3875266
  44.9152061  28.2175773  33.7040026  44.5954846  27.3641081  33.4114400
  44.3685490  28.4324351  34.4597993  48.6931969  30.9338214  37.4209533
  48.9117979  31.8655321  37.4397566  49.1057743  30.5746188  38.2064336
  55.6136187  21.4406299  29.4085221  54.8036915  21.0953384  29.7840467
  56.3020604  21.1313843  29.9972833  57.5426735  20.5184346  31.0309518
  58.0957774  20.9379799  31.6899541  57.7796821  19.5920094  31.0732474
  53.5659834  26.5071419  46.8112282  53.4656561  27.4565776  46.7424373
  53.3481376  26.1789658  45.9388352  52.7672906  23.7556344  23.3952959
  53.6292070  24.0811243  23.6548776  52.9523250  22.9687840  22.8826025
  44.7840321  31.8378684  35.6733148  44.0903793  31.4232637  35.1603102
  45.5313312  31.8799221  35.0766567  60.9205542  22.6284871  30.5388182
  60.3404211  23.2869675  30.1566234  60.6541475  21.8062215  30.1275599
  59.3709109  22.0289929  32.7409502  59.8708887  22.1406463  31.9323821
  60.0144716  21.7250981  33.3810311  53.4291104  29.9368558  45.6277343
  52.9458186  30.7368918  45.8341232  53.5152043  29.9476503  44.6744787
  46.6977064  31.7696938  33.5499163  46.6747752  31.8684625  32.5981046
  47.0077701  32.6162089  33.8716329  49.3564442  33.8273093  37.6645777
  50.3107695  33.7957035  37.5975709  49.1576965  33.3663717  38.4796003
  49.9463824  32.3974209  40.2316575  50.7656713  32.8918288  40.2551412
  50.2200632  31.4806177  40.2034142  59.7030420  24.7884961  29.5944530
  58.8156275  25.0734612  29.3764725  60.1184409  24.6278725  28.7471807
  63.0544956  24.8131482  33.3098869  63.8305346  25.3027935  33.5823486
  62.3293091  25.2389536  33.7670739  65.4917515  25.5259101  34.3672810
  66.0862006  25.2854837  33.6566118  65.5644099  24.8066232  34.9946346
  47.7114671  39.3692712  34.6815975  47.5769139  38.6093113  34.1153973
  47.2946733  40.0933612  34.2144764  58.8473634  34.5529636  23.6892550
  59.5509484  34.7579638  24.3050206  58.1236282  35.1206398  23.9541634
  59.6771444  30.3039497  29.8094820  59.6206645  30.7608049  28.9702453
  60.2299786  29.5430182  29.6317663  63.4876250  26.0929229  30.6344940
  63.2313184  25.6925865  31.4653148  62.8629118  26.8073023  30.5095079
  67.7988588  28.8325302  33.1416231  67.2388146  28.9018492  33.9147793
  67.1932091  28.6566287  32.4215727  50.8683797  40.2662029  34.8934418
  50.7516181  41.2107462  34.7913108  50.0476243  39.9635591  35.2820217
  60.7560331  34.9912165  25.7391010  61.5905935  34.5593364  25.5568485
  60.5944674  34.8194179  26.6667905  60.4106223  31.4944278  27.1047350
  60.3555027  31.3288550  26.1635794  59.7852279  32.2020311  27.2609539
  45.1998738  26.7312343  40.9308772  45.8457602  26.2211297  41.4195997
  44.9915889  27.4681024  41.5052197  57.7252130  33.7993190  46.4300912
  58.5943290  33.9733843  46.0687547  57.2458882  34.6187607  46.3076642
  53.7202349  20.9952387  26.6832668  53.7081019  21.9394227  26.8400939
  54.6125771  20.8122533  26.3892129  51.8938311  40.9190291  38.1090346
  52.7965557  40.9513902  38.4256841  51.6675681  39.9890742  38.1236682
  53.6491913  39.6721278  34.7700425  52.6987544  39.6723139  34.6564797
  53.9524399  38.9254012  34.2536459  57.5354468  17.5895164  30.9378605
  56.7686864  17.0353651  31.0835287  57.9465173  17.6617033  31.7992756
  49.5396229  23.8779960  45.0283786  50.4027691  23.5216765  45.2387111
  48.9661640  23.5393855  45.7159190  60.0656705  43.0156286  31.5437907
  59.2687868  43.1274980  32.0621403  59.8382297  43.3542938  30.6778798
  62.0977730  37.2860676  46.0213758  61.7044676  36.7326875  46.6961402
  62.9143870  37.5971255  46.4120275  60.1587029  43.8874923  41.8912244
  60.0440544  42.9860180  42.1919343  59.3031547  44.1338620  41.5397060
  57.0288705  47.0533189  30.7086898  57.8663927  47.4630197  30.4920606
  57.2066972  46.1132631  30.6787092  64.2842280  37.1843043  34.8613711
  65.1495277  36.9885852  34.5019600  64.3519789  36.9553395  35.7883067
  61.8904599  39.4145251  32.2330078  62.4648351  39.1920433  31.5003270
  62.4775582  39.4833946  32.9858679  64.1927267  36.2886500  30.9605147
  63.5391679  35.9735517  30.3361762  64.1507741  35.6662241  31.6864970
  65.3038472  46.5705795  22.8758439  64.3965534  46.3395049  23.0749588
  65.8009504  45.7743415  23.0632421  70.7590520  33.9893218  32.9916033
  71.0649396  33.1290581  32.7041949  71.4843124  34.5810838  32.7915027
  57.0514876  44.3923904  31.3797631  56.8539276  43.7993265  30.6548698
  56.4961540  44.0876114  32.0973570  59.5461101  43.9187938  29.0638583
  58.6158690  43.8572394  29.2808546  59.6418573  43.3963891  28.2675225
  59.4646650  40.4442751  31.6516825  59.7253468  41.3588084  31.5425986
  60.2863823  39.9767194  31.8013438  62.0912567  41.2896940  23.4523870
  61.2142033  41.1685741  23.0886116  62.5670320  40.4983018  23.2002758
  53.6114707  46.0774100  33.5465377  54.2985747  45.7635830  32.9586392
  53.4562835  46.9815464  33.2732628  53.1882683  44.1574693  35.8182844
  53.2266782  43.6238284  36.6119962  52.6822976  43.6309898  35.1993821
  60.5673445  39.0039233  39.3145386  60.6314772  39.8654064  38.9022784
  60.5040565  38.3913235  38.5817745  60.0425718  41.0762366  42.9618420
  60.6697757  40.6939443  43.5755945  59.1853637  40.8576568  43.3274113
  56.8191261  42.8838795  28.8936775  57.1144702  41.9749473  28.8403829
  55.9179296  42.8626534  28.5717778  63.1511821  38.2949218  41.1504976
  63.6746223  38.5411515  41.9131285  62.9324154  39.1269253  40.7308113
  58.5479102  40.5652893  29.0176100  58.2191808  39.6850272  28.8351206
  58.9018473  40.5100561  29.9052490  65.0080838  36.3212226  37.2881969
  65.8306907  35.8472704  37.1660859  65.2518901  37.1002709  37.7880655
  66.6643886  36.5703185  33.5509127  66.6865583  36.6342518  32.5961107
  67.0811945  35.7307694  33.7449633  57.7931101  44.6806587  40.9291766
  57.0512837  44.8289222  41.5156396  57.4723845  44.9414853  40.0658515
  59.7931035  42.2295942  27.0105525  59.1000280  42.3040297  26.3545561
  59.5482787  41.4656286  27.5327042  68.4644691  33.7891544  34.4145016
  68.7446445  33.1214733  35.0405442  69.2495298  33.9820639  33.9019680
  66.6524958  44.3011350  23.3186095  67.5984063  44.1717559  23.3874513
  66.2739203  43.5626012  23.7955523  55.7545816  43.5467690  33.7040026
  55.4348600  42.6932998  33.4114400  55.2079244  43.7616268  34.4597993
  68.3820490  35.8476263  31.0309518  68.9351528  36.2671717  31.6899541
  68.6190576  34.9212011  31.0732474  63.6066660  39.0848262  23.3952959
  64.4685824  39.4103160  23.6548776  63.7917004  38.2979758  22.8826025
  55.6234076  47.1670602  35.6733148  54.9297547  46.7524555  35.1603102
  56.3707067  47.2091138  35.0766567  57.5370819  47.0988855  33.5499163
  57.5141507  47.1976543  32.5981046  57.8471455  47.9454006  33.8716329
  56.0392493  42.0604260  40.9308772  56.6851356  41.5503214  41.4195997
  55.8309644  42.7972942  41.5052197  64.5596103  36.3244305  26.6832668
  64.5474773  37.2686145  26.8400939  65.4519525  36.1414450  26.3892129
  68.3748223  32.9187082  30.9378605  67.6080618  32.3645568  31.0835287
  68.7858928  32.9908950  31.7992756  60.3789984  39.2071878  45.0283786
  61.2421445  38.8508682  45.2387111  59.8055394  38.8685772  45.7159190
  78.4714441  66.3107606  27.0719068  77.8202421  66.8961686  26.6853081
  79.2658804  66.8413801  27.1314105  79.9489707  63.9998038  27.6088052
  79.3135539  64.0732665  28.3208956  79.6187113  64.5891637  26.9307131
  85.1788056  58.5000421  33.8132374  85.9113228  57.9299638  34.0470203
  84.4227412  58.1122021  34.2538879  74.1765776  71.1778861  30.6393863
  74.0989806  72.1286686  30.7182343  73.5727420  70.8324734  31.2968789
  82.1143950  58.8796693  27.8184065  83.0261806  59.1124080  27.6431763
  81.6053597  59.4633737  27.2559144  91.0605517  61.6647612  33.6844683
  90.3069225  61.0955010  33.5288687  91.1953058  61.6310277  34.6315318
  76.4504145  66.5361014  29.3599402  76.3149820  67.3812550  29.7884250
  76.9913957  66.7380292  28.5965336  79.7646891  60.0500187  26.3970731
  79.2493515  60.8204792  26.6359118  79.4924200  59.3765323  27.0203792
  84.7381165  62.8032542  28.3323904  83.9610608  62.4643701  27.8879066
  85.4172646  62.8085165  27.6578869  76.1432226  61.8997713  22.8758439
  75.2359288  61.6686966  23.0749588  76.6403258  61.1035332  23.0632421
  79.0500305  70.6095220  25.7955125  78.3762004  70.9126917  26.4040083
  79.4366127  71.4124301  25.4460582  77.0196548  63.5419052  24.7370508
  76.5815978  62.8254910  24.2776145  77.7606988  63.7695166  24.1755599
  75.9606292  68.2273745  33.1916868  75.9182470  68.4534591  32.2625400
  76.8768991  67.9937120  33.3402669  85.1369662  61.8176249  30.7946826
  84.9987561  62.0077845  29.8668016  84.7805881  62.5795631  31.2514877
  77.2491520  70.7774893  28.0102204  77.4243276  70.3062936  28.8247827
  76.5624308  71.4040659  28.2383465  81.1407775  62.4003433  24.3302565
  80.5236946  61.6750261  24.2335618  80.6724264  63.1612793  23.9869640
  76.1170247  68.9715148  30.6986390  75.3337769  69.5136828  30.7924615
  76.8162992  69.4889127  31.0980631  87.2796655  60.4850143  34.9838887
  87.2686531  61.3674858  34.6132820  86.4114034  60.1321694  34.7893424
  83.8969229  59.3798784  31.4509053  84.3629682  60.2126775  31.3769356
  84.3476730  58.9143765  32.1554312  81.9645460  65.7242605  28.4495205
  82.2405304  65.6099200  29.3589079  81.0949959  65.3260090  28.4107378
  76.4302706  71.9856001  38.7123501  76.9821015  72.1487623  39.4772587
  76.7708900  72.5760439  38.0403526  81.2813581  66.8117259  44.5672156
  81.8253485  67.4247217  44.0727111  80.7000426  67.3696837  45.0839169
  87.8821265  61.6350362  31.5888350  88.3252411  60.8857687  31.1907473
  87.0047775  61.6260499  31.2062082  83.0157046  68.1880704  27.0694948
  83.7107951  68.8087396  27.2882263  83.3580196  67.3376055  27.3447326
  84.9148469  65.6380409  28.5982279  85.4399793  65.9767682  27.8731599
  84.8270822  64.7027425  28.4145414  76.5989130  71.7052392  32.9577532
  76.1594120  71.2128771  33.6510389  77.3497247  71.1625360  32.7169608
  84.6042375  66.2713313  43.9033477  83.8137919  66.2537452  43.3637977
  84.3675730  66.8101607  44.6582514  86.2258447  65.5402721  41.4608227
  85.9343255  65.9032701  42.2971688  85.6130578  64.8269729  41.2821559
  87.4254129  63.1055601  33.9810797  88.2601021  63.5445405  34.1448358
  87.5613258  62.6294254  33.1619043  77.1071914  68.2942455  25.9770042
  76.5345882  68.9132642  25.5240514  77.6804708  68.8441817  26.5109964
  80.3269174  68.5779605  27.1078624  81.2599847  68.5125167  27.3111500
  80.2392387  69.4135872  26.6493157  82.9557191  67.8945476  24.0682572
  82.8770822  67.5605339  24.9618330  83.7766858  68.3867244  24.0674044
  77.4918713  59.6303268  23.3186095  78.4377818  59.5009476  23.3874513
  77.1132958  58.8917930  23.7955523  91.4711932  61.8223222  36.4164927
  92.2015320  61.5608510  36.9772631  90.8618877  61.0851944  36.4566995
  89.5527229  59.9631085  37.0139378  88.8260393  59.8287049  36.4055870
  89.1374516  60.2707913  37.8196096  84.7332465  55.4715318  33.3098869
  85.5092855  55.9611770  33.5823486  84.0080600  55.8973372  33.7670739
  87.1705024  56.1842937  34.3672810  87.7649515  55.9438673  33.6566118
  87.2431608  55.4650067  34.9946346  80.5261143  65.2113471  23.6892550
  81.2296993  65.4163474  24.3050206  79.8023791  65.7790233  23.9541634
  81.3558953  60.9623332  29.8094820  81.2994154  61.4191884  28.9702453
  81.9087295  60.2014017  29.6317663  85.1663759  56.7513064  30.6344940
  84.9100693  56.3509700  31.4653148  84.5416627  57.4656858  30.5095079
  89.4776097  59.4909138  33.1416231  88.9175655  59.5602327  33.9147793
  88.8719600  59.3150122  32.4215727  82.4347840  65.6496000  25.7391010
  83.2693444  65.2177199  25.5568485  82.2732183  65.4778014  26.6667905
  82.0893732  62.1528114  27.1047350  82.0342536  61.9872385  26.1635794
  81.4639788  62.8604147  27.2609539  79.4039639  64.4577026  46.4300912
  80.2730799  64.6317678  46.0687547  78.9246391  65.2771442  46.3076642
  91.0632115  76.1665652  35.8346187  91.7010525  76.0472399  35.1309527
  90.9452958  77.1146495  35.8934139  87.8721821  76.1193080  35.7707712
  87.5340333  76.0034144  34.8828247  88.7411590  75.7184245  35.7508718
  83.7308637  77.9728556  31.7604603  83.1673502  77.8818493  30.9920890
  83.6161032  77.1528461  32.2407095  88.3541604  77.2727931  41.7293917
  88.3430245  76.8780730  40.8574421  88.5162244  76.5394004  42.3227689
  81.2773069  79.4679748  34.5988823  82.0694361  79.1270572  34.1835122
  81.5169719  79.5774723  35.5190976  89.3108196  81.6399524  27.0719068
  88.6596176  82.2253604  26.6853081  90.1052559  82.1705719  27.1314105
  83.2363823  78.7288661  27.4706202  84.0094699  78.1817648  27.3319078
  83.5889222  79.5932910  27.6820663  85.0748866  80.0565043  40.6773101
  84.7838732  80.9610674  40.5619767  85.7105850  80.0981571  41.3917171
  86.0005072  77.4341892  37.2674461  86.5968645  77.2097914  36.5531424
  86.0580044  76.6926637  37.8699909  85.5730101  74.8881327  25.1024652
  85.8255622  74.3662848  24.3408115  84.6354660  74.7247472  25.2051335
  90.6173384  73.8917105  32.9099395  91.4036473  73.4736529  32.5589812
  90.8812088  74.7963198  33.0781043  90.7883461  79.3289956  27.6088052
  90.1529294  79.4024582  28.3208956  90.4580867  79.9183555  26.9307131
  96.0181811  73.8292339  33.8132374  96.7506983  73.2591555  34.0470203
  95.2621166  73.4413939  34.2538879  85.2926390  76.7909433  27.3049027
  85.1762648  76.1154336  27.9730111  85.4028649  76.3041807  26.4881180
  87.6357931  76.2519580  31.0095716  87.2716138  75.7250201  31.7208637
  88.4925046  75.8618049  30.8362201  93.5407231  67.5413913  38.2726982
  93.2090556  68.4109324  38.0488197  92.9452845  67.2250197  38.9521013
  87.2763417  71.2809480  26.0057065  87.4437820  72.1489716  26.3727536
  87.0860587  71.4436761  25.0818354  90.0338751  79.7426459  37.6722895
  89.7339474  80.6451497  37.5638702  89.6889810  79.4758642  38.5244048
  83.4851232  76.1940256  33.7059599  82.5601729  76.0616470  33.9137291
  83.7335645  76.9734475  34.2029542  93.4335894  72.2608999  35.3520332
  92.5252772  72.1924407  35.0579093  93.3823490  72.7380944  36.1802158
  87.2552638  73.7367137  26.9903731  87.1352264  74.1824188  27.8289212
  86.5605227  74.0852455  26.4317269  80.8460043  75.8373529  34.5403388
  80.9752424  76.0908008  35.4542800  80.1657494  76.4301237  34.2208043
  85.0159530  86.5070779  30.6393863  84.9383560  87.4578604  30.7182343
  84.4121174  86.1616652  31.2968789  87.5076760  73.6798644  43.2955229
  86.7310094  74.2392565  43.2858094  88.1467323  74.1655427  43.8170100
  95.2997541  70.4625437  37.1298206  94.6571921  70.7557970  36.4838001
  94.7952469  70.3478358  37.9351403  92.9537705  74.2088610  27.8184065
  93.8655561  74.4415997  27.6431763  92.4447352  74.7925655  27.2559144
  85.7623133  76.4884098  42.8573196  86.5037817  77.0269142  42.5808020
  85.0560118  77.1150387  43.0144748  91.2378472  78.6313238  41.4545358
  91.6461828  78.1895649  40.7099990  90.5155734  78.0565866  41.7079551
  87.5909542  73.5685845  38.8278915  88.4370737  73.9925259  38.9713564
  87.5308180  72.9119469  39.5217478  91.5607287  79.1914429  35.2097647
  90.9316149  79.3560143  34.5073715  91.1732949  79.6056038  35.9808611
  95.4396519  80.1268867  32.5642011  94.7547557  80.5067768  32.0139044
  95.5240368  80.7364193  33.2973958  90.7408988  71.2290213  40.4860089
  90.4969919  71.9832274  39.9494364  91.0168918  71.6075561  41.3207336
  92.6947450  77.7728826  39.1637354  92.9064346  78.4160586  38.4871735
  92.6477199  76.9391142  38.6959284  90.2973679  70.3846646  36.0673926
  89.4358158  70.6827900  36.3590664  90.3236114  70.6017045  35.1354959
  87.1135249  78.9288837  32.4747732  87.5773594  79.2076540  31.6852354
  86.8492047  78.0272282  32.2920823  84.0059330  78.4760319  35.4127495
  84.5760687  78.9047587  34.7744980  84.5967442  78.1942903  36.1111681
  86.0504135  75.0511989  29.2837297  86.7528178  75.5033033  29.7511223
  85.7184763  74.4095808  29.9117190  84.4984496  73.6423746  43.6588506
  83.8683157  74.3240027  43.8923903  84.3920584  73.5306828  42.7141645
  79.7929469  73.3095542  34.5854431  79.0028523  73.5653071  34.1094541
  80.2840716  74.1243880  34.6906471  93.8093278  80.6500781  37.3359711
  94.6310722  80.2480968  37.0542393  93.8055681  80.5469015  38.2875827
  81.7444214  73.6740121  31.5437907  80.9475377  73.7858816  32.0621403
  81.5169806  74.0126773  30.6778798  87.5749882  80.1984824  39.4920422
  87.6394314  80.6605232  40.3278594  86.8660806  79.5682189  39.6202732
  78.0767172  73.5626032  37.0169421  78.3275210  74.4473042  37.2826997
  78.6126720  73.3830634  36.2444513 101.8999271  76.9939530  33.6844683
 101.1462980  76.4246928  33.5288687 102.0346813  76.9602194  34.6315318
  87.2897899  81.8652932  29.3599402  87.1543574  82.7104468  29.7884250
  87.8307712  82.0672210  28.5965336  83.7765239  67.9444512  46.0213758
  83.3832185  67.3910710  46.6961402  84.5931379  68.2555090  46.4120275
  80.7427297  79.3828370  29.9327327  81.2551817  80.1771620  30.0832892
  81.3950010  78.6854660  29.8660929  82.5522181  82.4994126  32.0150081
  82.7288810  83.4212091  31.8271064  83.3479015  82.1852546  32.4444460
  86.6933200  69.3602391  43.6134014  87.4342913  69.9609544  43.5338477
  86.9251123  68.6180029  43.0552057  81.8374538  74.5458758  41.8912244
  81.7228053  73.6444015  42.1919343  80.9819056  74.7922455  41.5397060
  88.9166376  82.4876498  43.4899744  88.4730230  81.7012877  43.1720649
  89.5783589  82.6755649  42.8243635  83.6753497  84.0172300  38.0160423
  84.2260922  83.8889363  37.2437417  82.8364973  84.3167189  37.6655316
  91.0147614  82.7679298  41.5181146  90.9966089  83.5888179  41.0261415
  91.9367534  82.6433374  41.7431287  87.4720668  80.2823428  42.3604654
  88.0049005  79.5211716  42.1303962  86.9434749  79.9897080  43.1028808
  90.6390363  65.3883494  37.8898296  90.2954632  66.2785136  37.8137406
  91.0069326  65.1985152  37.0267881  78.7076214  77.7117024  30.7086898
  79.5451436  78.1214033  30.4920606  78.8854481  76.7716466  30.6787092
  90.6040646  75.3792105  26.3970731  90.0887269  76.1496710  26.6359118
  90.3317954  74.7057241  27.0203792  88.1887757  70.2241806  31.4555969
  87.3329353  69.8348656  31.2761608  88.6014708  70.3033767  30.5955755
  89.7186903  67.7588149  35.8547529  89.2151699  67.7218284  35.0415334
  90.0117510  68.6680892  35.9144186  85.9629789  67.8426879  34.8613711
  86.8282786  67.6469687  34.5019600  86.0307298  67.6137231  35.7883067
  95.5774920  78.1324460  28.3323904  94.8004363  77.7935619  27.8879066
  96.2566401  78.1377083  27.6578869  90.3926949  73.2519197  28.2230512
  90.0877084  73.5665346  29.0740655  91.3457391  73.3300617  28.2657845
  88.8373381  79.4109420  29.8723466  88.3094742  78.6762180  29.5596703
  88.3360883  80.1884097  29.6263434  93.8166227  77.6058441  34.9890512
  93.1589901  78.2957702  35.0770641  94.6206626  77.9954873  35.3324499
  83.5692108  70.0729087  32.2330078  84.1435860  69.8504268  31.5003270
  84.1563091  70.1417781  32.9858679  92.6271686  75.9602814  33.0394454
  93.1403567  76.5932805  33.5416164  93.2772909  75.3604009  32.6737814
  83.8961695  72.1033548  26.2525963  83.0599008  72.4408234  26.5735238
  83.7566465  71.9682527  25.3153100  85.8714776  66.9470336  30.9605147
  85.2179188  66.6319353  30.3361762  85.8295250  66.3246076  31.6864970
  86.9825981  77.2289631  22.8758439  86.0753043  76.9978884  23.0749588
  87.4797013  76.4327250  23.0632421  89.8894060  85.9387138  25.7955125
  89.2155759  86.2418835  26.4040083  90.2759882  86.7416218  25.4460582
  89.1052516  73.4352269  35.2852795  88.1875078  73.6567216  35.1274483
  89.5212660  73.5098580  34.4264502  89.8887564  74.8343685  30.4155475
  90.6359383  75.3465082  30.1062597  90.1579154  74.5127738  31.2759868
  88.1614214  77.3302226  27.3982429  87.2525434  77.0461258  27.4954899
  88.1909298  77.7501304  26.5385736  93.3933482  80.9408815  31.1673597
  92.9395809  80.0999725  31.2238787  92.7627448  81.5770213  31.5048377
  92.3366401  71.8700801  32.3974264  91.5989158  71.3578187  32.7284507
  92.5893175  71.4301183  31.5857541  91.8366421  82.7785312  32.1023415
  92.1289395  83.3390369  31.3835780  92.3465042  83.0713873  32.8576574
  92.4378029  64.6477053  32.9916033  92.7436905  63.7874416  32.7041949
  93.1630633  65.2394673  32.7915027  78.7302385  75.0507740  31.3797631
  78.5326785  74.4577100  30.6548698  78.1749049  74.7459950  32.0973570
  86.7099108  74.9430846  33.4992225  86.7647718  73.9904683  33.4234701
  85.8990310  75.0990285  33.9833523  87.8590302  78.8710969  24.7370508
  87.4209732  78.1546828  24.2776145  88.6000743  79.0987084  24.1755599
  84.6491468  73.5607906  31.2582603  83.8359334  73.8602076  31.6647796
  85.1450462  73.1663595  31.9757086  86.8000046  83.5565663  33.1916868
  86.7576225  83.7826509  32.2625400  87.7162745  83.3229037  33.3402669
  90.2465680  74.0249730  40.0897497  90.6015068  74.2521203  40.9491963
  90.8937811  74.3568107  39.4674753  95.9763417  77.1468166  30.7946826
  95.8381315  77.3369762  29.8668016  95.6199636  77.9087549  31.2514877
  84.1405543  71.1326261  36.8743838  84.7804922  70.9915020  36.1766802
  83.3083074  70.8460775  36.4982440  96.0032797  79.2144693  35.8058098
  96.4369303  79.1219982  36.6541152  96.7164377  79.1902194  35.1678114
  84.9165847  80.4328692  32.9878831  85.7106445  79.9379012  32.7861406
  84.2057539  79.9046555  32.6246536  89.7360691  82.8146787  37.3391198
  89.7897714  83.3837724  38.1068914  88.8675473  82.9848672  36.9745236
  81.2248610  74.5771774  29.0638583  80.2946198  74.5156229  29.2808546
  81.3206082  74.0547726  28.2675225  82.6159085  72.5164344  38.8215650
  83.2882138  72.3081706  38.1728299  81.7888871  72.3186430  38.3820882
  96.8648346  79.2568394  38.3390983  97.0584236  80.1614204  38.5850258
  96.7648964  78.7975813  39.1729568  88.5184657  69.1426284  40.8381311
  87.8712572  69.8416234  40.7445787  89.2885672  69.5762428  41.2057559
  91.9263455  79.4075137  43.9131864  91.7748961  79.1785688  42.9961948
  91.9168134  80.3645738  43.9263209  88.6948791  76.9807049  38.8978130
  89.6240851  77.1318209  38.7247098  88.2739821  77.0691070  38.0426777
  87.4937123  81.0057714  36.6676668  87.3548209  80.6376498  37.5402606
  86.7051719  81.5205353  36.4960626  88.0885275  86.1066810  28.0102204
  88.2637031  85.6354853  28.8247827  87.4018063  86.7332576  28.2383465
  89.0442338  80.3839316  34.0565506  88.7092171  80.3440086  34.9523156
  88.5446284  79.7184032  33.5835916  83.0186582  75.7906947  39.5818087
  82.8806380  75.0587185  40.1829626  83.9291506  75.7015847  39.3002275
  91.9801530  77.7295351  24.3302565  91.3630700  77.0042179  24.2335618
  91.5118018  78.4904711  23.9869640  85.6468883  75.5026906  39.0701766
  86.3568501  74.8620098  39.0288385  85.6038191  75.7539801  39.9927947
  93.6355661  82.4394259  41.9908346  93.5768208  81.7553479  41.3238929
  94.0375180  83.1813249  41.5388972  84.3597817  72.4892124  40.8897406
  83.8235174  72.0382862  41.5419002  83.7714525  72.6238033  40.1467870
  82.6546360  89.2556173  34.7842065  82.8942958  89.8874697  35.4621083
  81.8115557  88.9044213  35.0707424  83.7700076  71.9480775  23.4523870
  82.8929542  71.8269576  23.0886116  84.2457829  71.1566853  23.2002758
  93.6373069  80.4033843  40.2222325  92.7499847  80.0659765  40.3448724
  94.2071620  79.6716874  40.4591091  87.1674222  85.0635295  37.1883569
  87.0944394  85.8690267  37.7002873  86.7251615  85.2627261  36.3631590
  86.9564002  84.3007065  30.6986390  86.1731524  84.8428746  30.7924615
  87.6556747  84.8181045  31.0980631  90.2660652  70.1101695  33.3420595
  90.7629351  69.3571657  33.0221666  89.4947633  70.1466012  32.7763805
  98.1190409  75.8142060  34.9838887  98.1080285  76.6966776  34.6132820
  97.2507789  75.4613611  34.7893424  89.6272906  84.9622130  39.3441727
  90.3400878  85.5969594  39.2717629  89.1362934  85.0585995  38.5281729
  91.3490432  78.8673382  30.9159019  90.4146711  78.9874845  30.7463723
  91.5267101  77.9645849  30.6519029  86.8495621  72.2519078  33.0692280
  86.4793408  71.6990118  33.7573186  87.3454713  71.6477211  32.5167280
  94.7362984  74.7090701  31.4509053  95.2023436  75.5418693  31.3769356
  95.1870484  74.2435683  32.1554312  84.6784819  82.7116573  40.1647298
  85.3794279  83.3453056  40.3176692  84.2079934  83.0531305  39.4042937
  92.8039215  81.0534523  28.4495205  93.0799059  80.9391117  29.3589079
  91.9343714  80.6552008  28.4107378  92.7079647  67.0771288  35.4899954
  91.7942726  67.3075515  35.6582161  93.1372748  67.1609733  36.3413987
  92.4786105  75.2661180  37.9899848  91.8257555  75.5137088  37.3352301
  92.8566485  74.4525319  37.6562326  89.4393279  85.3020874  32.0928019
  89.6215673  84.4842530  32.5555771  90.2626265  85.5188566  31.6552909
  89.7735444  84.2289059  29.3543067  90.3023211  83.7181513  28.7413229
  90.0363664  83.9131589  30.2188600  88.5273678  76.0080991  44.4765885
  87.8514315  75.9075121  45.1468261  89.3501312  75.8520205  44.9401883
  80.2752537  82.2452928  37.0978401  80.8605974  81.4996616  37.2306305
  80.0777376  82.5556885  37.9815065  83.1291192  85.2804175  32.1140843
  82.4601568  85.7650303  31.6304883  82.9904062  85.5273396  33.0284222
  87.2696461  87.3147919  38.7123501  87.8214769  87.4779540  39.4772587
  87.6102654  87.9052357  38.0403526  81.7213227  71.7346201  42.9618420
  82.3485266  71.3523279  43.5755945  80.8641146  71.5160403  43.3274113
  92.1207335  82.1409176  44.5672156  92.6647239  82.7539135  44.0727111
  91.5394180  82.6988755  45.0839169  78.4978769  73.5422630  28.8936775
  78.7932211  72.6333309  28.8403829  77.5966805  73.5210370  28.5717778
  90.4064848  85.2629894  35.6987184  90.2815988  84.4619634  35.1898129
  91.0643939  85.7576088  35.2101154  82.0273016  71.6178627  34.8764324
  81.3059602  72.2314595  34.7371797  82.8166272  72.1536392  34.7980970
  92.4699757  83.0638915  37.3266734  91.5230092  82.9444266  37.2545060
  92.8182530  82.1761413  37.4092995  84.8299330  68.9533053  41.1504976
  85.3533732  69.1995350  41.9131285  84.6111663  69.7853088  40.7308113
  80.2266611  71.2236728  29.0176100  79.8979317  70.3434107  28.8351206
  80.5805982  71.1684397  29.9052490  89.4746190  82.8591631  33.5271086
  89.3271152  81.9308338  33.7078656  90.2999683  82.8811721  33.0428161
  83.3408434  71.5109698  29.3851578  83.6804507  72.0395619  28.6630186
  83.7880555  71.8490104  30.1610145  93.0780312  83.6820189  34.6135959
  94.0026859  83.4763051  34.4760410  92.9095615  83.4336591  35.5225300
  86.0351875  69.8946749  38.8354646  85.6948695  69.0954562  39.2375326
  85.3290881  70.1948459  38.2631479  86.6868347  66.9796061  37.2881969
  87.5094416  66.5056539  37.1660859  86.9306410  67.7586545  37.7880655
  85.3276581  70.0084319  27.5844871  86.0484944  70.3865572  27.0808588
  84.7041885  70.7273196  27.6879849  89.4707704  70.7129468  28.5203203
  89.6871319  71.5954106  28.2192031  88.9901771  70.3215682  27.7908845
  84.2106926  73.6715182  35.0973948  84.0651506  73.9855485  35.9898229
  83.7332129  74.2900082  34.5444846  86.0703309  70.6617730  35.1454837
  86.0564877  69.7658823  34.8087135  86.7875737  70.6688393  35.7793123
  87.9229439  71.0955070  37.1907965  87.6647217  72.0172140  37.1892295
  87.3914480  70.6985504  37.8808429  92.8675628  84.2005857  29.9698050
  93.0412506  83.6352279  29.2171903  93.3604519  85.0006752  29.7877540
  78.6852588  76.2120526  38.0361609  78.1406056  76.9880334  38.1681883
  79.5631938  76.5591330  37.8780730  85.4740204  69.5432110  30.4142407
  85.5956116  68.6148756  30.6133295  85.1842247  69.5570796  29.5020723
  88.3431395  67.2287020  33.5509127  88.3653092  67.2926353  32.5961107
  88.7599454  66.3891529  33.7449633  98.7215019  76.9642280  31.5888350
  99.1646165  76.2149605  31.1907473  97.8441529  76.9552416  31.2062082
  93.8550800  83.5172621  27.0694948  94.5501705  84.1379314  27.2882263
  94.1973951  82.6667973  27.3447326  79.4718610  75.3390422  40.9291766
  78.7300346  75.4873058  41.5156396  79.1511354  75.5998688  40.0658515
  95.7542224  80.9672327  28.5982279  96.2793548  81.3059600  27.8731599
  95.6664576  80.0319342  28.4145414  87.4162272  84.8806401  40.7272156
  87.7249399  84.6355547  41.5994855  88.2137754  85.0853039  40.2391026
  87.4382884  87.0344310  32.9577532  86.9987875  86.5420689  33.6510389
  88.1891001  86.4917278  32.7169608  79.9175223  83.2255851  32.9602160
  80.7433243  82.9259623  32.5800804  79.5669275  82.4563473  33.4091949
  84.8856756  82.5782319  35.0299834  84.2636766  81.9153024  34.7302062
  85.5561623  82.6043451  34.3473482  78.1183828  81.1442177  33.9191094
  77.2815737  80.7164352  33.7375095  78.0907474  81.3374621  34.8561885
  84.9581284  71.0564107  44.6232340  85.0069439  71.9326230  44.2410110
  85.5003798  70.5141500  44.0503983  95.4436130  81.6005231  43.9033477
  94.6531673  81.5829369  43.3637977  95.2069484  82.1393524  44.6582514
  95.5634005  78.4497697  41.2166206  95.6132010  78.2847704  42.1581728
  95.4547928  77.5824956  40.8264086  84.4470263  81.1286243  28.5058295
  84.5958384  81.8121707  27.8524967  85.2536707  81.1091333  29.0207750
  92.8537767  74.4328625  42.5325512  93.7547630  74.2935090  42.2409510
  92.9285742  74.5983080  43.4723690  87.1880572  71.8095480  41.3778699
  86.3183882  72.1029046  41.1061287  87.4240053  72.3935925  42.0985962
  97.0652202  80.8694638  41.4608227  96.7737010  81.2324619  42.2971688
  96.4524333  80.1561647  41.2821559  98.2647884  78.4347518  33.9810797
  99.0994775  78.8737322  34.1448358  98.4007013  77.9586171  33.1619043
  95.3139390  75.9927253  39.9288285  95.7893511  76.1854899  39.1207137
  94.3904955  76.0486439  39.6831669  82.2022896  77.1551420  29.5119363
  81.9568938  76.2513750  29.7099574  82.3718811  77.1568571  28.5698841
  89.8919606  68.0275097  38.8944119  90.4101550  68.7636124  38.5690608
  89.5374739  68.3339090  39.7290878  81.4718544  72.8879778  27.0105525
  80.7787789  72.9624133  26.3545561  81.2270296  72.1240121  27.5327042
  90.1432200  64.4475379  34.4145016  90.4233954  63.7798568  35.0405442
  90.9282807  64.6404475  33.9019680  87.9465669  83.6234373  25.9770042
  87.3739636  84.2424560  25.5240514  88.5198463  84.1733735  26.5109964
  94.0141059  72.8693013  38.1616591  94.9658482  72.9691111  38.1828815
  93.8444509  72.0771282  38.6714675  92.0355438  69.9548596  38.3475992
  91.4405370  70.2353609  37.6522480  91.7505135  70.4442497  39.1192733
  91.1662929  83.9071523  27.1078624  92.0993602  83.8417085  27.3111500
  91.0786142  84.7427790  26.6493157  93.7950945  83.2237394  24.0682572
  93.7164577  82.8897257  24.9618330  94.6160612  83.7159161  24.0674044
  96.4929137  76.0899133  37.2758890  96.4605457  75.1515134  37.4618574
  97.1029760  76.1683170  36.5424715  88.3312467  74.9595186  23.3186095
  89.2771572  74.8301394  23.3874513  87.9526712  74.2209848  23.7955523
  96.6423625  72.8810176  37.3217174  96.1262674  72.0968633  37.1347103
  97.5263574  72.5528893  37.4863693  94.3034352  66.6251192  33.2812986
  94.1059173  66.3166280  34.1656318  94.9134058  67.3512831  33.4110916
 102.3105686  77.1515140  36.4164927 103.0409075  76.8900428  36.9772631
 101.7012632  76.4143862  36.4566995 100.3920984  75.2923002  37.0139378
  99.6654147  75.1578967  36.4055870  99.9768270  75.5999831  37.8196096
  88.2151160  79.0112932  44.7786751  89.1354169  79.1891531  44.9726798
  88.1800743  78.0668977  44.6266451  86.5155385  72.8845162  23.2540980
  85.6086840  72.5878275  23.3303693  86.7931366  72.5874980  22.3875266
  81.2113233  76.9213967  37.4209533  81.4299242  77.8531074  37.4397566
  81.6239006  76.5621941  38.2064336  88.1317450  67.4282052  29.4085221
  87.3218179  67.0829137  29.7840467  88.8201867  67.1189596  29.9972833
  90.0607999  66.5060099  31.0309518  90.6139037  66.9255552  31.6899541
  90.2978085  65.5795847  31.0732474  86.0841098  72.4947172  46.8112282
  85.9837825  73.4441529  46.7424373  85.8662640  72.1665411  45.9388352
  85.2854169  69.7432097  23.3952959  86.1473333  70.0686996  23.6548776
  85.4704513  68.9563593  22.8826025  93.4386806  68.6160624  30.5388182
  92.8585475  69.2745428  30.1566234  93.1722738  67.7937968  30.1275599
  91.8890372  68.0165682  32.7409502  92.3890150  68.1282216  31.9323821
  92.5325980  67.7126734  33.3810311  85.9472368  75.9244311  45.6277343
  85.4639450  76.7244671  45.8341232  86.0333307  75.9352256  44.6744787
  79.2158327  77.7572691  33.5499163  79.1929016  77.8560378  32.5981046
  79.5258964  78.6037842  33.8716329  81.8745705  79.8148846  37.6645777
  82.8288959  79.7832788  37.5975709  81.6758229  79.3539470  38.4796003
  82.4645087  78.3849962  40.2316575  83.2837976  78.8794041  40.2551412
  82.7381895  77.4681930  40.2034142  92.2211684  70.7760714  29.5944530
  91.3337539  71.0610365  29.3764725  92.6365673  70.6154478  28.7471807
  95.5726220  70.8007235  33.3098869  96.3486610  71.2903688  33.5823486
  94.8474354  71.2265289  33.7670739  98.0098778  71.5134854  34.3672810
  98.6043269  71.2730590  33.6566118  98.0825362  70.7941985  34.9946346
  80.2295934  85.3568465  34.6815975  80.0950402  84.5968866  34.1153973
  79.8127996  86.0809365  34.2144764  91.3654897  80.5405389  23.6892550
  92.0690747  80.7455391  24.3050206  90.6417546  81.1082151  23.9541634
  92.1952707  76.2915250  29.8094820  92.1387909  76.7483802  28.9702453
  92.7481050  75.5305935  29.6317663  96.0057513  72.0804982  30.6344940
  95.7494448  71.6801618  31.4653148  95.3810381  72.7948776  30.5095079
 100.3169851  74.8201055  33.1416231  99.7569409  74.8894245  33.9147793
  99.7113355  74.6442040  32.4215727  83.3865060  86.2537782  34.8934418
  83.2697444  87.1983215  34.7913108  82.5657506  85.9511344  35.2820217
  93.2741595  80.9787918  25.7391010  94.1087198  80.5469117  25.5568485
  93.1125937  80.8069932  26.6667905  92.9287487  77.4820031  27.1047350
  92.8736291  77.3164303  26.1635794  92.3033542  78.1896064  27.2609539
  77.7180002  72.7188096  40.9308772  78.3638865  72.2087050  41.4195997
  77.5097153  73.4556777  41.5052197  90.2433394  79.7868943  46.4300912
  91.1124554  79.9609596  46.0687547  89.7640145  80.6063360  46.3076642
  86.2383612  66.9828140  26.6832668  86.2262282  67.9269980  26.8400939
  87.1307034  66.7998286  26.3892129  84.4119574  86.9066044  38.1090346
  85.3146821  86.9389655  38.4256841  84.1856944  85.9766495  38.1236682
  86.1673176  85.6597031  34.7700425  85.2168807  85.6598892  34.6564797
  86.4705662  84.9129765  34.2536459  90.0535732  63.5770917  30.9378605
  89.2868127  63.0229404  31.0835287  90.4646437  63.6492786  31.7992756
  82.0577493  69.8655713  45.0283786  82.9208954  69.5092518  45.2387111
  81.4842903  69.5269608  45.7159190 101.9025870  91.4957569  35.8346187
 102.5404280  91.3764317  35.1309527 101.7846713  92.4438413  35.8934139
  98.7115576  91.4484997  35.7707712  98.3734087  91.3326062  34.8828247
  99.5805344  91.0476162  35.7508718  94.5702392  93.3020474  31.7604603
  94.0067257  93.2110411  30.9920890  94.4554787  92.4820378  32.2407095
  99.1935359  92.6019849  41.7293917  99.1824000  92.2072647  40.8574421
  99.3555998  91.8685922  42.3227689  92.1166824  94.7971665  34.5988823
  92.9088115  94.4562490  34.1835122  92.3563474  94.9066640  35.5190976
 100.1501950  96.9691441  27.0719068  99.4989930  97.5545522  26.6853081
 100.9446313  97.4997636  27.1314105  94.0757578  94.0580579  27.4706202
  94.8488454  93.5109566  27.3319078  94.4282976  94.9224828  27.6820663
  95.9142620  95.3856961  40.6773101  95.6232486  96.2902592  40.5619767
  96.5499604  95.4273488  41.3917171  96.8398827  92.7633809  37.2674461
  97.4362399  92.5389832  36.5531424  96.8973798  92.0218555  37.8699909
  96.4123855  90.2173245  25.1024652  96.6649376  89.6954766  24.3408115
  95.4748414  90.0539390  25.2051335 101.4567138  89.2209023  32.9099395
 102.2430227  88.8028446  32.5589812 101.7205842  90.1255115  33.0781043
 101.6277215  94.6581873  27.6088052 100.9923048  94.7316500  28.3208956
 101.2974622  95.2475472  26.9307131 106.8575565  89.1584256  33.8132374
 107.5900737  88.5883473  34.0470203 106.1014921  88.7705857  34.2538879
  96.1320144  92.1201351  27.3049027  96.0156402  91.4446254  27.9730111
  96.2422404  91.6333725  26.4881180  98.4751685  91.5811498  31.0095716
  98.1109892  91.0542119  31.7208637  99.3318801  91.1909967  30.8362201
 104.3800986  82.8705830  38.2726982 104.0484310  83.7401241  38.0488197
 103.7846599  82.5542114  38.9521013  98.1157172  86.6101397  26.0057065
  98.2831574  87.4781634  26.3727536  97.9254341  86.7728679  25.0818354
 100.8732505  95.0718376  37.6722895 100.5733228  95.9743415  37.5638702
 100.5283565  94.8050560  38.5244048  94.3244987  91.5232173  33.7059599
  93.3995483  91.3908387  33.9137291  94.5729400  92.3026392  34.2029542
 104.2729649  87.5900917  35.3520332 103.3646526  87.5216325  35.0579093
 104.2217245  88.0672861  36.1802158  98.0946393  89.0659055  26.9903731
  97.9746018  89.5116106  27.8289212  97.3998981  89.4144373  26.4317269
  91.6853798  91.1665447  34.5403388  91.8146179  91.4199926  35.4542800
  91.0051249  91.7593155  34.2208043  95.8553285 101.8362697  30.6393863
  95.7777315 102.7870522  30.7182343  95.2514929 101.4908569  31.2968789
  98.3470515  89.0090562  43.2955229  97.5703849  89.5684482  43.2858094
  98.9861078  89.4947345  43.8170100 106.1391295  85.7917355  37.1298206
 105.4965676  86.0849888  36.4838001 105.6346224  85.6770275  37.9351403
 103.7931459  89.5380528  27.8184065 104.7049315  89.7707915  27.6431763
 103.2841106  90.1217572  27.2559144  96.6016887  91.8176015  42.8573196
  97.3431571  92.3561059  42.5808020  95.8953873  92.4442304  43.0144748
 102.0772227  93.9605156  41.4545358 102.4855583  93.5187566  40.7099990
 101.3549488  93.3857783  41.7079551  98.4303297  88.8977763  38.8278915
  99.2764492  89.3217176  38.9713564  98.3701934  88.2411387  39.5217478
 102.4001041  94.5206347  35.2097647 101.7709904  94.6852061  34.5073715
 102.0126703  94.9347956  35.9808611 106.2790273  95.4560784  32.5642011
 105.5941311  95.8359686  32.0139044 106.3634123  96.0656111  33.2973958
 101.5802742  86.5582131  40.4860089 101.3363674  87.3124192  39.9494364
 101.8562673  86.9367479  41.3207336 103.5341205  93.1020743  39.1637354
 103.7458100  93.7452503  38.4871735 103.4870953  92.2683060  38.6959284
 101.1367434  85.7138564  36.0673926 100.2751913  86.0119818  36.3590664
 101.1629868  85.9308963  35.1354959  97.9529003  94.2580755  32.4747732
  98.4167349  94.5368458  31.6852354  97.6885801  93.3564199  32.2920823
  94.8453084  93.8052236  35.4127495  95.4154441  94.2339505  34.7744980
  95.4361196  93.5234821  36.1111681  96.8897889  90.3803907  29.2837297
  97.5921933  90.8324951  29.7511223  96.5578518  89.7387726  29.9117190
  95.3378251  88.9715664  43.6588506  94.7076911  89.6531945  43.8923903
  95.2314339  88.8598745  42.7141645  90.6323223  88.6387460  34.5854431
  89.8422277  88.8944988  34.1094541  91.1234471  89.4535798  34.6906471
 104.6487033  95.9792699  37.3359711 105.4704476  95.5772886  37.0542393
 104.6449436  95.8760933  38.2875827  92.5837969  89.0032039  31.5437907
  91.7869132  89.1150733  32.0621403  92.3563561  89.3418691  30.6778798
  98.4143636  95.5276742  39.4920422  98.4788069  95.9897149  40.3278594
  97.7054560  94.8974107  39.6202732  88.9160926  88.8917950  37.0169421
  89.1668965  89.7764960  37.2826997  89.4520475  88.7122552  36.2444513
 112.7393026  92.3231447  33.6844683 111.9856734  91.7538845  33.5288687
 112.8740567  92.2894112  34.6315318  98.1291654  97.1944850  29.3599402
  97.9937329  98.0396385  29.7884250  98.6701466  97.3964127  28.5965336
  94.6158994  83.2736430  46.0213758  94.2225939  82.7202628  46.6961402
  95.4325134  83.5847008  46.4120275  91.5821051  94.7120288  29.9327327
  92.0945572  95.5063538  30.0832892  92.2343764  94.0146578  29.8660929
  93.3915936  97.8286044  32.0150081  93.5682564  98.7504009  31.8271064
  94.1872769  97.5144463  32.4444460  97.5326955  84.6894309  43.6134014
  98.2736668  85.2901462  43.5338477  97.7644877  83.9471946  43.0552057
  92.6768293  89.8750676  41.8912244  92.5621808  88.9735933  42.1919343
  91.8212810  90.1214373  41.5397060  99.7560130  97.8168416  43.4899744
  99.3123984  97.0304795  43.1720649 100.4177344  98.0047567  42.8243635
  94.5147251  99.3464218  38.0160423  95.0654677  99.2181281  37.2437417
  93.6758727  99.6459107  37.6655316 101.8541368  98.0971216  41.5181146
 101.8359844  98.9180097  41.0261415 102.7761288  97.9725291  41.7431287
  98.3114422  95.6115346  42.3604654  98.8442759  94.8503634  42.1303962
  97.7828504  95.3188997  43.1028808 101.4784117  80.7175412  37.8898296
 101.1348387  81.6077053  37.8137406 101.8463080  80.5277069  37.0267881
  89.5469968  93.0408942  30.7086898  90.3845190  93.4505950  30.4920606
  89.7248236  92.1008384  30.6787092 101.4434400  90.7084023  26.3970731
 100.9281024  91.4788627  26.6359118 101.1711709  90.0349159  27.0203792
  99.0281511  85.5533723  31.4555969  98.1723108  85.1640574  31.2761608
  99.4408463  85.6325684  30.5955755 100.5580658  83.0880067  35.8547529
 100.0545453  83.0510202  35.0415334 100.8511265  83.9972809  35.9144186
  96.8023544  83.1718796  34.8613711  97.6676540  82.9761605  34.5019600
  96.8701053  82.9429148  35.7883067 106.4168674  93.4616377  28.3323904
 105.6398117  93.1227537  27.8879066 107.0960155  93.4669000  27.6578869
 101.2320703  88.5811115  28.2230512 100.9270839  88.8957264  29.0740655
 102.1851145  88.6592535  28.2657845  99.6767135  94.7401338  29.8723466
  99.1488497  94.0054098  29.5596703  99.1754638  95.5176014  29.6263434
 104.6559981  92.9350359  34.9890512 103.9983656  93.6249620  35.0770641
 105.4600380  93.3246790  35.3324499  94.4085863  85.4021004  32.2330078
  94.9829615  85.1796186  31.5003270  94.9956845  85.4709699  32.9858679
 103.4665440  91.2894731  33.0394454 103.9797322  91.9224723  33.5416164
 104.1166664  90.6895927  32.6737814  94.7355450  87.4325465  26.2525963
  93.8992762  87.7700152  26.5735238  94.5960220  87.2974445  25.3153100
  96.7108531  82.2762253  30.9605147  96.0572943  81.9611270  30.3361762
  96.6689005  81.6537994  31.6864970  97.8219735  92.5581548  22.8758439
  96.9146797  92.3270802  23.0749588  98.3190767  91.7619168  23.0632421
  99.9446271  88.7644187  35.2852795  99.0268832  88.9859134  35.1274483
 100.3606414  88.8390497  34.4264502 100.7281319  90.1635602  30.4155475
 101.4753138  90.6757000  30.1062597 100.9972908  89.8419655  31.2759868
  99.0007969  92.6594143  27.3982429  98.0919188  92.3753176  27.4954899
  99.0303053  93.0793222  26.5385736 104.2327236  96.2700733  31.1673597
 103.7789563  95.4291643  31.2238787 103.6021203  96.9062131  31.5048377
 103.1760156  87.1992719  32.3974264 102.4382913  86.6870105  32.7284507
 103.4286929  86.7593100  31.5857541 102.6760175  98.1077229  32.1023415
 102.9683150  98.6682286  31.3835780 103.1858796  98.4005790  32.8576574
 103.2771783  79.9768971  32.9916033 103.5830660  79.1166334  32.7041949
 104.0024388  80.5686591  32.7915027  89.5696139  90.3799657  31.3797631
  89.3720539  89.7869018  30.6548698  89.0142803  90.0751868  32.0973570
  97.5492863  90.2722764  33.4992225  97.6041473  89.3196600  33.4234701
  96.7384065  90.4282203  33.9833523  98.6984057  94.2002887  24.7370508
  98.2603487  93.4838746  24.2776145  99.4394497  94.4279002  24.1755599
  95.4885223  88.8899824  31.2582603  94.6753088  89.1893994  31.6647796
  95.9844217  88.4955512  31.9757086  97.6393801  98.8857580  33.1916868
  97.5969979  99.1118427  32.2625400  98.5556500  98.6520955  33.3402669
 101.0859434  89.3541648  40.0897497 101.4408822  89.5813121  40.9491963
 101.7331566  89.6860025  39.4674753 106.8157171  92.4760084  30.7946826
 106.6775070  92.6661680  29.8668016 106.4593390  93.2379467  31.2514877
  94.9799298  86.4618179  36.8743838  95.6198677  86.3206938  36.1766802
  94.1476828  86.1752692  36.4982440 106.8426551  94.5436611  35.8058098
 107.2763058  94.4511900  36.6541152 107.5558132  94.5194111  35.1678114
  95.7559601  95.7620609  32.9878831  96.5500200  95.2670930  32.7861406
  95.0451294  95.2338473  32.6246536 100.5754446  98.1438705  37.3391198
 100.6291468  98.7129641  38.1068914  99.7069227  98.3140590  36.9745236
  92.0642365  89.9063691  29.0638583  91.1339953  89.8448147  29.2808546
  92.1599837  89.3839644  28.2675225  91.9827914  86.4318504  31.6516825
  92.2434731  87.3463837  31.5425986  92.8045086  85.9642947  31.8013438
  93.4552839  87.8456261  38.8215650  94.1275893  87.6373623  38.1728299
  92.6282626  87.6478347  38.3820882 107.7042101  94.5860312  38.3390983
 107.8977991  95.4906122  38.5850258 107.6042719  94.1267731  39.1729568
  99.3578411  84.4718202  40.8381311  98.7106326  85.1708152  40.7445787
 100.1279427  84.9054346  41.2057559 102.7657209  94.7367054  43.9131864
 102.6142716  94.5077606  42.9961948 102.7561889  95.6937656  43.9263209
  99.5342546  92.3098967  38.8978130 100.4634606  92.4610127  38.7247098
  99.1133576  92.3982988  38.0426777  98.3330877  96.3349631  36.6676668
  98.1941963  95.9668416  37.5402606  97.5445474  96.8497271  36.4960626
  98.9279029 101.4358728  28.0102204  99.1030785 100.9646771  28.8247827
  98.2411817 102.0624494  28.2383465  99.8836093  95.7131234  34.0565506
  99.5485925  95.6732004  34.9523156  99.3840038  95.0475950  33.5835916
  93.8580337  91.1198864  39.5818087  93.7200134  90.3879103  40.1829626
  94.7685260  91.0307764  39.3002275 102.8195284  93.0587269  24.3302565
 102.2024455  92.3334097  24.2335618 102.3511773  93.8196629  23.9869640
  96.4862637  90.8318824  39.0701766  97.1962256  90.1912016  39.0288385
  96.4431945  91.0831718  39.9927947 104.4749416  97.7686177  41.9908346
 104.4161962  97.0845397  41.3238929 104.8768934  98.5105167  41.5388972
  95.1991571  87.8184041  40.8897406  94.6628928  87.3674780  41.5419002
  94.6108280  87.9529950  40.1467870  93.4940115 104.5848091  34.7842065
  93.7336713 105.2166615  35.4621083  92.6509311 104.2336131  35.0707424
  94.6093830  87.2772693  23.4523870  93.7323296  87.1561494  23.0886116
  95.0851583  86.4858771  23.2002758 104.4766823  95.7325761  40.2222325
 103.5893602  95.3951683  40.3448724 105.0465374  95.0008792  40.4591091
  86.1295970  92.0649853  33.5465377  86.8167010  91.7511583  32.9586392
  85.9744099  92.9691217  33.2732628  90.9330692  86.9540049  37.9750400
  90.8488881  86.3465719  37.2400810  90.1113399  87.4449067  37.9759897
  98.0067977 100.3927213  37.1883569  97.9338148 101.1982185  37.7002873
  97.5645370 100.5919179  36.3631590  97.7957756  99.6298983  30.6986390
  97.0125278 100.1720663  30.7924615  98.4950501 100.1472963  31.0980631
 101.1054406  85.4393613  33.3420595 101.6023106  84.6863575  33.0221666
 100.3341388  85.4757929  32.7763805 108.9584164  91.1433978  34.9838887
 108.9474040  92.0258694  34.6132820 108.0901543  90.7905529  34.7893424
 100.4666660 100.2914047  39.3441727 101.1794632 100.9261512  39.2717629
  99.9756689 100.3877913  38.5281729 102.1884187  94.1965300  30.9159019
 101.2540466  94.3166762  30.7463723 102.3660855  93.2937767  30.6519029
  97.6889375  87.5810996  33.0692280  97.3187163  87.0282036  33.7573186
  98.1848467  86.9769129  32.5167280 105.5756738  90.0382619  31.4509053
 106.0417191  90.8710611  31.3769356 106.0264239  89.5727601  32.1554312
  95.5178574  98.0408491  40.1647298  96.2188033  98.6744974  40.3176692
  95.0473689  98.3823222  39.4042937 103.6432969  96.3826440  28.4495205
 103.9192813  96.2683035  29.3589079 102.7737468  95.9843925  28.4107378
 103.5473401  82.4063206  35.4899954 102.6336481  82.6367433  35.6582161
 103.9766503  82.4901650  36.3413987 103.3179860  90.5953098  37.9899848
 102.6651310  90.8429006  37.3352301 103.6960239  89.7817236  37.6562326
 100.2787033 100.6312791  32.0928019 100.4609428  99.8134447  32.5555771
 101.1020019 100.8480484  31.6552909 100.6129199  99.5580976  29.3543067
 101.1416965  99.0473431  28.7413229 100.8757419  99.2423507  30.2188600
  99.3667433  91.3372909  44.4765885  98.6908070  91.2367038  45.1468261
 100.1895066  91.1812123  44.9401883  91.1146292  97.5744846  37.0978401
  91.6999728  96.8288534  37.2306305  90.9171130  97.8848802  37.9815065
  93.9684947 100.6096093  32.1140843  93.2995322 101.0942221  31.6304883
  93.8297817 100.8565314  33.0284222  85.7063946  90.1450446  35.8182844
  85.7448046  89.6114037  36.6119962  85.2004239  89.6185651  35.1993821
  98.1090215 102.6439837  38.7123501  98.6608523 102.8071458  39.4772587
  98.4496409 103.2344274  38.0403526  93.0854709  84.9914986  39.3145386
  93.1496035  85.8529817  38.9022784  93.0221829  84.3788988  38.5817745
  92.5606981  87.0638119  42.9618420  93.1879020  86.6815196  43.5755945
  91.7034900  86.8452321  43.3274113 102.9601090  97.4701094  44.5672156
 103.5040994  98.0831052  44.0727111 102.3787935  98.0280673  45.0839169
  89.3372524  88.8714548  28.8936775  89.6325965  87.9625226  28.8403829
  88.4360560  88.8502288  28.5717778 101.2458603 100.5921812  35.6987184
 101.1209742  99.7911552  35.1898129 101.9037694 101.0868005  35.2101154
  92.8666771  86.9470545  34.8764324  92.1453357  87.5606512  34.7371797
  93.6560027  87.4828309  34.7980970 103.3093511  98.3930832  37.3266734
 102.3623847  98.2736183  37.2545060 103.6576284  97.5053330  37.4092995
  95.6693084  84.2824971  41.1504976  96.1927486  84.5287268  41.9131285
  95.4505418  85.1145006  40.7308113  91.0660366  86.5528646  29.0176100
  90.7373072  85.6726025  28.8351206  91.4199736  86.4976314  29.9052490
 100.3139944  98.1883548  33.5271086 100.1664907  97.2600256  33.7078656
 101.1393438  98.2103639  33.0428161  94.1802189  86.8401616  29.3851578
  94.5198261  87.3687537  28.6630186  94.6274309  87.1782022  30.1610145
 103.9174066  99.0112107  34.6135959 104.8420614  98.8054969  34.4760410
 103.7489370  98.7628508  35.5225300  96.8745630  85.2238666  38.8354646
  96.5342450  84.4246479  39.2375326  96.1684636  85.5240377  38.2631479
  97.5262101  82.3087979  37.2881969  98.3488171  81.8348457  37.1660859
  97.7700165  83.0878462  37.7880655  96.1670336  85.3376237  27.5844871
  96.8878698  85.7157490  27.0808588  95.5435640  86.0565114  27.6879849
 100.3101459  86.0421386  28.5203203 100.5265073  86.9246024  28.2192031
  99.8295526  85.6507599  27.7908845  95.0500680  89.0007099  35.0973948
  94.9045261  89.3147402  35.9898229  94.5725884  89.6192000  34.5444846
  96.9097063  85.9909647  35.1454837  96.8958632  85.0950741  34.8087135
  97.6269491  85.9980311  35.7793123  98.7623194  86.4246987  37.1907965
  98.5040972  87.3464058  37.1892295  98.2308234  86.0277422  37.8808429
 103.7069382  99.5297775  29.9698050 103.8806260  98.9644197  29.2171903
 104.1998274 100.3298669  29.7877540  89.5246342  91.5412444  38.0361609
  88.9799810  92.3172252  38.1681883  90.4025692  91.8883248  37.8780730
  96.3133959  84.8724028  30.4142407  96.4349870  83.9440674  30.6133295
  96.0236001  84.8862714  29.5020723  99.1825149  82.5578938  33.5509127
  99.2046846  82.6218271  32.5961107  99.5993208  81.7183447  33.7449633
 109.5608774  92.2934198  31.5888350 110.0039920  91.5441523  31.1907473
 108.6835284  92.2844334  31.2062082 104.6944555  98.8464539  27.0694948
 105.3895460  99.4671232  27.2882263 105.0367705  97.9959890  27.3447326
  90.3112364  90.6682340  40.9291766  89.5694100  90.8164975  41.5156396
  89.9905108  90.9290606  40.0658515 106.5935978  96.2964245  28.5982279
 107.1187302  96.6351517  27.8731599 106.5058331  95.3611260  28.4145414
  98.2556027 100.2098318  40.7272156  98.5643153  99.9647465  41.5994855
  99.0531509 100.4144957  40.2391026  98.2776639 102.3636228  32.9577532
  97.8381629 101.8712607  33.6510389  99.0284756 101.8209195  32.7169608
  90.7568978  98.5547769  32.9602160  91.5826998  98.2551541  32.5800804
  90.4063030  97.7855391  33.4091949  95.7250511  97.9074237  35.0299834
  95.1030520  97.2444942  34.7302062  96.3955378  97.9335369  34.3473482
  88.9577583  96.4734095  33.9191094  88.1209491  96.0456270  33.7375095
  88.9301228  96.6666538  34.8561885  95.7975038  86.3856025  44.6232340
  95.8463194  87.2618148  44.2410110  96.3397553  85.8433418  44.0503983
 106.2829884  96.9297148  43.9033477 105.4925428  96.9121287  43.3637977
 106.0463239  97.4685442  44.6582514 106.4027759  93.7789615  41.2166206
 106.4525764  93.6139622  42.1581728 106.2941683  92.9116874  40.8264086
  95.2864018  96.4578160  28.5058295  95.4352138  97.1413625  27.8524967
  96.0930461  96.4383250  29.0207750 103.6931522  89.7620543  42.5325512
 104.5941384  89.6227007  42.2409510 103.7679496  89.9274997  43.4723690
  98.0274327  87.1387397  41.3778699  97.1577636  87.4320963  41.1061287
  98.2633807  87.7227842  42.0985962 107.9045956  96.1986556  41.4608227
 107.6130764  96.5616537  42.2971688 107.2918087  95.4853564  41.2821559
 109.1041638  93.7639436  33.9810797 109.9388530  94.2029240  34.1448358
 109.2400767  93.2878089  33.1619043 106.1533144  91.3219171  39.9288285
 106.6287266  91.5146817  39.1207137 105.2298710  91.3778357  39.6831669
  93.0416651  92.4843338  29.5119363  92.7962693  91.5805668  29.7099574
  93.2112565  92.4860488  28.5698841 100.7313361  83.3567014  38.8944119
 101.2495305  84.0928041  38.5690608 100.3768494  83.6631008  39.7290878
  92.3112298  88.2171695  27.0105525  91.6181543  88.2916050  26.3545561
  92.0664050  87.4532039  27.5327042 100.9825955  79.7767297  34.4145016
 101.2627709  79.1090486  35.0405442 101.7676562  79.9696392  33.9019680
  98.7859423  98.9526291  25.9770042  98.2133391  99.5716478  25.5240514
  99.3592217  99.5025652  26.5109964 104.8534813  88.1984931  38.1616591
 105.8052236  88.2983028  38.1828815 104.6838264  87.4063199  38.6714675
 102.8749193  85.2840514  38.3475992 102.2799125  85.5645527  37.6522480
 102.5898889  85.7734415  39.1192733 102.0056683  99.2363441  27.1078624
 102.9387356  99.1709003  27.3111500 101.9179896 100.0719708  26.6493157
 107.3322891  91.4191050  37.2758890 107.2999211  90.4807051  37.4618574
 107.9423515  91.4975087  36.5424715  99.1706222  90.2887103  23.3186095
 100.1165327  90.1593312  23.3874513  98.7920467  89.5501765  23.7955523
 107.4817380  88.2102094  37.3217174 106.9656428  87.4260551  37.1347103
 108.3657328  87.8820811  37.4863693 105.1428106  81.9543109  33.2812986
 104.9452928  81.6458198  34.1656318 105.7527812  82.6804748  33.4110916
 113.1499441  92.4807057  36.4164927 113.8802829  92.2192345  36.9772631
 112.5406386  91.7435779  36.4566995 111.2314738  90.6214920  37.0139378
 110.5047902  90.4870885  36.4055870 110.8162025  90.9291749  37.8196096
  99.0544914  94.3404850  44.7786751  99.9747924  94.5183449  44.9726798
  99.0194497  93.3960895  44.6266451  97.3549139  88.2137080  23.2540980
  96.4480594  87.9170193  23.3303693  97.6325120  87.9166898  22.3875266
  88.2727079  89.5343443  33.7040026  87.9529864  88.6808751  33.4114400
  87.7260508  89.7492021  34.4597993  92.0506987  92.2505884  37.4209533
  92.2692997  93.1822992  37.4397566  92.4632761  91.8913859  38.2064336
  98.9711205  82.7573970  29.4085221  98.1611933  82.4121055  29.7840467
  99.6595622  82.4481513  29.9972833 100.9001753  81.8352016  31.0309518
 101.4532792  82.2547470  31.6899541 101.1371839  80.9087764  31.0732474
  96.9234852  87.8239090  46.8112282  96.8231579  88.7733447  46.7424373
  96.7056394  87.4957329  45.9388352  96.1247924  85.0724015  23.3952959
  96.9867088  85.3978913  23.6548776  96.3098268  84.2855511  22.8826025
  88.1415339  93.1546355  35.6733148  87.4478811  92.7400308  35.1603102
  88.8888330  93.1966891  35.0766567 104.2780560  83.9452542  30.5388182
 103.6979229  84.6037346  30.1566234 104.0116493  83.1229886  30.1275599
 102.7284127  83.3457599  32.7409502 103.2283905  83.4574134  31.9323821
 103.3719734  83.0418652  33.3810311  96.7866122  91.2536229  45.6277343
  96.3033204  92.0536589  45.8341232  96.8727061  91.2644174  44.6744787
  90.0552082  93.0864609  33.5499163  90.0322770  93.1852296  32.5981046
  90.3652718  93.9329759  33.8716329  92.7139460  95.1440764  37.6645777
  93.6682713  95.1124706  37.5975709  92.5151983  94.6831387  38.4796003
  93.3038842  93.7141880  40.2316575  94.1231731  94.2085958  40.2551412
  93.5775650  92.7973848  40.2034142 103.0605438  86.1052632  29.5944530
 102.1731293  86.3902283  29.3764725 103.4759427  85.9446395  28.7471807
 106.4119974  86.1299153  33.3098869 107.1880364  86.6195605  33.5823486
 105.6868108  86.5557207  33.7670739 108.8492533  86.8426772  34.3672810
 109.4437024  86.6022508  33.6566118 108.9219117  86.1233903  34.9946346
  91.0689689 100.6860383  34.6815975  90.9344157  99.9260784  34.1153973
  90.6521751 101.4101283  34.2144764 103.0346462  91.6207168  29.8094820
 102.9781663  92.0775719  28.9702453 103.5874804  90.8597852  29.6317663
 106.8451268  87.4096900  30.6344940 106.5888202  87.0093535  31.4653148
 106.2204136  88.1240694  30.5095079 111.1563606  90.1492973  33.1416231
 110.5963164  90.2186162  33.9147793 110.5507109  89.9733958  32.4215727
  94.2258815 101.5829700  34.8934418  94.1091199 102.5275133  34.7913108
  93.4051261 101.2803262  35.2820217 104.1135349  96.3079836  25.7391010
 104.9480953  95.8761034  25.5568485 103.9519692  96.1361849  26.6667905
 103.7681241  92.8111949  27.1047350 103.7130045  92.6456221  26.1635794
 103.1427297  93.5187982  27.2609539  88.5573756  88.0480013  40.9308772
  89.2032620  87.5378967  41.4195997  88.3490907  88.7848695  41.5052197
 101.0827148  95.1160861  46.4300912 101.9518308  95.2901513  46.0687547
 100.6033900  95.9355278  46.3076642  97.0777367  82.3120058  26.6832668
  97.0656037  83.2561898  26.8400939  97.9700789  82.1290204  26.3892129
  95.2513329 102.2357962  38.1090346  96.1540575 102.2681572  38.4256841
  95.0250699 101.3058413  38.1236682  97.0066931 100.9888949  34.7700425
  96.0562562 100.9890810  34.6564797  97.3099417 100.2421683  34.2536459
 100.8929486  78.9062835  30.9378605 100.1261882  78.3521321  31.0835287
 101.3040191  78.9784703  31.7992756  92.8971247  85.1947631  45.0283786
  93.7602709  84.8384435  45.2387111  92.3236658  84.8561525  45.7159190
 112.7419624 106.8249487  35.8346187 113.3798034 106.7056234  35.1309527
 112.6240467 107.7730331  35.8934139 109.5509330 106.7776915  35.7707712
 109.2127842 106.6617980  34.8828247 110.4199099 106.3768080  35.7508718
 110.0329113 107.9311767  41.7293917 110.0217754 107.5364565  40.8574421
 110.1949753 107.1977839  42.3227689 102.9560578 110.1263583  34.5988823
 103.7481870 109.7854408  34.1835122 103.1957228 110.2358558  35.5190976
 106.7536375 110.7148879  40.6773101 106.4626241 111.6194509  40.5619767
 107.3893359 110.7565406  41.3917171 107.6792581 108.0925727  37.2674461
 108.2756154 107.8681749  36.5531424 107.7367553 107.3510473  37.8699909
 115.2194740  98.1997748  38.2726982 114.8878065  99.0693159  38.0488197
 114.6240354  97.8834032  38.9521013 105.1638741 106.8524091  33.7059599
 104.2389238 106.7200305  33.9137291 105.4123154 107.6318310  34.2029542
 115.1123403 102.9192834  35.3520332 114.2040281 102.8508243  35.0579093
 115.0610999 103.3964779  36.1802158 102.5247552 106.4957364  34.5403388
 102.6539933 106.7491843  35.4542800 101.8445003 107.0885072  34.2208043
 109.1864269 104.3382480  43.2955229 108.4097603 104.8976400  43.2858094
 109.8254832 104.8239263  43.8170100 116.9785050 101.1209273  37.1298206
 116.3359430 101.4141806  36.4838001 116.4739978 101.0062193  37.9351403
 107.4410642 107.1467933  42.8573196 108.1825326 107.6852977  42.5808020
 106.7347627 107.7734222  43.0144748 112.9165981 109.2897074  41.4545358
 113.3249337 108.8479484  40.7099990 112.1943243 108.7149701  41.7079551
 109.2697051 104.2269680  38.8278915 110.1158246 104.6509094  38.9713564
 109.2095689 103.5703305  39.5217478 112.4196497 101.8874049  40.4860089
 112.1757428 102.6416109  39.9494364 112.6956427 102.2659396  41.3207336
 111.9761188 101.0430482  36.0673926 111.1145667 101.3411735  36.3590664
 112.0023623 101.2600881  35.1354959 105.6846839 109.1344154  35.4127495
 106.2548196 109.5631422  34.7744980 106.2754951 108.8526739  36.1111681
 106.1772005 104.3007581  43.6588506 105.5470666 104.9823862  43.8923903
 106.0708093 104.1890663  42.7141645 101.4716978 103.9679377  34.5854431
 100.6816032 104.2236906  34.1094541 101.9628225 104.7827715  34.6906471
 103.4231723 104.3323957  31.5437907 102.6262886 104.4442651  32.0621403
 103.1957315 104.6710609  30.6778798 109.2537391 110.8568660  39.4920422
 109.3181823 111.3189067  40.3278594 108.5448315 110.2266025  39.6202732
  99.7554681 104.2209868  37.0169421 100.0062719 105.1056878  37.2826997
 100.2914229 104.0414469  36.2444513 105.4552748  98.6028347  46.0213758
 105.0619694  98.0494546  46.6961402 106.2718888  98.9138926  46.4120275
 108.3720709 100.0186226  43.6134014 109.1130422 100.6193379  43.5338477
 108.6038632  99.2763864  43.0552057 103.5162047 105.2042594  41.8912244
 103.4015562 104.3027851  42.1919343 102.6606565 105.4506290  41.5397060
 105.3541006 114.6756135  38.0160423 105.9048431 114.5473199  37.2437417
 104.5152482 114.9751024  37.6655316 109.1508177 110.9407263  42.3604654
 109.6836514 110.1795551  42.1303962 108.6222258 110.6480915  43.1028808
 112.3177872  96.0467329  37.8898296 111.9742141  96.9368971  37.8137406
 112.6856835  95.8568987  37.0267881 109.8675266 100.8825641  31.4555969
 109.0116862 100.4932492  31.2761608 110.2802217 100.9617602  30.5955755
 111.3974412  98.4171984  35.8547529 110.8939208  98.3802120  35.0415334
 111.6905019  99.3264727  35.9144186 107.6417298  98.5010714  34.8613711
 108.5070295  98.3053523  34.5019600 107.7094807  98.2721066  35.7883067
 105.2479617 100.7312922  32.2330078 105.8223369 100.5088104  31.5003270
 105.8350600 100.8001617  32.9858679 107.5502285  97.6054171  30.9605147
 106.8966697  97.2903188  30.3361762 107.5082759  96.9829911  31.6864970
 110.7840025 104.0936104  35.2852795 109.8662587 104.3151051  35.1274483
 111.2000169 104.1682415  34.4264502 114.1165538  95.3060888  32.9916033
 114.4224414  94.4458252  32.7041949 114.8418142  95.8978509  32.7915027
 100.4089894 105.7091575  31.3797631 100.2114293 105.1160936  30.6548698
  99.8536558 105.4043785  32.0973570 108.3886617 105.6014681  33.4992225
 108.4435227 104.6488518  33.4234701 107.5777819 105.7574121  33.9833523
 106.3278977 104.2191741  31.2582603 105.5146843 104.5185912  31.6647796
 106.8237971 103.8247430  31.9757086 111.9253189 104.6833566  40.0897497
 112.2802577 104.9105039  40.9491963 112.5725320 105.0151942  39.4674753
 105.8193052 101.7910097  36.8743838 106.4592431 101.6498856  36.1766802
 104.9870583 101.5044610  36.4982440 102.8221668 101.7610422  31.6516825
 103.0828486 102.6755755  31.5425986 103.6438841 101.2934864  31.8013438
 104.2946594 103.1748179  38.8215650 104.9669647 102.9665541  38.1728299
 103.4676380 102.9770265  38.3820882 110.1972166  99.8010120  40.8381311
 109.5500081 100.5000069  40.7445787 110.9673181 100.2346264  41.2057559
 110.3736300 107.6390885  38.8978130 111.3028360 107.7902044  38.7247098
 109.9527330 107.7274906  38.0426777 109.1724632 111.6641549  36.6676668
 109.0335718 111.2960334  37.5402606 108.3839228 112.1789189  36.4960626
 104.6974091 106.4490782  39.5818087 104.5593889 105.7171021  40.1829626
 105.6079014 106.3599682  39.3002275 107.3256392 106.1610741  39.0701766
 108.0356010 105.5203933  39.0288385 107.2825700 106.4123636  39.9927947
 106.0385326 103.1475959  40.8897406 105.5022683 102.6966698  41.5419002
 105.4502034 103.2821868  40.1467870  96.9689725 107.3941770  33.5465377
  97.6560765 107.0803500  32.9586392  96.8137853 108.2983135  33.2732628
 101.7724447 102.2831967  37.9750400 101.6882636 101.6757636  37.2400810
 100.9507153 102.7740985  37.9759897 111.9448161 100.7685530  33.3420595
 112.4416860 100.0155493  33.0221666 111.1735142 100.8049847  32.7763805
 108.5283130 102.9102913  33.0692280 108.1580917 102.3573954  33.7573186
 109.0242222 102.3061047  32.5167280 106.3572328 113.3700408  40.1647298
 107.0581788 114.0036891  40.3176692 105.8867443 113.7115140  39.4042937
 114.3867156  97.7355124  35.4899954 113.4730235  97.9659351  35.6582161
 114.8160257  97.8193568  36.3413987 114.1573614 105.9245016  37.9899848
 113.5045064 106.1720923  37.3352301 114.5353994 105.1109154  37.6562326
 110.2061187 106.6664827  44.4765885 109.5301824 106.5658956  45.1468261
 111.0288821 106.5104041  44.9401883 101.9540046 112.9036763  37.0978401
 102.5393483 112.1580451  37.2306305 101.7564885 113.2140720  37.9815065
  96.5457701 105.4742364  35.8182844  96.5841800 104.9405954  36.6119962
  96.0397994 104.9477569  35.1993821 103.9248463 100.3206904  39.3145386
 103.9889790 101.1821735  38.9022784 103.8615583  99.7080906  38.5817745
 103.4000736 102.3930037  42.9618420 104.0272775 102.0107114  43.5755945
 102.5428655 102.1744239  43.3274113 100.1766278 104.2006466  28.8936775
 100.4719720 103.2917144  28.8403829  99.2754314 104.1794205  28.5717778
 103.7060525 102.2762462  34.8764324 102.9847111 102.8898430  34.7371797
 104.4953781 102.8120227  34.7980970 106.5086839  99.6116889  41.1504976
 107.0321241  99.8579185  41.9131285 106.2899172 100.4436924  40.7308113
 101.9054120 101.8820563  29.0176100 101.5766826 101.0017942  28.8351206
 102.2593491 101.8268232  29.9052490 107.7139384 100.5530584  38.8354646
 107.3736204  99.7538397  39.2375326 107.0078390 100.8532295  38.2631479
 108.3655856  97.6379896  37.2881969 109.1881925  97.1640375  37.1660859
 108.6093919  98.4170380  37.7880655 105.8894435 104.3299017  35.0973948
 105.7439015 104.6439320  35.9898229 105.4119638 104.9483917  34.5444846
 107.7490817 101.3201565  35.1454837 107.7352386 100.4242658  34.8087135
 108.4663246 101.3272229  35.7793123 109.6016948 101.7538905  37.1907965
 109.3434726 102.6755976  37.1892295 109.0701989 101.3569340  37.8808429
 100.3640097 106.8704361  38.0361609  99.8193565 107.6464169  38.1681883
 101.2419447 107.2175166  37.8780730 107.1527713 100.2015945  30.4142407
 107.2743625  99.2732591  30.6133295 106.8629756 100.2154631  29.5020723
 110.0218904  97.8870856  33.5509127 110.0440601  97.9510189  32.5961107
 110.4386963  97.0475364  33.7449633 101.1506119 105.9974258  40.9291766
 100.4087855 106.1456893  41.5156396 100.8298863 106.2582523  40.0658515
  99.7971337 111.8026013  33.9191094  98.9603246 111.3748187  33.7375095
  99.7694983 111.9958456  34.8561885 106.6368793 101.7147943  44.6232340
 106.6856948 102.5910065  44.2410110 107.1791307 101.1725336  44.0503983
 114.5325276 105.0912460  42.5325512 115.4335139 104.9518925  42.2409510
 114.6073251 105.2566915  43.4723690 108.8668081 102.4679315  41.3778699
 107.9971391 102.7612881  41.1061287 109.1027562 103.0519760  42.0985962
 111.5707115  98.6858932  38.8944119 112.0889059  99.4219959  38.5690608
 111.2162248  98.9922925  39.7290878 111.8219709  95.1059214  34.4145016
 112.1021463  94.4382404  35.0405442 112.6070316  95.2988310  33.9019680
 115.6928568 103.5276848  38.1616591 116.6445991 103.6274946  38.1828815
 115.5232018 102.7355117  38.6714675 113.7142947 100.6132432  38.3475992
 113.1192879 100.8937444  37.6522480 113.4292644 101.1026333  39.1192733
 118.3211134 103.5394012  37.3217174 117.8050183 102.7552468  37.1347103
 119.2051083 103.2112728  37.4863693 115.9821861  97.2835027  33.2812986
 115.7846682  96.9750115  34.1656318 116.5921567  98.0096666  33.4110916
 109.8938669 109.6696767  44.7786751 110.8141678 109.8475366  44.9726798
 109.8588252 108.7252813  44.6266451  99.1120834 104.8635361  33.7040026
  98.7923618 104.0100669  33.4114400  98.5654262 105.0783939  34.4597993
 102.8900741 107.5797802  37.4209533 103.1086751 108.5114910  37.4397566
 103.3026515 107.2205776  38.2064336 109.8104959  98.0865887  29.4085221
 109.0005688  97.7412972  29.7840467 110.4989376  97.7773431  29.9972833
 111.7395508  97.1643934  31.0309518 112.2926546  97.5839387  31.6899541
 111.9765594  96.2379682  31.0732474 107.7628607 103.1531008  46.8112282
 107.6625334 104.1025365  46.7424373 107.5450149 102.8249247  45.9388352
  98.9809094 108.4838272  35.6733148  98.2872565 108.0692225  35.1603102
  99.7282085 108.5258809  35.0766567 113.5677881  98.6749517  32.7409502
 114.0677659  98.7866051  31.9323821 114.2113489  98.3710570  33.3810311
 107.6259877 106.5828147  45.6277343 107.1426959 107.3828507  45.8341232
 107.7120816 106.5936091  44.6744787 100.8945836 108.4156526  33.5499163
 100.8716525 108.5144213  32.5981046 101.2046473 109.2621677  33.8716329
 103.5533214 110.4732681  37.6645777 104.5076468 110.4416624  37.5975709
 103.3545738 110.0123305  38.4796003 104.1432596 109.0433797  40.2316575
 104.9625485 109.5377876  40.2551412 104.4169404 108.1265765  40.2034142
  99.3967511 103.3771931  40.9308772 100.0426374 102.8670885  41.4195997
  99.1884662 104.1140613  41.5052197 111.7323241  94.2354752  30.9378605
 110.9655636  93.6813239  31.0835287 112.1433946  94.3076621  31.7992756
 103.7365002 100.5239548  45.0283786 104.5996463 100.1676353  45.2387111
 103.1630412 100.1853443  45.7159190  50.2780645  -1.8711289  28.7153652
  50.2193191  -2.5552069  28.0484235  50.6800163  -1.1292299  28.2634278
  48.7632319  -2.1696372  31.2917463  49.3072223  -1.5566413  30.7972417
  48.1819163  -1.6116793  31.8084476  52.0861113  -2.7100318  30.6278784
  51.2956657  -2.7276179  30.0883283  51.8494468  -2.1712024  31.3827820
  53.7077185  -3.4410910  28.1853534  53.4161993  -3.0780929  29.0216995
  53.0949316  -4.1543901  28.0066866  46.8858377  -4.5236605  33.1546219
  47.7549537  -4.3495953  32.7932854  46.4065129  -3.7042188  33.0321948
  58.5450853   7.1852021  22.5591494  59.1829263   7.0658768  21.8554834
  58.4271696   8.1332865  22.6179446  55.3540559   7.1379449  22.4953018
  55.0159071   7.0220514  21.6073553  56.2230327   6.7370614  22.4754024
  55.8360342   8.2914301  28.4539224  55.8248983   7.8967099  27.5819728
  55.9980982   7.5580374  29.0472995  48.7591807  10.4866117  21.3234130
  49.5513099  10.1456942  20.9080429  48.9988457  10.5961092  22.2436283
  52.5567603  11.0751413  27.4018408  52.2657469  11.9797044  27.2865074
  53.1924588  11.1167940  28.1162477  53.4823810   8.4528261  23.9919767
  54.0787382   8.2284284  23.2776730  53.5398782   7.7113007  24.5945215
  63.5000549   4.8478708  20.5377680  64.2325721   4.2777925  20.7715510
  62.7439904   4.4600309  20.9784186  61.0225969  -1.4399718  24.9972289
  60.6909294  -0.5704307  24.7733504  60.4271582  -1.7563434  25.6766319
  57.5157488  10.7612828  24.3968202  57.2158212  11.6637867  24.2884009
  57.1708548  10.4945011  25.2489354  60.9154632   3.2795368  22.0765639
  60.0071510   3.2110777  21.7824400  60.8642228   3.7567313  22.9047464
  52.4978268  17.5257149  17.3639169  52.4202298  18.4764974  17.4427650
  51.8939912  17.1803021  18.0214096  54.9895498   4.6985014  30.0200536
  54.2128832   5.2578934  30.0103401  55.6286061   5.1841797  30.5415406
  62.7816279   1.4811807  23.8543513  62.1390659   1.7744340  23.2083307
  62.2771207   1.3664727  24.6596709  53.2441870   7.5070467  29.5818503
  53.9856555   8.0455511  29.3053327  52.5378856   8.1336756  29.7390055
  58.7197210   9.6499608  28.1790665  59.1280566   9.2082018  27.4345297
  57.9974471   9.0752235  28.4324857  55.0728280   4.5872215  25.5524222
  55.9189475   5.0111628  25.6958871  55.0126918   3.9305839  26.2462785
  59.0426025  10.2100798  21.9342953  58.4134887  10.3746513  21.2319021
  58.6551687  10.6242408  22.7053918  62.9215257  11.1455236  19.2887317
  62.2366295  11.5254138  18.7384351  63.0059106  11.7550563  20.0219265
  58.2227725   2.2476583  27.2105395  57.9788657   3.0018644  26.6739671
  58.4987656   2.6261931  28.0452642  60.1766188   8.7915195  25.8882661
  60.3883083   9.4346955  25.2117042  60.1295936   7.9577512  25.4204591
  51.4878068   9.4946688  22.1372802  52.0579425   9.9233956  21.4990286
  52.0786179   9.2129273  22.8356987  51.9803234   4.6610116  30.3833813
  51.3501895   5.3426396  30.6169210  51.8739322   4.5493197  29.4386951
  61.2912016  11.6687151  24.0605018  62.1129460  11.2667338  23.7787700
  61.2874419  11.5655385  25.0121134  55.0568620  11.2171194  26.2165729
  55.1213052  11.6791601  27.0523900  54.3479543  10.5868559  26.3448038
  69.3818009   8.0125899  20.4089990  68.6281718   7.4433297  20.2533994
  69.5165550   7.9788564  21.3560624  51.2583977  -1.0369119  32.7459064
  50.8650922  -1.5902920  33.4206708  52.0750117  -0.7258540  33.1365582
  50.0340919  13.5180496  18.7395387  50.2107548  14.4398461  18.5516371
  50.8297753  13.2038915  19.1689767  54.1751938   0.3788760  30.3379321
  54.9161651   0.9795914  30.2583783  54.4069861  -0.3633602  29.7797363
  49.3193276   5.5645128  28.6157550  49.2046791   4.6630385  28.9164649
  48.4637794   5.8108825  28.2642367  56.3985114  13.5062868  30.2145051
  55.9548968  12.7199247  29.8965956  57.0602327  13.6942019  29.5488942
  51.1572235  15.0358670  24.7405730  51.7079660  14.9075733  23.9682723
  50.3183711  15.3353559  24.3900622  58.4966352  13.7865668  28.2426452
  58.4784827  14.6074549  27.7506721  59.4186272  13.6619743  28.4676593
  54.9539406  11.3009797  29.0849961  55.4867743  10.5398086  28.8549269
  54.4253487  11.0083449  29.8274115  61.2984964   8.6244810  21.7135819
  60.6408639   9.3144072  21.8015948  62.1025364   9.0141242  22.0569805
  60.1090423   6.9789183  19.7639761  60.6222305   7.6119175  20.2661470
  60.7591647   6.3790379  19.3983121  56.5871254   4.4538639  22.0098101
  55.6693816   4.6753586  21.8519789  57.0031398   4.5284949  21.1509809
  60.8752220  11.9595185  17.8918903  60.4214547  11.1186094  17.9484094
  60.2446186  12.5956583  18.2293684  59.3185159  13.7971681  18.8268721
  59.6108133  14.3576738  18.1081087  59.8283779  14.0900242  19.5821881
  54.2818784  14.5752032  19.9162175  54.2394963  14.8012879  18.9870707
  55.1981483  14.3415407  20.0647976  57.7284418   5.0436100  26.8142804
  58.0833805   5.2707573  27.6737270  58.3756549   5.3754477  26.1920059
  63.4582155   8.1654536  17.5192133  63.3200053   8.3556132  16.5913322
  63.1018373   8.9273919  17.9760184  63.4851534  10.2331063  22.5303404
  63.9188041  10.1406352  23.3786458  64.1983115  10.2088563  21.8923420
  57.2179429  13.8333157  24.0636505  57.2716451  14.4024093  24.8314221
  56.3494211  14.0035042  23.6990542  50.0977823   3.5350713  25.5460956
  50.7700876   3.3268075  24.8973605  49.2707609   3.3372799  25.1066189
  64.3467084  10.2754763  25.0636290  64.5402974  11.1800574  25.3095565
  64.2467702   9.8162183  25.8974875  56.0003395   0.1612654  27.5626617
  55.3531310   0.8602604  27.4691094  56.7704410   0.5948798  27.9302865
  59.4082193  10.4261506  30.6377170  59.2567699  10.1972058  29.7207254
  59.3986872  11.3832108  30.6508515  56.1767529   7.9993419  25.6223437
  57.1059589   8.1504579  25.4492404  55.7558559   8.0877440  24.7672083
  54.9755861  12.0244083  23.3921975  54.8366946  11.6562868  24.2647913
  54.1870457  12.5391723  23.2205932  55.5704013  17.1253180  14.7347511
  55.7455768  16.6541223  15.5493134  54.8836801  17.7518946  14.9628772
  56.5261076  11.4025686  20.7810812  56.1910908  11.3626456  21.6768462
  56.0265022  10.7370402  20.3081223  50.5005320   6.8093316  26.3063393
  50.3625118   6.0773555  26.9074933  51.4110243   6.7202216  26.0247581
  53.1287620   6.5213275  25.7947073  53.8387239   5.8806468  25.7533692
  53.0856929   6.7726170  26.7173254  61.1174399  13.4580629  28.7153652
  61.0586945  12.7739849  28.0484235  61.5193918  14.1999619  28.2634278
  51.8416554   3.5078493  27.6142713  51.3053911   3.0569232  28.2664309
  51.2533263   3.6424402  26.8713177  50.1365098  20.2742543  21.5087371
  50.3761696  20.9061067  22.1866390  49.2934294  19.9230583  21.7952730
  61.1191806  11.4220213  26.9467632  60.2318585  11.0846134  27.0694031
  61.6890357  10.6903244  27.1836397  54.6492960  16.0821665  23.9128875
  54.5763131  16.8876637  24.4248180  54.2070353  16.2813631  23.0876897
  54.4382739  15.3193435  17.4231697  53.6550261  15.8615115  17.5169921
  55.1375485  15.8367415  17.8225938  65.6009147   6.8328430  21.7084194
  65.5899023   7.7153145  21.3378127  64.7326526   6.4799981  21.5138731
  57.1091643  15.9808499  26.0687034  57.8219616  16.6155964  25.9962935
  56.6181672  16.0772365  25.2527036  52.1603557  13.7302943  26.8892605
  52.8613016  14.3639426  27.0421999  51.6898672  14.0717674  26.1288244
  59.9604843   6.2847550  24.7145155  59.3076293   6.5323457  24.0597608
  60.3385223   5.4711688  24.3807632  56.9212017  16.3207243  18.8173325
  57.1034411  15.5028899  19.2801078  57.7445003  16.5374935  18.3798215
  57.2554182  15.2475428  16.0788374  57.7841949  14.7367883  15.4658536
  57.5182402  14.9317959  16.9433907  56.0092416   7.0267361  31.2011192
  55.3333053   6.9261490  31.8713567  56.8320050   6.8706575  31.6647189
  47.7571275  13.2639298  23.8223707  48.3424712  12.5182985  23.9551612
  47.5596113  13.5743254  24.7060371  50.6109930  16.2990545  18.8386150
  49.9420305  16.7836673  18.3550190  50.4722800  16.5459765  19.7529528
  54.7515199  18.3334288  25.4368808  55.3033507  18.4965910  26.2017893
  55.0921392  18.9238726  24.7648833  49.2031965   2.7532571  29.6863727
  49.8304003   2.3709648  30.3001251  48.3459883   2.5346773  30.0519420
  59.6026073  13.1595546  31.2917463  60.1465977  13.7725504  30.7972417
  59.0212918  13.7175124  31.8084476  57.8883586  16.2816264  22.4232490
  57.7634725  15.4806004  21.9143436  58.5462677  16.7762457  21.9346460
  59.9518494  14.0825284  24.0512040  59.0048830  13.9630635  23.9790367
  60.3001268  13.1947782  24.1338302  52.3118068  -0.0280577  27.8750282
  52.8352470   0.2181720  28.6376592  52.0930401   0.8039458  27.4553420
  56.9564928  13.8778000  20.2516393  56.8089890  12.9494708  20.4323963
  57.7818421  13.8998091  19.7673468  60.5599050  14.7006559  21.3381265
  61.4845597  14.4949420  21.2005716  60.3914353  14.4522960  22.2470607
  53.5170613   0.9133118  25.5599953  53.1767433   0.1140931  25.9620633
  52.8109619   1.2134829  24.9876786  55.4048177   2.1141439  23.9153271
  55.1465955   3.0358510  23.9137602  54.8733217   1.7171874  24.6053736
  60.3494366  15.2192226  16.6943357  60.5231243  14.6538649  15.9417209
  60.8423257  16.0193121  16.5122847  46.1671326   7.2306896  24.7606916
  45.6224794   8.0066704  24.8927190  47.0450675   7.5777700  24.6026037
  66.2033757   7.9828649  18.3133657  66.6464903   7.2335975  17.9152780
  65.3260267   7.9738786  17.9307389  61.3369538  14.5358991  13.7940255
  62.0320443  15.1565684  14.0127570  61.6792688  13.6854342  14.0692633
  46.9537347   6.3576792  27.6537072  46.2119083   6.5059427  28.2401703
  46.6330092   6.6185057  26.7903822  63.2360961  11.9858696  15.3227586
  63.7612285  12.3245969  14.5976906  63.1483314  11.0505712  15.1390720
  54.8981010  15.8992770  27.4517462  55.2068137  15.6541917  28.3240162
  55.6956492  16.1039409  26.9636333  54.9201622  18.0530680  19.6822839
  54.4806612  17.5607058  20.3755696  55.6709739  17.5103647  19.4414914
  47.3993961  14.2442221  19.6847467  48.2251981  13.9445992  19.3046111
  47.0488013  13.4749843  20.1337256  52.3675494  13.5968689  21.7545141
  51.7455504  12.9339394  21.4547369  53.0380361  13.6229821  21.0718788
  52.4400022   2.0750477  31.3477647  52.4888177   2.9512600  30.9655416
  52.9822536   1.5327870  30.7749290  62.9254867  12.6191600  30.6278784
  62.1350411  12.6015739  30.0883283  62.6888222  13.1579894  31.3827820
  63.0452742   9.4684066  27.9411512  63.0950747   9.3034074  28.8827035
  62.9366666   8.6011325  27.5509393  60.3356505   5.4514994  29.2570819
  61.2366368   5.3121459  28.9654817  60.4104479   5.6169449  30.1968996
  54.6699310   2.8281849  28.1024005  53.8002620   3.1215415  27.8306594
  54.9058791   3.4122294  28.8231269  64.5470939  11.8881008  28.1853534
  64.2555748  12.2510989  29.0216995  63.9343071  11.1748016  28.0066866
  65.7466622   9.4533888  20.7056104  66.5813513   9.8923692  20.8693664
  65.8825750   8.9772541  19.8864350  62.7958128   7.0113623  26.6533592
  63.2712249   7.2041269  25.8452443  61.8723693   7.0672808  26.4076976
  57.3738344  -0.9538534  25.6189426  57.8920288  -0.2177507  25.2935914
  57.0193477  -0.6474541  26.4536185  61.4959797   3.8879383  24.8861897
  62.4477219   3.9877480  24.9074122  61.3263247   3.0957651  25.3959982
  59.5174176   0.9734966  25.0721298  58.9224108   1.2539979  24.3767787
  59.2323873   1.4628867  25.8438039  63.9747874   7.1085502  24.0004197
  63.9424194   6.1701503  24.1863881  64.5848498   7.1869539  23.2670022
  64.1242363   3.8996546  24.0462480  63.6081411   3.1155002  23.8592409
  65.0082311   3.5715262  24.2109000  69.7924424   8.1701509  23.1410234
  70.5227813   7.9086797  23.7017937  69.1831370   7.4330231  23.1812302
  67.8739721   6.3109372  23.7384685  67.1472885   6.1765337  23.1301177
  67.4587008   6.6186200  24.5441403  55.6969898  10.0299301  31.5032058
  56.6172907  10.2077900  31.6972105  55.6619481   9.0855347  31.3511757
  48.6931970   7.9400336  24.1454839  48.9117980   8.8717444  24.1642873
  49.1057744   7.5808311  24.9309643  53.5659836   3.5133542  33.5357588
  53.4656563   4.4627899  33.4669679  53.3481378   3.1851781  32.6633658
  53.4291106   6.9430681  32.3522650  52.9458187   7.7431041  32.5586539
  53.5152045   6.9538626  31.3990094  49.3564443  10.8335215  24.3891084
  50.3107697  10.8019158  24.3221015  49.1576967  10.3725839  25.2041310
  49.9463825   9.4036331  26.9561881  50.7656714   9.8980410  26.9796719
  50.2200633   8.4868300  26.9279449  65.4917516   2.5321224  21.0918117
  66.0862007   2.2916960  20.3811425  65.5644100   1.8128355  21.7191653
  47.7114672  16.3754835  21.4061282  47.5769140  15.6155236  20.8399280
  47.2946734  17.0995735  20.9390070  67.7988589   5.8387425  19.8661538
  67.2388147   5.9080614  20.6393100  67.1932092   5.6628409  19.1461034
  50.8683798  17.2724152  21.6179724  50.7516182  18.2169584  21.5158414
  50.0476244  16.9697714  22.0065523  45.1998740   3.7374465  27.6554078
  45.8457603   3.2273419  28.1441304  44.9915891   4.4743147  28.2297504
  57.7252132  10.8055313  33.1546219  58.5943291  10.9795965  32.7932854
  57.2458883  11.6249730  33.0321948  51.8938312  17.9252414  24.8335653
  52.7965559  17.9576024  25.1502148  51.6675682  16.9952865  24.8481988
  53.6491914  16.6783400  21.4945731  52.6987545  16.6785262  21.3810104
  53.9524400  15.9316135  20.9781766  49.5396231   0.8842082  31.7529093
  50.4027692   0.5278887  31.9632417  48.9661641   0.5455977  32.4404497
  69.3844607  22.5143939  22.5591494  70.0223017  22.3950686  21.8554834
  69.2665450  23.4624783  22.6179446  66.1934314  22.4671367  22.4953018
  65.8552825  22.3512432  21.6073553  67.0624082  22.0662532  22.4754024
  62.0521129  24.3206843  18.4849909  61.4885995  24.2296780  17.7166197
  61.9373524  23.5006748  18.9652402  66.6754097  23.6206219  28.4539224
  66.6642737  23.2259017  27.5819728  66.8374736  22.8872291  29.0472995
  59.5985561  25.8158035  21.3234130  60.3906853  25.4748860  20.9080429
  59.8382212  25.9253010  22.2436283  67.6320688  27.9877811  13.7964374
  66.9808668  28.5731891  13.4098388  68.4265051  28.5184006  13.8559412
  61.5576315  25.0766948  14.1951509  62.3307191  24.5295935  14.0564384
  61.9101714  25.9411197  14.4065970  63.3961358  26.4043330  27.4018408
  63.1051224  27.3088961  27.2865074  64.0318342  26.4459858  28.1162477
  64.3217565  23.7820179  23.9919767  64.9181137  23.5576201  23.2776730
  64.3792536  23.0404924  24.5945215  63.8942593  21.2359614  11.8269958
  64.1468114  20.7141136  11.0653421  62.9567152  21.0725760  11.9296642
  68.9385876  20.2395393  19.6344702  69.7248965  19.8214816  19.2835119
  69.2024580  21.1441485  19.8026350  69.1095953  25.6768243  14.3333358
  68.4741786  25.7502869  15.0454263  68.7793360  26.2661842  13.6552438
  74.3394303  20.1770626  20.5377680  75.0719475  19.6069843  20.7715510
  73.5833659  19.7892226  20.9784186  63.6138882  23.1387720  14.0294333
  63.4975140  22.4632624  14.6975418  63.7241142  22.6520094  13.2126486
  65.9570423  22.5997867  17.7341023  65.5928630  22.0728488  18.4453944
  66.8137539  22.2096336  17.5607508  71.8619723  13.8892200  24.9972289
  71.5303048  14.7587611  24.7733504  71.2665337  13.5728484  25.6766319
  65.5975910  17.6287767  12.7302371  65.7650312  18.4968003  13.0972842
  65.4073079  17.7915049  11.8063660  68.3551243  26.0904746  24.3968202
  68.0551966  26.9929785  24.2884009  68.0102302  25.8236929  25.2489354
  61.8063724  22.5418543  20.4304906  60.8814221  22.4094757  20.6382598
  62.0548138  23.3212762  20.9274848  71.7548387  18.6087286  22.0765639
  70.8465264  18.5402695  21.7824400  71.7035983  19.0859231  22.9047464
  65.5765131  20.0845425  13.7149038  65.4564756  20.5302475  14.5534518
  64.8817719  20.4330742  13.1562576  59.1672535  22.1851816  21.2648695
  59.2964917  22.4386295  22.1788107  58.4869987  22.7779524  20.9453350
  63.3372023  32.8549066  17.3639169  63.2596052  33.8056891  17.4427650
  62.7333666  32.5094939  18.0214096  65.8289253  20.0276932  30.0200536
  65.0522587  20.5870852  30.0103401  66.4679816  20.5133715  30.5415406
  73.6210033  16.8103725  23.8543513  72.9784413  17.1036258  23.2083307
  73.1164962  16.6956645  24.6596709  71.2750197  20.5566898  14.5429372
  72.1868053  20.7894284  14.3677070  70.7659844  21.1403942  13.9804451
  64.0835625  22.8362385  29.5818503  64.8250309  23.3747429  29.3053327
  63.3772610  23.4628674  29.7390055  69.5590964  24.9791526  28.1790665
  69.9674320  24.5373936  27.4345297  68.8368226  24.4044153  28.4324857
  65.9122035  19.9164132  25.5524222  66.7583230  20.3403546  25.6958871
  65.8520672  19.2597757  26.2462785  69.8819779  25.5392716  21.9342953
  69.2528642  25.7038430  21.2319021  69.4945441  25.9534326  22.7053918
  73.7609011  26.4747154  19.2887317  73.0760049  26.8546055  18.7384351
  73.8452860  27.0842481  20.0219265  69.0621480  17.5768501  27.2105395
  68.8182412  18.3310561  26.6739671  69.3381410  17.9553848  28.0452642
  71.0159943  24.1207113  25.8882661  71.2276838  24.7638873  25.2117042
  70.9689691  23.2869430  25.4204591  68.6186172  16.7324934  22.7919233
  67.7570651  17.0306187  23.0835970  68.6448606  16.9495333  21.8600266
  65.4347741  25.2767124  19.1993039  65.8986087  25.5554827  18.4097661
  65.1704539  24.3750569  19.0166129  62.3271822  24.8238606  22.1372802
  62.8973179  25.2525874  21.4990286  62.9179934  24.5421190  22.8356987
  64.3716627  21.3990277  16.0082604  65.0740670  21.8511320  16.4756530
  64.0397256  20.7574095  16.6362497  62.8196989  19.9902033  30.3833813
  62.1895649  20.6718314  30.6169210  62.7133076  19.8785115  29.4386951
  58.1141961  19.6573829  21.3099737  57.3241015  19.9131358  20.8339848
  58.6053208  20.4722167  21.4151778  72.1305771  26.9979068  24.0605018
  72.9523214  26.5959256  23.7787700  72.1268173  26.8947303  25.0121134
  60.0656706  20.0218409  18.2683214  59.2687870  20.1337103  18.7866710
  59.8382299  20.3605061  17.4024104  65.8962374  26.5463112  26.2165729
  65.9606807  27.0083519  27.0523900  65.1873298  25.9160477  26.3448038
  56.3979664  19.9104320  23.7414728  56.6487702  20.7951330  24.0072304
  56.9339212  19.7308921  22.9689820  80.2211764  23.3417817  20.4089990
  79.4675472  22.7725215  20.2533994  80.3559305  23.3080481  21.3560624
  65.6110392  28.2131219  16.0844709  65.4756066  29.0582755  16.5129557
  66.1520204  28.4150497  15.3210643  62.0977731  14.2922799  32.7459064
  61.7044677  13.7388998  33.4206708  62.9143872  14.6033378  33.1365582
  59.0639789  25.7306657  16.6572634  59.5764310  26.5249908  16.8078199
  59.7162502  25.0332948  16.5906235  60.8734674  28.8472414  18.7395387
  61.0501302  29.7690378  18.5516371  61.6691507  28.5330833  19.1689767
  65.0145692  15.7080678  30.3379321  65.7555406  16.3087831  30.2583783
  65.2463615  14.9658316  29.7797363  60.1587030  20.8937045  28.6157550
  60.0440545  19.9922303  28.9164649  59.3031548  21.1400742  28.2642367
  67.2378868  28.8354786  30.2145051  66.7942722  28.0491164  29.8965956
  67.8996082  29.0233936  29.5488942  61.9965989  30.3650587  24.7405730
  62.5473414  30.2367651  23.9682723  61.1577465  30.6645476  24.3900622
  69.3360106  29.1157586  28.2426452  69.3178581  29.9366467  27.7506721
  70.2580026  28.9911661  28.4676593  65.7933160  26.6301715  29.0849961
  66.3261497  25.8690003  28.8549269  65.2647241  26.3375367  29.8274115
  68.9602855  11.7361781  24.6143602  68.6167125  12.6263423  24.5382713
  69.3281818  11.5463439  23.7513187  57.0288706  24.0595312  17.4332205
  57.8663928  24.4692320  17.2165912  57.2066974  23.1194754  17.4032398
  68.9253138  21.7270392  13.1216038  68.4099761  22.4974997  13.3604425
  68.6530446  21.0535528  13.7449099  66.5100249  16.5720093  18.1801276
  65.6541845  16.1826943  18.0006915  66.9227201  16.6512054  17.3201061
  68.0399396  14.1066436  22.5792836  67.5364191  14.0696571  21.7660641
  68.3330002  15.0159179  22.6389492  64.2842281  14.1905166  21.5859017
  65.1495278  13.9947975  21.2264907  64.3519790  13.9615518  22.5128374
  73.8987412  24.4802747  15.0569211  73.1216855  24.1413906  14.6124373
  74.5778893  24.4855370  14.3824176  68.7139441  19.5997484  14.9475819
  68.4089577  19.9143633  15.7985962  69.6669883  19.6778904  14.9903152
  67.1585873  25.7587708  16.5968773  66.6307235  25.0240467  16.2842010
  66.6573376  26.5362384  16.3508741  72.1378719  23.9536728  21.7135819
  71.4802393  24.6435990  21.8015948  72.9419118  24.3433160  22.0569805
  61.8904601  16.4207374  18.9575384  62.4648352  16.1982555  18.2248577
  62.4775583  16.4896068  19.7103985  70.9484178  22.3081101  19.7639761
  71.4616060  22.9411093  20.2661470  71.5985402  21.7082296  19.3983121
  62.2174188  18.4511835  12.9771269  61.3811500  18.7886521  13.2980544
  62.0778957  18.3160815  12.0398406  64.1927268  13.2948623  17.6850454
  63.5391681  12.9797640  17.0607068  64.1507742  12.6724363  18.4110277
  65.3038473  23.5767918   9.6003746  64.3965535  23.3457171   9.7994895
  65.8009505  22.7805537   9.7877727  68.2106552  32.2865425  12.5200432
  67.5368251  32.5897122  13.1285390  68.5972374  33.0894505  12.1705889
  67.4265009  19.7830556  22.0098101  66.5087570  20.0045503  21.8519789
  67.8425152  19.8576867  21.1509809  68.2100056  21.1821972  17.1400782
  68.9571875  21.6943369  16.8307904  68.4791646  20.8606025  18.0005175
  66.4826707  23.6780513  14.1227736  65.5737926  23.3939546  14.2200206
  66.5121790  24.0979591  13.2631043  71.7145974  27.2887102  17.8918903
  71.2608301  26.4478012  17.9484094  71.0839941  27.9248501  18.2293684
  70.6578894  18.2179088  19.1219571  69.9201650  17.7056475  19.4529813
  70.9105667  17.7779470  18.3102848  70.1578913  29.1263599  18.8268721
  70.4501888  29.6868656  18.1081087  70.6677534  29.4192160  19.5821881
  70.7590521  10.9955340  19.7161340  71.0649398  10.1352704  19.4287255
  71.4843126  11.5872960  19.5160334  57.0514877  21.3986027  18.1042938
  56.8539277  20.8055388  17.3794005  56.4961541  21.0938237  18.8218877
  65.0311601  21.2909133  20.2237531  65.0860210  20.3382970  20.1480008
  64.2202803  21.4468572  20.7078830  66.1802794  25.2189256  11.4615814
  65.7422224  24.5025115  11.0021452  66.9213235  25.4465371  10.9000906
  62.9703961  19.9086193  17.9827910  62.1571826  20.2080364  18.3893102
  63.4662955  19.5141882  18.7002392  65.1212538  29.9043950  19.9162175
  65.0788717  30.1304796  18.9870707  66.0375237  29.6707325  20.0647976
  68.5678172  20.3728018  26.8142804  68.9227560  20.5999491  27.6737270
  69.2150303  20.7046394  26.1920059  74.2975909  23.4946453  17.5192133
  74.1593808  23.6848049  16.5913322  73.9412128  24.2565836  17.9760184
  62.4618035  17.4804549  23.5989145  63.1017415  17.3393308  22.9012108
  61.6295566  17.1939062  23.2227747  74.3245289  25.5622980  22.5303404
  74.7581795  25.4698270  23.3786458  75.0376869  25.5380481  21.8923420
  63.2378339  26.7806979  19.7124137  64.0318938  26.2857299  19.5106712
  62.5270032  26.2524842  19.3491843  68.0573184  29.1625075  24.0636505
  68.1110206  29.7316011  24.8314221  67.1887965  29.3326960  23.6990542
  59.5461103  20.9250061  15.7883890  58.6158691  20.8634516  16.0053852
  59.6418575  20.4026014  14.9920531  59.4646652  17.4504874  18.3762132
  59.7253469  18.3650207  18.2671292  60.2863824  16.9829316  18.5258745
  60.9371577  18.8642631  25.5460956  61.6094630  18.6559993  24.8973605
  60.1101364  18.6664717  25.1066189  75.1860838  25.6046681  25.0636290
  75.3796728  26.5092492  25.3095565  75.0861456  25.1454100  25.8974875
  66.8397149  15.4904572  27.5626617  66.1925064  16.1894521  27.4691094
  67.6098164  15.9240716  27.9302865  70.2475947  25.7553424  30.6377170
  70.0961453  25.5263976  29.7207254  70.2380626  26.7124025  30.6508515
  67.0161283  23.3285337  25.6223437  67.9453343  23.4796496  25.4492404
  66.5952313  23.4169357  24.7672083  65.8149615  27.3536001  23.3921975
  65.6760701  26.9854785  24.2647913  65.0264211  27.8683640  23.2205932
  66.4097767  32.4545098  14.7347511  66.5849523  31.9833141  15.5493134
  65.7230555  33.0810864  14.9628772  67.3654830  26.7317604  20.7810812
  67.0304663  26.6918374  21.6768462  66.8658776  26.0662320  20.3081223
  61.3399074  22.1385234  26.3063393  61.2018872  21.4065473  26.9074933
  62.2503998  22.0494134  26.0247581  70.3014022  24.0773638  11.0547872
  69.6843193  23.3520466  10.9580925  69.8330510  24.8382998  10.7114946
  63.9681375  21.8505193  25.7947073  64.6780994  21.2098385  25.7533692
  63.9250683  22.1018088  26.7173254  71.9568154  28.7872546  28.7153652
  71.8980700  28.1031767  28.0484235  72.3587672  29.5291536  28.2634278
  62.6810309  18.8370411  27.6142713  62.1447666  18.3861149  28.2664309
  62.0927017  18.9716320  26.8713177  60.9758852  35.6034460  21.5087371
  61.2155451  36.2352984  22.1866390  60.1328049  35.2522500  21.7952730
  71.9585561  26.7512130  26.9467632  71.0712340  26.4138052  27.0694031
  72.5284112  26.0195162  27.1836397  53.6114708  23.0836222  20.2710683
  54.2985748  22.7697952  19.6831699  53.4562837  23.9877587  19.9977935
  58.4149430  17.9726419  24.6995707  58.3307619  17.3652088  23.9646117
  57.5932137  18.4635437  24.7005203  65.4886714  31.4113583  23.9128875
  65.4156886  32.2168554  24.4248180  65.0464107  31.6105549  23.0876897
  65.2776494  30.6485353  17.4231697  64.4944016  31.1907033  17.5169921
  65.9769239  31.1659332  17.8225938  68.5873144  16.4579982  20.0665902
  69.0841844  15.7049945  19.7466972  67.8160126  16.4944299  19.5009111
  76.4402901  22.1620348  21.7084194  76.4292778  23.0445063  21.3378127
  75.5720281  21.8091899  21.5138731  67.9485398  31.3100417  26.0687034
  68.6613370  31.9447882  25.9962935  67.4575426  31.4064283  25.2527036
  69.6702925  25.2151669  17.6404326  68.7359203  25.3353132  17.4709030
  69.8479593  24.3124136  17.3764335  65.1708113  18.5997365  19.7937587
  64.8005900  18.0468406  20.4818492  65.6667205  17.9955499  19.2412587
  73.0575476  21.0568989  18.1754360  73.5235928  21.8896980  18.1014662
  73.5082977  20.5913970  18.8799618  62.9997311  29.0594860  26.8892605
  63.7006771  29.6931343  27.0421999  62.5292426  29.4009592  26.1288244
  71.1251707  27.4012810  15.1740512  71.4011551  27.2869405  16.0834386
  70.2556206  27.0030295  15.1352685  71.0292139  13.4249576  22.2145261
  70.1155219  13.6553803  22.3827468  71.4585240  13.5088020  23.0659293
  70.7998597  21.6139468  24.7145155  70.1470048  21.8615375  24.0597608
  71.1778977  20.8003606  24.3807632  67.7605771  31.6499161  18.8173325
  67.9428166  30.8320817  19.2801078  68.5838757  31.8666853  18.3798215
  68.0947937  30.5767346  16.0788374  68.6235703  30.0659801  15.4658536
  68.3576156  30.2609876  16.9433907  66.8486170  22.3559279  31.2011192
  66.1726807  22.2553408  31.8713567  67.6713804  22.1998492  31.6647189
  58.5965029  28.5931215  23.8223707  59.1818466  27.8474903  23.9551612
  58.3989868  28.9035172  24.7060371  61.4503685  31.6282463  18.8386150
  60.7814060  32.1128590  18.3550190  61.3116554  31.8751683  19.7529528
  53.1882684  21.1636815  22.5428151  53.2266784  20.6300406  23.3365269
  52.6822977  20.6372021  21.9239128  65.5908953  33.6626206  25.4368808
  66.1427261  33.8257828  26.2017893  65.9315147  34.2530644  24.7648833
  60.5673446  16.0101356  26.0390693  60.6314773  16.8716187  25.6268091
  60.5040567  15.3975358  25.3063051  60.0425719  18.0824489  29.6863727
  60.6697758  17.7001566  30.3001251  59.1853638  17.8638690  30.0519420
  70.4419828  28.4887464  31.2917463  70.9859732  29.1017422  30.7972417
  69.8606672  29.0467042  31.8084476  56.8191262  19.8900918  15.6182082
  57.1144703  18.9811596  15.5649136  55.9179298  19.8688657  15.2963084
  68.7277341  31.6108182  22.4232490  68.6028480  30.8097922  21.9143436
  69.3856432  32.1054375  21.9346460  60.3485509  17.9656914  21.6009631
  59.6272095  18.5792882  21.4617104  61.1378765  18.5014679  21.5226276
  70.7912249  29.4117202  24.0512040  69.8442584  29.2922553  23.9790367
  71.1395022  28.5239700  24.1338302  63.1511822  15.3011341  27.8750282
  63.6746224  15.5473637  28.6376592  62.9324156  16.1331376  27.4553420
  58.5479103  17.5715015  15.7421407  58.2191809  16.6912394  15.5596513
  58.9018474  17.5162684  16.6297796  67.7958682  29.2069918  20.2516393
  67.6483645  28.2786625  20.4323963  68.6212176  29.2290009  19.7673468
  61.6620926  17.8587985  16.1096885  62.0016999  18.3873906  15.3875493
  62.1093047  18.1968391  16.8855451  71.3992804  30.0298477  21.3381265
  72.3239352  29.8241338  21.2005716  71.2308107  29.7814878  22.2470607
  64.3564367  16.2425036  25.5599953  64.0161188  15.4432849  25.9620633
  63.6503374  16.5426747  24.9876786  65.0080839  13.3274348  24.0127276
  65.8306908  12.8534826  23.8906166  65.2518903  14.1064832  24.5125962
  63.6489074  16.3562607  14.3090177  64.3697436  16.7343859  13.8053894
  63.0254378  17.0751483  14.4125155  67.7920197  17.0607756  15.2448510
  68.0083811  17.9432394  14.9437338  67.3114264  16.6693969  14.5154152
  62.5319418  20.0193469  21.8219254  62.3863999  20.3333772  22.7143536
  62.0544622  20.6378369  21.2690153  64.3915801  17.0096017  21.8700144
  64.3777370  16.1137110  21.5332442  65.1088229  17.0166681  22.5038430
  66.2441932  17.4433357  23.9153271  65.9859709  18.3650428  23.9137602
  65.7126972  17.0463792  24.6053736  71.1888120  30.5484144  16.6943357
  71.3624998  29.9830567  15.9417209  71.6817011  31.3485039  16.5122847
  57.0065080  22.5598813  24.7606916  56.4618548  23.3358621  24.8927190
  57.8844430  22.9069618  24.6026037  63.7952697  15.8910397  17.1387714
  63.9168608  14.9627043  17.3378602  63.5054739  15.9049083  16.2266030
  66.6643887  13.5765308  20.2754434  66.6865584  13.6404641  19.3206414
  67.0811946  12.7369816  20.4694940  77.0427511  23.3120567  18.3133657
  77.4858657  22.5627892  17.9152780  76.1654022  23.3030703  17.9307389
  72.1763293  29.8650909  13.7940255  72.8714197  30.4857601  14.0127570
  72.5186443  29.0146260  14.0692633  57.7931102  21.6868710  27.6537072
  57.0512838  21.8351345  28.2401703  57.4723846  21.9476975  26.7903822
  74.0754716  27.3150614  15.3227586  74.6006040  27.6537887  14.5976906
  73.9877068  26.3797629  15.1390720  65.7374765  31.2284688  27.4517462
  66.0461891  30.9833835  28.3240162  66.5350247  31.4331326  26.9636333
  65.7595377  33.3822597  19.6822839  65.3200367  32.8898976  20.3755696
  66.5103494  32.8395565  19.4414914  58.2387716  29.5734138  19.6847467
  59.0645736  29.2737910  19.3046111  57.8881768  28.8041761  20.1337256
  63.2069249  28.9260606  21.7545141  62.5849258  28.2631312  21.4547369
  63.8774116  28.9521738  21.0718788  56.4396321  27.4920465  20.6436401
  55.6028229  27.0642639  20.4620402  56.4119966  27.6852908  21.5807192
  63.2793776  17.4042395  31.3477647  63.3281932  18.2804517  30.9655416
  63.8216290  16.8619788  30.7749290  73.7648622  27.9483518  30.6278784
  72.9744166  27.9307657  30.0883283  73.5281977  28.4871811  31.3827820
  73.8846497  24.7975984  27.9411512  73.9344502  24.6325992  28.8827035
  73.7760420  23.9303243  27.5509393  62.7682756  27.4764530  15.2303601
  62.9170876  28.1599994  14.5770274  63.5749199  27.4569620  15.7453057
  71.1750259  20.7806912  29.2570819  72.0760122  20.6413377  28.9654817
  71.2498234  20.9461367  30.1968996  65.5093065  18.1573767  28.1024005
  64.6396374  18.4507333  27.8306594  65.7452545  18.7414212  28.8231269
  75.3864694  27.2172926  28.1853534  75.0949502  27.5802906  29.0216995
  74.7736825  26.5039934  28.0066866  76.5860376  24.7825805  20.7056104
  77.4207268  25.2215609  20.8693664  76.7219505  24.3064459  19.8864350
  73.6351882  22.3405540  26.6533592  74.1106004  22.5333187  25.8452443
  72.7117447  22.3964726  26.4076976  60.5235389  23.5029707  16.2364670
  60.2781431  22.5992037  16.4344880  60.6931303  23.5046858  15.2944148
  68.2132099  14.3753384  25.6189426  68.7314042  15.1114411  25.2935914
  67.8587231  14.6817377  26.4536185  59.7931036  19.2358065  13.7350832
  59.1000281  19.3102420  13.0790868  59.5482788  18.4718409  14.2572349
  68.4644693  10.7953666  21.1390322  68.7446446  10.1276855  21.7650749
  69.2495300  10.9882762  20.6264986  66.2678161  29.9712660  12.7015349
  65.6952128  30.5902847  12.2485821  66.8410955  30.5212022  13.2355271
  72.3353551  19.2171300  24.8861897  73.2870974  19.3169398  24.9074122
  72.1657001  18.4249569  25.3959982  70.3567931  16.3026884  25.0721298
  69.7617863  16.5831896  24.3767787  70.0717627  16.7920785  25.8438039
  69.4875421  30.2549810  13.8323931  70.4206094  30.1895372  14.0356806
  69.3998634  31.0906077  13.3738464  72.1163438  29.5715681  10.7927879
  72.0377069  29.2375544  11.6863636  72.9373104  30.0637449  10.7919351
  74.8141629  22.4377420  24.0004197  74.7817949  21.4993421  24.1863881
  75.4242252  22.5161457  23.2670022  66.6524960  21.3073473  10.0431401
  67.5984064  21.1779681  10.1119819  66.2739205  20.5688135  10.5200829
  74.9636117  19.2288463  24.0462480  74.4475166  18.4446920  23.8592409
  75.8476066  18.9007180  24.2109000  72.6246844  12.9729479  20.0058293
  72.4271665  12.6644567  20.8901625  73.2346550  13.6991118  20.1356223
  80.6318179  23.4993427  23.1410234  81.3621567  23.2378715  23.7017937
  80.0225124  22.7622149  23.1812302  78.7133476  21.6401289  23.7384685
  77.9866639  21.5057254  23.1301177  78.2980763  21.9478118  24.5441403
  66.5363652  25.3591219  31.5032058  67.4566662  25.5369818  31.6972105
  66.5013235  24.4147265  31.3511757  55.7545817  20.5529813  20.4285333
  55.4348602  19.6995121  20.1359707  55.2079245  20.7678391  21.1843300
  59.5325725  23.2692254  24.1454839  59.7511735  24.2009362  24.1642873
  59.9451499  22.9100228  24.9309643  66.4529943  13.7760339  16.1330528
  65.6430671  13.4307424  16.5085774  67.1414360  13.4667883  16.7218139
  68.3820491  12.8538386  17.7554824  68.9351529  13.2733839  18.4144847
  68.6190577  11.9274134  17.7977780  64.4053590  18.8425460  33.5357588
  64.3050317  19.7919817  33.4669679  64.1875132  18.5143698  32.6633658
  55.6234077  24.1732724  22.3978454  54.9297549  23.7586677  21.8848409
  56.3707068  24.2153261  21.8011873  71.7599298  14.9638911  17.2633489
  71.1797967  15.6223715  16.8811541  71.4935231  14.1416256  16.8520906
  70.2102864  14.3643969  19.4654809  70.7102643  14.4760503  18.6569128
  70.8538472  14.0605022  20.1055617  64.2684860  22.2722598  32.3522650
  63.7851942  23.0722959  32.5586539  64.3545799  22.2830543  31.3990094
  57.5370820  24.1050978  20.2744469  57.5141508  24.2038665  19.3226352
  57.8471456  24.9516129  20.5961635  60.1958198  26.1627133  24.3891084
  61.1501451  26.1311075  24.3221015  59.9970721  25.7017757  25.2041310
  60.7857580  24.7328249  26.9561881  61.6050469  25.2272328  26.9796719
  61.0594387  23.8160217  26.9279449  70.5424176  17.1239001  16.3189837
  69.6550031  17.4088652  16.1010032  70.9578165  16.9632765  15.4717114
  73.8938712  17.1485522  20.0344176  74.6699102  17.6381975  20.3068793
  73.1686846  17.5743577  20.4916046  76.3311271  17.8613142  21.0918117
  76.9255762  17.6208878  20.3811425  76.4037854  17.1420272  21.7191653
  58.5508426  31.7046753  21.4061282  58.4162894  30.9447153  20.8399280
  58.1340489  32.4287652  20.9390070  69.6867389  26.8883676  10.4137857
  70.3903240  27.0933679  11.0295512  68.9630038  27.4560438  10.6786940
  70.5165200  22.6393537  16.5340127  70.4600401  23.0962089  15.6947759
  71.0693542  21.8784222  16.3562970  74.3270006  18.4283269  17.3590246
  74.0706940  18.0279905  18.1898454  73.7022874  19.1427063  17.2340386
  78.6382343  21.1679343  19.8661538  78.0781901  21.2372532  20.6393100
  78.0325847  20.9920327  19.1461034  61.7077552  32.6016070  21.6179724
  61.5909936  33.5461502  21.5158414  60.8869999  32.2989631  22.0065523
  71.5954087  27.3266205  12.4636317  72.4299691  26.8947404  12.2813792
  71.4338430  27.1548219  13.3913211  71.2499979  23.8298319  13.8292656
  71.1948783  23.6642590  12.8881100  70.6246034  24.5374352  13.9854846
  56.0392494  19.0666383  27.6554078  56.6851358  18.5565337  28.1441304
  55.8309645  19.8035065  28.2297504  68.5645886  26.1347231  33.1546219
  69.4337046  26.3087883  32.7932854  68.0852638  26.9541647  33.0321948
  64.5596104  13.3306428  13.4077975  64.5474774  14.2748268  13.5646245
  65.4519526  13.1476573  13.1137436  62.7332066  33.2544332  24.8335653
  63.6359313  33.2867942  25.1502148  62.5069436  32.3244782  24.8481988
  64.4885668  32.0075318  21.4945731  63.5381299  32.0077180  21.3810104
  64.7918155  31.2608053  20.9781766  68.3748224   9.9249204  17.6623911
  67.6080620   9.3707691  17.8080594  68.7858929   9.9971073  18.5238063
  60.3789985  16.2134000  31.7529093  61.2421447  15.8570805  31.9632417
  59.8055396  15.8747895  32.4404497  80.2238362  37.8435856  22.5591494
  80.8616772  37.7242604  21.8554834  80.1059205  38.7916700  22.6179446
  77.0328068  37.7963285  22.4953018  76.6946580  37.6804349  21.6073553
  77.9017836  37.3954450  22.4754024  72.8914884  39.6498761  18.4849909
  72.3279749  39.5588698  17.7166197  72.7767279  38.8298665  18.9652402
  70.4379316  41.1449953  21.3234130  71.2300608  40.8040777  20.9080429
  70.6775966  41.2544928  22.2436283  78.4714443  43.3169729  13.7964374
  77.8202422  43.9023809  13.4098388  79.2658805  43.8475924  13.8559412
  72.3970070  40.4058866  14.1951509  73.1700946  39.8587853  14.0564384
  72.7495469  41.2703115  14.4065970  75.1611319  39.1112097  23.9919767
  75.7574891  38.8868119  23.2776730  75.2186291  38.3696842  24.5945215
  74.7336348  36.5651532  11.8269958  74.9861868  36.0433053  11.0653421
  73.7960907  36.4017677  11.9296642  79.7779630  35.5687310  19.6344702
  80.5642720  35.1506733  19.2835119  80.0418335  36.4733402  19.8026350
  79.9489708  41.0060161  14.3333358  79.3135541  41.0794787  15.0454263
  79.6187114  41.5953759  13.6552438  85.1788058  35.5062544  20.5377680
  85.9113229  34.9361760  20.7715510  84.4227413  35.1184144  20.9784186
  74.4532636  38.4679638  14.0294333  74.3368894  37.7924541  14.6975418
  74.5634896  37.9812012  13.2126486  76.7964177  37.9289785  17.7341023
  76.4322385  37.4020406  18.4453944  77.6531293  37.5388254  17.5607508
  82.7013478  29.2184118  24.9972289  82.3696803  30.0879529  24.7733504
  82.1059091  28.9020402  25.6766319  76.4369664  32.9579685  12.7302371
  76.6044067  33.8259921  13.0972842  76.2466833  33.1206966  11.8063660
  79.1944997  41.4196664  24.3968202  78.8945721  42.3221702  24.2884009
  78.8496057  41.1528847  25.2489354  72.6457479  37.8710460  20.4304906
  71.7207975  37.7386675  20.6382598  72.8941892  38.6504680  20.9274848
  82.5942141  33.9379204  22.0765639  81.6859019  33.8694612  21.7824400
  82.5429737  34.4151149  22.9047464  76.4158885  35.4137342  13.7149038
  76.2958510  35.8594393  14.5534518  75.7211474  35.7622660  13.1562576
  70.0066290  37.5143734  21.2648695  70.1358671  37.7678213  22.1788107
  69.3263741  38.1071442  20.9453350  74.1765777  48.1840984  17.3639169
  74.0989807  49.1348809  17.4427650  73.5727421  47.8386856  18.0214096
  84.4603788  32.1395642  23.8543513  83.8178168  32.4328175  23.2083307
  83.9558716  32.0248563  24.6596709  82.1143951  35.8858815  14.5429372
  83.0261807  36.1186202  14.3677070  81.6053598  36.4695860  13.9804451
  74.9229379  38.1654303  29.5818503  75.6644064  38.7039347  29.3053327
  74.2166365  38.7920591  29.7390055  76.7515789  35.2456050  25.5524222
  77.5976984  35.6695464  25.6958871  76.6914427  34.5889674  26.2462785
  80.7213534  40.8684634  21.9342953  80.0922396  41.0330348  21.2319021
  80.3339196  41.2826243  22.7053918  84.6002765  41.8039072  19.2887317
  83.9153804  42.1837973  18.7384351  84.6846615  42.4134398  20.0219265
  79.9015234  32.9060418  27.2105395  79.6576166  33.6602479  26.6739671
  80.1775165  33.2845766  28.0452642  81.8553697  39.4499031  25.8882661
  82.0670592  40.0930791  25.2117042  81.8083445  38.6161347  25.4204591
  79.4579926  32.0616851  22.7919233  78.5964405  32.3598105  23.0835970
  79.4842361  32.2787250  21.8600266  76.2741495  40.6059042  19.1993039
  76.7379841  40.8846745  18.4097661  76.0098294  39.7042486  19.0166129
  73.1665577  40.1530523  22.1372802  73.7366934  40.5817792  21.4990286
  73.7573688  39.8713108  22.8356987  75.2110382  36.7282194  16.0082604
  75.9134425  37.1803238  16.4756530  74.8791010  36.0866013  16.6362497
  73.6590743  35.3193951  30.3833813  73.0289404  36.0010232  30.6169210
  73.5526831  35.2077033  29.4386951  68.9535715  34.9865747  21.3099737
  68.1634769  35.2423275  20.8339848  69.4446963  35.8014085  21.4151778
  82.9699525  42.3270986  24.0605018  83.7916969  41.9251173  23.7787700
  82.9661928  42.2239220  25.0121134  70.9050461  35.3510326  18.2683214
  70.1081624  35.4629020  18.7866710  70.6776053  35.6896978  17.4024104
  67.2373418  35.2396237  23.7414728  67.4881457  36.1243247  24.0072304
  67.7732967  35.0600839  22.9689820  91.0605518  38.6709735  20.4089990
  90.3069226  38.1017133  20.2533994  91.1953059  38.6372399  21.3560624
  76.4504146  43.5423137  16.0844709  76.3149821  44.3874673  16.5129557
  76.9913959  43.7442415  15.3210643  72.9371486  29.6214717  32.7459064
  72.5438431  29.0680915  33.4206708  73.7537626  29.9325295  33.1365582
  69.9033544  41.0598575  16.6572634  70.4158064  41.8541825  16.8078199
  70.5556256  40.3624865  16.5906235  71.7128428  44.1764331  18.7395387
  71.8895057  45.0982296  18.5516371  72.5085262  43.8622750  19.1689767
  70.9980785  36.2228963  28.6157550  70.8834300  35.3214220  28.9164649
  70.1425303  36.4692660  28.2642367  79.7996610  27.0653699  24.6143602
  79.4560879  27.9555340  24.5382713  80.1675572  26.8755356  23.7513187
  67.8682460  39.3887229  17.4332205  68.7057682  39.7984238  17.2165912
  68.0460728  38.4486671  17.4032398  79.7646892  37.0562310  13.1216038
  79.2493516  37.8266915  13.3604425  79.4924201  36.3827446  13.7449099
  77.3494003  31.9012011  18.1801276  76.4935600  31.5118861  18.0006915
  77.7620955  31.9803971  17.3201061  78.8793150  29.4358354  22.5792836
  78.3757946  29.3988489  21.7660641  79.1723757  30.3451097  22.6389492
  75.1236036  29.5197084  21.5859017  75.9889033  29.3239892  21.2264907
  75.1913545  29.2907435  22.5128374  84.7381167  39.8094665  15.0569211
  83.9610609  39.4705824  14.6124373  85.4172648  39.8147288  14.3824176
  79.5533196  34.9289402  14.9475819  79.2483331  35.2435551  15.7985962
  80.5063638  35.0070822  14.9903152  77.9979627  41.0879625  16.5968773
  77.4700989  40.3532385  16.2842010  77.4967130  41.8654302  16.3508741
  82.9772473  39.2828646  21.7135819  82.3196148  39.9727907  21.8015948
  83.7812873  39.6725078  22.0569805  72.7298355  31.7499292  18.9575384
  73.3042107  31.5274473  18.2248577  73.3169338  31.8187986  19.7103985
  81.7877932  37.6373018  19.7639761  82.3009814  38.2703010  20.2661470
  82.4379156  37.0374214  19.3983121  73.0567942  33.7803753  12.9771269
  72.2205254  34.1178439  13.2980544  72.9172712  33.6452732  12.0398406
  75.0321023  28.6240540  17.6850454  74.3785435  28.3089558  17.0607068
  74.9901497  28.0016281  18.4110277  76.1432228  38.9059836   9.6003746
  75.2359289  38.6749089   9.7994895  76.6403260  38.1097455   9.7877727
  79.0500307  47.6157343  12.5200432  78.3762005  47.9189040  13.1285390
  79.4366128  48.4186423  12.1705889  78.2658763  35.1122474  22.0098101
  77.3481325  35.3337421  21.8519789  78.6818907  35.1868785  21.1509809
  79.0493811  36.5113890  17.1400782  79.7965630  37.0235287  16.8307904
  79.3185400  36.1897942  18.0005175  77.3220461  39.0072430  14.1227736
  76.4131680  38.7231463  14.2200206  77.3515545  39.4271509  13.2631043
  82.5539728  42.6179020  17.8918903  82.1002056  41.7769930  17.9484094
  81.9233695  43.2540418  18.2293684  81.4972648  33.5471006  19.1219571
  80.7595405  33.0348392  19.4529813  81.7499422  33.1071388  18.3102848
  80.9972668  44.4555517  18.8268721  81.2895642  45.0160574  18.1081087
  81.5071288  44.7484078  19.5821881  81.5984275  26.3247258  19.7161340
  81.9043152  25.4644621  19.4287255  82.3236880  26.9164878  19.5160334
  67.8908631  36.7277945  18.1042938  67.6933031  36.1347305  17.3794005
  67.3355295  36.4230155  18.8218877  75.8705355  36.6201051  20.2237531
  75.9253965  35.6674887  20.1480008  75.0596557  36.7760490  20.7078830
  77.0196549  40.5481174  11.4615814  76.5815979  39.8317033  11.0021452
  77.7606990  40.7757289  10.9000906  73.8097715  35.2378111  17.9827910
  72.9965581  35.5372281  18.3893102  74.3056709  34.8433800  18.7002392
  75.9606293  45.2335868  19.9162175  75.9182472  45.4596714  18.9870707
  76.8768992  44.9999242  20.0647976  79.4071927  35.7019935  26.8142804
  79.7621314  35.9291408  27.6737270  80.0544058  36.0338312  26.1920059
  85.1369664  38.8238371  17.5192133  84.9987562  39.0139967  16.5913322
  84.7805882  39.5857754  17.9760184  73.3011790  32.8096466  23.5989145
  73.9411169  32.6685225  22.9012108  72.4689320  32.5230980  23.2227747
  85.1639043  40.8914898  22.5303404  85.5975550  40.7990187  23.3786458
  85.8770624  40.8672399  21.8923420  74.0772094  42.1098897  19.7124137
  74.8712692  41.6149217  19.5106712  73.3663786  41.5816760  19.3491843
  70.3854857  36.2541978  15.7883890  69.4552445  36.1926434  16.0053852
  70.4812329  35.7317931  14.9920531  70.3040406  32.7796791  18.3762132
  70.5647224  33.6942125  18.2671292  71.1257579  32.3121234  18.5258745
  71.7765332  34.1934548  25.5460956  72.4488385  33.9851911  24.8973605
  70.9495118  33.9956634  25.1066189  86.0254593  40.9338599  25.0636290
  86.2190483  41.8384409  25.3095565  85.9255211  40.4746018  25.8974875
  77.8555038  38.6577254  25.6223437  78.7847098  38.8088414  25.4492404
  77.4346068  38.7461275  24.7672083  76.6543370  42.6827919  23.3921975
  76.5154455  42.3146703  24.2647913  75.8657966  43.1975558  23.2205932
  77.2491522  47.7837015  14.7347511  77.4243277  47.3125058  15.5493134
  76.5624310  48.4102781  14.9628772  78.2048585  42.0609521  20.7810812
  77.8698417  42.0210291  21.6768462  77.7052531  41.3954237  20.3081223
  72.1792829  37.4677151  26.3063393  72.0412627  36.7357390  26.9074933
  73.0897752  37.3786052  26.0247581  81.1407776  39.4065556  11.0547872
  80.5236947  38.6812384  10.9580925  80.6724265  40.1674916  10.7114946
  74.8075129  37.1797111  25.7947073  75.5174748  36.5390303  25.7533692
  74.7644438  37.4310006  26.7173254  82.7961908  44.1164464  28.7153652
  82.7374454  43.4323684  28.0484235  83.1981427  44.8583454  28.2634278
  73.5204063  34.1662329  27.6142713  72.9841420  33.7153067  28.2664309
  72.9320772  34.3008237  26.8713177  72.9306322  33.6250980  10.1769176
  72.0535789  33.5039781   9.8131423  73.4064075  32.8337058   9.9248065
  82.7979315  42.0804048  26.9467632  81.9106094  41.7429970  27.0694031
  83.3677866  41.3487079  27.1836397  64.4508463  38.4128140  20.2710683
  65.1379502  38.0989870  19.6831699  64.2956591  39.3169504  19.9977935
  69.2543185  33.3018336  24.6995707  69.1701373  32.6944006  23.9646117
  68.4325891  33.7927355  24.7005203  76.1170248  45.9777270  17.4231697
  75.3337770  46.5198951  17.5169921  76.8162994  46.4951250  17.8225938
  79.4266899  31.7871900  20.0665902  79.9235598  31.0341862  19.7466972
  78.6553880  31.8236217  19.5009111  87.2796656  37.4912265  21.7084194
  87.2686532  38.3736981  21.3378127  86.4114035  37.1383816  21.5138731
  80.5096679  40.5443587  17.6404326  79.5752958  40.6645050  17.4709030
  80.6873348  39.6416054  17.3764335  76.0101867  33.9289283  19.7937587
  75.6399655  33.3760323  20.4818492  76.5060960  33.3247416  19.2412587
  83.8969231  36.3860906  18.1754360  84.3629683  37.2188898  18.1014662
  84.3476731  35.9205888  18.8799618  81.9645462  42.7304728  15.1740512
  82.2405306  42.6161322  16.0834386  81.0949960  42.3322213  15.1352685
  81.8685893  28.7541493  22.2145261  80.9548973  28.9845720  22.3827468
  82.2978995  28.8379937  23.0659293  81.6392352  36.9431385  24.7145155
  80.9863802  37.1907293  24.0597608  82.0172732  36.1295524  24.3807632
  78.5999526  46.9791079  18.8173325  78.7821920  46.1612734  19.2801078
  79.4232512  47.1958771  18.3798215  78.9341691  45.9059264  16.0788374
  79.4629458  45.3951718  15.4658536  79.1969911  45.5901794  16.9433907
  69.4358784  43.9223133  23.8223707  70.0212221  43.1766821  23.9551612
  69.2383622  44.2327090  24.7060371  72.2897439  46.9574380  18.8386150
  71.6207814  47.4420508  18.3550190  72.1510309  47.2043601  19.7529528
  64.0276439  36.4928733  22.5428151  64.0660538  35.9592324  23.3365269
  63.5216731  35.9663939  21.9239128  71.4067201  31.3393274  26.0390693
  71.4708527  32.2008105  25.6268091  71.3434321  30.7267275  25.3063051
  70.8819473  33.4116406  29.6863727  71.5091512  33.0293484  30.3001251
  70.0247392  33.1930608  30.0519420  67.6585016  35.2192835  15.6182082
  67.9538457  34.3103514  15.5649136  66.7573052  35.1980575  15.2963084
  79.5671095  46.9400099  22.4232490  79.4422234  46.1389839  21.9143436
  80.2250186  47.4346293  21.9346460  71.1879263  33.2948832  21.6009631
  70.4665849  33.9084800  21.4617104  71.9772519  33.8306597  21.5226276
  81.6306003  44.7409119  24.0512040  80.6836339  44.6214471  23.9790367
  81.9788777  43.8531618  24.1338302  73.9905577  30.6303258  27.8750282
  74.5139979  30.8765555  28.6376592  73.7717910  31.4623293  27.4553420
  69.3872858  32.9006933  15.7421407  69.0585564  32.0204312  15.5596513
  69.7412229  32.8454602  16.6297796  78.6352437  44.5361836  20.2516393
  78.4877399  43.6078543  20.4323963  79.4605930  44.5581926  19.7673468
  72.5014681  33.1879903  16.1096885  72.8410753  33.7165824  15.3875493
  72.9486801  33.5260309  16.8855451  82.2386559  45.3590394  21.3381265
  83.1633106  45.1533256  21.2005716  82.0701862  45.1106796  22.2470607
  75.1958122  31.5716953  25.5599953  74.8554942  30.7724767  25.9620633
  74.4897128  31.8718664  24.9876786  75.8474594  28.6566266  24.0127276
  76.6700663  28.1826744  23.8906166  76.0912657  29.4356750  24.5125962
  74.4882828  31.6854524  14.3090177  75.2091191  32.0635777  13.8053894
  73.8648132  32.4043401  14.4125155  78.6313951  32.3899673  15.2448510
  78.8477565  33.2724311  14.9437338  78.1508018  31.9985887  14.5154152
  73.3713172  35.3485387  21.8219254  73.2257753  35.6625690  22.7143536
  72.8938376  35.9670287  21.2690153  75.2309555  32.3387935  21.8700144
  75.2171124  31.4429028  21.5332442  75.9481983  32.3458598  22.5038430
  77.0835686  32.7725275  23.9153271  76.8253464  33.6942345  23.9137602
  76.5520726  32.3755709  24.6053736  82.0281875  45.8776062  16.6943357
  82.2018752  45.3122484  15.9417209  82.5210766  46.6776957  16.5122847
  67.8458835  37.8890731  24.7606916  67.3012303  38.6650539  24.8927190
  68.7238184  38.2361535  24.6026037  74.6346451  31.2202315  17.1387714
  74.7562362  30.2918961  17.3378602  74.3448494  31.2341001  16.2266030
  77.5037642  28.9057225  20.2754434  77.5259338  28.9696558  19.3206414
  77.9205701  28.0661734  20.4694940  87.8821266  38.6412485  18.3133657
  88.3252412  37.8919810  17.9152780  87.0047776  38.6322621  17.9307389
  83.0157047  45.1942826  13.7940255  83.7107952  45.8149519  14.0127570
  83.3580197  44.3438177  14.0692633  68.6324856  37.0160627  27.6537072
  67.8906592  37.1643263  28.2401703  68.3117601  37.2768893  26.7903822
  84.9148470  42.6442532  15.3227586  85.4399794  42.9829805  14.5976906
  84.8270823  41.7089547  15.1390720  76.5989131  48.7114515  19.6822839
  76.1594121  48.2190894  20.3755696  77.3497248  48.1687483  19.4414914
  69.0781470  44.9026056  19.6847467  69.9039490  44.6029828  19.3046111
  68.7275522  44.1333678  20.1337256  74.0463003  44.2552524  21.7545141
  73.4243013  43.5923229  21.4547369  74.7167870  44.2813656  21.0718788
  67.2790075  42.8212382  20.6436401  66.4421983  42.3934557  20.4620402
  67.2513721  43.0144826  21.5807192  84.7240251  40.1267902  27.9411512
  84.7738256  39.9617909  28.8827035  84.6154175  39.2595161  27.5509393
  73.6076510  42.8056448  15.2303601  73.7564631  43.4891912  14.5770274
  74.4142954  42.7861538  15.7453057  87.4254131  40.1117723  20.7056104
  88.2601022  40.5507527  20.8693664  87.5613259  39.6356376  19.8864350
  84.4745637  37.6697458  26.6533592  84.9499758  37.8625104  25.8452443
  83.5511202  37.7256644  26.4076976  71.3629143  38.8321625  16.2364670
  71.1175185  37.9283955  16.4344880  71.5325058  38.8338776  15.2944148
  79.0525853  29.7045302  25.6189426  79.5707797  30.4406328  25.2935914
  78.6980986  30.0109295  26.4536185  70.6324791  34.5649983  13.7350832
  69.9394036  34.6394338  13.0790868  70.3876543  33.8010326  14.2572349
  79.3038447  26.1245584  21.1390322  79.5840201  25.4568773  21.7650749
  80.0889054  26.3174680  20.6264986  77.1071916  45.3004578  12.7015349
  76.5345883  45.9194765  12.2485821  77.6804709  45.8503940  13.2355271
  83.1747306  34.5463218  24.8861897  84.1264728  34.6461316  24.9074122
  83.0050756  33.7541487  25.3959982  81.1961685  31.6318801  25.0721298
  80.6011617  31.9123814  24.3767787  80.9111382  32.1212702  25.8438039
  80.3269175  45.5841728  13.8323931  81.2599849  45.5187290  14.0356806
  80.2392388  46.4197995  13.3738464  82.9557192  44.9007598  10.7927879
  82.8770824  44.5667462  11.6863636  83.7766859  45.3929366  10.7919351
  85.6535383  37.7669338  24.0004197  85.6211703  36.8285338  24.1863881
  86.2636007  37.8453374  23.2670022  77.4918714  36.6365391  10.0431401
  78.4377819  36.5071599  10.1119819  77.1132959  35.8980053  10.5200829
  85.8029872  34.5580381  24.0462480  85.2868920  33.7738838  23.8592409
  86.6869820  34.2299098  24.2109000  83.4640599  28.3021397  20.0058293
  83.2665420  27.9936485  20.8901625  84.0740304  29.0283036  20.1356223
  91.4711933  38.8285345  23.1410234  92.2015322  38.5670633  23.7017937
  90.8618879  38.0914067  23.1812302  89.5527230  36.9693207  23.7384685
  88.8260394  36.8349172  23.1301177  89.1374517  37.2770036  24.5441403
  75.6761631  34.5615367   9.9786286  74.7693087  34.2648480  10.0549000
  75.9537612  34.2645185   9.1120573  66.5939572  35.8821731  20.4285333
  66.2742356  35.0287039  20.1359707  66.0473000  36.0970309  21.1843300
  70.3719479  38.5984171  24.1454839  70.5905489  39.5301279  24.1642873
  70.7845253  38.2392146  24.9309643  77.2923697  29.1052257  16.1330528
  76.4824425  28.7599342  16.5085774  77.9808114  28.7959801  16.7218139
  79.2214245  28.1830304  17.7554824  79.7745284  28.6025757  18.4144847
  79.4584332  27.2566052  17.7977780  74.4460416  31.4202302  10.1198266
  75.3079580  31.7457201  10.3794083  74.6310760  30.6333798   9.6071331
  66.4627832  39.5024642  22.3978454  65.7691303  39.0878595  21.8848409
  67.2100823  39.5445179  21.8011873  82.5993052  30.2930829  17.2633489
  82.0191721  30.9515633  16.8811541  82.3328985  29.4708173  16.8520906
  81.0496619  29.6935886  19.4654809  81.5496397  29.8052421  18.6569128
  81.6932227  29.3896939  20.1055617  68.3764574  39.4342896  20.2744469
  68.3535262  39.5330583  19.3226352  68.6865211  40.2808047  20.5961635
  81.3817930  32.4530919  16.3189837  80.4943785  32.7380570  16.1010032
  81.7971920  32.2924683  15.4717114  84.7332467  32.4777440  20.0344176
  85.5092857  32.9673893  20.3068793  84.0080601  32.9035494  20.4916046
  87.1705025  33.1905059  21.0918117  87.7649516  32.9500795  20.3811425
  87.2431609  32.4712190  21.7191653  69.3902181  47.0338670  21.4061282
  69.2556649  46.2739071  20.8399280  68.9734243  47.7579570  20.9390070
  80.5261144  42.2175594  10.4137857  81.2296994  42.4225596  11.0295512
  79.8023793  42.7852356  10.6786940  81.3558954  37.9685455  16.5340127
  81.2994156  38.4254007  15.6947759  81.9087297  37.2076140  16.3562970
  85.1663760  33.7575187  17.3590246  84.9100694  33.3571823  18.1898454
  84.5416628  34.4718981  17.2340386  89.4776098  36.4971260  19.8661538
  88.9175656  36.5664450  20.6393100  88.8719601  36.3212245  19.1461034
  82.4347841  42.6558123  12.4636317  83.2693445  42.2239321  12.2813792
  82.2732184  42.4840137  13.3913211  82.0893734  39.1590236  13.8292656
  82.0342537  38.9934508  12.8881100  81.4639789  39.8666269  13.9854846
  66.8786249  34.3958301  27.6554078  67.5245112  33.8857255  28.1441304
  66.6703400  35.1326982  28.2297504  75.3989859  28.6598345  13.4077975
  75.3868529  29.6040185  13.5646245  76.2913281  28.4768491  13.1137436
  75.3279423  47.3367236  21.4945731  74.3775054  47.3369097  21.3810104
  75.6311909  46.5899970  20.9781766  79.2141978  25.2541122  17.6623911
  78.4474374  24.6999609  17.8080594  79.6252683  25.3262991  18.5238063
  71.2183739  31.5425918  31.7529093  72.0815201  31.1862723  31.9632417
  70.6449150  31.2039813  32.4404497  91.0632116  53.1727774  22.5591494
  91.7010526  53.0534521  21.8554834  90.9452959  54.1208618  22.6179446
  87.8721823  53.1255202  22.4953018  87.5340334  53.0096267  21.6073553
  88.7411591  52.7246367  22.4754024  83.7308638  54.9790679  18.4849909
  83.1673504  54.8880616  17.7166197  83.6161033  54.1590583  18.9652402
  88.3541606  54.2790054  28.4539224  88.3430246  53.8842852  27.5819728
  88.5162245  53.5456127  29.0472995  81.2773070  56.4741870  21.3234130
  82.0694362  56.1332695  20.9080429  81.5169720  56.5836845  22.2436283
  89.3108197  58.6461646  13.7964374  88.6596177  59.2315727  13.4098388
  90.1052560  59.1767841  13.8559412  83.2363824  55.7350784  14.1951509
  84.0094700  55.1879771  14.0564384  83.5889223  56.5995033  14.4065970
  85.0748867  57.0627166  27.4018408  84.7838733  57.9672797  27.2865074
  85.7105851  57.1043693  28.1162477  86.0005074  54.4404014  23.9919767
  86.5968646  54.2160037  23.2776730  86.0580045  53.6988760  24.5945215
  85.5730102  51.8943450  11.8269958  85.8255623  51.3724971  11.0653421
  84.6354661  51.7309595  11.9296642  90.6173385  50.8979228  19.6344702
  91.4036474  50.4798651  19.2835119  90.8812089  51.8025320  19.8026350
  90.7883462  56.3352078  14.3333358  90.1529295  56.4086705  15.0454263
  90.4580869  56.9245677  13.6552438  96.0181812  50.8354461  20.5377680
  96.7506984  50.2653678  20.7715510  95.2621168  50.4476062  20.9784186
  85.2926391  53.7971556  14.0294333  85.1762649  53.1216459  14.6975418
  85.4028651  53.3103930  13.2126486  87.6357932  53.2581703  17.7341023
  87.2716139  52.7312324  18.4453944  88.4925048  52.8680172  17.5607508
  93.5407232  44.5476035  24.9972289  93.2090557  45.4171446  24.7733504
  92.9452846  44.2312319  25.6766319  87.2763419  48.2871602  12.7302371
  87.4437821  49.1551839  13.0972842  87.0860588  48.4498884  11.8063660
  90.0338752  56.7488581  24.3968202  89.7339475  57.6513620  24.2884009
  89.6889811  56.4820764  25.2489354  83.4851233  53.2002378  20.4304906
  82.5601730  53.0678592  20.6382598  83.7335647  53.9796597  20.9274848
  93.4335896  49.2671121  22.0765639  92.5252773  49.1986530  21.7824400
  93.3823492  49.7443066  22.9047464  87.2552640  50.7429260  13.7149038
  87.1352265  51.1886311  14.5534518  86.5605228  51.0914578  13.1562576
  80.8460044  52.8435652  21.2648695  80.9752426  53.0970131  22.1788107
  80.1657496  53.4363360  20.9453350  85.0159532  63.5132902  17.3639169
  84.9383561  64.4640727  17.4427650  84.4121175  63.1678774  18.0214096
  87.5076761  50.6860767  30.0200536  86.7310096  51.2454687  30.0103401
  88.1467325  51.1717550  30.5415406  95.2997542  47.4687560  23.8543513
  94.6571922  47.7620093  23.2083307  94.7952471  47.3540480  24.6596709
  92.9537706  51.2150733  14.5429372  93.8655562  51.4478120  14.3677070
  92.4447353  51.7987777  13.9804451  85.7623134  53.4946220  29.5818503
  86.5037818  54.0331264  29.3053327  85.0560119  54.1212509  29.7390055
  91.2378473  55.6375361  28.1790665  91.6461829  55.1957771  27.4345297
  90.5155735  55.0627988  28.4324857  87.5909543  50.5747968  25.5524222
  88.4370739  50.9987381  25.6958871  87.5308181  49.9181592  26.2462785
  91.5607288  56.1976552  21.9342953  90.9316151  56.3622266  21.2319021
  91.1732950  56.6118161  22.7053918  95.4396520  57.1330989  19.2887317
  94.7547558  57.5129891  18.7384351  95.5240369  57.7426316  20.0219265
  90.7408989  48.2352336  27.2105395  90.4969921  48.9894397  26.6739671
  91.0168919  48.6137684  28.0452642  92.6947452  54.7790948  25.8882661
  92.9064347  55.4222708  25.2117042  92.6477200  53.9453265  25.4204591
  90.2973681  47.3908769  22.7919233  89.4358160  47.6890023  23.0835970
  90.3236115  47.6079168  21.8600266  87.1135250  55.9350960  19.1993039
  87.5773595  56.2138663  18.4097661  86.8492048  55.0334404  19.0166129
  84.0059331  55.4822441  22.1372802  84.5760688  55.9109710  21.4990286
  84.5967443  55.2005026  22.8356987  86.0504136  52.0574112  16.0082604
  86.7528179  52.5095156  16.4756530  85.7184765  51.4157931  16.6362497
  84.4984498  50.6485869  30.3833813  83.8683158  51.3302149  30.6169210
  84.3920585  50.5368950  29.4386951  79.7929470  50.3157665  21.3099737
  79.0028524  50.5715193  20.8339848  80.2840717  51.1306002  21.4151778
  93.8093280  57.6562904  24.0605018  94.6310723  57.2543091  23.7787700
  93.8055682  57.5531138  25.0121134  81.7444215  50.6802244  18.2683214
  80.9475379  50.7920938  18.7866710  81.5169808  51.0188896  17.4024104
  87.5749883  57.2046947  26.2165729  87.6394315  57.6667354  27.0523900
  86.8660807  56.5744312  26.3448038 101.8999273  54.0001652  20.4089990
 101.1462981  53.4309050  20.2533994 102.0346814  53.9664317  21.3560624
  87.2897901  58.8715055  16.0844709  87.1543575  59.7166590  16.5129557
  87.8307713  59.0734332  15.3210643  83.7765240  44.9506634  32.7459064
  83.3832186  44.3972833  33.4206708  84.5931381  45.2617213  33.1365582
  80.7427298  56.3890493  16.6572634  81.2551819  57.1833743  16.8078199
  81.3950011  55.6916783  16.5906235  82.5522183  59.5056249  18.7395387
  82.7288811  60.4274214  18.5516371  83.3479016  59.1914668  19.1689767
  88.9166377  59.4938621  30.2145051  88.4730231  58.7075000  29.8965956
  89.5783591  59.6817772  29.5488942  83.6753498  61.0234423  24.7405730
  84.2260923  60.8951486  23.9682723  82.8364974  61.3229312  24.3900622
  91.0147615  59.7741421  28.2426452  90.9966090  60.5950302  27.7506721
  91.9367535  59.6495496  28.4676593  87.4720669  57.2885551  29.0849961
  88.0049006  56.5273839  28.8549269  86.9434750  56.9959202  29.8274115
  90.6390364  42.3945616  24.6143602  90.2954634  43.2847258  24.5382713
  91.0069327  42.2047274  23.7513187  78.7076215  54.7179147  17.4332205
  79.5451437  55.1276155  17.2165912  78.8854483  53.7778589  17.4032398
  90.6040647  52.3854228  13.1216038  90.0887270  53.1558832  13.3604425
  90.3317955  51.7119364  13.7449099  88.1887758  47.2303928  18.1801276
  87.3329354  46.8410779  18.0006915  88.6014710  47.3095889  17.3201061
  89.7186905  44.7650272  22.5792836  89.2151700  44.7280407  21.7660641
  90.0117511  45.6743014  22.6389492  85.9629790  44.8489001  21.5859017
  86.8282787  44.6531810  21.2264907  86.0307299  44.6199353  22.5128374
  95.5774921  55.1386582  15.0569211  94.8004364  54.7997742  14.6124373
  96.2566402  55.1439205  14.3824176  90.3926950  50.2581320  14.9475819
  90.0877086  50.5727469  15.7985962  91.3457392  50.3362740  14.9903152
  88.8373382  56.4171543  16.5968773  88.3094744  55.6824303  16.2842010
  88.3360885  57.1946219  16.3508741  93.8166228  54.6120563  21.7135819
  93.1589902  55.3019825  21.8015948  94.6206627  55.0016995  22.0569805
  83.5692110  47.0791209  18.9575384  84.1435861  46.8566391  18.2248577
  84.1563092  47.1479904  19.7103985  92.6271687  52.9664936  19.7639761
  93.1403569  53.5994928  20.2661470  93.2772911  52.3666132  19.3983121
  83.8961697  49.1095670  12.9771269  83.0599009  49.4470357  13.2980544
  83.7566466  48.9744650  12.0398406  85.8714777  43.9532458  17.6850454
  85.2179190  43.6381475  17.0607068  85.8295251  43.3308199  18.4110277
  86.9825982  54.2351753   9.6003746  86.0753044  54.0041007   9.7994895
  87.4797014  53.4389373   9.7877727  89.8894061  62.9449260  12.5200432
  89.2155760  63.2480957  13.1285390  90.2759883  63.7478341  12.1705889
  89.1052518  50.4414392  22.0098101  88.1875079  50.6629339  21.8519789
  89.5212661  50.5160702  21.1509809  89.8887565  51.8405807  17.1400782
  90.6359384  52.3527205  16.8307904  90.1579155  51.5189860  18.0005175
  88.1614216  54.3364348  14.1227736  87.2525435  54.0523381  14.2200206
  88.1909299  54.7563427  13.2631043  93.3933483  57.9470938  17.8918903
  92.9395810  57.1061847  17.9484094  92.7627450  58.5832336  18.2293684
  92.3366403  48.8762924  19.1219571  91.5989159  48.3640310  19.4529813
  92.5893176  48.4363305  18.3102848  91.8366422  59.7847434  18.8268721
  92.1289397  60.3452491  18.1081087  92.3465043  60.0775995  19.5821881
  92.4378030  41.6539176  19.7161340  92.7436907  40.7936539  19.4287255
  93.1630635  42.2456796  19.5160334  78.7302386  52.0569862  18.1042938
  78.5326786  51.4639223  17.3794005  78.1749050  51.7522072  18.8218877
  86.7099110  51.9492969  20.2237531  86.7647719  50.9966805  20.1480008
  85.8990312  52.1052408  20.7078830  87.8590303  55.8773092  11.4615814
  87.4209733  55.1608951  11.0021452  88.6000744  56.1049207  10.9000906
  84.6491470  50.5670028  17.9827910  83.8359335  50.8664199  18.3893102
  85.1450464  50.1725717  18.7002392  86.8000047  60.5627785  19.9162175
  86.7576226  60.7888632  18.9870707  87.7162746  60.3291160  20.0647976
  90.2465681  51.0311853  26.8142804  90.6015069  51.2583326  27.6737270
  90.8937812  51.3630230  26.1920059  95.9763418  54.1530289  17.5192133
  95.8381317  54.3431885  16.5913322  95.6199637  54.9149672  17.9760184
  84.1405544  48.1388384  23.5989145  84.7804924  47.9977143  22.9012108
  83.3083075  47.8522897  23.2227747  96.0032798  56.2206816  22.5303404
  96.4369304  56.1282105  23.3786458  96.7164378  56.1964316  21.8923420
  84.9165848  57.4390814  19.7124137  85.7106447  56.9441135  19.5106712
  84.2057541  56.9108678  19.3491843  89.7360693  59.8208910  24.0636505
  89.7897715  60.3899846  24.8314221  88.8675474  59.9910795  23.6990542
  81.2248612  51.5833896  15.7883890  80.2946200  51.5218352  16.0053852
  81.3206084  51.0609849  14.9920531  81.1434161  48.1088709  18.3762132
  81.4040978  49.0234042  18.2671292  81.9651333  47.6413152  18.5258745
  82.6159086  49.5226466  25.5460956  83.2882139  49.3143828  24.8973605
  81.7888873  49.3248552  25.1066189  96.8648347  56.2630516  25.0636290
  97.0584237  57.1676327  25.3095565  96.7648965  55.8037936  25.8974875
  88.5184658  46.1488407  27.5626617  87.8712573  46.8478357  27.4691094
  89.2885673  46.5824551  27.9302865  91.9263456  56.4137259  30.6377170
  91.7748962  56.1847811  29.7207254  91.9168135  57.3707861  30.6508515
  88.6948792  53.9869172  25.6223437  89.6240852  54.1380332  25.4492404
  88.2739822  54.0753193  24.7672083  87.4937124  58.0119836  23.3921975
  87.3548210  57.6438621  24.2647913  86.7051720  58.5267476  23.2205932
  88.0885276  63.1128933  14.7347511  88.2637032  62.6416976  15.5493134
  87.4018064  63.7394699  14.9628772  89.0442339  57.3901439  20.7810812
  88.7092172  57.3502209  21.6768462  88.5446285  56.7246155  20.3081223
  83.0186583  52.7969069  26.3063393  82.8806381  52.0649308  26.9074933
  83.9291507  52.7077969  26.0247581  91.9801531  54.7357473  11.0547872
  91.3630702  54.0104302  10.9580925  91.5118019  55.4966834  10.7114946
  85.6468884  52.5089028  25.7947073  86.3568502  51.8682221  25.7533692
  85.6038192  52.7601923  26.7173254  93.6355663  59.4456382  28.7153652
  93.5768209  58.7615602  28.0484235  94.0375181  60.1875372  28.2634278
  84.3597818  49.4954246  27.6142713  83.8235175  49.0444985  28.2664309
  83.7714526  49.6300155  26.8713177  82.6546361  66.2618296  21.5087371
  82.8942960  66.8936820  22.1866390  81.8115558  65.9106336  21.7952730
  83.7700077  48.9542898  10.1769176  82.8929543  48.8331699   9.8131423
  84.2457830  48.1628976   9.9248065  93.6373070  57.4095966  26.9467632
  92.7499849  57.0721888  27.0694031  94.2071621  56.6778997  27.1836397
  75.2902217  53.7420057  20.2710683  75.9773257  53.4281787  19.6831699
  75.1350346  54.6461422  19.9977935  87.1674223  62.0697418  23.9128875
  87.0944395  62.8752390  24.4248180  86.7251616  62.2689384  23.0876897
  86.9564003  61.3069188  17.4231697  86.1731525  61.8490868  17.5169921
  87.6556748  61.8243168  17.8225938  90.2660653  47.1163818  20.0665902
  90.7629353  46.3633780  19.7466972  89.4947635  47.1528134  19.5009111
  98.1190410  52.8204183  21.7084194  98.1080287  53.7028899  21.3378127
  97.2507790  52.4675734  21.5138731  89.6272907  61.9684252  26.0687034
  90.3400879  62.6031717  25.9962935  89.1362935  62.0648118  25.2527036
  91.3490434  55.8735505  17.6404326  90.4146712  55.9936967  17.4709030
  91.5267102  54.9707972  17.3764335  86.8495622  49.2581201  19.7937587
  86.4793409  48.7052241  20.4818492  87.3454714  48.6539334  19.2412587
  94.7362985  51.7152824  18.1754360  95.2023437  52.5480816  18.1014662
  95.1870486  51.2497806  18.8799618  84.6784820  59.7178696  26.8892605
  85.3794280  60.3515179  27.0421999  84.2079935  60.0593427  26.1288244
  92.8039216  58.0596645  15.1740512  93.0799060  57.9453240  16.0834386
  91.9343715  57.6614130  15.1352685  92.7079648  44.0833411  22.2145261
  91.7942728  44.3137638  22.3827468  93.1372749  44.1671855  23.0659293
  92.4786106  52.2723303  24.7145155  91.8257557  52.5199210  24.0597608
  92.8566486  51.4587441  24.3807632  89.4393280  62.3082996  18.8173325
  89.6215675  61.4904652  19.2801078  90.2626266  62.5250688  18.3798215
  89.7735446  61.2351181  16.0788374  90.3023212  60.7243636  15.4658536
  90.0363665  60.9193712  16.9433907  88.5273679  53.0143114  31.2011192
  87.8514316  52.9137243  31.8713567  89.3501313  52.8582328  31.6647189
  80.2752538  59.2515051  23.8223707  80.8605975  58.5058739  23.9551612
  80.0777377  59.5619007  24.7060371  83.1291194  62.2866298  18.8386150
  82.4601569  62.7712426  18.3550190  82.9904063  62.5335518  19.7529528
  74.8670193  51.8220651  22.5428151  74.9054293  51.2884242  23.3365269
  74.3610486  51.2955856  21.9239128  87.2696462  64.3210042  25.4368808
  87.8214770  64.4841663  26.2017893  87.6102656  64.9114479  24.7648833
  82.2460955  46.6685191  26.0390693  82.3102282  47.5300022  25.6268091
  82.1828076  46.0559193  25.3063051  92.1207337  59.1471299  31.2917463
  92.6647241  59.7601257  30.7972417  91.5394181  59.7050877  31.8084476
  78.4978771  50.5484753  15.6182082  78.7932212  49.6395431  15.5649136
  77.5966806  50.5272492  15.2963084  90.4064849  62.2692017  22.4232490
  90.2815989  61.4681757  21.9143436  91.0643941  62.7638210  21.9346460
  82.0273018  48.6240750  21.6009631  81.3059603  49.2376717  21.4617104
  82.8166273  49.1598514  21.5226276  92.4699758  60.0701037  24.0512040
  91.5230093  59.9506388  23.9790367  92.8182531  59.1823535  24.1338302
  84.8299331  45.9595176  27.8750282  85.3533733  46.2057473  28.6376592
  84.6111665  46.7915211  27.4553420  80.2266612  48.2298851  15.7421407
  79.8979318  47.3496230  15.5596513  80.5805983  48.1746519  16.6297796
  89.4746191  59.8653753  20.2516393  89.3271154  58.9370461  20.4323963
  90.2999685  59.8873844  19.7673468  83.3408435  48.5171820  16.1096885
  83.6804508  49.0457742  15.3875493  83.7880556  48.8552227  16.8855451
  93.0780313  60.6882312  21.3381265  94.0026861  60.4825173  21.2005716
  92.9095616  60.4398713  22.2470607  86.0351876  46.9008871  25.5599953
  85.6948697  46.1016684  25.9620633  85.3290883  47.2010582  24.9876786
  86.6868348  43.9858184  24.0127276  87.5094417  43.5118662  23.8906166
  86.9306412  44.7648667  24.5125962  85.3276583  47.0146442  14.3090177
  86.0484945  47.3927695  13.8053894  84.7041887  47.7335319  14.4125155
  89.4707705  47.7191591  15.2448510  89.6871320  48.6016229  14.9437338
  88.9901773  47.3277804  14.5154152  84.2106927  50.6777304  21.8219254
  84.0651508  50.9917607  22.7143536  83.7332131  51.2962205  21.2690153
  86.0703310  47.6679852  21.8700144  86.0564879  46.7720946  21.5332442
  86.7875738  47.6750516  22.5038430  87.9229440  48.1017192  23.9153271
  87.6647218  49.0234263  23.9137602  87.3914481  47.7047627  24.6053736
  92.8675629  61.2067980  16.6943357  93.0412507  60.6414402  15.9417209
  93.3604520  62.0068874  16.5122847  85.4740206  46.5494232  17.1387714
  85.5956117  45.6210879  17.3378602  85.1842248  46.5632918  16.2266030
  88.3431396  44.2349143  20.2754434  88.3653093  44.2988476  19.3206414
  88.7599455  43.3953652  20.4694940  98.7215020  53.9704402  18.3133657
  99.1646166  53.2211728  17.9152780  97.8441531  53.9614539  17.9307389
  93.8550802  60.5234744  13.7940255  94.5501706  61.1441437  14.0127570
  94.1973952  59.6730095  14.0692633  95.7542225  57.9734449  15.3227586
  96.2793549  58.3121722  14.5976906  95.6664577  57.0381465  15.1390720
  87.4162274  61.8868523  27.4517462  87.7249400  61.6417670  28.3240162
  88.2137756  62.0915162  26.9636333  87.4382886  64.0406433  19.6822839
  86.9987876  63.5482811  20.3755696  88.1891003  63.4979400  19.4414914
  79.9175225  60.2317974  19.6847467  80.7433244  59.9321745  19.3046111
  79.5669277  59.4625596  20.1337256  84.8856758  59.5844442  21.7545141
  84.2636767  58.9215147  21.4547369  85.5561625  59.6105574  21.0718788
  78.1183830  58.1504300  20.6436401  77.2815738  57.7226474  20.4620402
  78.0907475  58.3436743  21.5807192  84.9581285  48.0626230  31.3477647
  85.0069441  48.9388353  30.9655416  85.5003799  47.5203623  30.7749290
  95.4436131  58.6067353  30.6278784  94.6531675  58.5891492  30.0883283
  95.2069485  59.1455647  31.3827820  95.5634006  55.4559819  27.9411512
  95.6132011  55.2909827  28.8827035  95.4547929  54.5887079  27.5509393
  84.4470265  58.1348365  15.2303601  84.5958385  58.8183830  14.5770274
  85.2536708  58.1153455  15.7453057  92.8537768  51.4390748  29.2570819
  93.7547631  51.2997212  28.9654817  92.9285743  51.6045202  30.1968996
  87.1880574  48.8157602  28.1024005  86.3183883  49.1091168  27.8306594
  87.4240054  49.3998047  28.8231269  97.0652203  57.8756761  28.1853534
  96.7737011  58.2386742  29.0216995  96.4524334  57.1623769  28.0066866
  98.2647885  55.4409641  20.7056104  99.0994776  55.8799445  20.8693664
  98.4007014  54.9648294  19.8864350  95.3139391  52.9989376  26.6533592
  95.7893513  53.1917022  25.8452443  94.3904956  53.0548561  26.4076976
  82.2022898  54.1613543  16.2364670  81.9568940  53.2575873  16.4344880
  82.3718812  54.1630693  15.2944148  89.8919608  45.0337219  25.6189426
  90.4101551  45.7698246  25.2935914  89.5374740  45.3401212  26.4536185
  81.4718545  49.8941900  13.7350832  80.7787790  49.9686255  13.0790868
  81.2270297  49.1302244  14.2572349  90.1432202  41.4537502  21.1390322
  90.4233955  40.7860691  21.7650749  90.9282809  41.6466597  20.6264986
  87.9465670  60.6296496  12.7015349  87.3739637  61.2486683  12.2485821
  88.5198464  61.1795857  13.2355271  94.0141060  49.8755136  24.8861897
  94.9658483  49.9753233  24.9074122  93.8444510  49.0833404  25.3959982
  92.0355439  46.9610719  25.0721298  91.4405372  47.2415732  24.3767787
  91.7505136  47.4504620  25.8438039  91.1662930  60.9133646  13.8323931
  92.0993603  60.8479207  14.0356806  91.0786143  61.7489913  13.3738464
  93.7950947  60.2299516  10.7927879  93.7164578  59.8959380  11.6863636
  94.6160613  60.7221284  10.7919351  96.4929138  53.0961255  24.0004197
  96.4605458  52.1577256  24.1863881  97.1029761  53.1745292  23.2670022
  88.3312469  51.9657308  10.0431401  89.2771573  51.8363516  10.1119819
  87.9526714  51.2271970  10.5200829  96.6423626  49.8872299  24.0462480
  96.1262675  49.1030755  23.8592409  97.5263575  49.5591015  24.2109000
  94.3034353  43.6313314  20.0058293  94.1059174  43.3228403  20.8901625
  94.9134059  44.3574953  20.1356223 102.3105688  54.1577262  23.1410234
 103.0409076  53.8962550  23.7017937 101.7012633  53.4205984  23.1812302
 100.3920985  52.2985125  23.7384685  99.6654148  52.1641090  23.1301177
  99.9768272  52.6061953  24.5441403  88.2151161  56.0175055  31.5032058
  89.1354171  56.1953654  31.6972105  88.1800744  55.0731100  31.3511757
  86.5155386  49.8907285   9.9786286  85.6086841  49.5940397  10.0549000
  86.7931367  49.5937103   9.1120573  77.4333326  51.2113648  20.4285333
  77.1136111  50.3578956  20.1359707  76.8866754  51.4262226  21.1843300
  88.1317452  44.4344174  16.1330528  87.3218180  44.0891259  16.5085774
  88.8201868  44.1251718  16.7218139  90.0608000  43.5122221  17.7554824
  90.6139038  43.9317675  18.4144847  90.2978086  42.5857969  17.7977780
  86.0841099  49.5009295  33.5357588  85.9837826  50.4503652  33.4669679
  85.8662641  49.1727534  32.6633658  85.2854170  46.7494220  10.1198266
  86.1473334  47.0749118  10.3794083  85.4704515  45.9625716   9.6071331
  77.3021586  54.8316560  22.3978454  76.6085058  54.4170512  21.8848409
  78.0494577  54.8737096  21.8011873  93.4386807  45.6222746  17.2633489
  92.8585476  46.2807550  16.8811541  93.1722740  44.8000091  16.8520906
  91.8890373  45.0227804  19.4654809  92.3890152  45.1344339  18.6569128
  92.5325981  44.7188857  20.1055617  79.2158329  54.7634813  20.2744469
  79.1929017  54.8622501  19.3226352  79.5258965  55.6099964  20.5961635
  81.8745707  56.8210968  24.3891084  82.8288960  56.7894911  24.3221015
  81.6758230  56.3601592  25.2041310  92.2211685  47.7822837  16.3189837
  91.3337540  48.0672487  16.1010032  92.6365674  47.6216600  15.4717114
  95.5726221  47.8069358  20.0344176  96.3486611  48.2965810  20.3068793
  94.8474355  48.2327412  20.4916046  98.0098780  48.5196977  21.0918117
  98.6043271  48.2792713  20.3811425  98.0825363  47.8004108  21.7191653
  80.2295935  62.3630588  21.4061282  80.0950403  61.6030989  20.8399280
  79.8127998  63.0871488  20.9390070  91.3654898  57.5467511  10.4137857
  92.0690749  57.7517514  11.0295512  90.6417547  58.1144273  10.6786940
  92.1952709  53.2977373  16.5340127  92.1387910  53.7545924  15.6947759
  92.7481051  52.5368057  16.3562970  96.0057515  49.0867105  17.3590246
  95.7494449  48.6863740  18.1898454  95.3810383  49.8010899  17.2340386
 100.3169852  51.8263178  19.8661538  99.7569410  51.8956367  20.6393100
  99.7113356  51.6504162  19.1461034  83.3865061  63.2599905  21.6179724
  83.2697445  64.2045337  21.5158414  82.5657508  62.9573467  22.0065523
  93.2741596  57.9850041  12.4636317  94.1087200  57.5531239  12.2813792
  93.1125939  57.8132054  13.3913211  92.9287488  54.4882154  13.8292656
  92.8736292  54.3226425  12.8881100  92.3033543  55.1958187  13.9854846
  90.2433395  56.7931066  33.1546219  91.1124555  56.9671718  32.7932854
  89.7640147  57.6125483  33.0321948  86.2383613  43.9890263  13.4077975
  86.2262283  44.9332103  13.5646245  87.1307035  43.8060408  13.1137436
  84.4119575  63.9128167  24.8335653  85.3146822  63.9451777  25.1502148
  84.1856945  62.9828618  24.8481988  86.1673177  62.6659153  21.4945731
  85.2168808  62.6661015  21.3810104  86.4705664  61.9191888  20.9781766
  90.0535733  40.5833040  17.6623911  89.2868129  40.0291526  17.8080594
  90.4646438  40.6554908  18.5238063 101.9025871  68.5019692  22.5591494
 102.5404281  68.3826439  21.8554834 101.7846714  69.4500536  22.6179446
  98.7115577  68.4547120  22.4953018  98.3734089  68.3388185  21.6073553
  99.5805345  68.0538285  22.4754024  94.5702393  70.3082596  18.4849909
  94.0067258  70.2172533  17.7166197  94.4554788  69.4882501  18.9652402
  99.1935360  69.6081972  28.4539224  99.1824001  69.2134770  27.5819728
  99.3556000  68.8748044  29.0472995  92.1166825  71.8033788  21.3234130
  92.9088117  71.4624613  20.9080429  92.3563475  71.9128763  22.2436283
 100.1501952  73.9753564  13.7964374  99.4989931  74.5607644  13.4098388
 100.9446314  74.5059759  13.8559412  94.0757579  71.0642701  14.1951509
  94.8488455  70.5171688  14.0564384  94.4282978  71.9286950  14.4065970
  95.9142621  72.3919083  27.4018408  95.6232487  73.2964714  27.2865074
  96.5499606  72.4335611  28.1162477  96.8398828  69.7695932  23.9919767
  97.4362400  69.5451954  23.2776730  96.8973800  69.0280677  24.5945215
  96.4123857  67.2235367  11.8269958  96.6649377  66.7016889  11.0653421
  95.4748416  67.0601513  11.9296642 101.4567139  66.2271146  19.6344702
 102.2430229  65.8090569  19.2835119 101.7205844  67.1317238  19.8026350
 101.6277217  71.6643996  14.3333358 100.9923050  71.7378622  15.0454263
 101.2974623  72.2537595  13.6552438 106.8575567  66.1646379  20.5377680
 107.5900738  65.5945596  20.7715510 106.1014922  65.7767979  20.9784186
  96.1320145  69.1263473  14.0294333  96.0156403  68.4508377  14.6975418
  96.2422405  68.6395847  13.2126486  98.4751686  68.5873620  17.7341023
  98.1109893  68.0604241  18.4453944  99.3318802  68.1972089  17.5607508
 104.3800987  59.8767953  24.9972289 104.0484312  60.7463364  24.7733504
 103.7846600  59.5604237  25.6766319  98.1157173  63.6163520  12.7302371
  98.2831576  64.4843756  13.0972842  97.9254342  63.7790802  11.8063660
 100.8732506  72.0780499  24.3968202 100.5733230  72.9805538  24.2884009
 100.5283566  71.8112682  25.2489354  94.3244988  68.5294296  20.4304906
  93.3995484  68.3970510  20.6382598  94.5729401  69.3088515  20.9274848
 104.2729650  64.5963039  22.0765639 103.3646528  64.5278448  21.7824400
 104.2217246  65.0734984  22.9047464  98.0946394  66.0721178  13.7149038
  97.9746019  66.5178228  14.5534518  97.3998982  66.4206495  13.1562576
  91.6853799  68.1727569  21.2648695  91.8146180  68.4262048  22.1788107
  91.0051250  68.7655277  20.9453350  95.8553286  78.8424819  17.3639169
  95.7777316  79.7932644  17.4427650  95.2514930  78.4970692  18.0214096
  98.3470516  66.0152685  30.0200536  97.5703850  66.5746605  30.0103401
  98.9861079  66.5009468  30.5415406 106.1391297  62.7979478  23.8543513
 105.4965677  63.0912011  23.2083307 105.6346225  62.6832398  24.6596709
 103.7931460  66.5442651  14.5429372 104.7049316  66.7770037  14.3677070
 103.2841107  67.1279695  13.9804451  96.6016888  68.8238138  29.5818503
  97.3431573  69.3623182  29.3053327  95.8953874  69.4504427  29.7390055
 102.0772228  70.9667279  28.1790665 102.4855584  70.5249689  27.4345297
 101.3549489  70.3919906  28.4324857  98.4303298  65.9039885  25.5524222
  99.2764493  66.3279299  25.6958871  98.3701936  65.2473510  26.2462785
 102.4001043  71.5268469  21.9342953 101.7709905  71.6914183  21.2319021
 102.0126705  71.9410079  22.7053918 106.2790274  72.4622907  19.2887317
 105.5941313  72.8421808  18.7384351 106.3634124  73.0718234  20.0219265
 101.5802743  63.5644254  27.2105395 101.3363675  64.3186314  26.6739671
 101.8562674  63.9429601  28.0452642 103.5341206  70.1082866  25.8882661
 103.7458101  70.7514626  25.2117042 103.4870954  69.2745183  25.4204591
 101.1367435  62.7200687  22.7919233 100.2751914  63.0181940  23.0835970
 101.1629870  62.9371086  21.8600266  97.9529004  71.2642877  19.1993039
  98.4167350  71.5430580  18.4097661  97.6885803  70.3626322  19.0166129
  94.8453086  70.8114359  22.1372802  95.4154443  71.2401627  21.4990286
  95.4361197  70.5296944  22.8356987  96.8897891  67.3866030  16.0082604
  97.5921934  67.8387073  16.4756530  96.5578519  66.7449849  16.6362497
  95.3378252  65.9777786  30.3833813  94.7076913  66.6594067  30.6169210
  95.2314340  65.8660868  29.4386951  90.6323224  65.6449582  21.3099737
  89.8422278  65.9007111  20.8339848  91.1234472  66.4597920  21.4151778
 104.6487034  72.9854821  24.0605018 105.4704478  72.5835009  23.7787700
 104.6449437  72.8823056  25.0121134  92.5837970  66.0094162  18.2683214
  91.7869133  66.1212856  18.7866710  92.3563562  66.3480814  17.4024104
  98.4143637  72.5338865  26.2165729  98.4788070  72.9959272  27.0523900
  97.7054561  71.9036230  26.3448038  88.9160927  65.8980073  23.7414728
  89.1668966  66.7827083  24.0072304  89.4520476  65.7184674  22.9689820
 112.7393027  69.3293570  20.4089990 111.9856735  68.7600968  20.2533994
 112.8740568  69.2956234  21.3560624  98.1291655  74.2006972  16.0844709
  97.9937330  75.0458508  16.5129557  98.6701468  74.4026250  15.3210643
  94.6158995  60.2798552  32.7459064  94.2225940  59.7264751  33.4206708
  95.4325135  60.5909131  33.1365582  91.5821053  71.7182410  16.6572634
  92.0945573  72.5125661  16.8078199  92.2343765  71.0208701  16.5906235
  93.3915937  74.8348167  18.7395387  93.5682566  75.7566131  18.5516371
  94.1872771  74.5206586  19.1689767  97.5326956  61.6956431  30.3379321
  98.2736669  62.2963584  30.2583783  97.7644879  60.9534069  29.7797363
  92.6768294  66.8812798  28.6157550  92.5621809  65.9798056  28.9164649
  91.8212812  67.1276495  28.2642367  99.7560132  74.8230539  30.2145051
  99.3123986  74.0366917  29.8965956 100.4177345  75.0109689  29.5488942
  94.5147253  76.3526340  24.7405730  95.0654678  76.2243404  23.9682723
  93.6758729  76.6521229  24.3900622 101.8541370  75.1033339  28.2426452
 101.8359845  75.9242220  27.7506721 102.7761290  74.9787414  28.4676593
  98.3114424  72.6177468  29.0849961  98.8442761  71.8565756  28.8549269
  97.7828505  72.3251120  29.8274115 101.4784119  57.7237534  24.6143602
 101.1348388  58.6139176  24.5382713 101.8463081  57.5339192  23.7513187
  89.5469969  70.0471065  17.4332205  90.3845191  70.4568073  17.2165912
  89.7248237  69.1070507  17.4032398 101.4434401  67.7146145  13.1216038
 100.9281025  68.4850750  13.3604425 101.1711710  67.0411281  13.7449099
  99.0281512  62.5595846  18.1801276  98.1723109  62.1702696  18.0006915
  99.4408464  62.6387807  17.3201061 100.5580659  60.0942189  22.5792836
 100.0545455  60.0572324  21.7660641 100.8511266  61.0034932  22.6389492
  96.8023545  60.1780919  21.5859017  97.6676542  59.9823728  21.2264907
  96.8701054  59.9491271  22.5128374 106.4168676  70.4678500  15.0569211
 105.6398118  70.1289659  14.6124373 107.0960157  70.4731123  14.3824176
 101.2320705  65.5873237  14.9475819 100.9270840  65.9019387  15.7985962
 102.1851147  65.6654657  14.9903152  99.6767136  71.7463461  16.5968773
  99.1488498  71.0116220  16.2842010  99.1754639  72.5238137  16.3508741
 104.6559982  69.9412481  21.7135819 103.9983657  70.6311743  21.8015948
 105.4600382  70.3308913  22.0569805  94.4085864  62.4083127  18.9575384
  94.9829616  62.1858308  18.2248577  94.9956846  62.4771821  19.7103985
 103.4665441  68.2956854  19.7639761 103.9797323  68.9286846  20.2661470
 104.1166665  67.6958049  19.3983121  94.7355451  64.4387588  12.9771269
  93.8992763  64.7762275  13.2980544  94.5960221  64.3036568  12.0398406
  96.7108532  59.2824376  17.6850454  96.0572944  58.9673393  17.0607068
  96.6689006  58.6600116  18.4110277  97.8219737  69.5643671   9.6003746
  96.9146798  69.3332924   9.7994895  98.3190769  68.7681290   9.7877727
  99.9446272  65.7706309  22.0098101  99.0268833  65.9921256  21.8519789
 100.3606416  65.8452620  21.1509809 100.7281320  67.1697725  17.1400782
 101.4753139  67.6819122  16.8307904 100.9972909  66.8481778  18.0005175
  99.0007970  69.6656266  14.1227736  98.0919189  69.3815299  14.2200206
  99.0303054  70.0855344  13.2631043 104.2327237  73.2762855  17.8918903
 103.7789565  72.4353765  17.9484094 103.6021204  73.9124254  18.2293684
 103.1760157  64.2054841  19.1219571 102.4382914  63.6932228  19.4529813
 103.4286931  63.7655223  18.3102848 102.6760177  75.1139352  18.8268721
 102.9683151  75.6744409  18.1081087 103.1858797  75.4067913  19.5821881
 103.2771784  56.9831093  19.7161340 103.5830661  56.1228457  19.4287255
 104.0024389  57.5748714  19.5160334  89.5696140  67.3861780  18.1042938
  89.3720540  66.7931141  17.3794005  89.0142804  67.0813990  18.8218877
  97.5492864  67.2784886  20.2237531  97.6041474  66.3258723  20.1480008
  96.7384066  67.4344325  20.7078830  98.6984058  71.2065009  11.4615814
  98.2603488  70.4900868  11.0021452  99.4394499  71.4341124  10.9000906
  95.4885224  65.8961946  17.9827910  94.6753090  66.1956117  18.3893102
  95.9844218  65.5017635  18.7002392  97.6393802  75.8919703  19.9162175
  97.5969981  76.1180549  18.9870707  98.5556501  75.6583078  20.0647976
 101.0859436  66.3603771  26.8142804 101.4408823  66.5875244  27.6737270
 101.7331567  66.6922147  26.1920059 106.8157173  69.4822206  17.5192133
 106.6775071  69.6723802  16.5913322 106.4593391  70.2441589  17.9760184
  94.9799299  63.4680302  23.5989145  95.6198678  63.3269061  22.9012108
  94.1476829  63.1814815  23.2227747 106.8426552  71.5498734  22.5303404
 107.2763059  71.4574023  23.3786458 107.5558133  71.5256234  21.8923420
  95.7559603  72.7682732  19.7124137  96.5500201  72.2733052  19.5106712
  95.0451295  72.2400595  19.3491843 100.5754447  75.1500828  24.0636505
 100.6291469  75.7191764  24.8314221  99.7069229  75.3202713  23.6990542
  92.0642366  66.9125814  15.7883890  91.1339954  66.8510269  16.0053852
  92.1599838  66.3901767  14.9920531  91.9827915  63.4380627  18.3762132
  92.2434732  64.3525960  18.2671292  92.8045088  62.9705069  18.5258745
  93.4552841  64.8518384  25.5460956  94.1275894  64.6435746  24.8973605
  92.6282627  64.6540470  25.1066189 107.7042102  71.5922434  25.0636290
 107.8977992  72.4968245  25.3095565 107.6042720  71.1329853  25.8974875
  99.3578413  61.4780325  27.5626617  98.7106328  62.1770274  27.4691094
 100.1279428  61.9116469  27.9302865 102.7657210  71.7429177  30.6377170
 102.6142717  71.5139729  29.7207254 102.7561890  72.6999778  30.6508515
  99.5342547  69.3161090  25.6223437 100.4634607  69.4672249  25.4492404
  99.1133577  69.4045110  24.7672083  98.3330879  73.3411754  23.3921975
  98.1941964  72.9730538  24.2647913  97.5445475  73.8559393  23.2205932
  98.9279031  78.4420851  14.7347511  99.1030786  77.9708894  15.5493134
  98.2411819  79.0686617  14.9628772  99.8836094  72.7193357  20.7810812
  99.5485926  72.6794127  21.6768462  99.3840040  72.0538073  20.3081223
  93.8580338  68.1260987  26.3063393  93.7200136  67.3941226  26.9074933
  94.7685261  68.0369887  26.0247581 102.8195285  70.0649391  11.0547872
 102.2024456  69.3396219  10.9580925 102.3511774  70.8258751  10.7114946
  96.4862638  67.8380946  25.7947073  97.1962257  67.1974138  25.7533692
  96.4431947  68.0893841  26.7173254 104.4749417  74.7748299  28.7153652
 104.4161963  74.0907520  28.0484235 104.8768936  75.5167289  28.2634278
  95.1991572  64.8246164  27.6142713  94.6628929  64.3736902  28.2664309
  94.6108281  64.9592073  26.8713177  93.4940116  81.5910213  21.5087371
  93.7336714  82.2228737  22.1866390  92.6509312  81.2398253  21.7952730
  94.6093831  64.2834815  10.1769176  93.7323298  64.1623616   9.8131423
  95.0851584  63.4920894   9.9248065 104.4766824  72.7387883  26.9467632
 103.5893603  72.4013805  27.0694031 105.0465375  72.0070915  27.1836397
  86.1295972  69.0711975  20.2710683  86.8167011  68.7573705  19.6831699
  85.9744100  69.9753340  19.9977935  90.9330694  63.9602172  24.6995707
  90.8488882  63.3527841  23.9646117  90.1113400  64.4511190  24.7005203
  98.0067978  77.3989336  23.9128875  97.9338149  78.2044307  24.4248180
  97.5645371  77.5981302  23.0876897  97.7957757  76.6361106  17.4231697
  97.0125279  77.1782786  17.5169921  98.4950503  77.1535085  17.8225938
 101.1054408  62.4455735  20.0665902 101.6023107  61.6925698  19.7466972
 100.3341389  62.4820052  19.5009111 108.9584165  68.1496101  21.7084194
 108.9474041  69.0320816  21.3378127 108.0901544  67.7967652  21.5138731
 100.4666661  77.2976170  26.0687034 101.1794634  77.9323635  25.9962935
  99.9756690  77.3940036  25.2527036 102.1884188  71.2027422  17.6404326
 101.2540467  71.3228885  17.4709030 102.3660857  70.2999889  17.3764335
  97.6889376  64.5873118  19.7937587  97.3187164  64.0344159  20.4818492
  98.1848469  63.9831252  19.2412587 105.5756740  67.0444742  18.1754360
 106.0417192  67.8772733  18.1014662 106.0264240  66.5789723  18.8799618
  95.5178575  75.0470613  26.8892605  96.2188034  75.6807096  27.0421999
  95.0473690  75.3885345  26.1288244 103.6432971  73.3888563  15.1740512
 103.9192815  73.2745158  16.0834386 102.7737469  72.9906048  15.1352685
 103.5473402  59.4125329  22.2145261 102.6336482  59.6429556  22.3827468
 103.9766504  59.4963773  23.0659293 103.3179861  67.6015221  24.7145155
 102.6651311  67.8491128  24.0597608 103.6960241  66.7879359  24.3807632
 100.2787035  77.6374914  18.8173325 100.4609429  76.8196570  19.2801078
 101.1020021  77.8542606  18.3798215 100.6129200  76.5643099  16.0788374
 101.1416967  76.0535554  15.4658536 100.8757420  76.2485629  16.9433907
  99.3667434  68.3435032  31.2011192  98.6908071  68.2429161  31.8713567
 100.1895068  68.1874245  31.6647189  91.1146293  74.5806968  23.8223707
  91.6999730  73.8350656  23.9551612  90.9171131  74.8910925  24.7060371
  93.9684948  77.6158216  18.8386150  93.2995323  78.1004343  18.3550190
  93.8297818  77.8627436  19.7529528  85.7063948  67.1512569  22.5428151
  85.7448047  66.6176159  23.3365269  85.2004240  66.6247774  21.9239128
  98.1090217  79.6501959  25.4368808  98.6608525  79.8133581  26.2017893
  98.4496410  80.2406397  24.7648833  93.0854710  61.9977109  26.0390693
  93.1496036  62.8591940  25.6268091  93.0221830  61.3851111  25.3063051
  92.5606982  64.0700242  29.6863727  93.1879021  63.6877319  30.3001251
  91.7034901  63.8514443  30.0519420 102.9601091  74.4763217  31.2917463
 103.5040995  75.0893175  30.7972417 102.3787936  75.0342795  31.8084476
  89.3372525  65.8776671  15.6182082  89.6325966  64.9687349  15.5649136
  88.4360561  65.8564410  15.2963084 101.2458604  77.5983935  22.4232490
 101.1209743  76.7973675  21.9143436 101.9037695  78.0930128  21.9346460
  92.8666772  63.9532667  21.6009631  92.1453358  64.5668635  21.4617104
  93.6560028  64.4890432  21.5226276 103.3093512  75.3992955  24.0512040
 102.3623848  75.2798306  23.9790367 103.6576285  74.5115453  24.1338302
  95.6693086  61.2887094  27.8750282  96.1927488  61.5349390  28.6376592
  95.4505419  62.1207129  27.4553420  91.0660367  63.5590768  15.7421407
  90.7373073  62.6788147  15.5596513  91.4199738  63.5038437  16.6297796
 100.3139946  75.1945671  20.2516393 100.1664908  74.2662378  20.4323963
 101.1393439  75.2165762  19.7673468  94.1802190  63.8463738  16.1096885
  94.5198262  64.3749659  15.3875493  94.6274310  64.1844144  16.8855451
 103.9174068  76.0174230  21.3381265 104.8420615  75.8117091  21.2005716
 103.7489371  75.7690631  22.2470607  96.8745631  62.2300789  25.5599953
  96.5342451  61.4308602  25.9620633  96.1684637  62.5302500  24.9876786
  97.5262103  59.3150101  24.0127276  98.3488172  58.8410579  23.8906166
  97.7700166  60.0940585  24.5125962  96.1670337  62.3438360  14.3090177
  96.8878700  62.7219612  13.8053894  95.5435641  63.0627237  14.4125155
 100.3101460  63.0483509  15.2448510 100.5265074  63.9308147  14.9437338
  99.8295527  62.6569722  14.5154152  95.0500681  66.0069222  21.8219254
  94.9045262  66.3209525  22.7143536  94.5725885  66.6254122  21.2690153
  96.9097064  62.9971770  21.8700144  96.8958633  62.1012863  21.5332442
  97.6269492  63.0042434  22.5038430  98.7623195  63.4309110  23.9153271
  98.5040973  64.3526181  23.9137602  98.2308235  63.0339545  24.6053736
 103.7069384  76.5359897  16.6943357 103.8806261  75.9706320  15.9417209
 104.1998275  77.3360792  16.5122847  89.5246344  68.5474566  24.7606916
  88.9799812  69.3234374  24.8927190  90.4025693  68.8945371  24.6026037
  96.3133960  61.8786150  17.1387714  96.4349871  60.9502796  17.3378602
  96.0236003  61.8924836  16.2266030  99.1825151  59.5641061  20.2754434
  99.2046847  59.6280394  19.3206414  99.5993210  58.7245569  20.4694940
 109.5608775  69.2996320  18.3133657 110.0039921  68.5503645  17.9152780
 108.6835285  69.2906457  17.9307389 104.6944556  75.8526662  13.7940255
 105.3895461  76.4733354  14.0127570 105.0367706  75.0022013  14.0692633
  90.3112365  67.6744463  27.6537072  89.5694101  67.8227098  28.2401703
  89.9905110  67.9352728  26.7903822 106.5935979  73.3026367  15.3227586
 107.1187303  73.6413640  14.5976906 106.5058332  72.3673382  15.1390720
  98.2556028  77.2160441  27.4517462  98.5643154  76.9709588  28.3240162
  99.0531510  77.4207079  26.9636333  98.2776640  79.3698350  19.6822839
  97.8381630  78.8774729  20.3755696  99.0284757  78.8271318  19.4414914
  90.7568979  75.5609891  19.6847467  91.5826999  75.2613663  19.3046111
  90.4063031  74.7917514  20.1337256  95.7250512  74.9136360  21.7545141
  95.1030522  74.2507065  21.4547369  96.3955379  74.9397491  21.0718788
  88.9577584  73.4796218  20.6436401  88.1209492  73.0518392  20.4620402
  88.9301230  73.6728661  21.5807192  95.7975040  63.3918148  31.3477647
  95.8463195  64.2680270  30.9655416  96.3397554  62.8495541  30.7749290
 106.2829885  73.9359271  30.6278784 105.4925429  73.9183410  30.0883283
 106.0463240  74.4747564  31.3827820 106.4027760  70.7851737  27.9411512
 106.4525765  70.6201745  28.8827035 106.2941684  69.9178996  27.5509393
  95.2864019  73.4640283  15.2303601  95.4352140  74.1475747  14.5770274
  96.0930463  73.4445373  15.7453057 103.6931523  66.7682665  29.2570819
 104.5941386  66.6289130  28.9654817 103.7679497  66.9337120  30.1968996
  98.0274328  64.1449520  28.1024005  97.1577638  64.4383086  27.8306594
  98.2633809  64.7289965  28.8231269 107.9045957  73.2048679  28.1853534
 107.6130766  73.5678659  29.0216995 107.2918089  72.4915687  28.0066866
 109.1041640  70.7701558  20.7056104 109.9388531  71.2091363  20.8693664
 109.2400768  70.2940212  19.8864350 106.1533146  68.3281293  26.6533592
 106.6287267  68.5208940  25.8452443 105.2298711  68.3840479  26.4076976
  93.0416652  69.4905460  16.2364670  92.7962694  68.5867790  16.4344880
  93.2112567  69.4922611  15.2944148 100.7313362  60.3629137  25.6189426
 101.2495306  61.0990164  25.2935914 100.3768495  60.6693130  26.4536185
  92.3112300  65.2233818  13.7350832  91.6181545  65.2978173  13.0790868
  92.0664052  64.4594162  14.2572349 100.9825956  56.7829419  21.1390322
 101.2627710  56.1152608  21.7650749 101.7676563  56.9758515  20.6264986
  98.7859425  75.9588413  12.7015349  98.2133392  76.5778600  12.2485821
  99.3592218  76.5087775  13.2355271 104.8534815  65.2047053  24.8861897
 105.8052237  65.3045151  24.9074122 104.6838265  64.4125322  25.3959982
 102.8749194  62.2902637  25.0721298 102.2799126  62.5707649  24.3767787
 102.5898891  62.7796538  25.8438039 102.0056684  76.2425563  13.8323931
 102.9387358  76.1771125  14.0356806 101.9179897  77.0781830  13.3738464
 107.3322892  68.4253173  24.0004197 107.2999212  67.4869174  24.1863881
 107.9423516  68.5037210  23.2670022  99.1706223  67.2949226  10.0431401
 100.1165328  67.1655434  10.1119819  98.7920468  66.5563888  10.5200829
 107.4817381  65.2164217  24.0462480 106.9656429  64.4322673  23.8592409
 108.3657329  64.8882933  24.2109000 105.1428108  58.9605232  20.0058293
 104.9452929  58.6520320  20.8901625 105.7527813  59.6866871  20.1356223
 113.1499442  69.4869180  23.1410234 113.8802831  69.2254468  23.7017937
 112.5406388  68.7497902  23.1812302 111.2314739  67.6277043  23.7384685
 110.5047903  67.4933007  23.1301177 110.8162026  67.9353871  24.5441403
  99.0544916  71.3466972  31.5032058  99.9747925  71.5245571  31.6972105
  99.0194499  70.4023018  31.3511757  97.3549140  65.2199202   9.9786286
  96.4480596  64.9232315  10.0549000  97.6325121  64.9229021   9.1120573
  88.2727081  66.5405566  20.4285333  87.9529865  65.6870874  20.1359707
  87.7260509  66.7554144  21.1843300  92.0506988  69.2568007  24.1454839
  92.2692998  70.1885115  24.1642873  92.4632762  68.8975981  24.9309643
  98.9711206  59.7636092  16.1330528  98.1611934  59.4183177  16.5085774
  99.6595623  59.4543636  16.7218139 100.9001754  58.8414139  17.7554824
 101.4532793  59.2609592  18.4144847 101.1371841  57.9149887  17.7977780
  96.9234854  64.8301213  33.5357588  96.8231580  65.7795570  33.4669679
  96.7056396  64.5019452  32.6633658  96.1247925  62.0786138  10.1198266
  96.9867089  62.4041036  10.3794083  96.3098269  61.2917634   9.6071331
  88.1415341  70.1608477  22.3978454  87.4478812  69.7462430  21.8848409
  88.8888332  70.2029014  21.8011873 104.2780561  60.9514664  17.2633489
 103.6979230  61.6099468  16.8811541 104.0116494  60.1292009  16.8520906
 102.7284128  60.3519722  19.4654809 103.2283906  60.4636256  18.6569128
 103.3719736  60.0480775  20.1055617  96.7866124  68.2598351  32.3522650
  96.3033205  69.0598712  32.5586539  96.8727063  68.2706296  31.3990094
  90.0552083  70.0926731  20.2744469  90.0322771  70.1914418  19.3226352
  90.3652720  70.9391882  20.5961635  92.7139461  72.1502886  24.3891084
  93.6682715  72.1186828  24.3221015  92.5151985  71.6893510  25.2041310
  93.3038843  70.7204002  26.9561881  94.1231732  71.2148081  26.9796719
  93.5775651  69.8035970  26.9279449 103.0605439  63.1114755  16.3189837
 102.1731294  63.3964405  16.1010032 103.4759429  62.9508518  15.4717114
 106.4119976  63.1361275  20.0344176 107.1880366  63.6257728  20.3068793
 105.6868110  63.5619330  20.4916046 108.8492534  63.8488895  21.0918117
 109.4437025  63.6084631  20.3811425 108.9219118  63.1296025  21.7191653
  91.0689690  77.6922506  21.4061282  90.9344158  76.9322907  20.8399280
  90.6521752  78.4163405  20.9390070 103.0346463  68.6269290  16.5340127
 102.9781665  69.0837842  15.6947759 103.5874806  67.8659975  16.3562970
 106.8451269  64.4159022  17.3590246 106.5888203  64.0155658  18.1898454
 106.2204137  65.1302816  17.2340386 111.1563607  67.1555096  19.8661538
 110.5963165  67.2248285  20.6393100 110.5507110  66.9796080  19.1461034
  94.2258816  78.5891823  21.6179724  94.1091200  79.5337255  21.5158414
  93.4051262  78.2865384  22.0065523 104.1135350  73.3141958  12.4636317
 104.9480954  72.8823157  12.2813792 103.9519693  73.1423972  13.3913211
 103.7681243  69.8174072  13.8292656 103.7130046  69.6518343  12.8881100
 103.1427298  70.5250105  13.9854846  88.5573757  65.0542136  27.6554078
  89.2032621  64.5441090  28.1441304  88.3490909  65.7910818  28.2297504
 101.0827150  72.1222984  33.1546219 101.9518309  72.2963636  32.7932854
 100.6033901  72.9417400  33.0321948  97.0777368  59.3182181  13.4077975
  97.0656038  60.2624021  13.5646245  97.9700790  59.1352326  13.1137436
  95.2513330  79.2420085  24.8335653  96.1540577  79.2743695  25.1502148
  95.0250700  78.3120536  24.8481988  97.0066932  77.9951071  21.4945731
  96.0562563  77.9952933  21.3810104  97.3099418  77.2483806  20.9781766
 100.8929487  55.9124957  17.6623911 100.1261883  55.3583444  17.8080594
 101.3040192  55.9846826  18.5238063  92.8971248  62.2009753  31.7529093
  93.7602710  61.8446558  31.9632417  92.3236659  61.8623648  32.4404497
 112.7419625  83.8311609  22.5591494 113.3798035  83.7118357  21.8554834
 112.6240468  84.7792453  22.6179446 109.5509332  83.7839038  22.4953018
 109.2127843  83.6680102  21.6073553 110.4199100  83.3830203  22.4754024
 110.0329115  84.9373889  28.4539224 110.0217755  84.5426688  27.5819728
 110.1949754  84.2039962  29.0472995 102.9560579  87.1325706  21.3234130
 103.7481871  86.7916530  20.9080429 103.1957229  87.2420681  22.2436283
 106.7536376  87.7211001  27.4018408 106.4626242  88.6256632  27.2865074
 107.3893360  87.7627529  28.1162477 107.6792583  85.0987850  23.9919767
 108.2756155  84.8743872  23.2776730 107.7367554  84.3572595  24.5945215
 115.2194741  75.2059871  24.9972289 114.8878066  76.0755282  24.7733504
 114.6240355  74.8896155  25.6766319 111.7126261  87.4072417  24.3968202
 111.4126984  88.3097455  24.2884009 111.3677320  87.1404600  25.2489354
 105.1638742  83.8586213  20.4304906 104.2389239  83.7262428  20.6382598
 105.4123156  84.6380433  20.9274848 115.1123405  79.9254957  22.0765639
 114.2040282  79.8570365  21.7824400 115.0611000  80.4026902  22.9047464
 102.5247553  83.5019487  21.2648695 102.6539935  83.7553966  22.1788107
 101.8445005  84.0947195  20.9453350 109.1864270  81.3444602  30.0200536
 108.4097605  81.9038523  30.0103401 109.8254834  81.8301385  30.5415406
 116.9785051  78.1271395  23.8543513 116.3359431  78.4203928  23.2083307
 116.4739980  78.0124316  24.6596709 107.4410643  84.1530056  29.5818503
 108.1825327  84.6915100  29.3053327 106.7347628  84.7796345  29.7390055
 112.9165982  86.2959196  28.1790665 113.3249338  85.8541607  27.4345297
 112.1943244  85.7211824  28.4324857 109.2697052  81.2331803  25.5524222
 110.1158248  81.6571217  25.6958871 109.2095690  80.5765427  26.2462785
 112.4196498  78.8936171  27.2105395 112.1757430  79.6478232  26.6739671
 112.6956428  79.2721519  28.0452642 114.3734961  85.4374784  25.8882661
 114.5851856  86.0806544  25.2117042 114.3264709  84.6037100  25.4204591
 111.9761190  78.0492604  22.7919233 111.1145669  78.3473858  23.0835970
 112.0023624  78.2663003  21.8600266 105.6846840  86.1406276  22.1372802
 106.2548197  86.5693545  21.4990286 106.2754952  85.8588861  22.8356987
 106.1772007  81.3069704  30.3833813 105.5470667  81.9885985  30.6169210
 106.0708094  81.1952786  29.4386951 101.4716979  80.9741500  21.3099737
 100.6816033  81.2299029  20.8339848 101.9628226  81.7889838  21.4151778
 103.4231724  81.3386079  18.2683214 102.6262888  81.4504773  18.7866710
 103.1957317  81.6772731  17.4024104 109.2537392  87.8630782  26.2165729
 109.3181824  88.3251190  27.0523900 108.5448316  87.2328147  26.3448038
  99.7554682  81.2271990  23.7414728 100.0062720  82.1119000  24.0072304
 100.2914230  81.0476592  22.9689820 105.4552749  75.6090470  32.7459064
 105.0619695  75.0556668  33.4206708 106.2718890  75.9201048  33.1365582
 108.3720710  77.0248349  30.3379321 109.1130424  77.6255502  30.2583783
 108.6038633  76.2825987  29.7797363 103.5162048  82.2104716  28.6157550
 103.4015563  81.3089973  28.9164649 102.6606566  82.4568413  28.2642367
 110.5953886  90.1522456  30.2145051 110.1517740  89.3658835  29.8965956
 111.2571100  90.3401607  29.5488942 105.3541007  91.6818258  24.7405730
 105.9048432  91.5535321  23.9682723 104.5152483  91.9813147  24.3900622
 112.6935124  90.4325256  28.2426452 112.6753599  91.2534137  27.7506721
 113.6155044  90.3079332  28.4676593 109.1508178  87.9469386  29.0849961
 109.6836515  87.1857674  28.8549269 108.6222259  87.6543038  29.8274115
 112.3177873  73.0529452  24.6143602 111.9742143  73.9431094  24.5382713
 112.6856836  72.8631109  23.7513187 109.8675267  77.8887764  18.1801276
 109.0116863  77.4994614  18.0006915 110.2802219  77.9679725  17.3201061
 111.3974414  75.4234107  22.5792836 110.8939209  75.3864242  21.7660641
 111.6905020  76.3326850  22.6389492 107.6417299  75.5072837  21.5859017
 108.5070296  75.3115645  21.2264907 107.7094808  75.2783188  22.5128374
 105.2479619  77.7375045  18.9575384 105.8223370  77.5150226  18.2248577
 105.8350601  77.8063739  19.7103985 107.5502286  74.6116294  17.6850454
 106.8966699  74.2965311  17.0607068 107.5082760  73.9892034  18.4110277
 110.7840027  81.0998227  22.0098101 109.8662588  81.3213174  21.8519789
 111.2000170  81.1744538  21.1509809 114.1165539  72.3123011  19.7161340
 114.4224416  71.4520374  19.4287255 114.8418144  72.9040631  19.5160334
 100.4089895  82.7153698  18.1042938 100.2114295  82.1223058  17.3794005
  99.8536559  82.4105908  18.8218877 108.3886619  82.6076804  20.2237531
 108.4435228  81.6550640  20.1480008 107.5777821  82.7636243  20.7078830
 106.3278979  81.2253864  17.9827910 105.5146844  81.5248034  18.3893102
 106.8237973  80.8309553  18.7002392 111.9253190  81.6895688  26.8142804
 112.2802578  81.9167161  27.6737270 112.5725321  82.0214065  26.1920059
 105.8193053  78.7972219  23.5989145 106.4592433  78.6560978  22.9012108
 104.9870584  78.5106733  23.2227747 102.8221670  78.7672544  18.3762132
 103.0828487  79.6817878  18.2671292 103.6438842  78.2996987  18.5258745
 104.2946595  80.1810302  25.5460956 104.9669648  79.9727664  24.8973605
 103.4676382  79.9832387  25.1066189 110.1972167  76.8072242  27.5626617
 109.5500082  77.5062192  27.4691094 110.9673182  77.2408386  27.9302865
 113.6050965  87.0721095  30.6377170 113.4536471  86.8431646  29.7207254
 113.5955644  88.0291696  30.6508515 110.3736301  84.6453007  25.6223437
 111.3028361  84.7964167  25.4492404 109.9527331  84.7337028  24.7672083
 109.1724633  88.6703672  23.3921975 109.0335719  88.3022456  24.2647913
 108.3839229  89.1851311  23.2205932 104.6974092  83.4552904  26.3063393
 104.5593890  82.7233143  26.9074933 105.6079016  83.3661805  26.0247581
 107.3256393  83.1672864  25.7947073 108.0356011  82.5266056  25.7533692
 107.2825701  83.4185759  26.7173254 115.3143172  90.1040217  28.7153652
 115.2555718  89.4199437  28.0484235 115.7162690  90.8459207  28.2634278
 106.0385327  80.1538082  27.6142713 105.5022684  79.7028820  28.2664309
 105.4502035  80.2883991  26.8713177 115.3160579  88.0679801  26.9467632
 114.4287358  87.7305723  27.0694031 115.8859130  87.3362832  27.1836397
  96.9689726  84.4003893  20.2710683  97.6560766  84.0865623  19.6831699
  96.8137855  85.3045257  19.9977935 101.7724448  79.2894089  24.6995707
 101.6882637  78.6819759  23.9646117 100.9507155  79.7803108  24.7005203
 111.9448162  77.7747653  20.0665902 112.4416862  77.0217615  19.7466972
 111.1735144  77.8111970  19.5009111 108.5283131  79.9165036  19.7937587
 108.1580918  79.3636076  20.4818492 109.0242223  79.3123169  19.2412587
 106.3572329  90.3762531  26.8892605 107.0581789  91.0099014  27.0421999
 105.8867444  90.7177262  26.1288244 114.3867157  74.7417246  22.2145261
 113.4730237  74.9721473  22.3827468 114.8160258  74.8255690  23.0659293
 114.1573615  82.9307138  24.7145155 113.5045066  83.1783046  24.0597608
 114.5353995  82.1171277  24.3807632 110.2061188  83.6726949  31.2011192
 109.5301825  83.5721079  31.8713567 111.0288822  83.5166163  31.6647189
 101.9540047  89.9098886  23.8223707 102.5393484  89.1642574  23.9551612
 101.7564886  90.2202843  24.7060371  96.5457702  82.4804486  22.5428151
  96.5841802  81.9468077  23.3365269  96.0397995  81.9539692  21.9239128
 103.9248464  77.3269027  26.0390693 103.9889791  78.1883858  25.6268091
 103.8615585  76.7143028  25.3063051 103.4000737  79.3992159  29.6863727
 104.0272776  79.0169237  30.3001251 102.5428656  79.1806361  30.0519420
 113.7994846  89.8055134  31.2917463 114.3434750  90.4185093  30.7972417
 113.2181690  90.3634713  31.8084476 100.1766280  81.2068588  15.6182082
 100.4719721  80.2979267  15.5649136  99.2754315  81.1856328  15.2963084
 103.7060527  79.2824585  21.6009631 102.9847112  79.8960553  21.4617104
 104.4953782  79.8182350  21.5226276 106.5086840  76.6179011  27.8750282
 107.0321242  76.8641308  28.6376592 106.2899174  77.4499046  27.4553420
 101.9054121  78.8882686  15.7421407 101.5766827  78.0080065  15.5596513
 102.2593492  78.8330355  16.6297796 107.7139385  77.5592707  25.5599953
 107.3736206  76.7600520  25.9620633 107.0078392  77.8594417  24.9876786
 108.3655857  74.6442019  24.0127276 109.1881926  74.1702497  23.8906166
 108.6093921  75.4232503  24.5125962 105.8894436  81.3361140  21.8219254
 105.7439017  81.6501443  22.7143536 105.4119639  81.9546040  21.2690153
 107.7490819  78.3263688  21.8700144 107.7352388  77.4304781  21.5332442
 108.4663247  78.3334351  22.5038430 109.6016949  78.7601028  23.9153271
 109.3434727  79.6818098  23.9137602 109.0701990  78.3631462  24.6053736
 100.3640098  83.8766484  24.7606916  99.8193566  84.6526292  24.8927190
 101.2419448  84.2237288  24.6026037 107.1527715  77.2078068  17.1387714
 107.2743626  76.2794714  17.3378602 106.8629757  77.2216754  16.2266030
 110.0218905  74.8932978  20.2754434 110.0440602  74.9572311  19.3206414
 110.4386964  74.0537487  20.4694940 101.1506120  83.0036380  27.6537072
 100.4087856  83.1519016  28.2401703 100.8298864  83.2644646  26.7903822
 109.0949783  92.5452358  27.4517462 109.4036909  92.3001505  28.3240162
 109.8925265  92.7498997  26.9636333  99.7971339  88.8088135  20.6436401
  98.9603247  88.3810310  20.4620402  99.7694984  89.0020579  21.5807192
 106.6368794  78.7210065  31.3477647 106.6856950  79.5972188  30.9655416
 107.1791308  78.1787458  30.7749290 117.1223640  89.2651188  30.6278784
 116.3319184  89.2475327  30.0883283 116.8856994  89.8039482  31.3827820
 117.2421515  86.1143655  27.9411512 117.2919520  85.9493662  28.8827035
 117.1335438  85.2470914  27.5509393 114.5325277  82.0974583  29.2570819
 115.4335140  81.9581048  28.9654817 114.6073252  82.2629038  30.1968996
 108.8668083  79.4741438  28.1024005 107.9971392  79.7675004  27.8306594
 109.1027563  80.0581883  28.8231269 118.7439712  88.5340596  28.1853534
 118.4524520  88.8970577  29.0216995 118.1311843  87.8207605  28.0066866
 116.9926900  83.6573211  26.6533592 117.4681022  83.8500857  25.8452443
 116.0692465  83.7132397  26.4076976 111.5707116  75.6921055  25.6189426
 112.0889060  76.4282081  25.2935914 111.2162249  75.9985048  26.4536185
 111.8219711  72.1121337  21.1390322 112.1021464  71.4444526  21.7650749
 112.6070318  72.3050433  20.6264986 115.6928569  80.5338971  24.8861897
 116.6445992  80.6337069  24.9074122 115.5232019  79.7417240  25.3959982
 113.7142948  77.6194554  25.0721298 113.1192881  77.8999567  24.3767787
 113.4292645  78.1088455  25.8438039 118.3211135  80.5456134  24.0462480
 117.8050184  79.7614591  23.8592409 119.2051084  80.2174851  24.2109000
 115.9821862  74.2897150  20.0058293 115.7846683  73.9812238  20.8901625
 116.5921568  75.0158789  20.1356223 109.8938670  86.6758890  31.5032058
 110.8141680  86.8537489  31.6972105 109.8588253  85.7314935  31.3511757
  99.1120835  81.8697484  20.4285333  98.7923620  81.0162792  20.1359707
  98.5654263  82.0846062  21.1843300 102.8900743  84.5859925  24.1454839
 103.1086753  85.5177032  24.1642873 103.3026517  84.2267899  24.9309643
 109.8104961  75.0928010  16.1330528 109.0005689  74.7475095  16.5085774
 110.4989377  74.7835554  16.7218139 111.7395509  74.1706057  17.7554824
 112.2926547  74.5901510  18.4144847 111.9765595  73.2441805  17.7977780
 107.7628608  80.1593130  33.5357588 107.6625335  81.1087487  33.4669679
 107.5450150  79.8311369  32.6633658  98.9809095  85.4900395  22.3978454
  98.2872567  85.0754348  21.8848409  99.7282086  85.5320932  21.8011873
 113.5677882  75.6811640  19.4654809 114.0677661  75.7928174  18.6569128
 114.2113490  75.3772692  20.1055617 107.6259878  83.5890269  32.3522650
 107.1426960  84.3890629  32.5586539 107.7120817  83.5998214  31.3990094
 100.8945838  85.4218649  20.2744469 100.8716526  85.5206336  19.3226352
 101.2046474  86.2683800  20.5961635 103.5533216  87.4794804  24.3891084
 104.5076469  87.4478746  24.3221015 103.3545739  87.0185428  25.2041310
 104.1432598  86.0495920  26.9561881 104.9625487  86.5439999  26.9796719
 104.4169405  85.1327888  26.9279449  99.3967512  80.3834054  27.6554078
 100.0426376  79.8733008  28.1441304  99.1884663  81.1202735  28.2297504
 111.9220904  87.4514901  33.1546219 112.7912064  87.6255554  32.7932854
 111.4427656  88.2709318  33.0321948 106.0907084  94.5712002  24.8335653
 106.9934331  94.6035612  25.1502148 105.8644454  93.6412453  24.8481988
 111.7323242  71.2416875  17.6623911 110.9655638  70.6875362  17.8080594
 112.1433947  71.3138744  18.5238063 103.7365003  77.5301671  31.7529093
 104.5996465  77.1738476  31.9632417 103.1630414  77.1915566  32.4404497
 116.2946504  90.9382387  32.7459064 115.9013449  90.3848586  33.4206708
 117.1112644  91.2492966  33.1365582 119.2114465  92.3540267  30.3379321
 119.9524178  92.9547420  30.2583783 119.4432388  91.6117904  29.7797363
 114.2394491  94.7284077  29.6863727 114.8666530  94.3461154  30.3001251
 113.3822410  94.5098279  30.0519420 117.4762549  94.0501983  31.3477647
 117.5250704  94.9264106  30.9655416 118.0185063  93.5079376  30.7749290
 118.6022363  95.4885048  33.5357588 118.5019089  96.4379405  33.4669679
 118.3843905  95.1603287  32.6633658 110.2361266  95.7125971  27.6554078
 110.8820130  95.2024925  28.1441304 110.0278418  96.4494653  28.2297504
 114.5758757  92.8593588  31.7529093 115.4390219  92.5030393  31.9632417
 114.0024168  92.5207483  32.4404497  71.9568155   5.7934669  15.4398959
  71.8980701   5.1093889  14.7729542  72.3587673   6.5353659  14.9879585
  70.4419829   5.4949586  18.0162769  70.9859733   6.1079545  17.5217724
  69.8606674   6.0529165  18.5329782  73.7648623   4.9545640  17.3524090
  72.9744167   4.9369779  16.8128590  73.5281978   5.4933934  18.1073127
  75.3864695   4.2235048  14.9098841  75.0949503   4.5865029  15.7462301
  74.7736826   3.5102057  14.7312173  68.5645887   3.1409353  19.8791526
  69.4337047   3.3150005  19.5178161  68.0852639   3.9603770  19.7567255
  80.2238363  14.8497979   9.2836800  80.8616773  14.7304726   8.5800140
  80.1059206  15.7978823   9.3424752  77.0328069  14.8025407   9.2198325
  76.6946581  14.6866472   8.3318860  77.9017838  14.4016572   9.1999331
  77.5147852  15.9560259  15.1784530  77.5036493  15.5613057  14.3065034
  77.6768492  15.2226331  15.7718302  70.4379317  18.1512075   8.0479436
  71.2300609  17.8102900   7.6325736  70.6775967  18.2607050   8.9681590
  74.2355114  18.7397371  14.1263714  73.9444980  19.6443002  14.0110381
  74.8712098  18.7813898  14.8407784  75.1611320  16.1174219  10.7165074
  75.7574893  15.8930242  10.0022037  75.2186292  15.3758965  11.3190522
  82.7013479   6.2246240  11.7217595  82.3696804   7.0941651  11.4978810
  82.1059093   5.9082524  12.4011626  79.1944999  18.4258786  11.1213508
  78.8945722  19.3283825  11.0129315  78.8496058  18.1590969  11.9734661
  82.5942142  10.9441326   8.8010945  81.6859020  10.8756735   8.5069706
  82.5429738  11.4213271   9.6292771  74.1765778  25.1903107   4.0884476
  74.0989808  26.1410932   4.1672956  73.5727422  24.8448979   4.7459402
  76.6683008  12.3630972  16.7445843  75.8916342  12.9224892  16.7348707
  77.3073571  12.8487755  17.2660713  74.9229381  15.1716425  16.3063810
  75.6644065  15.7101469  16.0298633  74.2166366  15.7982714  16.4635362
  80.3984720  17.3145566  14.9035971  80.8068076  16.8727976  14.1590604
  79.6761982  16.7398193  15.1570164  76.7515790  12.2518173  12.2769528
  77.5976985  12.6757586  12.4204177  76.6914428  11.5951797  12.9708091
  80.7213535  17.8746756   8.6588260  80.0922397  18.0392471   7.9564328
  80.3339197  18.2888366   9.4299224  84.6002767  18.8101194   6.0132624
  83.9153805  19.1900096   5.4629657  84.6846616  19.4196521   6.7464572
  79.9015236   9.9122541  13.9350702  79.6576167  10.6664601  13.3984978
  80.1775166  10.2907889  14.7697949  81.8553698  16.4561153  12.6127967
  82.0670594  17.0992913  11.9362348  81.8083447  15.6223470  12.1449897
  73.1665578  17.1592646   8.8618108  73.7366935  17.5879914   8.2235593
  73.7573690  16.8775231   9.5602294  73.6590744  12.3256074  17.1079120
  73.0289405  13.0072354  17.3414517  73.5526832  12.2139155  16.1632258
  82.9699526  19.3333109  10.7850325  83.7916970  18.9313296  10.5033006
  82.9661929  19.2301343  11.7366441  76.7356130  18.8817152  12.9411035
  76.8000562  19.3437559  13.7769207  76.0267054  18.2514517  13.0693345
  72.9371487   6.6276839  19.4704371  72.5438433   6.0743038  20.1452015
  73.7537627   6.9387418  19.8610888  71.7128430  21.1826454   5.4640694
  71.8895058  22.1044419   5.2761678  72.5085263  20.8684873   5.8935074
  75.8539448   8.0434718  17.0624627  76.5949161   8.6441872  16.9829090
  76.0857371   7.3012356  16.5042670  70.9980786  13.2291086  15.3402857
  70.8834301  12.3276343  15.6409956  70.1425304  13.4754782  14.9887674
  78.0772624  21.1708826  16.9390358  77.6336478  20.3845205  16.6211262
  78.7389837  21.3587977  16.2734248  72.8359745  22.7004628  11.4651036
  73.3867170  22.5721691  10.6928030  71.9971221  22.9999517  11.1145929
  80.1753862  21.4511626  14.9671759  80.1572337  22.2720507  14.4752028
  81.0973782  21.3265701  15.1921900  76.6326916  18.9655755  15.8095267
  77.1655253  18.2044044  15.5794575  76.1040997  18.6729407  16.5519422
  82.9772475  16.2890768   8.4381126  82.3196149  16.9790030   8.5261254
  83.7812874  16.6787200   8.7815112  78.2658764  12.1184597   8.7343408
  77.3481326  12.3399544   8.5765096  78.6818908  12.1930907   7.8755115
  82.5539730  19.6241143   4.6164210  82.1002057  18.7832052   4.6729400
  81.9233696  20.2602541   4.9538990  80.9972669  21.4617639   5.5514028
  81.2895643  22.0222696   4.8326394  81.5071290  21.7546200   6.3067187
  75.9606294  22.2397990   6.6407481  75.9182473  22.4658837   5.7116013
  76.8768993  22.0061365   6.7893282  79.4071928  12.7082058  13.5388111
  79.7621316  12.9353531  14.3982576  80.0544059  13.0400435  12.9165366
  85.1639045  17.8977021   9.2548711  85.5975551  17.8052310  10.1031765
  85.8770625  17.8734521   8.6168727  78.8966939  21.4979115  10.7881812
  78.9503962  22.0670051  11.5559528  78.0281721  21.6681000  10.4235849
  71.7765333  11.1996671  12.2706263  72.4488386  10.9914033  11.6218912
  70.9495119  11.0018757  11.8311495  86.0254594  17.9400721  11.7881596
  86.2190484  18.8446532  12.0340871  85.9255212  17.4808140  12.6220182
  77.6790905   7.8258612  14.2871924  77.0318820   8.5248562  14.1936400
  78.4491920   8.2594756  14.6548172  81.0869703  18.0907464  17.3622477
  80.9355209  17.8618016  16.4452561  81.0774382  19.0478066  17.3753822
  77.8555039  15.6639377  12.3468744  78.7847099  15.8150537  12.1737711
  77.4346069  15.7523398  11.4917390  76.6543371  19.6890041  10.1167281
  76.5154457  19.3208826  10.9893219  75.8657967  20.2037681   9.9451239
  77.2491523  24.7899138   1.4592818  77.4243279  24.3187181   2.2738440
  76.5624311  25.4164904   1.6874078  78.2048586  19.0671644   7.5056119
  77.8698419  19.0272414   8.4013769  77.7052532  18.4016360   7.0326529
  72.1792830  14.4739274  13.0308700  72.0412628  13.7419513  13.6320239
  73.0897754  14.3848174  12.7492888  74.8075131  14.1859233  12.5192380
  75.5174749  13.5452426  12.4778998  74.7644439  14.4372128  13.4418561
  82.7961909  21.1226587  15.4398959  82.7374456  20.4385807  14.7729542
  83.1981428  21.8645577  14.9879585  73.5204065  11.1724451  14.3388019
  72.9841422  10.7215190  14.9909616  72.9320773  11.3070360  13.5958484
  71.8152608  27.9388501   8.2332678  72.0549206  28.5707025   8.9111696
  70.9721805  27.5876541   8.5198037  82.7979317  19.0866171  13.6712939
  81.9106095  18.7492092  13.7939337  83.3677868  18.3549202  13.9081704
  76.3280470  23.7467623  10.6374182  76.2550642  24.5522594  11.1493486
  75.8857863  23.9459589   9.8122203  76.1170250  22.9839393   4.1477003
  75.3337772  23.5261073   4.2415228  76.8162995  23.5013373   4.5471245
  78.7879154  23.6454457  12.7932340  79.5007126  24.2801922  12.7208242
  78.2969182  23.7418323  11.9772342  73.8391067  21.3948900  13.6137911
  74.5400527  22.0285383  13.7667306  73.3686182  21.7363632  12.8533551
  81.6392353  13.9493508  11.4390462  80.9863803  14.1969415  10.7842914
  82.0172733  13.1357646  11.1052939  78.5999527  23.9853201   5.5418632
  78.7821922  23.1674857   6.0046384  79.4232513  24.2020893   5.1043522
  78.9341692  22.9121386   2.8033680  79.4629459  22.4013841   2.1903843
  79.1969912  22.5963916   3.6679213  77.6879926  14.6913319  17.9256499
  77.0120563  14.5907448  18.5958874  78.5107560  14.5352533  18.3892496
  69.4358785  20.9285256  10.5469014  70.0212222  20.1828943  10.6796918
  69.2383624  21.2389212  11.4305678  72.2897440  23.9636503   5.5631456
  71.6207816  24.4482631   5.0795496  72.1510310  24.2105723   6.4774835
  76.4302709  25.9980246  12.1614115  76.9821017  26.1611868  12.9263200
  76.7708902  26.5884684  11.4894140  70.8819475  10.4178529  16.4109034
  71.5091514  10.0355606  17.0246558  70.0247394  10.1992731  16.7764726
  81.2813583  20.8241504  18.0162769  81.8253487  21.4371462  17.5217724
  80.7000428  21.3821082  18.5329782  79.5671096  23.9462222   9.1477797
  79.4422236  23.1451962   8.6388742  80.2250187  24.4408415   8.6591767
  81.6306005  21.7471242  10.7757347  80.6836340  21.6276593  10.7035674
  81.9788778  20.8593740  10.8583608  73.9905578   7.6365381  14.5995589
  74.5139980   7.8827678  15.3621898  73.7717911   8.4685416  14.1798726
  78.6352438  21.5423958   6.9761699  78.4877400  20.6140666   7.1569269
  79.4605931  21.5644049   6.4918774  82.2386560  22.3652517   8.0626572
  83.1633107  22.1595378   7.9251023  82.0701863  22.1168918   8.9715913
  75.1958123   8.5779076  12.2845259  74.8554943   7.7786889  12.6865939
  74.4897129   8.8780787  11.7122093  77.0835687   9.7787397  10.6398578
  76.8253465  10.7004468  10.6382908  76.5520728   9.3817832  11.3299042
  82.0281876  22.8838184   3.4188663  82.2018754  22.3184607   2.6662516
  82.5210767  23.6839079   3.2368153  67.8458836  14.8952854  11.4852222
  67.3012304  15.6712661  11.6172497  68.7238186  15.2423658  11.3271344
  68.6324858  14.0222750  14.3782379  67.8906594  14.1705385  14.9647010
  68.3117602  14.2831015  13.5149129  76.5768520  23.5638728  14.1762769
  76.8855647  23.3187875  15.0485469  77.3744002  23.7685366  13.6881639
  76.5989132  25.7176638   6.4068146  76.1594123  25.2253016   7.1001002
  77.3497249  25.1749605   6.1660221  69.0781471  21.9088179   6.4092774
  69.9039491  21.6091950   6.0291417  68.7275523  21.1395801   6.8582562
  74.0463005  21.2614647   8.4790447  73.4243014  20.5985352   8.1792675
  74.7167871  21.2875779   7.7964095  74.1187532   9.7396435  18.0722953
  74.1675687  10.6158558  17.6900723  74.6610046   9.1973828  17.4994597
  84.6042378  20.2837558  17.3524090  83.8137921  20.2661697  16.8128590
  84.3675732  20.8225852  18.1073127  84.7240253  17.1330024  14.6656819
  84.7738258  16.9680032  15.6072342  84.6154176  16.2657283  14.2754700
  82.0144015  13.1160952  15.9816126  82.9153878  12.9767417  15.6900123
  82.0891990  13.2815407  16.9214303  76.3486820  10.4927807  14.8269312
  75.4790130  10.7861373  14.5551901  76.5846301  11.0768252  15.5476576
  86.2258450  19.5526966  14.9098841  85.9343258  19.9156946  15.7462301
  85.6130581  18.8393974  14.7312173  84.4745638  14.6759581  13.3778898
  84.9499759  14.8687227  12.5697750  83.5511203  14.7318766  13.1322282
  79.0525854   6.7107424  12.3434732  79.5707798   7.4468451  12.0181221
  78.6980987   7.0171417  13.1781492  83.1747307  11.5525341  11.6107204
  84.1264730  11.6523438  11.6319428  83.0050757  10.7603609  12.1205288
  81.1961686   8.6380924  11.7966605  80.6011618   8.9185937  11.1013094
  80.9111383   9.1274825  12.5683346  85.6535385  14.7731460  10.7249504
  85.6211705  13.8347461  10.9109188  86.2636008  14.8515497   9.9915329
  77.3757408  17.6945259  18.2277365  78.2960417  17.8723858  18.4217411
  77.3406991  16.7501305  18.0757064  70.3719481  15.6046294  10.8700146
  70.5905490  16.5363402  10.8888180  70.7845254  15.2454268  11.6554950
  75.2447346  11.1779500  20.2602895  75.1444073  12.1273857  20.1914986
  75.0268888  10.8497739  19.3878965  75.1078616  14.6076639  19.0767957
  74.6245698  15.4076999  19.2831846  75.1939555  14.6184584  18.1235400
  71.0351953  18.4981173  11.1136390  71.9895207  18.4665116  11.0466322
  70.8364477  18.0371797  11.9286616  71.6251336  17.0682289  13.6807188
  72.4444225  17.5626368  13.7042025  71.8988143  16.1514258  13.6524755
  69.3902182  24.0400793   8.1306588  69.2556650  23.2801194   7.5644586
  68.9734244  24.7641693   7.6635377  72.5471308  24.9370110   8.3425031
  72.4303692  25.8815542   8.2403721  71.7263754  24.6343671   8.7310830
  66.8786250  11.4020423  14.3799385  67.5245113  10.8919377  14.8686610
  66.6703401  12.1389105  14.9542810  79.4039642  18.4701271  19.8791526
  80.2730802  18.6441923  19.5178161  78.9246393  19.2895688  19.7567255
  73.5725822  25.5898372  11.5580959  74.4753069  25.6221982  11.8747454
  73.3463192  24.6598823  11.5727295  75.3279424  24.3429358   8.2191038
  74.3775055  24.3431220   8.1055410  75.6311910  23.5962093   7.7027072
  71.2183741   8.5488040  18.4774399  72.0815202   8.1924845  18.6877724
  70.6449151   8.2101935  19.1649804  91.0632118  30.1789897   9.2836800
  91.7010528  30.0596644   8.5800140  90.9452961  31.1270741   9.3424752
  87.8721824  30.1317325   9.2198325  87.5340335  30.0158390   8.3318860
  88.7411592  29.7308490   9.1999331  83.7308640  31.9852801   5.2095216
  83.1673505  31.8942738   4.4411504  83.6161035  31.1652706   5.6897708
  88.3541607  31.2852177  15.1784530  88.3430248  30.8904975  14.3065034
  88.5162246  30.5518249  15.7718302  81.2773072  33.4803993   8.0479436
  82.0694364  33.1394817   7.6325736  81.5169722  33.5898968   8.9681590
  89.3108198  35.6523769   0.5209681  88.6596178  36.2377849   0.1343695
  90.1052561  36.1829964   0.5804718  83.2363826  32.7412906   0.9196815
  84.0094702  32.1941893   0.7809691  83.5889224  33.6057155   1.1311277
  85.0748868  34.0689288  14.1263714  84.7838734  34.9734919  14.0110381
  85.7105852  34.1105816  14.8407784  86.0005075  31.4466137  10.7165074
  86.5968647  31.2222159  10.0022037  86.0580046  30.7050882  11.3190522
  85.2926392  30.8033678   0.7539640  85.1762650  30.1278582   1.4220724
  85.4028652  30.3166052  -0.0628207  87.6357933  30.2643825   4.4586329
  87.2716140  29.7374446   5.1699251  88.4925049  29.8742294   4.2852815
  93.5407234  21.5538158  11.7217595  93.2090558  22.4233569  11.4978810
  92.9452847  21.2374442  12.4011626  90.0338753  33.7550704  11.1213508
  89.7339476  34.6575743  11.0129315  89.6889813  33.4882887  11.9734661
  83.4851235  30.2064501   7.1550213  82.5601731  30.0740715   7.3627904
  83.7335648  30.9858720   7.6520155  93.4335897  26.2733244   8.8010945
  92.5252774  26.2048652   8.5069706  93.3823493  26.7505189   9.6292771
  80.8460046  29.8497774   7.9894002  80.9752427  30.1032253   8.9033413
  80.1657497  30.4425482   7.6698657  85.0159533  40.5195024   4.0884476
  84.9383563  41.4702849   4.1672956  84.4121177  40.1740897   4.7459402
  87.5076763  27.6922890  16.7445843  86.7310097  28.2516810  16.7348707
  88.1467326  28.1779673  17.2660713  85.7623135  30.5008343  16.3063810
  86.5037819  31.0393387  16.0298633  85.0560121  31.1274632  16.4635362
  91.2378475  32.6437483  14.9035971  91.6461831  32.2019894  14.1590604
  90.5155736  32.0690111  15.1570164  87.5909545  27.5810090  12.2769528
  88.4370740  28.0049504  12.4204177  87.5308182  26.9243715  12.9708091
  91.5607289  33.2038674   8.6588260  90.9316152  33.3684388   7.9564328
  91.1732951  33.6180284   9.4299224  95.4396521  34.1393112   6.0132624
  94.7547559  34.5192013   5.4629657  95.5240371  34.7488439   6.7464572
  90.7408990  25.2414459  13.9350702  90.4969922  25.9956519  13.3984978
  91.0168921  25.6199806  14.7697949  92.6947453  31.7853071  12.6127967
  92.9064348  32.4284831  11.9362348  92.6477201  30.9515388  12.1449897
  90.2973682  24.3970892   9.5164540  89.4358161  24.6952145   9.8081277
  90.3236116  24.6141291   8.5845572  87.1135251  32.9413082   5.9238345
  87.5773597  33.2200785   5.1342968  86.8492049  32.0396527   5.7411436
  84.0059332  32.4884564   8.8618108  84.5760689  32.9171832   8.2235593
  84.5967444  32.2067148   9.5602294  86.0504137  29.0636235   2.7327910
  86.7528181  29.5157278   3.2001837  85.7184766  28.4220053   3.3607803
  84.4984499  27.6547991  17.1079120  83.8683159  28.3364272  17.3414517
  84.3920587  27.5431073  16.1632258  79.7929471  27.3219787   8.0345044
  79.0028525  27.5777316   7.5585155  80.2840719  28.1368125   8.1397084
  93.8093281  34.6625026  10.7850325  94.6310725  34.2605214  10.5033006
  93.8055684  34.5593261  11.7366441  81.7444217  27.6864366   4.9928521
  80.9475380  27.7983061   5.5112016  81.5169809  28.0251019   4.1269411
  87.5749884  34.2109070  12.9411035  87.6394317  34.6729477  13.7769207
  86.8660808  33.5806435  13.0693345  78.0767174  27.5750278  10.4660035
  78.3275213  28.4597288  10.7317611  78.6126723  27.3954879   9.6935127
  87.2897902  35.8777177   2.8090016  87.1543577  36.7228713   3.2374863
  87.8307714  36.0796455   2.0455949  83.7765242  21.9568757  19.4704371
  83.3832187  21.4034956  20.1452015  84.5931382  22.2679336  19.8610888
  80.7427299  33.3952615   3.3817941  81.2551820  34.1895865   3.5323505
  81.3950012  32.6978906   3.3151542  82.5522184  36.5118372   5.4640694
  82.7288812  37.4336336   5.2761678  83.3479018  36.1976791   5.8935074
  86.6933203  23.3726636  17.0624627  87.4342916  23.9733789  16.9829090
  86.9251125  22.6304274  16.5042670  81.8374541  28.5583003  15.3402857
  81.7228056  27.6568261  15.6409956  80.9819058  28.8046700  14.9887674
  88.9166378  36.5000744  16.9390358  88.4730232  35.7137122  16.6211262
  89.5783592  36.6879894  16.2734248  83.6753499  38.0296545  11.4651036
  84.2260925  37.9013609  10.6928030  82.8364975  38.3291434  11.1145929
  91.0147616  36.7803544  14.9671759  90.9966092  37.6012425  14.4752028
  91.9367536  36.6557619  15.1921900  87.4720671  34.2947673  15.8095267
  88.0049007  33.5335961  15.5794575  86.9434752  34.0021325  16.5519422
  78.7076216  31.7241270   4.1577511  79.5451438  32.1338278   3.9411219
  78.8854484  30.7840712   4.1277705  89.7186906  21.7712394   9.3038142
  89.2151701  21.7342529   8.4905948  90.0117513  22.6805137   9.3634799
  85.9629792  21.8551124   8.3104324  86.8282789  21.6593933   7.9510213
  86.0307301  21.6261476   9.2373681  88.8373383  33.4233666   3.3214079
  88.3094745  32.6886425   3.0087317  88.3360886  34.2008342   3.0754048
  93.8166229  31.6182686   8.4381126  93.1589904  32.3081947   8.5261254
  94.6206628  32.0079118   8.7815112  83.5692111  24.0853332   5.6820691
  84.1435863  23.8628513   4.9493884  84.1563093  24.1542026   6.4349292
  89.8894062  39.9511383  -0.7554262  89.2155761  40.2543080  -0.1469304
  90.2759884  40.7540463  -1.1048804  89.1052519  27.4476514   8.7343408
  88.1875080  27.6691461   8.5765096  89.5212663  27.5222825   7.8755115
  93.3933484  34.9533060   4.6164210  92.9395811  34.1123970   4.6729400
  92.7627451  35.5894459   4.9538990  91.8366423  36.7909557   5.5514028
  92.1289398  37.3514614   4.8326394  92.3465044  37.0838118   6.3067187
  78.7302387  29.0631985   4.8288245  78.5326787  28.4701346   4.1039311
  78.1749051  28.7584195   5.5464183  86.7099111  28.9555091   6.9482838
  86.7647721  28.0028928   6.8725314  85.8990313  29.1114530   7.4324136
  84.6491471  27.5732151   4.7073217  83.8359336  27.8726322   5.1138409
  85.1450465  27.1787840   5.4247699  86.8000049  37.5689908   6.6407481
  86.7576227  37.7950754   5.7116013  87.7162748  37.3353283   6.7893282
  90.2465682  28.0373976  13.5388111  90.6015070  28.2645449  14.3982576
  90.8937814  28.3692352  12.9165366  84.1405546  25.1450507  10.3234452
  84.7804925  25.0039266   9.6257415  83.3083076  24.8585020   9.9473054
  96.0032799  33.2268938   9.2548711  96.4369306  33.1344228  10.1031765
  96.7164380  33.2026439   8.6168727  84.9165849  34.4452937   6.4369444
  85.7106448  33.9503257   6.2352019  84.2057542  33.9170800   6.0737150
  89.7360694  36.8271033  10.7881812  89.7897716  37.3961969  11.5559528
  88.8675475  36.9972918  10.4235849  81.2248613  28.5896019   2.5129197
  80.2946201  28.5280474   2.7299159  81.3206085  28.0671972   1.7165838
  81.1434162  25.1150832   5.1007438  81.4040979  26.0296165   4.9916599
  81.9651334  24.6475274   5.2504051  82.6159087  26.5288589  12.2706263
  83.2882141  26.3205951  11.6218912  81.7888874  26.3310675  11.8311495
  96.8648349  33.2692639  11.7881596  97.0584239  34.1738450  12.0340871
  96.7648967  32.8100058  12.6220182  88.5184659  23.1550530  14.2871924
  87.8712574  23.8540479  14.1936400  89.2885675  23.5886674  14.6548172
  91.9263457  33.4199382  17.3622477  91.7748964  33.1909934  16.4452561
  91.9168137  34.3769983  17.3753822  88.6948794  30.9931295  12.3468744
  89.6240854  31.1442454  12.1737711  88.2739824  31.0815315  11.4917390
  87.4937125  35.0181959  10.1167281  87.3548211  34.6500743  10.9893219
  86.7051722  35.5329598   9.9451239  88.0885277  40.1191055   1.4592818
  88.2637033  39.6479099   2.2738440  87.4018065  40.7456822   1.6874078
  89.0442341  34.3963562   7.5056119  88.7092173  34.3564332   8.4013769
  88.5446286  33.7308278   7.0326529  83.0186585  29.8031192  13.0308700
  82.8806382  29.0711431  13.6320239  83.9291508  29.7140092  12.7492888
  85.6468885  29.5151151  12.5192380  86.3568504  28.8744343  12.4778998
  85.6038193  29.7664046  13.4418561  93.6355664  36.4518504  15.4398959
  93.5768210  35.7677725  14.7729542  94.0375182  37.1937494  14.9879585
  84.3597819  26.5016369  14.3388019  83.8235176  26.0507107  14.9909616
  83.7714528  26.6362278  13.5958484  82.6546363  43.2680418   8.2332678
  82.8942961  43.8998942   8.9111696  81.8115559  42.9168458   8.5198037
  93.6373071  34.4158088  13.6712939  92.7499850  34.0784010  13.7939337
  94.2071622  33.6841120  13.9081704  75.2902218  30.7482180   6.9955990
  75.9773258  30.4343910   6.4077005  75.1350347  31.6523545   6.7223241
  80.0936940  25.6372377  11.4241014  80.0095129  25.0298046  10.6891424
  79.2719647  26.1281395  11.4250510  87.1674225  39.0759541  10.6374182
  87.0944396  39.8814512  11.1493486  86.7251618  39.2751506   9.8122203
  86.9564004  38.3131311   4.1477003  86.1731526  38.8552991   4.2415228
  87.6556749  38.8305290   4.5471245  89.6272908  38.9746375  12.7932340
  90.3400880  39.6093840  12.7208242  89.1362937  39.0710241  11.9772342
  91.3490435  32.8797627   4.3649632  90.4146714  32.9999090   4.1954336
  91.5267103  31.9770094   4.1009642  86.8495623  26.2643323   6.5182893
  86.4793411  25.7114364   7.2063799  87.3454716  25.6601457   5.9657893
  84.6784822  36.7240818  13.6137911  85.3794281  37.3577301  13.7667306
  84.2079937  37.0655550  12.8533551  92.4786108  29.2785426  11.4390462
  91.8257558  29.5261333  10.7842914  92.8566487  28.4649564  11.1052939
  89.4393281  39.3145119   5.5418632  89.6215676  38.4966775   6.0046384
  90.2626267  39.5312811   5.1043522  89.7735447  38.2413304   2.8033680
  90.3023213  37.7305759   2.1903843  90.0363667  37.9255834   3.6679213
  88.5273681  30.0205237  17.9256499  87.8514318  29.9199366  18.5958874
  89.3501314  29.8644450  18.3892496  80.2752540  36.2577173  10.5469014
  80.8605976  35.5120861  10.6796918  80.0777378  36.5681130  11.4305678
  83.1291195  39.2928421   5.5631456  82.4601570  39.7774548   5.0795496
  82.9904065  39.5397641   6.4774835  74.8670194  28.8282773   9.2673457
  74.9054294  28.2946364  10.0610575  74.3610487  28.3017979   8.6484434
  87.2696463  41.3272164  12.1614115  87.8214772  41.4903786  12.9263200
  87.6102657  41.9176602  11.4894140  82.2460957  23.6747314  12.7635999
  82.3102283  24.5362145  12.3513397  82.1828077  23.0621316  12.0308358
  81.7213229  25.7470446  16.4109034  82.3485268  25.3647524  17.0246558
  80.8641148  25.5284648  16.7764726  92.1207338  36.1533422  18.0162769
  92.6647242  36.7663380  17.5217724  91.5394183  36.7113000  18.5329782
  78.4978772  27.5546876   2.3427389  78.7932213  26.6457554   2.2894442
  77.5966808  27.5334615   2.0208391  90.4064851  39.2754140   9.1477797
  90.2815990  38.4743879   8.6388742  91.0643942  39.7700333   8.6591767
  82.0273019  25.6302872   8.3254937  81.3059605  26.2438840   8.1862410
  82.8166275  26.1660637   8.2471583  92.4699759  37.0763160  10.7757347
  91.5230095  36.9568511  10.7035674  92.8182532  36.1885658  10.8583608
  84.8299333  22.9657299  14.5995589  85.3533734  23.2119595  15.3621898
  84.6111666  23.7977333  14.1798726  80.2266614  25.2360973   2.4666714
  79.8979320  24.3558352   2.2841820  80.5805984  25.1808642   3.3543103
  89.4746192  36.8715876   6.9761699  89.3271155  35.9432583   7.1569269
  90.2999686  36.8935967   6.4918774  83.3408437  25.5233943   2.8342191
  83.6804509  26.0519864   2.1120800  83.7880557  25.8614349   3.6100758
  93.0780314  37.6944435   8.0626572  94.0026862  37.4887296   7.9251023
  92.9095618  37.4460836   8.9715913  86.0351878  23.9070994  12.2845259
  85.6948698  23.1078807  12.6865939  85.3290884  24.2072705  11.7122093
  86.6868349  20.9920306  10.7372582  87.5094419  20.5180784  10.6151473
  86.9306413  21.7710790  11.2371269  84.2106928  27.6839427   8.5464561
  84.0651509  27.9979730   9.4388843  83.7332132  28.3024327   7.9935460
  86.0703311  24.6741975   8.5945451  86.0564880  23.7783068   8.2577749
  86.7875739  24.6812639   9.2283737  87.9229442  25.1079315  10.6398578
  87.6647220  26.0296386  10.6382908  87.3914482  24.7109750  11.3299042
  92.8675631  38.2130102   3.4188663  93.0412508  37.6476525   2.6662516
  93.3604522  39.0130997   3.2368153  78.6852590  30.2244771  11.4852222
  78.1406058  31.0004579  11.6172497  79.5631940  30.5715576  11.3271344
  79.4718612  29.3514667  14.3782379  78.7300348  29.4997303  14.9647010
  79.1511356  29.6122933  13.5149129  87.4162275  38.8930646  14.1762769
  87.7249401  38.6479792  15.0485469  88.2137757  39.0977284  13.6881639
  87.4382887  41.0468555   6.4068146  86.9987877  40.5544934   7.1001002
  88.1891004  40.5041523   6.1660221  79.9175226  37.2380096   6.4092774
  80.7433246  36.9383868   6.0291417  79.5669278  36.4687719   6.8582562
  84.8856759  36.5906564   8.4790447  84.2636768  35.9277269   8.1792675
  85.5561626  36.6167696   7.7964095  78.1183831  35.1566423   7.3681707
  77.2815739  34.7288597   7.1865709  78.0907476  35.3498866   8.3052499
  84.9581287  25.0688352  18.0722953  85.0069442  25.9450475  17.6900723
  85.5003801  24.5265746  17.4994597  95.4436132  35.6129476  17.3524090
  94.6531676  35.5953615  16.8128590  95.2069487  36.1517769  18.1073127
  95.5634007  32.4621942  14.6656819  95.6132012  32.2971950  15.6072342
  95.4547931  31.5949201  14.2754700  84.4470266  35.1410488   1.9548908
  84.5958386  35.8245952   1.3015581  85.2536709  35.1215578   2.4698364
  92.8537770  28.4452870  15.9816126  93.7547632  28.3059335  15.6900123
  92.9285744  28.6107325  16.9214303  87.1880575  25.8219725  14.8269312
  86.3183884  26.1153291  14.5551901  87.4240055  26.4060170  15.5476576
  97.0652204  34.8818884  14.9098841  96.7737012  35.2448864  15.7462301
  96.4524335  34.1685892  14.7312173  95.3139392  30.0051498  13.3778898
  95.7893514  30.1979145  12.5697750  94.3904958  30.0610684  13.1322282
  82.2022899  31.1675665   2.9609977  81.9568941  30.2637995   3.1590187
  82.3718813  31.1692816   2.0189455  89.8919609  22.0399342  12.3434732
  90.4101553  22.7760369  12.0181221  89.5374742  22.3463335  13.1781492
  81.4718546  26.9004023   0.4596138  80.7787791  26.9748378  -0.1963826
  81.2270298  26.1364367   0.9817655  87.9465671  37.6358618  -0.5739345
  87.3739639  38.2548805  -1.0268873  88.5198465  38.1857980  -0.0399423
  94.0141061  26.8817258  11.6107204  94.9658484  26.9815356  11.6319428
  93.8444512  26.0895527  12.1205288  92.0355441  23.9672842  11.7966605
  91.4405373  24.2477854  11.1013094  91.7505137  24.4566742  12.5683346
  96.4929139  30.1023378  10.7249504  96.4605459  29.1639379  10.9109188
  97.1029763  30.1807415   9.9915329  88.2151162  33.0237177  18.2277365
  89.1354172  33.2015776  18.4217411  88.1800746  32.0793222  18.0757064
  77.4333327  28.2175771   7.1530639  77.1136112  27.3641079   6.8605013
  76.8866756  28.4324349   7.9088607  81.2113235  30.9338212  10.8700146
  81.4299245  31.8655320  10.8888180  81.6239009  30.5746186  11.6554950
  86.0841100  26.5071418  20.2602895  85.9837827  27.4565774  20.1914986
  85.8662642  26.1789656  19.3878965  77.3021587  31.8378682   9.1223761
  76.6085059  31.4232635   8.6093715  78.0494578  31.8799219   8.5257180
  85.9472370  29.9368556  19.0767957  85.4639452  30.7368916  19.2831846
  86.0333309  29.9476501  18.1235400  79.2158330  31.7696936   6.9989776
  79.1929018  31.8684623   6.0471659  79.5258966  32.6162087   7.3206942
  81.8745708  33.8273091  11.1136390  82.8288961  33.7957033  11.0466322
  81.6758231  33.3663715  11.9286616  82.4645090  32.3974207  13.6807188
  83.2837979  32.8918286  13.7042025  82.7381898  31.4806175  13.6524755
  80.2295937  39.3692711   8.1306588  80.0950405  38.6093111   7.5644586
  79.8127999  40.0933610   7.6635377  83.3865063  40.2662028   8.3425031
  83.2697447  41.2107460   8.2403721  82.5657509  39.9635589   8.7310830
  77.7180004  26.7312341  14.3799385  78.3638868  26.2211295  14.8686610
  77.5097155  27.4681023  14.9542810  90.2433396  33.7993188  19.8791526
  91.1124556  33.9733841  19.5178161  89.7640148  34.6187605  19.7567255
  84.4119577  40.9190289  11.5580959  85.3146823  40.9513900  11.8747454
  84.1856947  39.9890740  11.5727295  86.1673179  39.6721276   8.2191038
  85.2168810  39.6723138   8.1055410  86.4705665  38.9254011   7.7027072
  82.0577495  23.8779958  18.4774399  82.9208957  23.5216763  18.6877724
  81.4842906  23.5393853  19.1649804 101.9025872  45.5081814   9.2836800
 102.5404282  45.3888562   8.5800140 101.7846715  46.4562658   9.3424752
  98.7115578  45.4609243   9.2198325  98.3734090  45.3450307   8.3318860
  99.5805347  45.0600408   9.1999331  94.5702394  47.3144719   5.2095216
  94.0067259  47.2234656   4.4411504  94.4554789  46.4944623   5.6897708
  99.1935361  46.6144094  15.1784530  99.1824002  46.2196893  14.3065034
  99.3556001  45.8810167  15.7718302  92.1166826  48.8095911   8.0479436
  92.9088118  48.4686735   7.6325736  92.3563476  48.9190886   8.9681590
 100.1501953  50.9815687   0.5209681  99.4989933  51.5669767   0.1343695
 100.9446316  51.5121882   0.5804718  94.0757580  48.0704824   0.9196815
  94.8488456  47.5233811   0.7809691  94.4282979  48.9349073   1.1311277
  95.9142623  49.3981206  14.1263714  95.6232489  50.3026837  14.0110381
  96.5499607  49.4397734  14.8407784  96.8398829  46.7758055  10.7165074
  97.4362402  46.5514077  10.0022037  96.8973801  46.0342800  11.3190522
  96.1320147  46.1325596   0.7539640  96.0156405  45.4570499   1.4220724
  96.2422406  45.6457970  -0.0628207  98.4751688  45.5935743   4.4586329
  98.1109895  45.0666364   5.1699251  99.3318803  45.2034212   4.2852815
 104.3800988  36.8830076  11.7217595 104.0484313  37.7525487  11.4978810
 103.7846602  36.5666360  12.4011626 100.8732508  49.0842622  11.1213508
 100.5733231  49.9867660  11.0129315 100.5283567  48.8174805  11.9734661
  94.3244989  45.5356418   7.1550213  93.3995486  45.4032633   7.3627904
  94.5729402  46.3150638   7.6520155 104.2729651  41.6025162   8.8010945
 103.3646529  41.5340570   8.5069706 104.2217247  42.0797107   9.6292771
  91.6853800  45.1789692   7.9894002  91.8146181  45.4324171   8.9033413
  91.0051251  45.7717400   7.6698657  95.8553287  55.8486942   4.0884476
  95.7777317  56.7994767   4.1672956  95.2514931  55.5032814   4.7459402
  98.3470517  43.0214807  16.7445843  97.5703851  43.5808727  16.7348707
  98.9861080  43.5071590  17.2660713  96.6016890  45.8300261  16.3063810
  97.3431574  46.3685305  16.0298633  95.8953875  46.4566549  16.4635362
 102.0772229  47.9729401  14.9035971 102.4855585  47.5311812  14.1590604
 101.3549491  47.3982029  15.1570164  98.4303299  42.9102008  12.2769528
  99.2764494  43.3341421  12.4204177  98.3701937  42.2535632  12.9708091
 102.4001044  48.5330592   8.6588260 101.7709906  48.6976306   7.9564328
 102.0126706  48.9472201   9.4299224 106.2790276  49.4685030   6.0132624
 105.5941314  49.8483931   5.4629657 106.3634125  50.0780356   6.7464572
 101.5802745  40.5706376  13.9350702 101.3363676  41.3248437  13.3984978
 101.8562675  40.9491724  14.7697949 103.5341207  47.1144989  12.6127967
 103.7458103  47.7576749  11.9362348 103.4870956  46.2807305  12.1449897
 101.1367436  39.7262809   9.5164540 100.2751915  40.0244063   9.8081277
 101.1629871  39.9433208   8.5845572  97.9529006  48.2705000   5.9238345
  98.4167351  48.5492703   5.1342968  97.6885804  47.3688444   5.7411436
  94.8453087  47.8176481   8.8618108  95.4154444  48.2463750   8.2235593
  95.4361199  47.5359066   9.5602294  96.8897892  44.3928152   2.7327910
  97.5921935  44.8449196   3.2001837  96.5578520  43.7511971   3.3607803
  95.3378253  42.9839909  17.1079120  94.7076914  43.6656190  17.3414517
  95.2314341  42.8722990  16.1632258  90.6323226  42.6511705   8.0345044
  89.8422280  42.9069233   7.5585155  91.1234473  43.4660043   8.1397084
 104.6487035  49.9916944  10.7850325 105.4704479  49.5897131  10.5033006
 104.6449438  49.8885178  11.7366441  92.5837971  43.0156284   4.9928521
  91.7869134  43.1274978   5.5112016  92.3563563  43.3542936   4.1269411
  98.4143639  49.5400987  12.9411035  98.4788071  50.0021395  13.7769207
  97.7054563  48.9098352  13.0693345  88.9160929  42.9042195  10.4660035
  89.1668967  43.7889205  10.7317611  89.4520477  42.7246797   9.6935127
  98.1291656  51.2069095   2.8090016  97.9937331  52.0520631   3.2374863
  98.6701469  51.4088373   2.0455949  94.6158996  37.2860675  19.4704371
  94.2225942  36.7326873  20.1452015  95.4325136  37.5971253  19.8610888
  91.5821054  48.7244533   3.3817941  92.0945574  49.5187783   3.5323505
  92.2343767  48.0270823   3.3151542  93.3915938  51.8410289   5.4640694
  93.5682567  52.7628254   5.2761678  94.1872772  51.5268708   5.8935074
  97.5326957  38.7018554  17.0624627  98.2736670  39.3025707  16.9829090
  97.7644880  37.9596192  16.5042670  92.6768295  43.8874921  15.3402857
  92.5621810  42.9860178  15.6409956  91.8212813  44.1338618  14.9887674
  99.7560133  51.8292661  16.9390358  99.3123987  51.0429040  16.6211262
 100.4177346  52.0171812  16.2734248  94.5147254  53.3588463  11.4651036
  95.0654679  53.2305526  10.6928030  93.6758730  53.6583352  11.1145929
 101.8541371  52.1095461  14.9671759 101.8359846  52.9304342  14.4752028
 102.7761291  51.9849537  15.1921900  98.3114425  49.6239591  15.8095267
  98.8442762  48.8627879  15.5794575  97.7828506  49.3313243  16.5519422
  89.5469971  47.0533187   4.1577511  90.3845193  47.4630196   3.9411219
  89.7248238  46.1132629   4.1277705 100.5580660  37.1004312   9.3038142
 100.0545456  37.0634447   8.4905948 100.8511267  38.0097055   9.3634799
  96.8023546  37.1843042   8.3104324  97.6676543  36.9885850   7.9510213
  96.8701055  36.9553393   9.2373681  99.6767138  48.7525583   3.3214079
  99.1488499  48.0178343   3.0087317  99.1754640  49.5300260   3.0754048
 104.6559984  46.9474604   8.4381126 103.9983658  47.6373865   8.5261254
 105.4600383  47.3371036   8.7815112  94.4085865  39.4145250   5.6820691
  94.9829617  39.1920431   4.9493884  94.9956848  39.4833944   6.4349292
  99.9446273  42.7768432   8.7343408  99.0268835  42.9983379   8.5765096
 100.3606417  42.8514742   7.8755115 104.2327239  50.2824978   4.6164210
 103.7789566  49.4415888   4.6729400 103.6021205  50.9186376   4.9538990
 102.6760178  52.1201475   5.5514028 102.9683152  52.6806532   4.8326394
 103.1858799  52.4130036   6.3067187  89.5696142  44.3923903   4.8288245
  89.3720542  43.7993263   4.1039311  89.0142806  44.0876113   5.5464183
  97.5492865  44.2847009   6.9482838  97.6041475  43.3320845   6.8725314
  96.7384067  44.4406448   7.4324136  95.4885225  42.9024069   4.7073217
  94.6753091  43.2018239   5.1138409  95.9844219  42.5079758   5.4247699
  97.6393803  52.8981826   6.6407481  97.5969982  53.1242672   5.7116013
  98.5556502  52.6645200   6.7893282 101.0859437  43.3665893  13.5388111
 101.4408825  43.5937366  14.3982576 101.7331568  43.6984270  12.9165366
  94.9799300  40.4742424  10.3234452  95.6198679  40.3331183   9.6257415
  94.1476831  40.1876938   9.9473054 106.8426554  48.5560856   9.2548711
 107.2763060  48.4636145  10.1031765 107.5558134  48.5318357   8.6168727
  95.7559604  49.7744855   6.4369444  96.5500202  49.2795175   6.2352019
  95.0451296  49.2462718   6.0737150 100.5754448  52.1562950  10.7881812
 100.6291471  52.7253887  11.5559528  99.7069230  52.3264835  10.4235849
  92.0642367  43.9187936   2.5129197  91.1339956  43.8572392   2.7299159
  92.1599839  43.3963889   1.7165838  91.9827916  40.4442749   5.1007438
  92.2434734  41.3588082   4.9916599  92.8045089  39.9767192   5.2504051
  93.4552842  41.8580506  12.2706263  94.1275895  41.6497869  11.6218912
  92.6282628  41.6602592  11.8311495 107.7042103  48.5984557  11.7881596
 107.8977993  49.5030367  12.0340871 107.6042721  48.1391976  12.6220182
  99.3578414  38.4842447  14.2871924  98.7106329  39.1832397  14.1936400
 100.1279429  38.9178591  14.6548172 102.7657212  48.7491300  17.3622477
 102.6142718  48.5201851  16.4452561 102.7561891  49.7061901  17.3753822
  99.5342548  46.3223212  12.3468744 100.4634608  46.4734372  12.1737711
  99.1133578  46.4107233  11.4917390  98.3330880  50.3473877  10.1167281
  98.1941966  49.9792661  10.9893219  97.5445476  50.8621516   9.9451239
  98.9279032  55.4482973   1.4592818  99.1030788  54.9771016   2.2738440
  98.2411820  56.0748739   1.6874078  99.8836095  49.7255479   7.5056119
  99.5485928  49.6856249   8.4013769  99.3840041  49.0600195   7.0326529
  93.8580339  45.1323109  13.0308700  93.7200137  44.4003348  13.6320239
  94.7685263  45.0432009  12.7492888  96.4862640  44.8443069  12.5192380
  97.1962258  44.2036261  12.4778998  96.4431948  45.0955964  13.4418561
 104.4749418  51.7810422  15.4398959 104.4161965  51.0969642  14.7729542
 104.8768937  52.5229412  14.9879585  95.1991574  41.8308287  14.3388019
  94.6628931  41.3799025  14.9909616  94.6108282  41.9654195  13.5958484
  93.4940117  58.5972336   8.2332678  93.7336715  59.2290860   8.9111696
  92.6509314  58.2460376   8.5198037 104.4766826  49.7450006  13.6712939
 103.5893604  49.4075928  13.7939337 105.0465377  49.0133037  13.9081704
  86.1295973  46.0774098   6.9955990  86.8167013  45.7635828   6.4077005
  85.9744101  46.9815462   6.7223241  90.9330695  40.9664294  11.4241014
  90.8488884  40.3589964  10.6891424  90.1113401  41.4573313  11.4250510
  98.0067979  54.4051458  10.6374182  97.9338151  55.2106430  11.1493486
  97.5645372  54.6043424   9.8122203  97.7957759  53.6423228   4.1477003
  97.0125281  54.1844909   4.2415228  98.4950504  54.1597208   4.5471245
 100.4666663  54.3038292  12.7932340 101.1794635  54.9385757  12.7208242
  99.9756691  54.4002158  11.9772342 102.1884189  48.2089545   4.3649632
 101.2540468  48.3291008   4.1954336 102.3660858  47.3062012   4.1009642
  97.6889378  41.5935241   6.5182893  97.3187165  41.0406281   7.2063799
  98.1848470  40.9893374   5.9657893  95.5178576  52.0532736  13.6137911
  96.2188036  52.6869219  13.7667306  95.0473691  52.3947467  12.8533551
 103.3179862  44.6077343  11.4390462 102.6651312  44.8553251  10.7842914
 103.6960242  43.7941481  11.1052939 100.2787036  54.6437036   5.5418632
 100.4609430  53.8258692   6.0046384 101.1020022  54.8604729   5.1043522
 100.6129201  53.5705222   2.8033680 101.1416968  53.0597676   2.1903843
 100.8757421  53.2547752   3.6679213  99.3667435  45.3497154  17.9256499
  98.6908072  45.2491284  18.5958874 100.1895069  45.1936368  18.3892496
  91.1146294  51.5869091  10.5469014  91.6999731  50.8412779  10.6796918
  90.9171133  51.8973048  11.4305678  93.9684949  54.6220338   5.5631456
  93.2995325  55.1066466   5.0795496  93.8297819  54.8689559   6.4774835
  85.7063949  44.1574691   9.2673457  85.7448048  43.6238282  10.0610575
  85.2004242  43.6309897   8.6484434  98.1090218  56.6564082  12.1614115
  98.6608526  56.8195703  12.9263200  98.4496411  57.2468520  11.4894140
  93.0854711  39.0039232  12.7635999  93.1496038  39.8654063  12.3513397
  93.0221831  38.3913233  12.0308358  92.5606984  41.0762364  16.4109034
  93.1879023  40.6939441  17.0246558  91.7034903  40.8576566  16.7764726
 102.9601092  51.4825339  18.0162769 103.5040996  52.0955298  17.5217724
 102.3787937  52.0404918  18.5329782  89.3372526  42.8838793   2.3427389
  89.6325968  41.9749472   2.2894442  88.4360562  42.8626533   2.0208391
 101.2458605  54.6046057   9.1477797 101.1209745  53.8035797   8.6388742
 101.9037696  55.0992251   8.6591767  92.8666773  40.9594790   8.3254937
  92.1453359  41.5730758   8.1862410  93.6560029  41.4952555   8.2471583
 103.3093514  52.4055077  10.7757347 102.3623849  52.2860429  10.7035674
 103.6576287  51.5177575  10.8583608  95.6693087  38.2949216  14.5995589
  96.1927489  38.5411513  15.3621898  95.4505420  39.1269251  14.1798726
  91.0660368  40.5652891   2.4666714  90.7373074  39.6850270   2.2841820
  91.4199739  40.5100560   3.3543103 100.3139947  52.2007794   6.9761699
 100.1664909  51.2724501   7.1569269 101.1393440  52.2227884   6.4918774
  94.1802191  40.8525861   2.8342191  94.5198264  41.3811782   2.1120800
  94.6274312  41.1906267   3.6100758 103.9174069  53.0236352   8.0626572
 104.8420616  52.8179214   7.9251023 103.7489372  52.7752754   8.9715913
  96.8745632  39.2362911  12.2845259  96.5342452  38.4370724  12.6865939
  96.1684638  39.5364622  11.7122093  97.5262104  36.3212224  10.7372582
  98.3488173  35.8472702  10.6151473  97.7700167  37.1002708  11.2371269
  95.0500683  43.0131344   8.5464561  94.9045263  43.3271648   9.4388843
  94.5725886  43.6316245   7.9935460  96.9097066  40.0033892   8.5945451
  96.8958634  39.1074986   8.2577749  97.6269494  40.0104556   9.2283737
  98.7623196  40.4371233  10.6398578  98.5040974  41.3588303  10.6382908
  98.2308237  40.0401667  11.3299042 103.7069385  53.5422020   3.4188663
 103.8806263  52.9768442   2.6662516 104.1998276  54.3422915   3.2368153
  89.5246345  45.5536689  11.4852222  88.9799813  46.3296497  11.6172497
  90.4025695  45.9007493  11.3271344  90.3112367  44.6806585  14.3782379
  89.5694103  44.8289221  14.9647010  89.9905111  44.9414851  13.5149129
  98.2556029  54.2222563  14.1762769  98.5643156  53.9771710  15.0485469
  99.0531511  54.4269202  13.6881639  98.2776641  56.3760473   6.4068146
  97.8381632  55.8836852   7.1001002  99.0284758  55.8333441   6.1660221
  90.7568980  52.5672014   6.4092774  91.5827000  52.2675786   6.0291417
  90.4063032  51.7979636   6.8582562  95.7250514  51.9198482   8.4790447
  95.1030523  51.2569187   8.1792675  96.3955380  51.9459614   7.7964095
  88.9577585  50.4858340   7.3681707  88.1209494  50.0580515   7.1865709
  88.9301231  50.6790784   8.3052499  95.7975041  40.3980270  18.0722953
  95.8463196  41.2742393  17.6900723  96.3397555  39.8557663  17.4994597
 106.2829887  50.9421393  17.3524090 105.4925430  50.9245532  16.8128590
 106.0463241  51.4809687  18.1073127 106.4027762  47.7913860  14.6656819
 106.4525767  47.6263867  15.6072342 106.2941685  46.9241119  14.2754700
  95.2864020  50.4702405   1.9548908  95.4352141  51.1537870   1.3015581
  96.0930464  50.4507496   2.4698364 103.6931524  43.7744788  15.9816126
 104.5941387  43.6351253  15.6900123 103.7679499  43.9399243  16.9214303
  98.0274329  41.1511643  14.8269312  97.1577639  41.4445209  14.5551901
  98.2633810  41.7352088  15.5476576 107.9045959  50.2110801  14.9098841
 107.6130767  50.5740782  15.7462301 107.2918090  49.4977810  14.7312173
 106.1533147  45.3343416  13.3778898 106.6287268  45.5271062  12.5697750
 105.2298712  45.3902602  13.1322282  93.0416653  46.4967583   2.9609977
  92.7962695  45.5929913   3.1590187  93.2112568  46.4984734   2.0189455
 100.7313363  37.3691259  12.3434732 101.2495307  38.1052286  12.0181221
 100.3768496  37.6755253  13.1781492  92.3112301  42.2295941   0.4596138
  91.6181546  42.3040296  -0.1963826  92.0664053  41.4656284   0.9817655
  98.7859426  52.9650536  -0.5739345  98.2133393  53.5840723  -1.0268873
  99.3592220  53.5149898  -0.0399423 104.8534816  42.2109176  11.6107204
 105.8052239  42.3107274  11.6319428 104.6838266  41.4187445  12.1205288
 102.8749195  39.2964759  11.7966605 102.2799127  39.5769772  11.1013094
 102.5898892  39.7858660  12.5683346 107.3322894  45.4315296  10.7249504
 107.2999214  44.4931296  10.9109188 107.9423517  45.5099332   9.9915329
  99.0544917  48.3529095  18.2277365  99.9747926  48.5307694  18.4217411
  99.0194500  47.4085140  18.0757064  88.2727082  43.5467688   7.1530639
  87.9529866  42.6932997   6.8605013  87.7260510  43.7616267   7.9088607
  92.0506990  46.2630129  10.8700146  92.2692999  47.1947237  10.8888180
  92.4632763  45.9038104  11.6554950  96.9234855  41.8363335  20.2602895
  96.8231582  42.7857692  20.1914986  96.7056397  41.5081574  19.3878965
  88.1415342  47.1670600   9.1223761  87.4478813  46.7524553   8.6093715
  88.8888333  47.2091136   8.5257180  96.7866125  45.2660474  19.0767957
  96.3033207  46.0660834  19.2831846  96.8727064  45.2768419  18.1235400
  90.0552084  47.0988854   6.9989776  90.0322773  47.1976541   6.0471659
  90.3652721  47.9454005   7.3206942  92.7139462  49.1565009  11.1136390
  93.6682716  49.1248951  11.0466322  92.5151986  48.6955632  11.9286616
  93.3038844  47.7266125  13.6807188  94.1231733  48.2210203  13.7042025
  93.5775652  46.8098093  13.6524755  91.0689691  54.6984628   8.1306588
  90.9344159  53.9385029   7.5644586  90.6521753  55.4225528   7.6635377
  94.2258817  55.5953945   8.3425031  94.1091201  56.5399378   8.2403721
  93.4051263  55.2927507   8.7310830  88.5573759  42.0604259  14.3799385
  89.2032622  41.5503213  14.8686610  88.3490910  42.7972940  14.9542810
 101.0827151  49.1285106  19.8791526 101.9518311  49.3025758  19.5178161
 100.6033902  49.9479523  19.7567255  95.2513331  56.2482207  11.5580959
  96.1540578  56.2805817  11.8747454  95.0250701  55.3182658  11.5727295
  97.0066933  55.0013194   8.2191038  96.0562564  55.0015055   8.1055410
  97.3099419  54.2545928   7.7027072  92.8971250  39.2071876  18.4774399
  93.7602711  38.8508681  18.6877724  92.3236660  38.8685771  19.1649804
 112.7419627  60.8373732   9.2836800 113.3798037  60.7180479   8.5800140
 112.6240470  61.7854576   9.3424752 109.5509333  60.7901160   9.2198325
 109.2127844  60.6742225   8.3318860 110.4199101  60.3892325   9.1999331
 110.0329116  61.9436012  15.1784530 110.0217757  61.5488810  14.3065034
 110.1949755  61.2102085  15.7718302 102.9560581  64.1387828   8.0479436
 103.7481872  63.7978653   7.6325736 103.1957231  64.2482803   8.9681590
 106.7536377  64.7273124  14.1263714 106.4626243  65.6318755  14.0110381
 107.3893361  64.7689651  14.8407784 107.6792584  62.1049972  10.7165074
 108.2756156  61.8805995  10.0022037 107.7367555  61.3634718  11.3190522
 115.2194743  52.2121993  11.7217595 114.8878067  53.0817404  11.4978810
 114.6240356  51.8958277  12.4011626 111.7126262  64.4134539  11.1213508
 111.4126985  65.3159578  11.0129315 111.3677322  64.1466722  11.9734661
 105.1638744  60.8648336   7.1550213 104.2389240  60.7324550   7.3627904
 105.4123157  61.6442555   7.6520155 115.1123406  56.9317079   8.8010945
 114.2040283  56.8632488   8.5069706 115.0611002  57.4089024   9.6292771
 102.5247555  60.5081610   7.9894002 102.6539936  60.7616089   8.9033413
 101.8445006  61.1009318   7.6698657 109.1864272  58.3506725  16.7445843
 108.4097606  58.9100645  16.7348707 109.8254835  58.8363508  17.2660713
 107.4410644  61.1592178  16.3063810 108.1825328  61.6977222  16.0298633
 106.7347630  61.7858467  16.4635362 112.9165984  63.3021319  14.9035971
 113.3249340  62.8603729  14.1590604 112.1943245  62.7273946  15.1570164
 109.2697054  58.2393926  12.2769528 110.1158249  58.6633339  12.4204177
 109.2095691  57.5827550  12.9708091 112.4196499  55.8998294  13.9350702
 112.1757431  56.6540354  13.3984978 112.6956430  56.2783642  14.7697949
 114.3734962  62.4436906  12.6127967 114.5851857  63.0868666  11.9362348
 114.3264710  61.6099223  12.1449897 111.9761191  55.0554727   9.5164540
 111.1145670  55.3535981   9.8081277 112.0023625  55.2725126   8.5845572
 105.6846841  63.1468399   8.8618108 106.2548198  63.5755667   8.2235593
 106.2754953  62.8650984   9.5602294 106.1772008  58.3131827  17.1079120
 105.5470668  58.9948107  17.3414517 106.0708096  58.2014908  16.1632258
 101.4716980  57.9803623   8.0345044 100.6816034  58.2361151   7.5585155
 101.9628228  58.7951960   8.1397084 103.4231726  58.3448202   4.9928521
 102.6262889  58.4566896   5.5112016 103.1957318  58.6834854   4.1269411
 109.2537393  64.8692905  12.9411035 109.3181826  65.3313312  13.7769207
 108.5448317  64.2390270  13.0693345  99.7554683  58.2334113  10.4660035
 100.0062722  59.1181123  10.7317611 100.2914232  58.0538715   9.6935127
 105.4552751  52.6152592  19.4704371 105.0619696  52.0618791  20.1452015
 106.2718891  52.9263171  19.8610888 108.3720712  54.0310471  17.0624627
 109.1130425  54.6317625  16.9829090 108.6038634  53.2888109  16.5042670
 103.5162050  59.2166839  15.3402857 103.4015565  58.3152096  15.6409956
 102.6606567  59.4630536  14.9887674 110.5953887  67.1584579  16.9390358
 110.1517741  66.3720958  16.6211262 111.2571101  67.3463730  16.2734248
 105.3541008  68.6880381  11.4651036 105.9048434  68.5597444  10.6928030
 104.5152484  68.9875270  11.1145929 112.6935125  67.4387379  14.9671759
 112.6753601  68.2596260  14.4752028 113.6155045  67.3141454  15.1921900
 109.1508179  64.9531508  15.8095267 109.6836516  64.1919797  15.5794575
 108.6222261  64.6605160  16.5519422 111.3974415  52.4296230   9.3038142
 110.8939210  52.3926365   8.4905948 111.6905022  53.3388972   9.3634799
 107.6417301  52.5134959   8.3104324 108.5070297  52.3177768   7.9510213
 107.7094810  52.2845311   9.2373681 105.2479620  54.7437167   5.6820691
 105.8223372  54.5212349   4.9493884 105.8350602  54.8125862   6.4349292
 110.7840028  58.1060350   8.7343408 109.8662589  58.3275297   8.5765096
 111.2000171  58.1806660   7.8755115 100.4089896  59.7215820   4.8288245
 100.2114296  59.1285181   4.1039311  99.8536560  59.4168030   5.5464183
 108.3886620  59.6138927   6.9482838 108.4435230  58.6612763   6.8725314
 107.5777822  59.7698366   7.4324136 106.3278980  58.2315986   4.7073217
 105.5146845  58.5310157   5.1138409 106.8237974  57.8371675   5.4247699
 111.9253191  58.6957811  13.5388111 112.2802579  58.9229284  14.3982576
 112.5725323  59.0276188  12.9165366 105.8193055  55.8034342  10.3234452
 106.4592434  55.6623101   9.6257415 104.9870585  55.5168855   9.9473054
 102.8221671  55.7734667   5.1007438 103.0828488  56.6880000   4.9916599
 103.6438843  55.3059109   5.2504051 104.2946596  57.1872424  12.2706263
 104.9669650  56.9789786  11.6218912 103.4676383  56.9894510  11.8311495
 110.1972168  53.8134365  14.2871924 109.5500083  54.5124315  14.1936400
 110.9673184  54.2470509  14.6548172 113.6050966  64.0783217  17.3622477
 113.4536473  63.8493769  16.4452561 113.5955646  65.0353819  17.3753822
 110.3736303  61.6515130  12.3468744 111.3028363  61.8026290  12.1737711
 109.9527333  61.7399151  11.4917390 109.1724634  65.6765794  10.1167281
 109.0335720  65.3084579  10.9893219 108.3839231  66.1913434   9.9451239
 104.6974094  60.4615027  13.0308700 104.5593891  59.7295266  13.6320239
 105.6079017  60.3723927  12.7492888 107.3256394  60.1734986  12.5192380
 108.0356013  59.5328179  12.4778998 107.2825702  60.4247881  13.4418561
 115.3143173  67.1102340  15.4398959 115.2555719  66.4261560  14.7729542
 115.7162691  67.8521330  14.9879585 106.0385328  57.1600204  14.3388019
 105.5022685  56.7090943  14.9909616 105.4502037  57.2946113  13.5958484
 115.3160580  65.0741924  13.6712939 114.4287359  64.7367845  13.7939337
 115.8859131  64.3424955  13.9081704  96.9689727  61.4066015   6.9955990
  97.6560767  61.0927745   6.4077005  96.8137856  62.3107380   6.7223241
 101.7724449  56.2956212  11.4241014 101.6882638  55.6881882  10.6891424
 100.9507156  56.7865230  11.4250510 108.5283132  56.9227159   6.5182893
 108.1580920  56.3698199   7.2063799 109.0242224  56.3185292   5.9657893
 106.3572331  67.3824654  13.6137911 107.0581790  68.0161136  13.7667306
 105.8867446  67.7239385  12.8533551 114.1573617  59.9369261  11.4390462
 113.5045067  60.1845168  10.7842914 114.5353996  59.1233399  11.1052939
 110.2061190  60.6789072  17.9256499 109.5301827  60.5783201  18.5958874
 111.0288823  60.5228286  18.3892496 101.9540049  66.9161009  10.5469014
 102.5393485  66.1704696  10.6796918 101.7564887  67.2264965  11.4305678
  96.5457703  59.4866609   9.2673457  96.5841803  58.9530199  10.0610575
  96.0397996  58.9601814   8.6484434 103.9248466  54.3331149  12.7635999
 103.9889792  55.1945980  12.3513397 103.8615586  53.7205151  12.0308358
 103.4000738  56.4054282  16.4109034 104.0272777  56.0231359  17.0246558
 102.5428657  56.1868484  16.7764726 113.7994847  66.8117257  18.0162769
 114.3434751  67.4247215  17.5217724 113.2181692  67.3696835  18.5329782
 100.1766281  58.2130711   2.3427389 100.4719722  57.3041389   2.2894442
  99.2754317  58.1918450   2.0208391 103.7060528  56.2886707   8.3254937
 102.9847114  56.9022675   8.1862410 104.4953784  56.8244472   8.2471583
 106.5086842  53.6241134  14.5995589 107.0321243  53.8703431  15.3621898
 106.2899175  54.4561169  14.1798726 101.9054123  55.8944809   2.4666714
 101.5766829  55.0142188   2.2841820 102.2593493  55.8392477   3.3543103
 107.7139387  54.5654829  12.2845259 107.3736207  53.7662642  12.6865939
 107.0078393  54.8656540  11.7122093 108.3655858  51.6504142  10.7372582
 109.1881928  51.1764620  10.6151473 108.6093922  52.4294625  11.2371269
 105.8894437  58.3423262   8.5464561 105.7439018  58.6563565   9.4388843
 105.4119641  58.9608163   7.9935460 107.7490820  55.3325810   8.5945451
 107.7352389  54.4366903   8.2577749 108.4663248  55.3396474   9.2283737
 109.6016951  55.7663150  10.6398578 109.3434729  56.6880221  10.6382908
 109.0701991  55.3693585  11.3299042 100.3640099  60.8828607  11.4852222
  99.8193567  61.6588415  11.6172497 101.2419449  61.2299411  11.3271344
 101.1506121  60.0098503  14.3782379 100.4087857  60.1581138  14.9647010
 100.8298865  60.2706768  13.5149129 109.0949784  69.5514481  14.1762769
 109.4036910  69.3063628  15.0485469 109.8925266  69.7561120  13.6881639
  99.7971340  65.8150258   7.3681707  98.9603248  65.3872432   7.1865709
  99.7694985  66.0082701   8.3052499 106.6368795  55.7272188  18.0722953
 106.6856951  56.6034311  17.6900723 107.1791310  55.1849581  17.4994597
 117.1223641  66.2713311  17.3524090 116.3319185  66.2537450  16.8128590
 116.8856996  66.8101605  18.1073127 117.2421516  63.1205777  14.6656819
 117.2919521  62.9555785  15.6072342 117.1335440  62.2533036  14.2754700
 114.5325279  59.1036705  15.9816126 115.4335141  58.9643170  15.6900123
 114.6073253  59.2691160  16.9214303 108.8668084  56.4803560  14.8269312
 107.9971393  56.7737126  14.5551901 109.1027564  57.0644005  15.5476576
 118.7439713  65.5402719  14.9098841 118.4524521  65.9032699  15.7462301
 118.1311844  64.8269727  14.7312173 116.9926901  60.6635334  13.3778898
 117.4681023  60.8562980  12.5697750 116.0692467  60.7194519  13.1322282
 111.5707118  52.6983177  12.3434732 112.0889062  53.4344204  12.0181221
 111.2162251  53.0047170  13.1781492 115.6928570  57.5401094  11.6107204
 116.6445993  57.6399191  11.6319428 115.5232021  56.7479362  12.1205288
 113.7142950  54.6256677  11.7966605 113.1192882  54.9061690  11.1013094
 113.4292646  55.1150578  12.5683346 109.8938671  63.6821012  18.2277365
 110.8141681  63.8599611  18.4217411 109.8588254  62.7377058  18.0757064
  99.1120836  58.8759606   7.1530639  98.7923621  58.0224914   6.8605013
  98.5654265  59.0908184   7.9088607 102.8900744  61.5922047  10.8700146
 103.1086754  62.5239155  10.8888180 103.3026518  61.2330022  11.6554950
 107.7628609  57.1655253  20.2602895 107.6625336  58.1149610  20.1914986
 107.5450151  56.8373492  19.3878965  98.9809096  62.4962518   9.1223761
  98.2872568  62.0816470   8.6093715  99.7282087  62.5383054   8.5257180
 107.6259879  60.5952392  19.0767957 107.1426961  61.3952752  19.2831846
 107.7120818  60.6060337  18.1235400 100.8945839  62.4280771   6.9989776
 100.8716527  62.5268459   6.0471659 101.2046475  63.2745922   7.3206942
 103.5533217  64.4856926  11.1136390 104.5076470  64.4540869  11.0466322
 103.3545740  64.0247550  11.9286616 104.1432599  63.0558042  13.6807188
 104.9625488  63.5502121  13.7042025 104.4169407  62.1390011  13.6524755
  99.3967513  57.3896176  14.3799385 100.0426377  56.8795130  14.8686610
  99.1884664  58.1264858  14.9542810 111.9220905  64.4577024  19.8791526
 112.7912065  64.6317676  19.5178161 111.4427657  65.2771441  19.7567255
 106.0907086  71.5774125  11.5580959 106.9934332  71.6097735  11.8747454
 105.8644456  70.6474576  11.5727295 103.7365004  54.5363793  18.4774399
 104.5996466  54.1800598  18.6877724 103.1630415  54.1977688  19.1649804
 116.2946505  67.9444510  19.4704371 115.9013451  67.3910709  20.1452015
 117.1112645  68.2555089  19.8610888 119.2114466  69.3602389  17.0624627
 119.9524179  69.9609542  16.9829090 119.4432389  68.6180027  16.5042670
 114.2394493  71.7346199  16.4109034 114.8666532  71.3523277  17.0246558
 113.3822412  71.5160401  16.7764726 117.4762550  71.0564105  18.0722953
 117.5250705  71.9326228  17.6900723 118.0185064  70.5141499  17.4994597
 118.6022364  72.4947171  20.2602895 118.5019091  73.4441528  20.1914986
 118.3843906  72.1665409  19.3878965 110.2361268  72.7188094  14.3799385
 110.8820131  72.2087048  14.8686610 110.0278419  73.4556776  14.9542810
 114.5758759  69.8655711  18.4774399 115.4390220  69.5092516  18.6877724
 114.0024169  69.5269606  19.1649804   4.3455476  76.9939533  86.7863453
   3.5919184  76.4246931  86.6307458   4.4803017  76.9602198  87.7334088
   0.7104088  78.4347522  87.0829568   1.5450980  78.8737326  87.2467128
   0.8463217  77.9586175  86.2637814   4.7561891  77.1515143  89.5183698
   5.4865279  76.8900431  90.0791401   4.1468836  76.4143865  89.5585766
   2.8377188  75.2923006  90.1158149   2.1110352  75.1578971  89.5074640
   2.4224475  75.5999834  90.9214867   0.4554983  71.5134858  87.4691580
   1.0499474  71.2730594  86.7584889   0.5281567  70.7941989  88.0965117
   2.7626056  74.8201059  86.2435002   2.2025614  74.8894248  87.0166564
   2.1569559  74.6442043  85.5234498   4.3482074  91.4957573  88.9364957
   4.9860484  91.3764320  88.2328297   4.2302917  92.4438417  88.9952909
   1.1571781  91.4485001  88.8726482   0.8190292  91.3326066  87.9847017
   2.0261549  91.0476166  88.8527488   2.5958155  96.9691445  80.1737838
   1.9446135  97.5545525  79.7871852   3.3902518  97.4997640  80.2332875
   3.9023343  89.2209027  86.0118165   4.6886432  88.8028450  85.6608582
   4.1662047  90.1255119  86.1799814   4.0733420  94.6581877  80.7106822
   3.4379253  94.7316503  81.4227727   3.7430826  95.2475476  80.0325901
   9.3031770  89.1584260  86.9151144  10.0356942  88.5883477  87.1488973
   8.5471126  88.7705860  87.3557649   0.9207890  91.5811501  84.1114486
   0.5566097  91.0542122  84.8227408   1.7775005  91.1909970  83.9380972
   6.8257190  82.8705834  91.3745752   6.4940515  83.7401245  91.1506967
   6.2302804  82.5542118  92.0539783   3.3188710  95.0718380  90.7741665
   3.0189433  95.9743419  90.6657472   2.9739769  94.8050563  91.6262818
   6.7185854  87.5900920  88.4539103   5.8102731  87.5216329  88.1597864
   6.6673449  88.0672865  89.2820928   8.5847500  85.7917359  90.2316976
   7.9421880  86.0849892  89.5856771   8.0802428  85.6770279  91.0370173
   6.2387664  89.5380532  80.9202836   7.1505520  89.7707918  80.7450533
   5.7297311  90.1217576  80.3577914   0.8759501  88.8977766  91.9297685
   1.7220696  89.3217180  92.0732334   0.8158139  88.2411391  92.6236248
   4.8457246  94.5206350  88.3116417   4.2166108  94.6852064  87.6092485
   4.4582908  94.9347960  89.0827381   8.7246478  95.4560788  85.6660781
   8.0397516  95.8359689  85.1157814   8.8090327  96.0656115  86.3992729
   4.0258947  86.5582135  93.5878859   3.7819878  87.3124195  93.0513135
   4.3018877  86.9367482  94.4226106   5.9797409  93.1020747  92.2656124
   6.1914305  93.7452507  91.5890506   5.9327158  92.2683064  91.7978055
   3.5823638  85.7138568  89.1692697   2.7208117  86.0119821  89.4609434
   3.6086073  85.9308967  88.2373729   7.0943237  95.9792702  90.4378482
   7.9160681  95.5772890  90.1561163   7.0905640  95.8760937  91.3894598
  15.1849230  92.3231451  86.7863453  14.4312939  91.7538849  86.6307458
  15.3196772  92.2894115  87.7334088   0.5747858  97.1944853  82.4618173
   0.4393533  98.0396389  82.8903020   1.1157671  97.3964131  81.6984106
   3.9240322  80.7175415  90.9917066   3.5804591  81.6077057  90.9156177
   4.2919285  80.5277073  90.1286651   3.8890605  90.7084026  79.4989501
   3.3737228  91.4788631  79.7377889   3.6167913  90.0349162  80.1222563
   1.4737716  85.5533727  84.5574740   0.6179312  85.1640577  84.3780378
   1.8864668  85.6325688  83.6974525   3.0036862  83.0880070  88.9566299
   2.5001658  83.0510205  88.1434105   3.2967469  83.9972813  89.0162956
   8.8624879  93.4616381  81.4342675   8.0854322  93.1227540  80.9897837
   9.5416360  93.4669004  80.7597640   3.6776908  88.5811118  81.3249282
   3.3727043  88.8957267  82.1759426   4.6307350  88.6592538  81.3676615
   2.1223340  94.7401342  82.9742236   1.5944701  94.0054101  82.6615474
   1.6210842  95.5176018  82.7282205   7.1016186  92.9350362  88.0909283
   6.4439860  93.6249624  88.1789411   7.9056585  93.3246794  88.4343269
   5.9121645  91.2894735  86.1413224   6.4253526  91.9224727  86.6434934
   6.5622868  90.6895930  85.7756584   3.1744019 101.2679059  78.8973896
   2.5005718 101.5710756  79.5058853   3.5609841 102.0708139  78.5479353
   2.3902475  88.7644190  88.3871565   1.4725037  88.9859137  88.2293253
   2.8062619  88.8390501  87.5283272   3.1737523  90.1635606  83.5174245
   3.9209342  90.6757003  83.2081367   3.4429113  89.8419659  84.3778639
   1.4464173  92.6594147  80.5001200   0.5375393  92.3753180  80.5973669
   1.4759257  93.0793225  79.6404506   6.6783441  96.2700736  84.2692367
   6.2245768  95.4291646  84.3257558   6.0477407  96.9062135  84.6067147
   5.6216360  87.1992722  85.4993035   4.8839117  86.6870108  85.8303277
   5.8743134  86.7593104  84.6876311   5.1216380  98.1077233  85.2042185
   5.4139354  98.6682290  84.4854551   5.6315001  98.4005794  85.9595344
   5.7227988  79.9768974  86.0934804   6.0286864  79.1166338  85.8060719
   6.4480592  80.5686594  85.8933798   1.1440261  94.2002890  77.8389278
   0.7059691  93.4838749  77.3794915   1.8850702  94.4279005  77.2774369
   3.5315639  89.3541652  93.1916268   3.8865027  89.5813125  94.0510733
   4.1787770  89.6860028  92.5693523   9.2613376  92.4760087  83.8965597
   9.1231275  92.6661683  82.9686786   8.9049595  93.2379470  84.3533648
   9.2882756  94.5436614  88.9076868   9.7219262  94.4511904  89.7559922
  10.0014336  94.5194115  88.2696884  10.1498305  94.5860315  91.4409754
  10.3434195  95.4906126  91.6869028  10.0498923  94.1267734  92.2748339
   1.8034616  84.4718206  93.9400081   1.1562531  85.1708155  93.8464557
   2.5735631  84.9054350  94.3076329   1.9798750  92.3098971  91.9996901
   2.9090810  92.4610130  91.8265868   1.5589780  92.3982991  91.1445547
   1.3735234 101.4358731  81.1120975   1.5486990 100.9646775  81.9266597
   0.6868022 102.0624498  81.3402235   2.3292297  95.7131238  87.1584276
   1.9942130  95.6732008  88.0541926   1.8296243  95.0475954  86.6854686
   5.2651489  93.0587272  77.4321336   4.6480659  92.3334100  77.3354388
   4.7967977  93.8196632  77.0888410   6.9223028  95.7325764  93.3241096
   6.0349806  95.3951686  93.4467495   7.4921579  95.0008796  93.5609861
   3.5510611  85.4393616  86.4439366   4.0479310  84.6863579  86.1240436
   2.7797592  85.4757933  85.8782575  11.4040368  91.1433982  88.0857657
  11.3930244  92.0258697  87.7151590  10.5357748  90.7905533  87.8912194
   4.6340392  94.1965303  84.0177789   3.6996670  94.3166766  83.8482494
   4.8117060  93.2937770  83.7537799   8.0212943  90.0382623  84.5527823
   8.4873395  90.8710614  84.4788126   8.4720443  89.5727604  85.2573082
   6.0889174  96.3826444  81.5513975   6.3649018  96.2683039  82.4607850
   5.2193673  95.9843929  81.5126149   5.9929606  82.4063210  88.5918725
   5.0792685  82.6367437  88.7600932   6.4222707  82.4901654  89.4432757
   5.7636064  90.5953102  91.0918619   5.1107514  90.8429009  90.4371072
   6.1416444  89.7817240  90.7581096   2.7243238 100.6312795  85.1946789
   2.9065633  99.8134451  85.6574541   3.5476224 100.8480487  84.7571679
   3.0585403  99.5580980  82.4561838   3.5873170  99.0473435  81.8432000
   3.3213623  99.2423510  83.3207371   3.6914807 100.5921816  88.8005954
   3.5665947  99.7911556  88.2916899   4.3493898 101.0868009  88.3119924
   5.7549716  98.3930836  90.4285504   4.8080051  98.2736187  90.3563831
   6.1032489  97.5053334  90.5111766   2.7596149  98.1883552  86.6289856
   2.6121111  97.2600259  86.8097426   3.5849642  98.2103643  86.1446932
   6.3630271  99.0112111  87.7154729   7.2876818  98.8054972  87.5779180
   6.1945574  98.7628512  88.6244071   2.7557663  86.0421390  81.6221974
   2.9721278  86.9246028  81.3210802   2.2751730  85.6507603  80.8927616
   1.2079398  86.4246991  90.2926735   0.9497176  87.3464062  90.2911066
   0.6764439  86.0277426  90.9827199   6.1525587  99.5297778  83.0716821
   6.3262465  98.9644201  82.3190673   6.6454478 100.3298673  82.8896310
   1.6281354  82.5578942  86.6527898   1.6503051  82.6218275  85.6979877
   2.0449413  81.7183450  86.8468404  12.0064978  92.2934201  84.6907120
  12.4496124  91.5441526  84.2926244  11.1291488  92.2844337  84.3080852
   7.1400760  98.8464543  80.1713719   7.8351664  99.4671235  80.3901033
   7.4823910  97.9959894  80.4466097   9.0392183  96.2964248  81.7001050
   9.5643507  96.6351521  80.9750370   8.9514535  95.3611263  81.5164184
   8.8483964  93.7789618  94.3184976   8.8981969  93.6139626  95.2600499
   8.7397887  92.9116877  93.9282857   6.1387726  89.7620546  95.6344283
   7.0397589  89.6227011  95.3428281   6.2135701  89.9275001  96.5742460
  10.3502161  96.1986560  94.5626998  10.0586969  96.5616540  95.3990459
   9.7374292  95.4853568  94.3840330  11.5497843  93.7639439  87.0829568
  12.3844734  94.2029243  87.2467128  11.6856972  93.2878093  86.2637814
   8.5989349  91.3219174  93.0307056   9.0743470  91.5146821  92.2225907
   7.6754914  91.3778360  92.7850439   3.1769565  83.3567018  91.9962889
   3.6951509  84.0928045  91.6709378   2.8224698  83.6631011  92.8309649
   3.4282159  79.7767300  87.5163786   3.7083913  79.1090489  88.1424213
   4.2132766  79.9696396  87.0038450   1.2315628  98.9526294  79.0788812
   0.6589595  99.5716481  78.6259284   1.8048422  99.5025656  79.6128734
   7.2991018  88.1984934  91.2635361   8.2508441  88.2983032  91.2847585
   7.1294468  87.4063203  91.7733446   5.3205397  85.2840518  91.4494762
   4.7255329  85.5645530  90.7541251   5.0355094  85.7734418  92.2211503
   4.4512888  99.2363444  80.2097395   5.3843561  99.1709006  80.4130270
   4.3636101 100.0719711  79.7511927   7.0800904  98.5529315  77.1701342
   7.0014536  98.2189178  78.0637100   7.9010571  99.0451083  77.1692815
   9.7779096  91.4191054  90.3777661   9.7455416  90.4807055  90.5637345
  10.3879719  91.4975091  89.6443486   1.6162426  90.2887107  76.4204865
   2.5621531  90.1593315  76.4893283   1.2376671  89.5501769  76.8974293
   9.9273584  88.2102097  90.4235944   9.4112633  87.4260554  90.2365873
  10.8113533  87.8820814  90.5882463   7.5884311  81.9543113  86.3831757
   7.3909132  81.6458201  87.2675089   8.1984017  82.6804752  86.5129687
  15.5955645  92.4807061  89.5183698  16.3259034  92.2192349  90.0791401
  14.9862591  91.7435783  89.5585766  13.6770943  90.6214923  90.1158149
  12.9504106  90.4870888  89.5074640  13.2618229  90.9291752  90.9214867
   1.4167409  82.7573973  82.5103991   0.6068138  82.4121058  82.8859237
   2.1051826  82.4481517  83.0991603   3.3457958  81.8352020  84.1328288
   3.8988996  82.2547473  84.7918311   3.5828044  80.9087768  84.1751244
   6.7236765  83.9452545  83.6406952   6.1435434  84.6037349  83.2585005
   6.4572697  83.1229890  83.2294370   5.1740331  83.3457603  85.8428273
   5.6740109  83.4574137  85.0342591   5.8175939  83.0418656  86.4829081
   5.5061643  86.1052635  82.6963301   4.6187498  86.3902286  82.4783495
   5.9215632  85.9446399  81.8490577   8.8576179  86.1299156  86.4117640
   9.6336569  86.6195609  86.6842257   8.1324313  86.5557211  86.8689509
  11.2948737  86.8426776  87.4691580  11.8893228  86.6022512  86.7584889
  11.3675321  86.1233906  88.0965117   4.6504856  95.8697310  76.7911321
   5.3540706  96.0747313  77.4068976   3.9267505  96.4374072  77.0560404
   5.4802666  91.6207171  82.9113591   5.4237868  92.0775723  82.0721223
   6.0331009  90.8597856  82.7336433   9.2907472  87.4096903  83.7363710
   9.0344407  87.0093539  84.5671918   8.6660340  88.1240697  83.6113849
  13.6019810  90.1492977  86.2435002  13.0419368  90.2186166  87.0166564
  12.9963314  89.9733961  85.5234498   6.5591554  96.3079839  78.8409781
   7.3937158  95.8761038  78.6587255   6.3975897  96.1361853  79.7686675
   6.2137446  92.8111953  80.2066120   6.1586250  92.6456224  79.2654564
   5.5883501  93.5187986  80.3628310   3.3385691  78.9062838  84.0397375
   2.5718087  78.3521325  84.1854057   3.7496396  78.9784707  84.9011527
  15.1875829 106.8249490  88.9364957  15.8254239 106.7056238  88.2328297
  15.0696672 107.7730334  88.9952909  11.9965535 106.7776919  88.8726482
  11.6584047 106.6617983  87.9847017  12.8655303 106.3768084  88.8527488
   9.6973814 105.5465166  78.2043422   9.9499335 105.0246687  77.4426885
   8.7598373 105.3831311  78.3070106  14.7417097 104.5500944  86.0118165
  15.5280186 104.1320367  85.6608582  15.0055802 105.4547036  86.1799814
  20.1425524 104.4876177  86.9151144  20.8750696 103.9175394  87.1488973
  19.3864880 104.0997778  87.3557649  11.7601644 106.9103419  84.1114486
  11.3959851 106.3834040  84.8227408  12.6168760 106.5201888  83.9380972
  17.6650945  98.1997752  91.3745752  17.3334269  99.0693163  91.1506967
  17.0696558  97.8834036  92.0539783  11.4007131 101.9393319  79.1075835
  11.5681533 102.8073555  79.4746306  11.2104300 102.1020600  78.1837124
  17.5579608 102.9192838  88.4539103  16.6496485 102.8508246  88.1597864
  17.5067204 103.3964783  89.2820928  11.3796352 104.3950976  80.0922502
  11.2595977 104.8408027  80.9307982  10.6848940 104.7436294  79.5336040
  19.4241254 101.1209276  90.2316976  18.7815635 101.4141809  89.5856771
  18.9196183 101.0062197  91.0370173  17.0781418 104.8672449  80.9202836
  17.9899274 105.0999836  80.7450533  16.5691065 105.4509494  80.3577914
  11.7153256 104.2269684  91.9297685  12.5614451 104.6509098  92.0732334
  11.6551893 103.5703308  92.6236248  14.8652701 101.8874052  93.5878859
  14.6213633 102.6416113  93.0513135  15.1412632 102.2659400  94.4226106
  16.8191164 108.4312665  92.2656124  17.0308059 109.0744425  91.5890506
  16.7720912 107.5974981  91.7978055  14.4217393 101.0430485  89.1692697
  13.5601872 101.3411739  89.4609434  14.4479827 101.2600884  88.2373729
  10.1747848 105.7095828  82.3856067  10.8771892 106.1616872  82.8529994
   9.8428477 105.0679647  83.0135961   3.9173182 103.9679381  87.6873201
   3.1272236 104.2236909  87.2113312   4.4084430 104.7827719  87.7925242
   5.8687928 104.3323960  84.6456678   5.0719091 104.4442654  85.1640173
   5.6413520 104.6710612  83.7797568  26.0242985 107.6523369  86.7863453
  25.2706693 107.0830767  86.6307458  26.1590526 107.6186033  87.7334088
  14.7634076  96.0467333  90.9917066  14.4198346  96.9368974  90.9156177
  15.1313039  95.8568990  90.1286651  14.7284359 106.0375944  79.4989501
  14.2130983 106.8080549  79.7377889  14.4561668 105.3641080  80.1222563
  12.3131470 100.8825645  84.5574740  11.4573067 100.4932495  84.3780378
  12.7258422 100.9617605  83.6974525  13.8430617  98.4171988  88.9566299
  13.3395412  98.3802123  88.1434105  14.1361224  99.3264731  89.0162956
  10.0873503  98.5010718  87.9632481  10.9526500  98.3053526  87.6038371
  10.1551012  98.2721069  88.8901838  19.7018633 108.7908299  81.4342675
  18.9248076 108.4519458  80.9897837  20.3810114 108.7960922  80.7597640
  14.5170662 103.9103036  81.3249282  14.2120798 104.2249185  82.1759426
  15.4701105 103.9884456  81.3676615  17.9409940 108.2642280  88.0909283
  17.2833615 108.9541541  88.1789411  18.7450339 108.6538712  88.4343269
   7.6935822 100.7312926  85.3348848   8.2679574 100.5088107  84.6022041
   8.2806804 100.8001620  86.0877449  16.7515399 106.6186652  86.1413224
  17.2647281 107.2516644  86.6434934  17.4016623 106.0187848  85.7756584
   8.0205409 102.7617387  79.3544733   7.1842721 103.0992073  79.6754008
   7.8810179 102.6266366  78.4171870   9.9958490  97.6054174  84.0623917
   9.3422902  97.2903192  83.4380532   9.9538964  96.9829915  84.7883740
  13.2296230 104.0936108  88.3871565  12.3118791 104.3151055  88.2293253
  13.6456374 104.1682419  87.5283272  14.0131278 105.4927524  83.5174245
  14.7603097 106.0048921  83.2081367  14.2822867 105.1711576  84.3778639
  16.4610115 102.5284640  85.4993035  15.7232872 102.0162026  85.8303277
  16.7136888 102.0885022  84.6876311  16.5621742  95.3060892  86.0934804
  16.8680619  94.4458255  85.8060719  17.2874347  95.8978512  85.8933798
  10.8342822 105.6014685  86.6010995  10.8891432 104.6488521  86.5253471
  10.0234024 105.7574124  87.0852293   8.7735182 104.2191745  84.3601374
   7.9603047 104.5185915  84.7666566   9.2694176 103.8247434  85.0775856
  14.3709393 104.6833569  93.1916268  14.7258781 104.9105042  94.0510733
  15.0181525 105.0151946  92.5693523  20.1007130 107.8052005  83.8965597
  19.9625029 107.9953601  82.9686786  19.7443349 108.5671388  84.3533648
   8.2649257 101.7910100  89.9762609   8.9048636 101.6498859  89.2785572
   7.4326787 101.5044614  89.6001211  20.1276510 109.8728532  88.9076868
  20.5613017 109.7803821  89.7559922  20.8408091 109.8486033  88.2696884
   5.3492324 105.2355612  82.1657354   4.4189912 105.1740068  82.3827316
   5.4449796 104.7131565  81.3693995   5.2677873 101.7610425  84.7535595
   5.5284690 102.6755759  84.6444756   6.0895045 101.2934868  84.9032208
  20.9892060 109.9152233  91.4409754  21.1827950 110.8198043  91.6869028
  20.8892678 109.4559652  92.2748339  12.6428370  99.8010123  93.9400081
  11.9956285 100.5000073  93.8464557  13.4129386 100.2346267  94.3076329
  12.8192505 107.6390888  91.9996901  13.7484565 107.7902048  91.8265868
  12.3983535 107.7274909  91.1445547  16.1045243 108.3879190  77.4321336
  15.4874414 107.6626018  77.3354388  15.6361732 109.1488550  77.0888410
   7.8943789 102.6064614  76.5542640   7.0173255 102.4853415  76.1904887
   8.3701542 101.8150692  76.3021529  14.3904365 100.7685534  86.4439366
  14.8873065 100.0155496  86.1240436  13.6191347 100.8049851  85.8782575
  22.2434123 106.4725899  88.0857657  22.2323999 107.3550615  87.7151590
  21.3751502 106.1197450  87.8912194  10.9739334 102.9102917  86.1711050
  10.6037122 102.3573957  86.8591956  11.4698427 102.3061050  85.6186050
  18.8606697 105.3674540  84.5527823  19.3267150 106.2002532  84.4788126
  19.3114198 104.9019522  85.2573082  16.8323360  97.7355127  88.5918725
  15.9186440  97.9659354  88.7600932  17.2616462  97.8193571  89.4432757
  16.6029819 105.9245019  91.0918619  15.9501269 106.1720927  90.4371072
  16.9810199 105.1109158  90.7581096   6.3704668 100.3206908  92.4164157
   6.4345994 101.1821739  92.0041554   6.3071788  99.7080909  91.6836515
   2.6222483 104.2006469  81.9955546   2.9175924 103.2917148  81.9422599
   1.7210519 104.1794209  81.6736548   6.1516730 102.2762466  87.9783094
   5.4303316 102.8898434  87.8390568   6.9409986 102.8120231  87.8999740
   8.9543044  99.6116892  94.2523746   9.4777445  99.8579189  95.0150055
   8.7355377 100.4436927  93.8326883   4.3510325 101.8820567  82.1194871
   4.0223031 101.0017946  81.9369977   4.7049695 101.8268236  83.0071260
   7.4652148 102.1693537  82.4870348   7.8048220 102.6979458  81.7648957
   7.9124268 102.5073943  83.2628915  10.1595589 100.5530587  91.9373417
   9.8192409  99.7538401  92.3394096   9.4534595 100.8532298  91.3650250
  10.8112060  97.6379900  90.3900740  11.6338130  97.1640378  90.2679630
  11.0550124  98.4170384  90.8899426   9.4520295 100.6668158  80.6863641
  10.1728657 101.0449411  80.1827358   8.8285599 101.3857035  80.7898619
  13.5951418 101.3713307  81.6221974  13.8115032 102.2537945  81.3210802
  13.1145485 100.9799521  80.8927616   8.3350639 104.3299021  88.1992718
   8.1895220 104.6439324  89.0917000   7.8575843 104.9483921  87.6463617
  10.1947022 101.3201569  88.2473608  10.1808591 100.4242662  87.9105906
  10.9119450 101.3272232  88.8811894  12.0473153 101.7538909  90.2926735
  11.7890931 102.6755979  90.2911066  11.5158193 101.3569343  90.9827199
   9.5983918 100.2015949  83.5161178   9.7199829  99.2732595  83.7152065
   9.3085960 100.2154635  82.6039493  12.4675108  97.8870859  86.6527898
  12.4896805  97.9510192  85.6979877  12.8843167  97.0475368  86.8468404
  22.8458733 107.6226119  84.6907120  23.2889879 106.8733444  84.2926244
  21.9685243 107.6136255  84.3080852  19.6877718 109.1081536  94.3184976
  19.7375723 108.9431543  95.2600499  19.5791642 108.2408795  93.9282857
  16.9781481 105.0912464  95.6344283  17.8791343 104.9518929  95.3428281
  17.0529455 105.2566919  96.5742460  11.3124286 102.4679319  94.4797469
  10.4427595 102.7612885  94.2080058  11.5483766 103.0519764  95.2004733
  22.3891597 109.0931357  87.0829568  23.2238489 109.5321161  87.2467128
  22.5250726 108.6170010  86.2637814  19.4383103 106.6511092  93.0307056
  19.9137225 106.8438738  92.2225907  18.5148669 106.7070278  92.7850439
  14.0163320  98.6858936  91.9962889  14.5345264  99.4219962  91.6709378
  13.6618453  98.9922929  92.8309649   5.5962257 103.5463617  80.1124295
   4.9031502 103.6207972  79.4564331   5.3514009 102.7823960  80.6345812
  14.2675914  95.1059218  87.5163786  14.5477668  94.4382407  88.1424213
  15.0526521  95.2988314  87.0038450  18.1384772 103.5276852  91.2635361
  19.0902195 103.6274950  91.2847585  17.9688223 102.7355121  91.7733446
  16.1599152 100.6132435  91.4494762  15.5649084 100.8937448  90.7541251
  15.8748848 101.1026336  92.2211503  20.6172850 106.7482972  90.3777661
  20.5849170 105.8098972  90.5637345  21.2273474 106.8267008  89.6443486
  12.4556181 105.6179025  76.4204865  13.4015286 105.4885233  76.4893283
  12.0770426 104.8793687  76.8974293  20.7667339 103.5394015  90.4235944
  20.2506387 102.7552472  90.2365873  21.6507287 103.2112732  90.5882463
  18.4278066  97.2835031  86.3831757  18.2302887  96.9750119  87.2675089
  19.0377771  98.0096670  86.5129687  26.4349400 107.8098979  89.5183698
  27.1652788 107.5484267  90.0791401  25.8256345 107.0727701  89.5585766
  24.5164697 105.9506841  90.1158149  23.7897861 105.8162806  89.5074640
  24.1011984 106.2583670  90.9214867  10.6399098 103.5429001  76.3559750
   9.7330554 103.2462114  76.4322464  10.9175079 103.2458819  75.4894036
  12.2561164  98.0865891  82.5103991  11.4461892  97.7412976  82.8859237
  12.9445581  97.7773435  83.0991603  14.1851712  97.1643938  84.1328288
  14.7382751  97.5839391  84.7918311  14.4221798  96.2379686  84.1751244
   9.4097883 100.4015936  76.4971729  10.2717047 100.7270835  76.7567547
   9.5948227  99.6147432  75.9844795  17.5630519  99.2744463  83.6406952
  16.9829188  99.9329267  83.2585005  17.2966452  98.4521807  83.2294370
  16.0134086  98.6749520  85.8428273  16.5133864  98.7866055  85.0342591
  16.6569694  98.3710573  86.4829081  16.3455397 101.4344553  82.6963301
  15.4581252 101.7194204  82.4783495  16.7609386 101.2738317  81.8490577
  19.6969933 101.4591074  86.4117640  20.4730323 101.9487527  86.6842257
  18.9718068 101.8849128  86.8689509  22.1342492 102.1718693  87.4691580
  22.7286983 101.9314429  86.7584889  22.2069076 101.4525824  88.0965117
  16.3196421 106.9499089  82.9113591  16.2631622 107.4067641  82.0721223
  16.8724763 106.1889774  82.7336433  20.1301227 102.7388821  83.7363710
  19.8738161 102.3385457  84.5671918  19.5054095 103.4532615  83.6113849
  24.4413565 105.4784894  86.2435002  23.8813123 105.5478084  87.0166564
  23.8357068 105.3025879  85.5234498  17.0531200 108.1403870  80.2066120
  16.9980004 107.9748142  79.2654564  16.4277256 108.8479903  80.3628310
  10.3627326  97.6411979  79.7851438  10.3505996  98.5853819  79.9419709
  11.2550748  97.4582125  79.4910899  14.1779445  94.2354756  84.0397375
  13.4111841  93.6813243  84.1854057  14.5890150  94.3076625  84.9011527
  25.6027831 111.3759250  90.9917066  25.2592100 112.2660892  90.9156177
  25.9706794 111.1860908  90.1286651  27.4015497 110.6352810  86.0934804
  27.7074373 109.7750173  85.8060719  28.1268101 111.2270430  85.8933798
  25.1069668 110.4351136  87.5163786  25.3871422 109.7674325  88.1424213
  25.8920275 110.6280231  87.0038450  29.2671820 112.6126948  86.3831757
  29.0696641 112.3042037  87.2675089  29.8771526 113.3388587  86.5129687
  25.0173200 109.5646674  84.0397375  24.2505596 109.0105160  84.1854057
  25.4283905 109.6368542  84.9011527   4.3455477  54.0001656  73.5108760
   3.5919186  53.4309054  73.3552764   4.4803018  53.9664320  74.4579395
   0.7104090  55.4409644  73.8074874   1.5450981  55.8799448  73.9712435
   0.8463218  54.9648298  72.9883120   4.7561892  54.1577266  76.2429004
   5.4865281  53.8962554  76.8036708   4.1468838  53.4205988  76.2831072
   2.8377189  52.2985128  76.8403455   2.1110353  52.1641093  76.2319947
   2.4224476  52.6061957  77.6460174   0.4554984  48.5196981  74.1936887
   1.0499475  48.2792717  73.4830195   0.5281568  47.8004111  74.8210423
   2.7626057  51.8263181  72.9680308   2.2025615  51.8956371  73.7411870
   2.1569560  51.6504166  72.2479805   4.3482075  68.5019695  75.6610264
   4.9860485  68.3826443  74.9573604   4.2302918  69.4500539  75.7198216
   1.1571782  68.4547123  75.5971789   0.8190293  68.3388188  74.7092324
   2.0261550  68.0538289  75.5772795   1.6391565  69.6081975  81.5557994
   1.6280206  69.2134773  80.6838498   1.8012204  68.8748048  82.1491766
   2.5958156  73.9753568  66.8983145   1.9446136  74.5607648  66.5117158
   3.3902519  74.5059762  66.9578182   3.9023344  66.2271149  72.7363472
   4.6886433  65.8090572  72.3853889   4.1662048  67.1317241  72.9045120
   4.0733421  71.6644000  67.4352129   3.4379254  71.7378626  68.1473033
   3.7430828  72.2537598  66.7571208   9.3031771  66.1646382  73.6396451
  10.0356943  65.5945599  73.8734280   8.5471127  65.7767983  74.0802956
   0.9207891  68.5873624  70.8359793   0.5566098  68.0604245  71.5472714
   1.7775007  68.1972093  70.6626278   6.8257191  59.8767957  78.0991059
   6.4940516  60.7463367  77.8752274   6.2302805  59.5604241  78.7785090
   3.3188711  72.0780503  77.4986972   3.0189434  72.9805541  77.3902779
   2.9739770  71.8112686  78.3508125   6.7185855  64.5963043  75.1784409
   5.8102732  64.5278451  74.8843170   6.6673451  65.0734988  76.0066235
   8.5847501  62.7979481  76.9562283   7.9421881  63.0912014  76.3102078
   8.0802430  62.6832401  77.7615480   6.2387665  66.5442654  67.6448142
   7.1505521  66.7770041  67.4695840   5.7297312  67.1279698  67.0823221
   4.5228432  70.9667282  81.2809435   4.9311789  70.5249693  80.5364067
   3.8005694  70.3919910  81.5343628   0.8759503  65.9039889  78.6542992
   1.7220698  66.3279302  78.7977641   0.8158140  65.2473513  79.3481555
   4.8457247  71.5268473  75.0361724   4.2166110  71.6914187  74.3337792
   4.4582909  71.9410082  75.8072688   8.7246479  72.4622911  72.3906088
   8.0397517  72.8421812  71.8403121   8.8090328  73.0718237  73.1238035
   4.0258948  63.5644257  80.3124166   3.7819880  64.3186318  79.7758441
   4.3018878  63.9429605  81.1471413   5.9797411  70.1082870  78.9901431
   6.1914306  70.7514630  78.3135812   5.9327159  69.2745186  78.5223361
   3.5823640  62.7200690  75.8938003   2.7208119  63.0181944  76.1854741
   3.6086074  62.9371089  74.9619036   7.0943239  72.9854825  77.1623788
   7.9160682  72.5835012  76.8806470   7.0905641  72.8823059  78.1139904
  15.1849232  69.3293574  73.5108760  14.4312940  68.7600972  73.3552764
  15.3196773  69.2956238  74.4579395   0.5747860  74.2006976  69.1863479
   0.4393534  75.0458512  69.6148327   1.1157672  74.4026253  68.4229413
   2.2016336  74.8230542  83.3163821   1.7580190  74.0366921  82.9984726
   2.8633550  75.0109693  82.6507712   4.2997574  75.1033342  81.3445223
   4.2816049  75.9242223  80.8525492   5.2217494  74.9787417  81.5695364
   3.9240323  57.7237538  77.7162373   3.5804593  58.6139179  77.6401483
   4.2919286  57.5339195  76.8531958   3.8890606  67.7146149  66.2234808
   3.3737229  68.4850753  66.4623195   3.6167914  67.0411285  66.8467869
   1.4737717  62.5595850  71.2820046   0.6179313  62.1702700  71.1025685
   1.8864669  62.6387810  70.4219832   3.0036864  60.0942193  75.6811606
   2.5001659  60.0572328  74.8679411   3.2967471  61.0034936  75.7408263
   8.8624880  70.4678503  68.1587981   8.0854323  70.1289663  67.7143143
   9.5416361  70.4731127  67.4842946   3.6776909  65.5873241  68.0494589
   3.3727045  65.9019390  68.9004732   4.6307351  65.6654661  68.0921922
   2.1223341  71.7463464  69.6987543   1.5944703  71.0116224  69.3860780
   1.6210844  72.5238141  69.4527511   7.1016187  69.9412485  74.8154589
   6.4439861  70.6311746  74.9034718   7.9056586  70.3308917  75.1588576
   5.9121646  68.2956857  72.8658531   6.4253528  68.9286849  73.3680241
   6.5622870  67.6958053  72.5001891   3.1744020  78.2741182  65.6219202
   2.5005719  78.5772878  66.2304160   3.5609842  79.0770262  65.2724659
   2.3902477  65.7706313  75.1116872   1.4725038  65.9921260  74.9538560
   2.8062620  65.8452623  74.2528579   3.1737524  67.1697729  70.2419552
   3.9209343  67.6819126  69.9326674   3.4429114  66.8481781  71.1023945
   1.4464175  69.6656269  67.2246506   0.5375394  69.3815302  67.3218976
   1.4759258  70.0855348  66.3649813   6.6783442  73.2762859  70.9937674
   6.2245769  72.4353769  71.0502864   6.0477409  73.9124257  71.3312454
   5.6216362  64.2054845  72.2238341   4.8839118  63.6932231  72.5548584
   5.8743135  63.7655226  71.4121618   5.1216381  75.1139356  71.9287492
   5.4139356  75.6744413  71.2099857   5.6315002  75.4067917  72.6840651
   5.7227989  56.9831097  72.8180110   6.0286866  56.1228460  72.5306026
   6.4480594  57.5748717  72.6179104   1.1440262  71.2065013  64.5634585
   0.7059692  70.4900872  64.1040222   1.8850703  71.4341128  64.0019676
   3.5315640  66.3603774  79.9161574   3.8865028  66.5875247  80.7756040
   4.1787771  66.6922151  79.2938830   9.2613377  69.4822210  70.6210903
   9.1231276  69.6723806  69.6932093   8.9049596  70.2441593  71.0778954
   9.2882757  71.5498737  75.6322175   9.7219263  71.4574026  76.4805229
  10.0014338  71.5256238  74.9942191   3.0210652  75.1500831  77.1655275
   3.0747674  75.7191767  77.9332991   2.1525433  75.3202716  76.8009313
  10.1498306  71.5922438  78.1655060  10.3434196  72.4968248  78.4114335
  10.0498925  71.1329857  78.9993645   1.8034617  61.4780328  80.6645388
   1.1562532  62.1770278  80.5709864   2.5735632  61.9116472  81.0321636
   5.2113415  71.7429180  83.7395941   5.0598921  71.5139732  82.8226025
   5.2018095  72.6999782  83.7527286   1.9798751  69.3161093  78.7242207
   2.9090811  69.4672253  78.5511175   1.5589781  69.4045114  77.8690854
   1.3735235  78.4420854  67.8366281   1.5486991  77.9708897  68.6511904
   0.6868023  79.0686620  68.0647542   2.3292298  72.7193360  73.8829583
   1.9942131  72.6794130  74.7787233   1.8296244  72.0538076  73.4099993
   5.2651490  70.0649395  64.1566642   4.6480661  69.3396223  64.0599695
   4.7967978  70.8258755  63.8133717   6.9205622  74.7748303  81.8172423
   6.8618168  74.0907523  81.1503006   7.3225140  75.5167293  81.3653049
   6.9223029  72.7387887  80.0486402   6.0349808  72.4013809  80.1712801
   7.4921580  72.0070918  80.2855168   3.5510612  62.4455739  73.1684673
   4.0479312  61.6925701  72.8485743   2.7797594  62.4820055  72.6027882
  11.4040369  68.1496104  74.8102964  11.3930246  69.0320820  74.4396897
  10.5357749  67.7967655  74.6157501   2.9122866  77.2976173  79.1705804
   3.6250838  77.9323638  79.0981706   2.4212895  77.3940039  78.3545806
   4.6340393  71.2027426  70.7423096   3.6996672  71.3228888  70.5727800
   4.8117061  70.2999893  70.4783106   8.0212944  67.0444745  71.2773130
   8.4873396  67.8772737  71.2033433   8.4720445  66.5789727  71.9818389
   6.0889175  73.3888567  68.2759282   6.3649019  73.2745161  69.1853156
   5.2193674  72.9906051  68.2371455   5.9929607  59.4125332  75.3164031
   5.0792687  59.6429559  75.4846238   6.4222708  59.4963776  76.1678064
   5.7636065  67.6015224  77.8163925   5.1107516  67.8491132  77.1616378
   6.1416445  66.7879362  77.4826403   2.7243239  77.6374917  71.9192096
   2.9065634  76.8196573  72.3819848   3.5476225  77.8542610  71.4816986
   3.0585405  76.5643103  69.1807144   3.5873171  76.0535557  68.5677306
   3.3213624  76.2485633  70.0452677   1.8123638  68.3435035  84.3029962
   1.1364275  68.2429165  84.9732338   2.6351272  68.1874249  84.7665960
   0.5546421  79.6501963  78.5387578   1.1064729  79.8133584  79.3036664
   0.8952615  80.2406401  77.8667603   5.4057296  74.4763220  84.3936233
   5.9497200  75.0893179  83.8991188   4.8244140  75.0342799  84.9103246
   3.6914809  77.5983938  75.5251261   3.5665948  76.7973678  75.0162206
   4.3493900  78.0930132  75.0365231   5.7549717  75.3992958  77.1530811
   4.8080052  75.2798310  77.0809137   6.1032490  74.5115456  77.2357072
   2.7596150  75.1945675  73.3535163   2.6121113  74.2662382  73.5342733
   3.5849644  75.2165765  72.8692238   6.3630272  76.0174233  74.4400036
   7.2876820  75.8117095  74.3024487   6.1945575  75.7690634  75.3489377
   2.7557665  63.0483512  68.3467280   2.9721279  63.9308150  68.0456108
   2.2751732  62.6569726  67.6172922   1.2079400  63.4309114  77.0172042
   0.9497177  64.3526184  77.0156372   0.6764440  63.0339548  77.7072506
   6.1525588  76.5359901  69.7962127   6.3262466  75.9706323  69.0435980
   6.6454480  77.3360796  69.6141617   1.6281355  59.5641064  73.3773204
   1.6503052  59.6280397  72.4225184   2.0449414  58.7245573  73.5713710
  12.0064979  69.2996324  71.4152427  12.4496125  68.5503649  71.0171550
  11.1291490  69.2906460  71.0326159   7.1400761  75.8526665  66.8959025
   7.8351665  76.4733358  67.1146340   7.4823911  75.0022016  67.1711403
   9.0392184  73.3026371  68.4246356   9.5643508  73.6413643  67.6995676
   8.9514536  72.3673386  68.2409491   0.7012233  77.2160444  80.5536233
   1.0099359  76.9709591  81.4258932   1.4987715  77.4207083  80.0655103
   8.7286090  73.9359274  83.7297554   7.9381634  73.9183413  83.1902054
   8.4919445  74.4747568  84.4846591   8.8483965  70.7851741  81.0430283
   8.8981970  70.6201748  81.9845805   8.7397888  69.9179000  80.6528163
   6.1387727  66.7682669  82.3589589   7.0397590  66.6289134  82.0673587
   6.2135702  66.9337124  83.2987767  10.3502162  73.2048682  81.2872304
  10.0586970  73.5678663  82.1235765   9.7374293  72.4915691  81.1085636
  11.5497844  70.7701562  73.8074874  12.3844736  71.2091366  73.9712435
  11.6856973  70.2940215  72.9883120   8.5989350  68.3281297  79.7552362
   9.0743472  68.5208943  78.9471214   7.6754915  68.3840483  79.5095746
   3.1769567  60.3629140  78.7208196   3.6951510  61.0990167  78.3954685
   2.8224699  60.6693134  79.5554955   3.4282161  56.7829423  74.2409093
   3.7083915  56.1152612  74.8669519   4.2132768  56.9758519  73.7283757
   1.2315629  75.9588417  65.8034119   0.6589596  76.5778604  65.3504591
   1.8048423  76.5087779  66.3374041   7.2991019  65.2047057  77.9880668
   8.2508442  65.3045155  78.0092892   7.1294469  64.4125325  78.4978752
   5.3205399  62.2902640  78.1740069   4.7255331  62.5707653  77.4786557
   5.0355095  62.7796541  78.9456810   4.4512889  76.2425567  66.9342701
   5.3843562  76.1771129  67.1375577   4.3636102  77.0781834  66.4757234
   7.0800906  75.5591437  63.8946649   7.0014537  75.2251301  64.7882407
   7.9010572  76.0513205  63.8938121   9.7779097  68.4253177  77.1022967
   9.7455417  67.4869177  77.2882651  10.3879721  68.5037213  76.3688792
   1.6162428  67.2949230  63.1450172   2.5621532  67.1655438  63.2138590
   1.2376673  66.5563892  63.6219600   9.9273585  65.2164220  77.1481251
   9.4112634  64.4322677  76.9611180  10.8113534  64.8882937  77.3127770
   7.5884312  58.9605236  73.1077063   7.3909133  58.6520324  73.9920395
   8.1984018  59.6866875  73.2374993  15.5955647  69.4869183  76.2429004
  16.3259035  69.2254472  76.8036708  14.9862592  68.7497905  76.2831072
  13.6770944  67.6277046  76.8403455  12.9504107  67.4933011  76.2319947
  13.2618231  67.9353875  77.6460174   1.5001120  71.3466976  84.6050828
   2.4204130  71.5245575  84.7990875   1.4650703  70.4023021  84.4530528
   1.4167411  59.7636096  69.2349298   0.6068139  59.4183181  69.6104544
   2.1051828  59.4543639  69.8236910   3.3457959  58.8414143  70.8573595
   3.8988998  59.2609596  71.5163618   3.5828045  57.9149891  70.8996551
   6.7236766  60.9514668  70.3652259   6.1435435  61.6099472  69.9830311
   6.4572699  60.1292012  69.9539676   5.1740332  60.3519725  72.5673579
   5.6740111  60.4636260  71.7587898   5.8175940  60.0480778  73.2074388
   5.5061644  63.1114758  69.4208607   4.6187499  63.3964409  69.2028802
   5.9215633  62.9508521  68.5735884   8.8576180  63.1361279  73.1362946
   9.6336570  63.6257731  73.4087563   8.1324314  63.5619333  73.5934816
  11.2948739  63.8488898  74.1936887  11.8893230  63.6084634  73.4830195
  11.3675322  63.1296029  74.8210423   4.6504857  72.8759433  63.5156627
   5.3540708  73.0809435  64.1314283   3.9267506  73.4436195  63.7805711
   5.4802668  68.6269294  69.6358897   5.4237869  69.0837845  68.7966530
   6.0331010  67.8659979  69.4581740   9.2907474  64.4159026  70.4609017
   9.0344408  64.0155662  71.2917225   8.6660342  65.1302820  70.3359156
  13.6019812  67.1555099  72.9680308  13.0419369  67.2248288  73.7411870
  12.9963315  66.9796084  72.2479805   6.5591555  73.3141962  65.5655087
   7.3937159  72.8823160  65.3832562   6.3975898  73.1423976  66.4931982
   6.2137447  69.8174075  66.9311427   6.1586251  69.6518347  65.9899871
   5.5883502  70.5250108  67.0873616   3.5283354  72.1222987  86.2564989
   4.3974514  72.2963639  85.8951624   3.0490106  72.9417404  86.1340719
   3.3385692  55.9124961  70.7642682   2.5718088  55.3583448  70.9099364
   3.7496397  55.9846830  71.6256833  15.1875830  83.8311613  75.6610264
  15.8254240  83.7118360  74.9573604  15.0696673  84.7792457  75.7198216
  11.9965536  83.7839041  75.5971789  11.6584048  83.6680106  74.7092324
  12.8655304  83.3830206  75.5772795   7.8552352  85.6374518  71.5868680
   7.2917217  85.5464455  70.8184967   7.7404747  84.8174422  72.0671172
  12.4785319  84.9373893  81.5557994  12.4673960  84.5426691  80.6838498
  12.6405959  84.2039965  82.1491766   5.4016784  87.1325709  74.4252900
   6.1938076  86.7916534  74.0099199   5.6413434  87.2420684  75.3455053
  13.4351911  89.3045485  66.8983145  12.7839890  89.8899566  66.5117158
  14.2296273  89.8351680  66.9578182   7.3607538  86.3934622  67.2970279
   8.1338414  85.8463609  67.1583155   7.7132937  87.2578872  67.5084740
   9.1992580  87.7211005  80.5037178   8.9082446  88.6256636  80.3883845
   9.8349565  87.7627532  81.2181248  10.1248787  85.0987853  77.0938538
  10.7212359  84.8743876  76.3795501  10.1823759  84.3572599  77.6963986
   9.6973816  82.5527289  64.9288729   9.9499336  82.0308810  64.1672192
   8.7598375  82.3893434  65.0315412  14.7417098  81.5563067  72.7363472
  15.5280188  81.1382490  72.3853889  15.0055803  82.4609159  72.9045120
  14.9127176  86.9935917  67.4352129  14.2773009  87.0670544  68.1473033
  14.5824582  87.5829516  66.7571208  20.1425526  81.4938300  73.6396451
  20.8750698  80.9237517  73.8734280  19.3864881  81.1059901  74.0802956
   9.4170104  84.4555394  67.1313104   9.3006362  83.7800298  67.7994188
   9.5272364  83.9687768  66.3145257  11.7601645  83.9165542  70.8359793
  11.3959853  83.3896163  71.5472714  12.6168761  83.5264011  70.6626278
  17.6650946  75.2059874  78.0991059  17.3334271  76.0755285  77.8752274
  17.0696559  74.8896158  78.7785090  11.4007132  78.9455441  65.8321142
  11.5681535  79.8135678  66.1991613  11.2104301  79.1082723  64.9082431
  14.1582465  87.4072420  77.4986972  13.8583189  88.3097459  77.3902779
  13.8133525  87.1404603  78.3508125   7.6094947  83.8586217  73.5323676
   6.6845443  83.7262431  73.7401368   7.8579360  84.6380436  74.0293619
  17.5579609  79.9254960  75.1784409  16.6496487  79.8570369  74.8843170
  17.5067205  80.4026905  76.0066235  11.3796353  81.4013099  66.8167808
  11.2595978  81.8470150  67.6553289  10.6848942  81.7498416  66.2581346
   4.9703758  83.5019491  74.3667465   5.0996139  83.7553970  75.2806877
   4.2901209  84.0947199  74.0472120   9.1403245  94.1716741  70.4657940
   9.0627275  95.1224566  70.5446420   8.5364889  93.8262613  71.1232866
  11.6320475  81.3444606  83.1219306  10.8553809  81.9038526  83.1122171
  12.2711038  81.8301389  83.6434177  19.4241256  78.1271399  76.9562283
  18.7815636  78.4203932  76.3102078  18.9196184  78.0124319  77.7615480
  17.0781419  81.8734572  67.6448142  17.9899275  82.1061959  67.4695840
  16.5691066  82.4571616  67.0823221   9.8866847  84.1530059  82.6837273
  10.6281532  84.6915103  82.4072097   9.1803833  84.7796348  82.8408825
  15.3622187  86.2959200  81.2809435  15.7705543  85.8541610  80.5364067
  14.6399448  85.7211827  81.5343628  11.7153257  81.2331807  78.6542992
  12.5614452  81.6571220  78.7977641  11.6551895  80.5765431  79.3481555
  15.6851002  86.8560390  75.0361724  15.0559864  87.0206105  74.3337792
  15.2976664  87.2702000  75.8072688  19.5640234  87.7914828  72.3906088
  18.8791272  88.1713730  71.8403121  19.6484083  88.4010155  73.1238035
  14.8652702  78.8936175  80.3124166  14.6213634  79.6478235  79.7758441
  15.1412633  79.2721523  81.1471413  16.8191165  85.4374787  78.9901431
  17.0308060  86.0806547  78.3135812  16.7720913  84.6037104  78.5223361
  14.4217394  78.0492608  75.8938003  13.5601873  78.3473862  76.1854741
  14.4479829  78.2663007  74.9619036  11.2378963  86.5934799  72.3011809
  11.7017309  86.8722501  71.5116431  10.9735762  85.6918243  72.1184900
   8.1303045  86.1406280  75.2391572   8.7004402  86.5693548  74.6009057
   8.7211156  85.8588865  75.9375758  10.1747850  82.7157951  69.1101374
  10.8771893  83.1678995  69.5775300   9.8428478  82.0741770  69.7381267
   8.6228211  81.3069708  83.4852583   7.9926872  81.9885988  83.7187980
   8.5164299  81.1952789  82.5405722   3.9173184  80.9741504  74.4118508
   3.1272237  81.2299032  73.9358618   4.4084431  81.7889841  74.5170548
  17.9336993  88.3146743  77.1623788  18.7554437  87.9126930  76.8806470
  17.9299396  88.2114977  78.1139904   5.8687929  81.3386083  71.3701984
   5.0719092  81.4504777  71.8885480   5.6413521  81.6772735  70.5042875
  11.6993597  87.8630786  79.3184499  11.7638029  88.3251193  80.1542671
  10.9904520  87.2328151  79.4466809   2.2010887  81.2271994  76.8433498
   2.4518925  82.1119004  77.1091074   2.7370435  81.0476596  76.0708590
  26.0242986  84.6585491  73.5108760  25.2706695  84.0892889  73.3552764
  26.1590527  84.6248156  74.4579395  11.4141614  89.5298893  69.1863479
  11.2787289  90.3750429  69.6148327  11.9551427  89.7318171  68.4229413
   7.9008954  75.6090473  85.8477835   7.5075899  75.0556672  86.5225479
   8.7175094  75.9201052  86.2384352   4.8671012  87.0474332  69.7591404
   5.3795532  87.8417582  69.9096969   5.5193724  86.3500622  69.6925006
   6.6765896  90.1640088  71.8414158   6.8532525  91.0858053  71.6535141
   7.4722730  89.8498507  72.2708537  10.8176915  77.0248352  83.4398091
  11.5586628  77.6255506  83.3602554  11.0494838  76.2825990  82.8816134
   5.9618253  82.2104720  81.7176321   5.8471768  81.3089977  82.0183420
   5.1062771  82.4568416  81.3661137  13.0410091  90.1522460  83.3163821
  12.5973945  89.3658839  82.9984726  13.7027304  90.3401611  82.6507712
   7.7997212  91.6818262  77.8424500   8.3504637  91.5535325  77.0701494
   6.9608688  91.9813151  77.4919393  15.1391329  90.4325260  81.3445223
  15.1209804  91.2534141  80.8525492  16.0611249  90.3079335  81.5695364
  11.5964383  87.9469389  82.1868731  12.1292720  87.1857678  81.9568039
  11.0678464  87.6543041  82.9292885  14.7634078  73.0529455  77.7162373
  14.4198347  73.9431097  77.6401483  15.1313040  72.8631113  76.8531958
   2.8319928  85.3762986  70.5350975   3.6695150  85.7859994  70.3184683
   3.0098196  84.4362428  70.5051169  14.7284360  83.0438066  66.2234808
  14.2130984  83.8142671  66.4623195  14.4561669  82.3703203  66.8467869
  12.3131472  77.8887767  71.2820046  11.4573068  77.4994618  71.1025685
  12.7258423  77.9679728  70.4219832  13.8430618  75.4234111  75.6811606
  13.3395414  75.3864246  74.8679411  14.1361225  76.3326853  75.7408263
  10.0873504  75.5072840  74.6877788  10.9526501  75.3115649  74.3283677
  10.1551013  75.2783192  75.6147145  19.7018635  85.7970421  68.1587981
  18.9248077  85.4581581  67.7143143  20.3810116  85.8023044  67.4842946
  14.5170664  80.9165159  68.0494589  14.2120799  81.2311308  68.9004732
  15.4701106  80.9946578  68.0921922  12.9617095  87.0755382  69.6987543
  12.4338457  86.3408141  69.3860780  12.4604598  87.8530058  69.4527511
  17.9409942  85.2704402  74.8154589  17.2833616  85.9603664  74.9034718
  18.7450341  85.6600834  75.1588576   7.6935823  77.7375048  72.0594155
   8.2679575  77.5150230  71.3267348   8.2806806  77.8063743  72.8122756
  16.7515400  83.6248775  72.8658531  17.2647282  84.2578767  73.3680241
  17.4016624  83.0249971  72.5001891   8.0205410  79.7679509  66.0790040
   7.1842722  80.1054196  66.3999315   7.8810180  79.6328489  65.1417177
   9.9958491  74.6116297  70.7869224   9.3422903  74.2965314  70.1625839
   9.9538965  73.9892038  71.5129047  11.1069696  84.8935592  62.7022516
  10.1996757  84.6624846  62.9013665  11.6040728  84.0973211  62.8896498
  14.0137775  93.6033099  65.6219202  13.3399473  93.9064796  66.2304160
  14.4003597  94.4062180  65.2724659  13.2296231  81.0998231  75.1116872
  12.3118793  81.3213178  74.9538560  13.6456375  81.1744541  74.2528579
  14.0131279  82.4989646  70.2419552  14.7603098  83.0111044  69.9326674
  14.2822868  82.1773699  71.1023945  12.2857929  84.9948187  67.2246506
  11.3769148  84.7107220  67.3218976  12.3153013  85.4147266  66.3649813
  17.5177197  88.6054777  70.9937674  17.0639524  87.7645686  71.0502864
  16.8871163  89.2416175  71.3312454  16.4610116  79.5346763  72.2238341
  15.7232873  79.0224149  72.5548584  16.7136890  79.0947144  71.4121618
  15.9610136  90.4431273  71.9287492  16.2533110  91.0036330  71.2099857
  16.4708756  90.7359834  72.6840651  16.5621743  72.3123015  72.8180110
  16.8680620  71.4520378  72.5306026  17.2874348  72.9040635  72.6179104
   2.8546099  82.7153701  71.2061708   2.6570499  82.1223062  70.4812775
   2.2992763  82.4105911  71.9237647  10.8342823  82.6076808  73.3256302
  10.8891433  81.6550644  73.2498778  10.0234025  82.7636247  73.8097600
  11.9834017  86.5356931  64.5634585  11.5453447  85.8192790  64.1040222
  12.7244458  86.7633046  64.0019676   8.7735183  81.2253867  71.0846680
   7.9603049  81.5248038  71.4911873   9.2694177  80.8309556  71.8021163
  10.9243761  91.2211624  73.0180945  10.8819940  91.4472471  72.0889477
  11.8406460  90.9874999  73.1666746  14.3709395  81.6895692  79.9161574
  14.7258782  81.9167165  80.7756040  15.0181526  82.0214069  79.2938830
  20.1007132  84.8114128  70.6210903  19.9625030  85.0015724  69.6932093
  19.7443351  85.5733511  71.0778954   8.2649258  78.7972223  76.7007915
   8.9048637  78.6560982  76.0030879   7.4326788  78.5106736  76.3246517
  20.1276511  86.8790655  75.6322175  20.5613018  86.7865944  76.4805229
  20.8408092  86.8548155  74.9942191   9.0409562  88.0974653  72.8142908
   9.8350160  87.6024973  72.6125483   8.3301254  87.5692516  72.4510613
  13.8604406  90.4792749  77.1655275  13.9141428  91.0483685  77.9332991
  12.9919188  90.6494634  76.8009313   5.3492325  82.2417735  68.8902660
   4.4189913  82.1802191  69.1072623   5.4449797  81.7193688  68.0939302
   5.2677874  78.7672548  71.4780902   5.5284692  79.6817881  71.3690063
   6.0895047  78.2996990  71.6277515   6.7402800  80.1810305  78.6479727
   7.4125853  79.9727667  77.9992376   5.9132586  79.9832391  78.2084959
  20.9892061  86.9214355  78.1655060  21.1827951  87.8260166  78.4114335
  20.8892679  86.4621774  78.9993645  12.6428372  76.8072246  80.6645388
  11.9956287  77.5062196  80.5709864  13.4129387  77.2408390  81.0321636
  16.0507170  87.0721098  83.7395941  15.8992676  86.8431650  82.8226025
  16.0411849  88.0291700  83.7527286  12.8192506  84.6453011  78.7242207
  13.7484566  84.7964170  78.5511175  12.3983536  84.7337032  77.8690854
  11.6180838  88.6703675  76.4940745  11.4791923  88.3022460  77.3666683
  10.8295434  89.1851315  76.3224703  12.2128990  93.7712772  67.8366281
  12.3880745  93.3000815  68.6511904  11.5261778  94.3978538  68.0647542
  13.1686053  88.0485278  73.8829583  12.8335885  88.0086048  74.7787233
  12.6689999  87.3829994  73.4099993   7.1430297  83.4552908  79.4082164
   7.0050095  82.7233147  80.0093703   8.0535220  83.3661808  79.1266352
  16.1045245  85.3941312  64.1566642  15.4874415  84.6688141  64.0599695
  15.6361733  86.1550673  63.8133717   9.7712597  83.1672867  78.8965843
  10.4812216  82.5266060  78.8552462   9.7281906  83.4185762  79.8192024
  17.7599376  90.1040221  81.8172423  17.7011922  89.4199441  81.1503006
  18.1618895  90.8459211  81.3653049   8.4841531  80.1538085  80.7161483
   7.9478888  79.7028824  81.3683079   7.8958240  80.2883994  79.9731947
   6.7790075  96.9202135  74.6106142   7.0186673  97.5520659  75.2885160
   5.9359271  96.5690175  74.8971501   7.8943790  79.6126737  63.2787947
   7.0173257  79.4915537  62.9150193   8.3701543  78.8212815  63.0266835
  17.7616783  88.0679805  80.0486402  16.8743562  87.7305726  80.1712801
  18.3315335  87.3362836  80.2855168   4.2180653  79.2894093  77.8014477
   4.1338841  78.6819762  77.0664887   3.3963359  79.7803111  77.8023974
  11.2917937  92.7281257  77.0147646  11.2188108  93.5336228  77.5266950
  10.8495330  92.9273223  76.1895667  11.0807716  91.9653027  70.5250467
  10.2975238  92.5074707  70.6188692  11.7800462  92.4827007  70.9244708
  14.3904367  77.7747656  73.1684673  14.8873066  77.0217619  72.8485743
  13.6191348  77.8111973  72.6027882  22.2434124  83.4788022  74.8102964
  22.2324000  84.3612737  74.4396897  21.3751503  83.1259573  74.6157501
  13.7516620  92.6268091  79.1705804  14.4644593  93.2615556  79.0981706
  13.2606649  92.7231957  78.3545806  15.4734147  86.5319344  70.7423096
  14.5390426  86.6520806  70.5727800  15.6510816  85.6291810  70.4783106
  10.9739335  79.9165039  72.8956357  10.6037123  79.3636080  73.5837263
  11.4698428  79.3123173  72.3431357  18.8606699  82.3736663  71.2773130
  19.3267151  83.2064655  71.2033433  19.3114199  81.9081645  71.9818389
   8.8028534  90.3762534  79.9911375   9.5037993  91.0099017  80.1440769
   8.3323649  90.7177266  79.2307014  16.9282930  88.7180484  68.2759282
  17.2042774  88.6037079  69.1853156  16.0587428  88.3197969  68.2371455
  16.8323361  74.7417250  75.3164031  15.9186441  74.9721477  75.4846238
  17.2616463  74.8255694  76.1678064  16.6029820  82.9307142  77.8163925
  15.9501270  83.1783049  77.1616378  16.9810200  82.1171280  77.4826403
  13.5636994  92.9666835  71.9192096  13.7459388  92.1488491  72.3819848
  14.3869980  93.1834527  71.4816986  13.8979159  91.8935020  69.1807144
  14.4266926  91.3827475  68.5677306  14.1607379  91.5777550  70.0452677
  12.6517393  83.6726953  84.3029962  11.9758030  83.5721082  84.9732338
  13.4745027  83.5166167  84.7665960   4.3996252  89.9098890  76.9242478
   4.9849689  89.1642577  77.0570382   4.2021090  90.2202846  77.8079142
   7.2534907  92.9450137  71.9404920   6.5845282  93.4296265  71.4568960
   7.1147777  93.1919357  72.8548299  11.3940176  94.9793880  78.5387578
  11.9458484  95.1425502  79.3036664  11.7346369  95.5698318  77.8667603
   6.3704669  77.3269030  79.1409463   6.4345995  78.1883861  78.7286861
   6.3071789  76.7143032  78.4081822   5.8456942  79.3992163  82.7882497
   6.4728980  79.0169240  83.4020022   4.9884860  79.1806365  83.1538190
  16.2451050  89.8055138  84.3936233  16.7890954  90.4185096  83.8991188
  15.6637895  90.3634716  84.9103246   2.6222484  81.2068592  68.7200852
   2.9175925  80.2979270  68.6667906   1.7210520  81.1856331  68.3981855
  14.5308563  92.9275856  75.5251261  14.4059702  92.1265596  75.0162206
  15.1887654  93.4222049  75.0365231   6.1516731  79.2824588  74.7028401
   5.4303317  79.8960556  74.5635874   6.9409987  79.8182353  74.6245047
  16.5943471  90.7284876  77.1530811  15.6473807  90.6090227  77.0809137
  16.9426245  89.8407374  77.2357072   8.9543045  76.6179015  80.9769053
   9.4777447  76.8641312  81.7395362   8.7355378  77.4499050  80.5572190
   4.3510326  78.8882690  68.8440177   4.0223032  78.0080068  68.6615283
   4.7049697  78.8330358  69.7316567  13.5989905  90.5237592  73.3535163
  13.4514867  89.5954300  73.5342733  14.4243398  90.5457683  72.8692238
   7.4652149  79.1755659  69.2115655   7.8048222  79.7041581  68.4894263
   7.9124269  79.5136065  69.9874222  17.2024027  91.3466151  74.4400036
  18.1270574  91.1409012  74.3024487  17.0339330  91.0982552  75.3489377
  10.1595590  77.5592710  78.6618723   9.8192410  76.7600523  79.0639403
   9.4534596  77.8594421  78.0895556  10.8112062  74.6442022  77.1146046
  11.6338131  74.1702501  76.9924936  11.0550125  75.4232506  77.6144732
   9.4520296  77.6730281  67.4108948  10.1728659  78.0511534  66.9072665
   8.8285600  78.3919158  67.5143926  13.5951419  78.3775430  68.3467280
  13.8115033  79.2600068  68.0456108  13.1145486  77.9861643  67.6172922
   8.3350640  81.3361143  74.9238025   8.1895221  81.6501446  75.8162306
   7.8575844  81.9546043  74.3708923  10.1947023  78.3263691  74.9718914
  10.1808592  77.4304784  74.6351212  10.9119451  78.3334355  75.6057200
  12.0473154  78.7601031  77.0172042  11.7890932  79.6818102  77.0156372
  11.5158194  78.3631466  77.7072506  16.9919343  91.8651818  69.7962127
  17.1656220  91.2998241  69.0435980  17.4848234  92.6652713  69.6141617
   2.8096303  83.8766488  77.8625686   2.2649771  84.6526295  77.9945960
   3.6875652  84.2237292  77.7044807   9.5983919  77.2078071  70.2406484
   9.7199830  76.2794718  70.4397372   9.3085962  77.2216757  69.3284800
  12.4675110  74.8932982  73.3773204  12.4896806  74.9572315  72.4225184
  12.8843169  74.0537490  73.5713710  22.8458734  84.6288241  71.4152427
  23.2889880  83.8795567  71.0171550  21.9685244  84.6198378  71.0326159
  17.9794515  91.1818583  66.8959025  18.6745420  91.8025276  67.1146340
  18.3217665  90.3313934  67.1711403   3.5962324  83.0036384  80.7555843
   2.8544060  83.1519019  81.3420473   3.2755069  83.2644649  79.8922592
  19.8785938  88.6318288  68.4246356  20.4037262  88.9705561  67.6995676
  19.7908291  87.6965304  68.2409491  11.5405987  92.5452362  80.5536233
  11.8493114  92.3001509  81.4258932  12.3381469  92.7499000  80.0655103
  11.5626599  94.6990272  72.7841609  11.1231589  94.2066650  73.4774466
  12.3134716  94.1563239  72.5433685   4.0418938  90.8901813  72.7866237
   4.8676958  90.5905584  72.4064881   3.6912990  90.1209435  73.2356026
   9.0100471  90.2428281  74.8563911   8.3880481  89.5798986  74.5566139
   9.6805338  90.2689413  74.1737559   2.2427543  88.8088139  73.7455171
   1.4059451  88.3810313  73.5639172   2.2151189  89.0020582  74.6825962
   9.0824999  78.7210069  84.4496417   9.1313154  79.5972192  84.0674187
   9.6247513  78.1787462  83.8768060  19.5679844  89.2651192  83.7297554
  18.7775388  89.2475331  83.1902054  19.3313199  89.8039486  84.4846591
  19.6877719  86.1143658  81.0430283  19.7375724  85.9493666  81.9845805
  19.5791643  85.2470917  80.6528163   8.5713978  88.7932204  68.3322372
   8.7202099  89.4767668  67.6789044   9.3780422  88.7737294  68.8471827
  16.9781482  82.0974586  82.3589589  17.8791345  81.9581051  82.0673587
  17.0529456  82.2629041  83.2987767  11.3124287  79.4741441  81.2042776
  10.4427597  79.7675007  80.9325364  11.5483768  80.0581886  81.9250039
  21.1895916  88.5340600  81.2872304  20.8980725  88.8970580  82.1235765
  20.5768048  87.8207608  81.1085636  22.3891599  86.0993480  73.8074874
  23.2238490  86.5383284  73.9712435  22.5250727  85.6232133  72.9883120
  19.4383105  83.6573215  79.7552362  19.9137226  83.8500861  78.9471214
  18.5148670  83.7132400  79.5095746   6.3266611  84.8197382  69.3383441
   6.0812653  83.9159712  69.5363651   6.4962526  84.8214532  68.3962919
  14.0163321  75.6921058  78.7208196  14.5345265  76.4282085  78.3954685
  13.6618454  75.9985051  79.5554955   5.5962259  80.5525739  66.8369602
   4.9031504  80.6270094  66.1809638   5.3514011  79.7886083  67.3591119
  14.2675915  72.1121341  74.2409093  14.5477669  71.4444530  74.8669519
  15.0526522  72.3050436  73.7283757  12.0709384  91.2880335  65.8034119
  11.4983351  91.9070522  65.3504591  12.6442177  91.8379696  66.3374041
  18.1384774  80.5338975  77.9880668  19.0902196  80.6337072  78.0092892
  17.9688224  79.7417243  78.4978752  16.1599153  77.6194558  78.1740069
  15.5649085  77.8999571  77.4786557  15.8748850  78.1088459  78.9456810
  15.2906644  91.5717485  66.9342701  16.2237317  91.5063046  67.1375577
  15.2029856  92.4073752  66.4757234  17.9194660  90.8883355  63.8946649
  17.8408292  90.5543219  64.7882407  18.7404327  91.3805123  63.8938121
  20.6172851  83.7545094  77.1022967  20.5849171  82.8161095  77.2882651
  21.2273475  83.8329131  76.3688792  12.4556182  82.6241147  63.1450172
  13.4015287  82.4947355  63.2138590  12.0770427  81.8855809  63.6219600
  20.7667340  80.5456138  77.1481251  20.2506388  79.7614594  76.9611180
  21.6507288  80.2174854  77.3127770  18.4278067  74.2897153  73.1077063
  18.2302888  73.9812241  73.9920395  19.0377772  75.0158792  73.2374993
  26.4349401  84.8161101  76.2429004  27.1652790  84.5546389  76.8036708
  25.8256347  84.0789823  76.2831072  24.5164698  82.9568964  76.8403455
  23.7897862  82.8224929  76.2319947  24.1011985  83.2645792  77.6460174
  12.3394875  86.6758893  84.6050828  13.2597884  86.8537492  84.7990875
  12.3044458  85.7314939  84.4530528  10.6399099  80.5491124  63.0805057
   9.7330555  80.2524236  63.1567770  10.9175080  80.2520942  62.2139343
   1.5577040  81.8697487  73.5304103   1.2379824  81.0162795  73.2378477
   1.0110468  82.0846065  74.2862070   5.3356947  84.5859928  77.2473610
   5.5542957  85.5177036  77.2661643   5.7482721  84.2267902  78.0328413
  12.2561165  75.0928013  69.2349298  11.4461893  74.7475098  69.6104544
  12.9445582  74.7835557  69.8236910  14.1851713  74.1706060  70.8573595
  14.7382752  74.5901514  71.5163618  14.4221800  73.2441808  70.8996551
  10.2084813  80.1593134  86.6376359  10.1081540  81.1087491  86.5688450
   9.9906355  79.8311373  85.7652429   9.4097884  77.4078059  63.2217036
  10.2717048  77.7332957  63.4812853   9.5948228  76.6209555  62.7090102
   1.4265300  85.4900399  75.4997225   0.7328771  85.0754351  74.9867179
   2.1738291  85.5320935  74.9030644  17.5630520  76.2806585  70.3652259
  16.9829190  76.9391389  69.9830311  17.2966453  75.4583930  69.9539676
  16.0134087  75.6811643  72.5673579  16.5133865  75.7928178  71.7587898
  16.6569695  75.3772696  73.2074388  10.0716083  83.5890273  85.4541420
   9.5883164  84.3890633  85.6605309  10.1577022  83.5998218  84.5008864
   3.3402042  85.4218652  73.3763240   3.3172730  85.5206340  72.4245123
   3.6502679  86.2683803  73.6980406   5.9989420  87.4794807  77.4909854
   6.9532674  87.4478750  77.4239786   5.8001944  87.0185431  78.3060080
   6.5888802  86.0495923  80.0580652   7.4081691  86.5440002  80.0815489
   6.8625610  85.1327892  80.0298219  16.3455398  78.4406676  69.4208607
  15.4581254  78.7256326  69.2028802  16.7609388  78.2800439  68.5735884
  19.6969935  78.4653197  73.1362946  20.4730325  78.9549649  73.4087563
  18.9718069  78.8911251  73.5934816  22.1342493  79.1780816  74.1936887
  22.7286984  78.9376552  73.4830195  22.2069077  78.4587947  74.8210423
   4.3539649  93.0214427  74.5080052   4.2194117  92.2614828  73.9418050
   3.9371711  93.7455327  74.0408841  15.4898612  88.2051350  63.5156627
  16.1934462  88.4101353  64.1314283  14.7661261  88.7728112  63.7805711
  16.3196422  83.9561212  69.6358897  16.2631624  84.4129763  68.7966530
  16.8724765  83.1951896  69.4581740  20.1301228  79.7450944  70.4609017
  19.8738162  79.3447579  71.2917225  19.5054096  80.4594737  70.3359156
  24.4413566  82.4847017  72.9680308  23.8813124  82.5540206  73.7411870
  23.8357069  82.3088001  72.2479805   7.5108775  93.9183744  74.7198495
   7.3941159  94.8629176  74.6177185   6.6901221  93.6157305  75.1084294
  17.3985309  88.6433880  65.5655087  18.2330913  88.2115078  65.3832562
  17.2369652  88.4715893  66.4931982  17.0531202  85.1465993  66.9311427
  16.9980005  84.9810264  65.9899871  16.4277257  85.8542026  67.0873616
   1.8423717  80.3834057  80.7572849   2.4882580  79.8733011  81.2460074
   1.6340868  81.1202739  81.3316274  14.3677109  87.4514905  86.2564989
  15.2368268  87.6255557  85.8951624  13.8883860  88.2709322  86.1340719
  10.3627327  74.6474102  66.5096745  10.3505997  75.5915942  66.6665016
  11.2550749  74.4644247  66.2156206   8.5363289  94.5712006  77.9354423
   9.4390536  94.6035616  78.2520918   8.3100659  93.6412457  77.9500759
  10.2916891  93.3242992  74.5964502   9.3412522  93.3244854  74.4828874
  10.5949377  92.5775727  74.0800536  14.1779446  71.2416879  70.7642682
  13.4111842  70.6875365  70.9099364  14.5890151  71.3138747  71.6256833
   6.1821208  77.5301674  84.8547863   7.0452669  77.1738479  85.0651188
   5.6086618  77.1915569  85.5423267  26.0269584  99.1603531  75.6610264
  26.6647994  99.0410278  74.9573604  25.9090427 100.1084375  75.7198216
  22.8359291  99.1130959  75.5971789  22.4977802  98.9972024  74.7092324
  23.7049059  98.7122124  75.5772795  18.6946106 100.9666435  71.5868680
  18.1310972 100.8756372  70.8184967  18.5798501 100.1466340  72.0671172
  23.3179074 100.2665811  81.5557994  23.3067714  99.8718609  80.6838498
  23.4799713  99.5331883  82.1491766  16.2410538 102.4617627  74.4252900
  17.0331830 102.1208451  74.0099199  16.4807189 102.5712602  75.3455053
  24.2745665 104.6337403  66.8983145  23.6233645 105.2191483  66.5117158
  25.0690028 105.1643598  66.9578182  18.2001292 101.7226540  67.2970279
  18.9732168 101.1755527  67.1583155  18.5526691 102.5870789  67.5084740
  20.0386335 103.0502922  80.5037178  19.7476201 103.9548553  80.3883845
  20.6743319 103.0919450  81.2181248  20.9642542 100.4279771  77.0938538
  21.5606114 100.2035793  76.3795501  21.0217513  99.6864516  77.6963986
  20.5367570  97.8819206  64.9288729  20.7893091  97.3600727  64.1672192
  19.5992129  97.7185352  65.0315412  25.5810853  96.8854985  72.7363472
  26.3673942  96.4674408  72.3853889  25.8449557  97.7901077  72.9045120
  25.7520930 102.3227835  67.4352129  25.1166763 102.3962461  68.1473033
  25.4218337 102.9121434  66.7571208  30.9819280  96.8230218  73.6396451
  31.7144452  96.2529435  73.8734280  30.2258636  96.4351818  74.0802956
  20.2563859  99.7847312  67.1313104  20.1400117  99.1092216  67.7994188
  20.3666119  99.2979686  66.3145257  22.5995400  99.2457459  70.8359793
  22.2353607  98.7188080  71.5472714  23.4562516  98.8555928  70.6626278
  28.5044700  90.5351792  78.0991059  28.1728025  91.4047203  77.8752274
  27.9090314  90.2188076  78.7785090  22.2400887  94.2747359  65.8321142
  22.4075289  95.1427595  66.1991613  22.0498056  94.4374641  64.9082431
  24.9976220 102.7364338  77.4986972  24.6976943 103.6389377  77.3902779
  24.6527279 102.4696521  78.3508125  18.4488701  99.1878135  73.5323676
  17.5239198  99.0554349  73.7401368  18.6973115  99.9672354  74.0293619
  28.3973364  95.2546878  75.1784409  27.4890241  95.1862286  74.8843170
  28.3460960  95.7318823  76.0066235  22.2190108  96.7305016  66.8167808
  22.0989733  97.1762067  67.6553289  21.5242696  97.0790334  66.2581346
  15.8097512  98.8311408  74.3667465  15.9389894  99.0845887  75.2806877
  15.1294964  99.4239116  74.0472120  19.9797000 109.5008658  70.4657940
  19.9021029 110.4516483  70.5446420  19.3758643 109.1554531  71.1232866
  22.4714230  96.6736524  83.1219306  21.6947564  97.2330444  83.1122171
  23.1104793  97.1593307  83.6434177  30.2635010  93.4563316  76.9562283
  29.6209390  93.7495850  76.3102078  29.7589939  93.3416237  77.7615480
  27.9175174  97.2026490  67.6448142  28.8293030  97.4353876  67.4695840
  27.4084821  97.7863534  67.0823221  20.7260602  99.4821977  82.6837273
  21.4675286 100.0207021  82.4072097  20.0197587 100.1088266  82.8408825
  26.2015941 101.6251117  81.2809435  26.6099298 101.1833528  80.5364067
  25.4793203 101.0503745  81.5343628  22.5547012  96.5623724  78.6542992
  23.4008207  96.9863138  78.7977641  22.4945649  95.9057349  79.3481555
  26.5244756 102.1852308  75.0361724  25.8953619 102.3498022  74.3337792
  26.1370418 102.5993918  75.8072688  30.4033988 103.1206746  72.3906088
  29.7185026 103.5005647  71.8403121  30.4877837 103.7302073  73.1238035
  25.7046457  94.2228093  80.3124166  25.4607389  94.9770153  79.7758441
  25.9806387  94.6013440  81.1471413  27.6584920 100.7666705  78.9901431
  27.8701815 101.4098465  78.3135812  27.6114668  99.9329022  78.5223361
  25.2611149  93.3784526  75.8938003  24.3995628  93.6765779  76.1854741
  25.2873583  93.5954925  74.9619036  22.0772718 101.9226716  72.3011809
  22.5411064 102.2014419  71.5116431  21.8129516 101.0210161  72.1184900
  18.9696799 101.4698198  75.2391572  19.5398156 101.8985466  74.6009057
  19.5604911 101.1880782  75.9375758  21.0141604  98.0449869  69.1101374
  21.7165647  98.4970912  69.5775300  20.6822233  97.4033687  69.7381267
  19.4621966  96.6361625  83.4852583  18.8320626  97.3177906  83.7187980
  19.3558053  96.5244707  82.5405722  14.7566938  96.3033421  74.4118508
  13.9665992  96.5590950  73.9358618  15.2478185  97.1181759  74.5170548
  28.7730748 103.6438660  77.1623788  29.5948191 103.2418848  76.8806470
  28.7693150 103.5406895  78.1139904  16.7081683  96.6678000  71.3701984
  15.9112847  96.7796695  71.8885480  16.4807276  97.0064653  70.5042875
  22.5387351 103.1922704  79.3184499  22.6031784 103.6543111  80.1542671
  21.8298275 102.5620069  79.4466809  13.0404641  96.5563912  76.8433498
  13.2912679  97.4410922  77.1091074  13.5764189  96.3768513  76.0708590
  36.8636741  99.9877409  73.5108760  36.1100449  99.4184807  73.3552764
  36.9984282  99.9540073  74.4579395  22.2535369 104.8590811  69.1863479
  22.1181043 105.7042347  69.6148327  22.7945181 105.0610089  68.4229413
  18.7402708  90.9382391  85.8477835  18.3469654  90.3848590  86.5225479
  19.5568849  91.2492969  86.2384352  15.7064766 102.3766249  69.7591404
  16.2189287 103.1709499  69.9096969  16.3587479 101.6792540  69.6925006
  17.5159651 105.4932005  71.8414158  17.6926279 106.4149970  71.6535141
  18.3116484 105.1790425  72.2708537  21.6570669  92.3540270  83.4398091
  22.3980383  92.9547423  83.3602554  21.8888592  91.6117908  82.8816134
  16.8012007  97.5396637  81.7176321  16.6865522  96.6381895  82.0183420
  15.9456525  97.7860334  81.3661137  23.8803845 105.4814378  83.3163821
  23.4367699 104.6950756  82.9984726  24.5421059 105.6693528  82.6507712
  18.6390966 107.0110179  77.8424500  19.1898391 106.8827243  77.0701494
  17.8002442 107.3105068  77.4919393  25.9785083 105.7617178  81.3445223
  25.9603558 106.5826059  80.8525492  26.9005003 105.6371253  81.5695364
  22.4358137 103.2761307  82.1868731  22.9686474 102.5149595  81.9568039
  21.9072218 102.9834959  82.9292885  25.6027832  88.3821373  77.7162373
  25.2592102  89.2723015  77.6401483  25.9706795  88.1923031  76.8531958
  13.6713683 100.7054904  70.5350975  14.5088905 101.1151912  70.3184683
  13.8491951  99.7654346  70.5051169  25.5678115  98.3729984  66.2234808
  25.0524738  99.1434589  66.4623195  25.2955423  97.6995120  66.8467869
  23.1525226  93.2179685  71.2820046  22.2966822  92.8286535  71.1025685
  23.5652178  93.2971646  70.4219832  24.6824373  90.7526028  75.6811606
  24.1789168  90.7156163  74.8679411  24.9754979  91.6618771  75.7408263
  20.9267259  90.8364758  74.6877788  21.7920255  90.6407567  74.3283677
  20.9944767  90.6075110  75.6147145  30.5412389 101.1262339  68.1587981
  29.7641832 100.7873498  67.7143143  31.2203870 101.1314962  67.4842946
  25.3564418  96.2457076  68.0494589  25.0514554  96.5603225  68.9004732
  26.3094860  96.3238496  68.0921922  23.8010850 102.4047300  69.6987543
  23.2732212 101.6700059  69.3860780  23.2998353 103.1821976  69.4527511
  28.7803696 100.5996320  74.8154589  28.1227370 101.2895581  74.9034718
  29.5844095 100.9892752  75.1588576  18.5329578  93.0666966  72.0594155
  19.1073329  92.8442147  71.3267348  19.1200560  93.1355660  72.8122756
  27.5909155  98.9540693  72.8658531  28.1041037  99.5870685  73.3680241
  28.2410379  98.3541888  72.5001891  18.8599165  95.0971427  66.0790040
  18.0236477  95.4346113  66.3999315  18.7203934  94.9620407  65.1417177
  20.8352245  89.9408215  70.7869224  20.1816658  89.6257232  70.1625839
  20.7932719  89.3183955  71.5129047  21.9463450 100.2227510  62.7022516
  21.0390512  99.9916763  62.9013665  22.4434482  99.4265129  62.8896498
  24.8531529 108.9325017  65.6219202  24.1793228 109.2356714  66.2304160
  25.2397351 109.7354097  65.2724659  24.0689986  96.4290148  75.1116872
  23.1512547  96.6505095  74.9538560  24.4850129  96.5036459  74.2528579
  24.8525033  97.8281564  70.2419552  25.5996852  98.3402961  69.9326674
  25.1216623  97.5065617  71.1023945  23.1251684 100.3240105  67.2246506
  22.2162903 100.0399138  67.3218976  23.1546767 100.7439183  66.3649813
  28.3570951 103.9346694  70.9937674  27.9033278 103.0937604  71.0502864
  27.7264918 104.5708093  71.3312454  27.3003871  94.8638680  72.2238341
  26.5626627  94.3516066  72.5548584  27.5530644  94.4239062  71.4121618
  26.8003890 105.7723191  71.9287492  27.0926865 106.3328248  71.2099857
  27.3102511 106.0651752  72.6840651  27.4015498  87.6414932  72.8180110
  27.7074375  86.7812296  72.5306026  28.1268103  88.2332552  72.6179104
  13.6939854  98.0445619  71.2061708  13.4964254  97.4514980  70.4812775
  13.1386518  97.7397829  71.9237647  21.6736578  97.9368725  73.3256302
  21.7285187  96.9842562  73.2498778  20.8627780  98.0928164  73.8097600
  22.8227771 101.8648848  64.5634585  22.3847201 101.1484707  64.1040222
  23.5638212 102.0924963  64.0019676  19.6128938  96.5545785  71.0846680
  18.7996803  96.8539956  71.4911873  20.1087932  96.1601474  71.8021163
  21.7637515 106.5503542  73.0180945  21.7213694 106.7764388  72.0889477
  22.6800214 106.3166917  73.1666746  25.2103149  97.0187610  79.9161574
  25.5652537  97.2459083  80.7756040  25.8575280  97.3505986  79.2938830
  30.9400886 100.1406045  70.6210903  30.8018785 100.3307641  69.6932093
  30.5837105 100.9025428  71.0778954  19.1043012  94.1264141  76.7007915
  19.7442392  93.9852900  76.0030879  18.2720543  93.8398654  76.3246517
  30.9670266 102.2082572  75.6322175  31.4006772 102.1157862  76.4805229
  31.6801846 102.1840073  74.9942191  19.8803316 103.4266571  72.8142908
  20.6743915 102.9316891  72.6125483  19.1695009 102.8984434  72.4510613
  24.6998161 105.8084667  77.1655275  24.7535183 106.3775603  77.9332991
  23.8312942 105.9786552  76.8009313  16.1886080  97.5709653  68.8902660
  15.2583668  97.5094108  69.1072623  16.2843552  97.0485605  68.0939302
  16.1071629  94.0964466  71.4780902  16.3678446  95.0109799  71.3690063
  16.9288801  93.6288908  71.6277515  17.5796554  95.5102223  78.6479727
  18.2519607  95.3019585  77.9992376  16.7526341  95.3124309  78.2084959
  31.8285815 102.2506273  78.1655060  32.0221705 103.1552084  78.4114335
  31.7286434 101.7913692  78.9993645  23.4822126  92.1364164  80.6645388
  22.8350041  92.8354113  80.5709864  24.2523141  92.5700308  81.0321636
  26.8900924 102.4013016  83.7395941  26.7386430 102.1723568  82.8226025
  26.8805603 103.3583617  83.7527286  23.6586260  99.9744929  78.7242207
  24.5878320 100.1256088  78.5511175  23.2377290 100.0628949  77.8690854
  22.4574592 103.9995593  76.4940745  22.3185678 103.6314377  77.3666683
  21.6689188 104.5143232  76.3224703  23.0522744 109.1004689  67.8366281
  23.2274500 108.6292733  68.6511904  22.3655532 109.7270456  68.0647542
  24.0079807 103.3777196  73.8829583  23.6729640 103.3377966  74.7787233
  23.5083753 102.7121912  73.4099993  17.9824051  98.7844826  79.4082164
  17.8443849  98.0525065  80.0093703  18.8928975  98.6953726  79.1266352
  26.9438999 100.7233230  64.1566642  26.3268170  99.9980058  64.0599695
  26.4755487 101.4842590  63.8133717  20.6106352  98.4964785  78.8965843
  21.3205971  97.8557977  78.8552462  20.5675660  98.7477680  79.8192024
  28.5993131 105.4332138  81.8172423  28.5405677 104.7491359  81.1503006
  29.0012649 106.1751128  81.3653049  19.3235286  95.4830003  80.7161483
  18.7872643  95.0320741  81.3683079  18.7351994  95.6175912  79.9731947
  18.7337545  94.9418654  63.2787947  17.8567011  94.8207455  62.9150193
  19.2095298  94.1504733  63.0266835  28.6010538 103.3971722  80.0486402
  27.7137317 103.0597644  80.1712801  29.1709089 102.6654754  80.2855168
  10.2539685  99.7295814  73.3729454  10.9410725  99.4157544  72.7850469
  10.0987814 100.6337179  73.0996705  15.0574407  94.6186011  77.8014477
  14.9732596  94.0111680  77.0664887  14.2357114  95.1095029  77.8023974
  22.1311691 108.0573175  77.0147646  22.0581863 108.8628146  77.5266950
  21.6889084 108.2565140  76.1895667  21.9201471 107.2944945  70.5250467
  21.1368993 107.8366625  70.6188692  22.6194216 107.8118924  70.9244708
  25.2298121  93.1039574  73.1684673  25.7266821  92.3509536  72.8485743
  24.4585103  93.1403891  72.6027882  33.0827878  98.8079940  74.8102964
  33.0717755  99.6904655  74.4396897  32.2145258  98.4551491  74.6157501
  24.5910375 107.9560009  79.1705804  25.3038347 108.5907474  79.0981706
  24.1000403 108.0523875  78.3545806  26.3127902 101.8611261  70.7423096
  25.3784180 101.9812724  70.5727800  26.4904570 100.9583728  70.4783106
  21.8133090  95.2456957  72.8956357  21.4430877  94.6927998  73.5837263
  22.3092182  94.6415091  72.3431357  29.7000453  97.7028581  71.2773130
  30.1660905  98.5356572  71.2033433  30.1507954  97.2373562  71.9818389
  19.6422288 105.7054452  79.9911375  20.3431748 106.3390935  80.1440769
  19.1717403 106.0469184  79.2307014  27.7676684 104.0472402  68.2759282
  28.0436528 103.9328997  69.1853156  26.8981183 103.6489887  68.2371455
  27.6717116  90.0709168  75.3164031  26.7580196  90.3013394  75.4846238
  28.1010217  90.1547612  76.1678064  27.4423574  98.2599060  77.8163925
  26.7895025  98.5074967  77.1616378  27.8203954  97.4463198  77.4826403
  24.4030748 108.2958753  71.9192096  24.5853143 107.4780409  72.3819848
  25.2263734 108.5126445  71.4816986  24.7372914 107.2226938  69.1807144
  25.2660680 106.7119392  68.5677306  25.0001133 106.9069468  70.0452677
  23.4911147  99.0018871  84.3029962  22.8151784  98.9013000  84.9732338
  24.3138781  98.8458084  84.7665960  15.2390006 105.2390807  76.9242478
  15.8243443 104.4934495  77.0570382  15.0414845 105.5494764  77.8079142
  18.0928662 108.2742055  71.9404920  17.4239037 108.7588182  71.4568960
  17.9541531 108.5211275  72.8548299   9.8307661  97.8096407  75.6446921
   9.8691761  97.2759998  76.4384039   9.3247954  97.2831613  75.0257898
  22.2333930 110.3085798  78.5387578  22.7852238 110.4717420  79.3036664
  22.5740124 110.8990236  77.8667603  17.2098423  92.6560948  79.1409463
  17.2739750  93.5175779  78.7286861  17.1465544  92.0434950  78.4081822
  16.6850696  94.7284080  82.7882497  17.3122735  94.3461158  83.4020022
  15.8278615  94.5098282  83.1538190  27.0844805 105.1347056  84.3936233
  27.6284709 105.7477014  83.8991188  26.5031649 105.6926634  84.9103246
  13.4616239  96.5360510  68.7200852  13.7569680  95.6271188  68.6667906
  12.5604275  96.5148249  68.3981855  25.3702318 108.2567774  75.5251261
  25.2453457 107.4557513  75.0162206  26.0281409 108.7513967  75.0365231
  16.9910486  94.6116506  74.7028401  16.2697072  95.2252474  74.5635874
  17.7803742  95.1474271  74.6245047  27.4337226 106.0576794  77.1530811
  26.4867561 105.9382145  77.0809137  27.7819999 105.1699292  77.2357072
  19.7936799  91.9470933  80.9769053  20.3171201  92.1933229  81.7395362
  19.5749133  92.7790967  80.5572190  15.1904080  94.2174607  68.8440177
  14.8616787  93.3371986  68.6615283  15.5443451  94.1622276  69.7316567
  24.4383659 105.8529510  73.3535163  24.2908622 104.9246217  73.5342733
  25.2637153 105.8749601  72.8692238  18.3045904  94.5047577  69.2115655
  18.6441976  95.0333498  68.4894263  18.7518024  94.8427983  69.9874222
  28.0417781 106.6758069  74.4400036  28.9664329 106.4700930  74.3024487
  27.8733084 106.4274470  75.3489377  20.9989344  92.8884628  78.6618723
  20.6586165  92.0892441  79.0639403  20.2928351  93.1886339  78.0895556
  21.6505816  89.9733940  77.1146046  22.4731885  89.4994418  76.9924936
  21.8943880  90.7524424  77.6144732  20.2914051  93.0022199  67.4108948
  21.0122413  93.3803451  66.9072665  19.6679355  93.7211075  67.5143926
  24.4345174  93.7067348  68.3467280  24.6508788  94.5891985  68.0456108
  23.9539241  93.3153561  67.6172922  19.1744395  96.6653061  74.9238025
  19.0288976  96.9793364  75.8162306  18.6969599  97.2837961  74.3708923
  21.0340778  93.6555609  74.9718914  21.0202347  92.7596702  74.6351212
  21.7513206  93.6626273  75.6057200  22.8866909  94.0892949  77.0172042
  22.6284686  95.0110020  77.0156372  22.3551949  93.6923384  77.7072506
  27.8313097 107.1943736  69.7962127  28.0049975 106.6290159  69.0435980
  28.3241989 107.9944631  69.6141617  13.6490057  99.2058405  77.8625686
  13.1043525  99.9818213  77.9945960  14.5269407  99.5529210  77.7044807
  20.4377674  92.5369989  70.2406484  20.5593585  91.6086635  70.4397372
  20.1479716  92.5508675  69.3284800  23.3068864  90.2224900  73.3773204
  23.3290561  90.2864233  72.4225184  23.7236923  89.3829408  73.5713710
  33.6852488  99.9580159  71.4152427  34.1283634  99.2087484  71.0171550
  32.8078999  99.9490295  71.0326159  28.8188270 106.5110501  66.8959025
  29.5139174 107.1317193  67.1146340  29.1611420 105.6605852  67.1711403
  14.4356079  98.3328301  80.7555843  13.6937815  98.4810937  81.3420473
  14.1148823  98.5936567  79.8922592  30.7179693 103.9610206  68.4246356
  31.2431017 104.2997479  67.6995676  30.6302045 103.0257221  68.2409491
  22.3799742 107.8744280  80.5536233  22.6886868 107.6293426  81.4258932
  23.1775224 108.0790918  80.0655103  22.4020354 110.0282189  72.7841609
  21.9625344 109.5358568  73.4774466  23.1528471 109.4855157  72.5433685
  14.8812693 106.2193730  72.7866237  15.7070713 105.9197502  72.4064881
  14.5306745 105.4501353  73.2356026  19.8494226 105.5720198  74.8563911
  19.2274235 104.9090903  74.5566139  20.5199093 105.5981330  74.1737559
  13.0821298 104.1380057  73.7455171  12.2453206 103.7102231  73.5639172
  13.0544943 104.3312500  74.6825962  19.9218753  94.0501986  84.4496417
  19.9706909  94.9264109  84.0674187  20.4641267  93.5079379  83.8768060
  30.4073599 104.5943110  83.7297554  29.6169143 104.5767249  83.1902054
  30.1706954 105.1331403  84.4846591  30.5271474 101.4435576  81.0430283
  30.5769479 101.2785584  81.9845805  30.4185397 100.5762835  80.6528163
  19.4107733 104.1224122  68.3322372  19.5595853 104.8059586  67.6789044
  20.2174176 104.1029212  68.8471827  27.8175236  97.4266504  82.3589589
  28.7185099  97.2872969  82.0673587  27.8923211  97.5920959  83.2987767
  22.1518042  94.8033359  81.2042776  21.2821351  95.0966925  80.9325364
  22.3877522  95.3873804  81.9250039  32.0289671 103.8632518  81.2872304
  31.7374479 104.2262498  82.1235765  31.4161802 103.1499526  81.1085636
  33.2285353 101.4285397  73.8074874  34.0632245 101.8675201  73.9712435
  33.3644482 100.9524051  72.9883120  30.2776859  98.9865132  79.7552362
  30.7530981  99.1792779  78.9471214  29.3542424  99.0424318  79.5095746
  17.1660366 100.1489299  69.3383441  16.9206408  99.2451629  69.5363651
  17.3356280 100.1506450  68.3962919  24.8557076  91.0212976  78.7208196
  25.3739019  91.7574003  78.3954685  24.5012208  91.3276969  79.5554955
  16.4356013  95.8817657  66.8369602  15.7425258  95.9562012  66.1809638
  16.1907765  95.1178001  67.3591119  25.1069670  87.4413258  74.2409093
  25.3871423  86.7736447  74.8669519  25.8920277  87.6342354  73.7283757
  22.9103138 106.6172252  65.8034119  22.3377105 107.2362439  65.3504591
  23.4835932 107.1671614  66.3374041  28.9778528  95.8630892  77.9880668
  29.9295951  95.9628990  78.0092892  28.8081978  95.0709161  78.4978752
  26.9992908  92.9486476  78.1740069  26.4042840  93.2291488  77.4786557
  26.7142604  93.4380376  78.9456810  26.1300398 106.9009402  66.9342701
  27.0631071 106.8354964  67.1375577  26.0423611 107.7365669  66.4757234
  28.7588415 106.2175273  63.8946649  28.6802046 105.8835136  64.7882407
  29.5798081 106.7097041  63.8938121  31.4566606  99.0837012  77.1022967
  31.4242926  98.1453013  77.2882651  32.0667229  99.1621049  76.3688792
  23.2949937  97.9533065  63.1450172  24.2409041  97.8239273  63.2138590
  22.9164182  97.2147727  63.6219600  31.6061094  95.8748055  77.1481251
  31.0900143  95.0906512  76.9611180  32.4901043  95.5466772  77.3127770
  29.2671821  89.6189071  73.1077063  29.0696642  89.3104159  73.9920395
  29.8771527  90.3450710  73.2374993  37.2743156 100.1453019  76.2429004
  38.0046544  99.8838307  76.8036708  36.6650101  99.4081741  76.2831072
  35.3558453  98.2860881  76.8403455  34.6291616  98.1516846  76.2319947
  34.9405740  98.5937710  77.6460174  23.1788629 102.0050811  84.6050828
  24.0991639 102.1829410  84.7990875  23.1438212 101.0606856  84.4530528
  21.4792854  95.8783041  63.0805057  20.5724309  95.5816154  63.1567770
  21.7568835  95.5812859  62.2139343  12.3970794  97.1989405  73.5304103
  12.0773579  96.3454713  73.2378477  11.8504222  97.4137983  74.2862070
  16.1750702  99.9151846  77.2473610  16.3936712 100.8468954  77.2661643
  16.5876476  99.5559820  78.0328413  23.0954920  90.4219931  69.2349298
  22.2855648  90.0767016  69.6104544  23.7839337  90.1127475  69.8236910
  25.0245468  89.4997978  70.8573595  25.5776506  89.9193431  71.5163618
  25.2615554  88.5733726  70.8996551  21.0478567  95.4885052  86.6376359
  20.9475294  96.4379408  86.5688450  20.8300109  95.1603290  85.7652429
  20.2491638  92.7369977  63.2217036  21.1110802  93.0624875  63.4812853
  20.4341983  91.9501472  62.7090102  12.2659054 100.8192316  75.4997225
  11.5722526 100.4046269  74.9867179  13.0132045 100.8612853  74.9030644
  28.4024275  91.6098503  70.3652259  27.8222944  92.2683307  69.9830311
  28.1360208  90.7875848  69.9539676  26.8527841  91.0103561  72.5673579
  27.3527620  91.1220095  71.7587898  27.4963449  90.7064614  73.2074388
  20.9109837  98.9182190  85.4541420  20.4276919  99.7182550  85.6605309
  20.9970776  98.9290135  84.5008864  14.1795797 100.7510570  73.3763240
  14.1566485 100.8498257  72.4245123  14.4896433 101.5975721  73.6980406
  16.8383175 102.8086725  77.4909854  17.7926428 102.7770667  77.4239786
  16.6395698 102.3477349  78.3060080  17.4282557 101.3787841  80.0580652
  18.2475446 101.8731920  80.0815489  17.7019364 100.4619809  80.0298219
  27.1849153  93.7698593  69.4208607  26.2975008  94.0548244  69.2028802
  27.6003142  93.6092357  68.5735884  30.5363689  93.7945114  73.1362946
  31.3124079  94.2841567  73.4087563  29.8111823  94.2203169  73.5934816
  32.9736248  94.5072734  74.1936887  33.5680739  94.2668470  73.4830195
  33.0462831  93.7879864  74.8210423  26.3292366 103.5343268  63.5156627
  27.0328217 103.7393271  64.1314283  25.6055015 104.1020030  63.7805711
  27.1590177  99.2853129  69.6358897  27.1025378  99.7421681  68.7966530
  27.7118519  98.5243814  69.4581740  30.9694983  95.0742861  70.4609017
  30.7131917  94.6739497  71.2917225  30.3447851  95.7886655  70.3359156
  35.2807320  97.8138934  72.9680308  34.7206878  97.8832124  73.7411870
  34.6750824  97.6379919  72.2479805  28.2379064 103.9725797  65.5655087
  29.0724668 103.5406996  65.3832562  28.0763407 103.8007811  66.4931982
  27.8924956 100.4757911  66.9311427  27.8373760 100.3102182  65.9899871
  27.2671011 101.1833944  67.0873616  12.6817471  95.7125975  80.7572849
  13.3276335  95.2024929  81.2460074  12.4734622  96.4494657  81.3316274
  25.2070863 102.7806822  86.2564989  26.0762023 102.9547475  85.8951624
  24.7277615 103.6001239  86.1340719  21.2021081  89.9766020  66.5096745
  21.1899751  90.9207860  66.6665016  22.0944503  89.7936165  66.2156206
  19.3757043 109.9003923  77.9354423  20.2784290 109.9327534  78.2520918
  19.1494414 108.9704374  77.9500759  21.1310645 108.6534910  74.5964502
  20.1806276 108.6536772  74.4828874  21.4343132 107.9067645  74.0800536
  25.0173201  86.5708796  70.7642682  24.2505597  86.0167283  70.9099364
  25.4283906  86.6430665  71.6256833  17.0214962  92.8593592  84.8547863
  17.8846424  92.5030397  85.0651188  16.4480373  92.5207487  85.5423267
  36.8663339 114.4895448  75.6610264  37.5041749 114.3702196  74.9573604
  36.7484182 115.4376292  75.7198216  33.6753045 114.4422877  75.5971789
  33.3371557 114.3263941  74.7092324  34.5442813 114.0414042  75.5772795
  34.1572828 115.5957728  81.5557994  34.1461469 115.2010526  80.6838498
  34.3193468 114.8623801  82.1491766  31.3761325 113.2111124  64.9288729
  31.6286845 112.6892645  64.1672192  30.4385884 113.0477269  65.0315412
  36.4204607 112.2146902  72.7363472  37.2067697 111.7966325  72.3853889
  36.6843312 113.1192994  72.9045120  41.8213035 112.1522135  73.6396451
  42.5538207 111.5821352  73.8734280  41.0652390 111.7643736  74.0802956
  33.4389154 114.5749377  70.8359793  33.0747362 114.0479998  71.5472714
  34.2956270 114.1847846  70.6626278  39.3438455 105.8643710  78.0991059
  39.0121780 106.7339121  77.8752274  38.7484068 105.5479994  78.7785090
  33.0794641 109.6039277  65.8321142  33.2469044 110.4719513  66.1991613
  32.8891810 109.7666558  64.9082431  39.2367118 110.5838796  75.1784409
  38.3283996 110.5154204  74.8843170  39.1854714 111.0610741  76.0066235
  33.0583862 112.0596934  66.8167808  32.9383487 112.5053985  67.6553289
  32.3636451 112.4082252  66.2581346  33.3107984 112.0028441  83.1219306
  32.5341318 112.5622361  83.1122171  33.9498547 112.4885224  83.6434177
  41.1028765 108.7855234  76.9562283  40.4603145 109.0787767  76.3102078
  40.5983693 108.6708154  77.7615480  38.7568928 112.5318407  67.6448142
  39.6686784 112.7645794  67.4695840  38.2478575 113.1155452  67.0823221
  33.3940766 111.8915642  78.6542992  34.2401961 112.3155055  78.7977641
  33.3339404 111.2349266  79.3481555  36.5440211 109.5520010  80.3124166
  36.3001143 110.3062071  79.7758441  36.8200142 109.9305358  81.1471413
  38.4978674 116.0958623  78.9901431  38.7095569 116.7390383  78.3135812
  38.4508422 115.2620939  78.5223361  36.1004903 108.7076443  75.8938003
  35.2389382 109.0057697  76.1854741  36.1267338 108.9246842  74.9619036
  31.8535359 113.3741786  69.1101374  32.5559402 113.8262830  69.5775300
  31.5215987 112.7325605  69.7381267  30.3015720 111.9653543  83.4852583
  29.6714381 112.6469824  83.7187980  30.1951808 111.8536624  82.5405722
  25.5960692 111.6325339  74.4118508  24.8059746 111.8882867  73.9358618
  26.0871940 112.4473677  74.5170548  27.5475438 111.9969918  71.3701984
  26.7506601 112.1088612  71.8885480  27.3201030 112.3356570  70.5042875
  47.7030495 115.3169327  73.5108760  46.9494203 114.7476725  73.3552764
  47.8378036 115.2831991  74.4579395  29.5796463 106.2674309  85.8477835
  29.1863408 105.7140507  86.5225479  30.3962603 106.5784887  86.2384352
  32.4964424 107.6832188  83.4398091  33.2374137 108.2839341  83.3602554
  32.7282347 106.9409826  82.8816134  36.4421587 103.7113291  77.7162373
  36.0985856 104.6014932  77.6401483  36.8100549 103.5214948  76.8531958
  36.4071869 113.7021902  66.2234808  35.8918493 114.4726506  66.4623195
  36.1349178 113.0287038  66.8467869  33.9918980 108.5471603  71.2820046
  33.1360577 108.1578453  71.1025685  34.4045932 108.6263563  70.4219832
  35.5218127 106.0817946  75.6811606  35.0182923 106.0448081  74.8679411
  35.8148734 106.9910689  75.7408263  31.7661013 106.1656676  74.6877788
  32.6314010 105.9699484  74.3283677  31.8338522 105.9367027  75.6147145
  41.3806144 116.4554256  68.1587981  40.6035586 116.1165416  67.7143143
  42.0597625 116.4606880  67.4842946  36.1958173 111.5748994  68.0494589
  35.8908308 111.8895143  68.9004732  37.1488615 111.6530414  68.0921922
  39.6197450 115.9288238  74.8154589  38.9621125 116.6187499  74.9034718
  40.4237850 116.3184670  75.1588576  29.3723332 108.3958884  72.0594155
  29.9467084 108.1734065  71.3267348  29.9594315 108.4647578  72.8122756
  38.4302909 114.2832610  72.8658531  38.9434791 114.9162602  73.3680241
  39.0804133 113.6833806  72.5001891  29.6992919 110.4263345  66.0790040
  28.8630231 110.7638031  66.3999315  29.5597689 110.2912324  65.1417177
  31.6746000 105.2700132  70.7869224  31.0210412 104.9549150  70.1625839
  31.6326474 104.6475873  71.5129047  34.9083740 111.7582066  75.1116872
  33.9906302 111.9797013  74.9538560  35.3243884 111.8328376  74.2528579
  35.6918788 113.1573482  70.2419552  36.4390607 113.6694879  69.9326674
  35.9610377 112.8357534  71.1023945  38.1397625 110.1930598  72.2238341
  37.4020382 109.6807984  72.5548584  38.3924399 109.7530980  71.4121618
  38.2409252 102.9706850  72.8180110  38.5468129 102.1104213  72.5306026
  38.9661857 103.5624470  72.6179104  32.5130332 113.2660643  73.3256302
  32.5678942 112.3134479  73.2498778  31.7021534 113.4220082  73.8097600
  30.4522692 111.8837703  71.0846680  29.6390558 112.1831873  71.4911873
  30.9481686 111.4893392  71.8021163  36.0496904 112.3479527  79.9161574
  36.4046291 112.5751000  80.7756040  36.6969035 112.6797904  79.2938830
  41.7794641 115.4697963  70.6210903  41.6412539 115.6599559  69.6932093
  41.4230859 116.2317346  71.0778954  29.9436767 109.4556058  76.7007915
  30.5836146 109.3144817  76.0030879  29.1114297 109.1690572  76.3246517
  41.8064020 117.5374490  75.6322175  42.2400527 117.4449779  76.4805229
  42.5195601 117.5131991  74.9942191  27.0279834 112.9001570  68.8902660
  26.0977422 112.8386026  69.1072623  27.1237306 112.3777523  68.0939302
  26.9465383 109.4256383  71.4780902  27.2072201 110.3401716  71.3690063
  27.7682556 108.9580826  71.6277515  28.4190309 110.8394140  78.6479727
  29.0913362 110.6311503  77.9992376  27.5920095 110.6416226  78.2084959
  42.6679570 117.5798191  78.1655060  42.8615460 118.4844001  78.4114335
  42.5680188 117.1205610  78.9993645  34.3215881 107.4656081  80.6645388
  33.6743796 108.1646031  80.5709864  35.0916896 107.8992225  81.0321636
  34.4980015 115.3036846  78.7242207  35.4272075 115.4548006  78.5511175
  34.0771045 115.3920867  77.8690854  37.7832753 116.0525148  64.1566642
  37.1661924 115.3271976  64.0599695  37.3149242 116.8134508  63.8133717
  31.4500106 113.8256703  78.8965843  32.1599725 113.1849895  78.8552462
  31.4069415 114.0769598  79.8192024  30.1629040 110.8121921  80.7161483
  29.6266397 110.3612659  81.3683079  29.5745749 110.9467829  79.9731947
  29.5731299 110.2710572  63.2787947  28.6960766 110.1499373  62.9150193
  30.0489052 109.4796650  63.0266835  25.8968162 109.9477928  77.8014477
  25.8126350 109.3403598  77.0664887  25.0750868 110.4386947  77.8023974
  36.0691876 108.4331492  73.1684673  36.5660575 107.6801454  72.8485743
  35.2978857 108.4695808  72.6027882  43.9221633 114.1371857  74.8102964
  43.9111509 115.0196573  74.4396897  43.0539012 113.7843408  74.6157501
  32.6526844 110.5748875  72.8956357  32.2824632 110.0219915  73.5837263
  33.1485937 109.9707008  72.3431357  40.5394208 113.0320498  71.2773130
  41.0054660 113.8648490  71.2033433  40.9901708 112.5665480  71.9818389
  38.5110870 105.4001085  75.3164031  37.5973950 105.6305312  75.4846238
  38.9403972 105.4839529  76.1678064  38.2817329 113.5890977  77.8163925
  37.6288779 113.8366885  77.1616378  38.6597709 112.7755115  77.4826403
  34.3304902 114.3310788  84.3029962  33.6545539 114.2304918  84.9732338
  35.1532536 114.1750002  84.7665960  28.0492178 107.9852866  79.1409463
  28.1133504 108.8467696  78.7286861  27.9859298 107.3726867  78.4081822
  27.5244450 110.0575998  82.7882497  28.1516489 109.6753075  83.4020022
  26.6672369 109.8390200  83.1538190  24.3009993 111.8652427  68.7200852
  24.5963434 110.9563106  68.6667906  23.3998029 111.8440167  68.3981855
  27.8304240 109.9408424  74.7028401  27.1090826 110.5544392  74.5635874
  28.6197496 110.4766189  74.6245047  30.6330554 107.2762850  80.9769053
  31.1564956 107.5225147  81.7395362  30.4142887 108.1082885  80.5572190
  26.0297835 109.5466525  68.8440177  25.7010541 108.6663904  68.6615283
  26.3837206 109.4914194  69.7316567  29.1439658 109.8339495  69.2115655
  29.4835730 110.3625416  68.4894263  29.5911778 110.1719901  69.9874222
  31.8383099 108.2176545  78.6618723  31.4979919 107.4184358  79.0639403
  31.1322105 108.5178256  78.0895556  32.4899571 105.3025858  77.1146046
  33.3125640 104.8286336  76.9924936  32.7337634 106.0816342  77.6144732
  31.1307805 108.3314116  67.4108948  31.8516168 108.7095369  66.9072665
  30.5073109 109.0502993  67.5143926  35.2738928 109.0359265  68.3467280
  35.4902542 109.9183903  68.0456108  34.7932995 108.6445479  67.6172922
  30.0138149 111.9944978  74.9238025  29.8682730 112.3085282  75.8162306
  29.5363353 112.6129879  74.3708923  31.8734532 108.9847526  74.9718914
  31.8596101 108.0888620  74.6351212  32.5906960 108.9918190  75.6057200
  33.7260663 109.4184867  77.0172042  33.4678441 110.3401937  77.0156372
  33.1945703 109.0215301  77.7072506  31.2771428 107.8661907  70.2406484
  31.3987339 106.9378553  70.4397372  30.9873471 107.8800593  69.3284800
  34.1462619 105.5516817  73.3773204  34.1684315 105.6156150  72.4225184
  34.5630678 104.7121326  73.5713710  44.5246243 115.2872077  71.4152427
  44.9677389 114.5379402  71.0171550  43.6472753 115.2782213  71.0326159
  30.7612508 109.3793904  84.4496417  30.8100663 110.2556027  84.0674187
  31.3035022 108.8371297  83.8768060  41.3665228 116.7727494  81.0430283
  41.4163233 116.6077501  81.9845805  41.2579152 115.9054753  80.6528163
  38.6568991 112.7558422  82.3589589  39.5578854 112.6164887  82.0673587
  38.7316965 112.9212877  83.2987767  32.9911796 110.1325277  81.2042776
  32.1215106 110.4258843  80.9325364  33.2271277 110.7165722  81.9250039
  44.0679108 116.7577315  73.8074874  44.9025999 117.1967119  73.9712435
  44.2038236 116.2815968  72.9883120  41.1170614 114.3157050  79.7552362
  41.5924735 114.5084696  78.9471214  40.1936179 114.3716236  79.5095746
  35.6950830 106.3504893  78.7208196  36.2132774 107.0865920  78.3954685
  35.3405963 106.6568887  79.5554955  27.2749768 111.2109575  66.8369602
  26.5819013 111.2853930  66.1809638  27.0301520 110.4469918  67.3591119
  35.9463424 102.7705176  74.2409093  36.2265178 102.1028365  74.8669519
  36.7314031 102.9634272  73.7283757  39.8172283 111.1922810  77.9880668
  40.7689705 111.2920908  78.0092892  39.6475733 110.4001079  78.4978752
  37.8386662 108.2778393  78.1740069  37.2436594 108.5583406  77.4786557
  37.5536359 108.7672294  78.9456810  42.2960360 114.4128930  77.1022967
  42.2636680 113.4744930  77.2882651  42.9060984 114.4912966  76.3688792
  34.1343691 113.2824983  63.1450172  35.0802796 113.1531191  63.2138590
  33.7557936 112.5439645  63.6219600  42.4454849 111.2039973  77.1481251
  41.9293897 110.4198430  76.9611180  43.3294797 110.8758690  77.3127770
  40.1065576 104.9480989  73.1077063  39.9090397 104.6396077  73.9920395
  40.7165281 105.6742628  73.2374993  48.1136910 115.4744937  76.2429004
  48.8440299 115.2130225  76.8036708  47.5043856 114.7373658  76.2831072
  46.1952207 113.6152799  76.8403455  45.4685371 113.4808764  76.2319947
  45.7799494 113.9229628  77.6460174  32.3186608 111.2074959  63.0805057
  31.4118064 110.9108072  63.1567770  32.5962589 110.9104777  62.2139343
  33.9348674 105.7511849  69.2349298  33.1249402 105.4058934  69.6104544
  34.6233091 105.4419392  69.8236910  35.8639222 104.8289896  70.8573595
  36.4170261 105.2485349  71.5163618  36.1009309 103.9025644  70.8996551
  31.8872322 110.8176969  86.6376359  31.7869048 111.7671326  86.5688450
  31.6693864 110.4895208  85.7652429  31.0885393 108.0661894  63.2217036
  31.9504557 108.3916793  63.4812853  31.2735737 107.2793390  62.7090102
  39.2418029 106.9390421  70.3652259  38.6616699 107.5975225  69.9830311
  38.9753962 106.1167765  69.9539676  37.6921596 106.3395478  72.5673579
  38.1921374 106.4512013  71.7587898  38.3357204 106.0356531  73.2074388
  38.0242907 109.0990511  69.4208607  37.1368762 109.3840162  69.2028802
  38.4396897 108.9384274  68.5735884  41.3757444 109.1237032  73.1362946
  42.1517834 109.6133485  73.4087563  40.6505578 109.5495086  73.5934816
  43.8130002 109.8364651  74.1936887  44.4074493 109.5960387  73.4830195
  43.8856586 109.1171782  74.8210423  37.9983931 114.6145047  69.6358897
  37.9419133 115.0713598  68.7966530  38.5512274 113.8535732  69.4581740
  41.8088737 110.4034779  70.4609017  41.5525671 110.0031415  71.2917225
  41.1841605 111.1178573  70.3359156  46.1201075 113.1430852  72.9680308
  45.5600633 113.2124041  73.7411870  45.5144578 112.9671837  72.2479805
  38.7318711 115.8049828  66.9311427  38.6767514 115.6394100  65.9899871
  38.1064766 116.5125861  67.0873616  23.5211226 111.0417893  80.7572849
  24.1670089 110.5316847  81.2460074  23.3128377 111.7786574  81.3316274
  32.0414836 105.3057937  66.5096745  32.0293506 106.2499777  66.6665016
  32.9338258 105.1228083  66.2156206  35.8566955 101.9000714  70.7642682
  35.0899351 101.3459201  70.9099364  36.2677660 101.9722583  71.6256833
  27.8608717 108.1885510  84.8547863  28.7240178 107.8322315  85.0651188
  27.2874127 107.8499405  85.5423267  47.2815341 119.0405208  77.7162373
  46.9379611 119.9306850  77.6401483  47.6494304 118.8506866  76.8531958
  49.0803007 118.2998768  72.8180110  49.3861884 117.4396131  72.5306026
  49.8055612 118.8916388  72.6179104  46.7857179 118.0997094  74.2409093
  47.0658932 117.4320283  74.8669519  47.5707786 118.2926189  73.7283757
  50.9459330 120.2772906  73.1077063  50.7484151 119.9687995  73.9920395
  51.5559036 121.0034545  73.2374993  46.6960710 117.2292632  70.7642682
  45.9293106 116.6751118  70.9099364  47.1071415 117.3014500  71.6256833
   4.3455478  31.0063778  60.2354067   3.5919187  30.4371177  60.0798071
   4.4803020  30.9726443  61.1824701   0.7104091  32.4471767  60.5320181
   1.5450982  32.8861571  60.6957741   0.8463220  31.9710420  59.7128427
   4.7561893  31.1639388  62.9674311   5.4865282  30.9024677  63.5282014
   4.1468839  30.4268110  63.0076379   2.8377191  29.3047251  63.5648762
   2.1110354  29.1703216  62.9565254   2.4224477  29.6124080  64.3705480
   0.4554986  25.5259103  60.9182194   1.0499476  25.2854839  60.2075502
   0.5281569  24.8066234  61.5455730   2.7626058  28.8325304  59.6925615
   2.2025616  28.9018493  60.4657177   2.1569562  28.6566289  58.9725111
   4.3482077  45.5081818  62.3855571   4.9860487  45.3888565  61.6818911
   4.2302920  46.4562662  62.4443523   1.1571783  45.4609246  62.3217095
   0.8190295  45.3450311  61.4337630   2.0261551  45.0600411  62.3018101
   1.6391566  46.6144098  68.2803301   1.6280207  46.2196896  67.4083805
   1.8012205  45.8810170  68.8737072   2.5958157  50.9815690  53.6228451
   1.9446137  51.5669771  53.2362465   3.3902520  51.5121885  53.6823489
   3.9023345  43.2333272  59.4608779   4.6886434  42.8152695  59.1099196
   4.1662050  44.1379364  59.6290427   4.0733423  48.6706122  54.1597435
   3.4379256  48.7440749  54.8718340   3.7430829  49.2599721  53.4816515
   9.3031772  43.1708505  60.3641757  10.0356944  42.6007722  60.5979587
   8.5471128  42.7830105  60.8048263   0.9207892  45.5935747  57.5605100
   0.5566099  45.0666367  58.2718021   1.7775008  45.2034216  57.3871585
   6.8257193  36.8830079  64.8236366   6.4940517  37.7525490  64.5997581
   6.2302806  36.5666363  65.5030396   3.3188712  49.0842625  64.2232279
   3.0189435  49.9867664  64.1148086   2.9739772  48.8174808  65.0753431
   6.7185856  41.6025165  61.9029716   5.8102733  41.5340574  61.6088477
   6.6673452  42.0797110  62.7311541   8.5847502  39.8041604  63.6807590
   7.9421883  40.0974137  63.0347384   8.0802431  39.6894524  64.4860786
   6.2387666  43.5504777  54.3693449   7.1505522  43.7832164  54.1941147
   5.7297313  44.1341821  53.8068528   4.5228434  47.9729405  68.0054742
   4.9311790  47.5311815  67.2609374   3.8005695  47.3982032  68.2588934
   0.8759504  42.9102011  65.3788299   1.7220699  43.3341425  65.5222948
   0.8158141  42.2535636  66.0726862   4.8457248  48.5330595  61.7607030
   4.2166111  48.6976309  61.0583098   4.4582910  48.9472205  62.5317995
   8.7246480  49.4685033  59.1151394   8.0397518  49.8483935  58.5648428
   8.8090330  50.0780360  59.8483342   4.0258949  40.5706380  67.0369472
   3.7819881  41.3248440  66.5003748   4.3018880  40.9491727  67.8716719
   5.9797412  47.1144992  65.7146738   6.1914307  47.7576752  65.0381119
   5.9327160  46.2807309  65.2468668   3.5823641  39.7262813  62.6183310
   2.7208120  40.0244066  62.9100047   3.6086076  39.9433212  61.6864343
   7.0943240  49.9916948  63.8869095   7.9160684  49.5897135  63.6051777
   7.0905643  49.8885182  64.8385211  15.1849233  46.3355696  60.2354067
  14.4312941  45.7663094  60.0798071  15.3196774  46.3018361  61.1824701
   0.5747861  51.2069098  55.9108786   0.4393536  52.0520634  56.3393634
   1.1157673  51.4088376  55.1474720   2.2016337  51.8292665  70.0409128
   1.7580192  51.0429043  69.7230033   2.8633551  52.0171815  69.3753019
   4.2997575  52.1095465  68.0690529   4.2816051  52.9304346  67.5770798
   5.2217495  51.9849540  68.2940670   3.9240325  34.7299660  64.4407679
   3.5804594  35.6201302  64.3646790   4.2919287  34.5401318  63.5777264
   3.8890607  44.7208271  52.9480115   3.3737231  45.4912876  53.1868502
   3.6167916  44.0473408  53.5713176   1.4737718  39.5657972  58.0065353
   0.6179315  39.1764823  57.8270992   1.8864670  39.6449933  57.1465138
   3.0036865  37.1004315  62.4056913   2.5001660  37.0634451  61.5924718
   3.2967472  38.0097058  62.4653569   8.8624881  47.4740626  54.8833288
   8.0854324  47.1351786  54.4388450   9.5416362  47.4793249  54.2088253
   3.6776910  42.5935364  54.7739896   3.3727046  42.9081513  55.6250039
   4.6307353  42.6716783  54.8167229   2.1223342  48.7525587  56.4232850
   1.5944704  48.0178346  56.1106087   1.6210845  49.5300263  56.1772818
   7.1016188  46.9474607  61.5399896   6.4439863  47.6373869  61.6280025
   7.9056587  47.3371039  61.8833882   5.9121647  45.3018980  59.5903838
   6.4253529  45.9348972  60.0925547   6.5622871  44.7020176  59.2247198
   3.1744021  55.2803304  52.3464509   2.5005720  55.5835001  52.9549467
   3.5609843  56.0832385  51.9969966   2.3902478  42.7768436  61.8362178
   1.4725039  42.9983383  61.6783866   2.8062622  42.8514746  60.9773886
   3.1737526  44.1759851  56.9664859   3.9209345  44.6881248  56.6571981
   3.4429115  43.8543904  57.8269252   1.4464176  46.6718392  53.9491813
   0.5375395  46.3877425  54.0464283   1.4759260  47.0917471  53.0895120
   6.6783443  50.2824981  57.7182980   6.2245770  49.4415891  57.7748171
   6.0477410  50.9186380  58.0557761   5.6216363  41.2116967  58.9483648
   4.8839120  40.6994354  59.2793890   5.8743136  40.7717349  58.1366925
   5.1216383  52.1201478  58.6532799   5.4139357  52.6806535  57.9345164
   5.6315003  52.4130039  59.4085958   5.7227990  33.9893219  59.5425417
   6.0286867  33.1290583  59.2551332   6.4480595  34.5810840  59.3424411
   1.1440264  48.2127136  51.2879891   0.7059694  47.4962995  50.8285529
   1.8850705  48.4403250  50.7264983   3.5315642  43.3665897  66.6406881
   3.8865029  43.5937370  67.5001347   4.1787773  43.6984274  66.0184136
   9.2613378  46.4884333  57.3456210   9.1231277  46.6785929  56.4177399
   8.9049597  47.2503715  57.8024261   9.2882758  48.5560860  62.3567481
   9.7219265  48.4636149  63.2050535  10.0014339  48.5318360  61.7187497
   3.0210653  52.1562954  63.8900582   3.0747675  52.7253890  64.6578298
   2.1525434  52.3264839  63.5254619  10.1498308  48.5984560  64.8900367
  10.3434198  49.5030371  65.1359642  10.0498926  48.1391979  65.7238952
   1.8034618  38.4842451  67.3890694   1.1562533  39.1832401  67.2955171
   2.5735634  38.9178595  67.7566942   5.2113416  48.7491303  70.4641247
   5.0598923  48.5201855  69.5471331   5.2018096  49.7061904  70.4772592
   1.9798753  46.3223216  65.4487514   2.9090813  46.4734375  65.2756481
   1.5589783  46.4107237  64.5936160   1.3735236  55.4482977  54.5611588
   1.5486992  54.9771020  55.3757211   0.6868024  56.0748743  54.7892849
   2.3292300  49.7255483  60.6074889   1.9942132  49.6856253  61.5032539
   1.8296245  49.0600199  60.1345300   5.2651491  47.0711517  50.8811949
   4.6480662  46.3458345  50.7845002   4.7967980  47.8320878  50.5379023
   6.9205623  51.7810426  68.5417729   6.8618169  51.0969646  67.8748312
   7.3225141  52.5229416  68.0898355   6.9223030  49.7450010  66.7731709
   6.0349809  49.4075931  66.8958108   7.4921581  49.0133041  67.0100474
   3.5510613  39.4517861  59.8929979   4.0479313  38.6987824  59.5731049
   2.7797595  39.4882178  59.3273188  11.4040371  45.1558227  61.5348271
  11.3930247  46.0382942  61.1642204  10.5357750  44.8029778  61.3402808
   2.9122867  54.3038296  65.8951111   3.6250839  54.9385761  65.8227012
   2.4212896  54.4002162  65.0791113   4.6340394  48.2089549  57.4668403
   3.6996673  48.3291011  57.2973107   4.8117062  47.3062015  57.2028412
   8.0212945  44.0506868  58.0018437   8.4873398  44.8834859  57.9278739
   8.4720446  43.5851849  58.7063695   6.0889176  50.3950689  55.0004589
   6.3649020  50.2807284  55.9098463   5.2193675  49.9968174  54.9616762
   5.9929608  36.4187455  62.0409338   5.0792688  36.6491682  62.2091545
   6.4222710  36.5025899  62.8923370   5.7636067  44.6077347  64.5409232
   5.1107517  44.8553254  63.8861685   6.1416447  43.7941485  64.2071709
   2.7243241  54.6437040  58.6437402   2.9065635  53.8258696  59.1065155
   3.5476227  54.8604732  58.2062292   3.0585406  53.5705225  55.9052451
   3.5873172  53.0597680  55.2922613   3.3213626  53.2547755  56.7697984
   1.8123640  45.3497158  71.0275269   1.1364277  45.2491287  71.6977644
   2.6351274  45.1936372  71.4911266   0.5546423  56.6564085  65.2632885
   1.1064731  56.8195707  66.0281970   0.8952616  57.2468523  64.5912910
   5.4057297  51.4825343  71.1181540   5.9497201  52.0955301  70.6236494
   4.8244142  52.0404921  71.6348553   3.6914810  54.6046061  62.2496567
   3.5665949  53.8035801  61.7407513   4.3493901  55.0992254  61.7610537
   5.7549718  52.4055081  63.8776117   4.8080054  52.2860432  63.8054444
   6.1032491  51.5177579  63.9602379   2.7596151  52.2007797  60.0780470
   2.6121114  51.2724505  60.2588040   3.5849645  52.2227888  59.5937545
   6.3630273  53.0236356  61.1645342   7.2876821  52.8179217  61.0269793
   6.1945577  52.7752757  62.0734684   2.7557666  40.0545635  55.0712587
   2.9721280  40.9370273  54.7701415   2.2751733  39.6631848  54.3418229
   1.2079401  40.4371236  63.7417348   0.9497179  41.3588307  63.7401679
   0.6764441  40.0401671  64.4317813   6.1525590  53.5422023  56.5207434
   6.3262467  52.9768446  55.7681286   6.6454481  54.3422918  56.3386924
   1.6281356  36.5703187  60.1018511   1.6503053  36.6342520  59.1470491
   2.0449415  35.7307695  60.2959017  12.0064981  46.3058446  58.1397734
  12.4496127  45.5565772  57.7416857  11.1291491  46.2968583  57.7571466
   7.1400762  52.8588788  53.6204332   7.8351667  53.4795480  53.8391647
   7.4823912  52.0084139  53.8956710   9.0392185  50.3088493  55.1491663
   9.5643509  50.6475766  54.4240983   8.9514538  49.3735509  54.9654797
   0.7012234  54.2222567  67.2781539   1.0099360  53.9771714  68.1504239
   1.4987716  54.4269205  66.7900410   8.7286091  50.9421397  70.4542861
   7.9381635  50.9245536  69.9147360   8.4919446  51.4809691  71.2091897
   8.8483966  47.7913863  67.7675589   8.8981971  47.6263871  68.7091112
   8.7397890  46.9241122  67.3773470   6.1387729  43.7744791  69.0834896
   7.0397591  43.6351256  68.7918894   6.2135703  43.9399246  70.0233073
  10.3502163  50.2110805  68.0117611  10.0586971  50.5740785  68.8481072
   9.7374294  49.4977813  67.8330943  11.5497845  47.7763685  60.5320181
  12.3844737  48.2153489  60.6957741  11.6856974  47.3002338  59.7128427
   8.5989351  45.3343419  66.4797669   9.0743473  45.5271066  65.6716520
   7.6754917  45.3902605  66.2341053   3.1769568  37.3691263  65.4453503
   3.6951512  38.1052290  65.1199991   2.8224701  37.6755256  66.2800262
   3.4282162  33.7891546  60.9654399   3.7083916  33.1214735  61.5914826
   4.2132769  33.9820641  60.4529063   1.2315630  52.9650539  52.5279426
   0.6589598  53.5840727  52.0749898   1.8048424  53.5149901  53.0619348
   7.2991020  42.2109180  64.7125974   8.2508443  42.3107277  64.7338199
   7.1294471  41.4187448  65.2224059   5.3205400  39.2964763  64.8985375
   4.7255332  39.5769775  64.2031864   5.0355097  39.7858664  65.6702116
   4.4512890  53.2487690  53.6588008   5.3843563  53.1833251  53.8620883
   4.3636103  54.0843956  53.2002541   7.0800907  52.5653560  50.6191956
   7.0014538  52.2313424  51.5127713   7.9010574  53.0575328  50.6183428
   9.7779098  45.4315299  63.8268274   9.7455418  44.4931300  64.0127958
  10.3879722  45.5099336  63.0934099   1.6162429  44.3011352  49.8695478
   2.5621534  44.1717560  49.9383896   1.2376674  43.5626014  50.3464906
   9.9273587  42.2226343  63.8726557   9.4112635  41.4384799  63.6856486
  10.8113535  41.8945059  64.0373077   7.5884314  35.9667358  59.8322370
   7.3909135  35.6582446  60.7165702   8.1984019  36.6928997  59.9620300
  15.5955648  46.4931306  62.9674311  16.3259036  46.2316594  63.5282014
  14.9862593  45.7560028  63.0076379  13.6770945  44.6339169  63.5648762
  12.9504109  44.4995134  62.9565254  13.2618232  44.9415997  64.3705480
   1.5001122  48.3529098  71.3296135   2.4204131  48.5307697  71.5236182
   1.4650705  47.4085144  71.1775834   1.4167412  36.7698218  55.9594605
   0.6068140  36.4245303  56.3349851   2.1051829  36.4605762  56.5482216
   3.3457960  35.8476265  57.5818901   3.8988999  36.2671719  58.2408924
   3.5828047  34.9212013  57.6241857   6.7236767  37.9576790  57.0897566
   6.1435436  38.6161594  56.7075618   6.4572700  37.1354135  56.6784983
   5.1740334  37.3581848  59.2918886   5.6740112  37.4698383  58.4833205
   5.8175942  37.0542901  59.9319694   5.5061645  40.1176881  56.1453914
   4.6187500  40.4026531  55.9274109   5.9215634  39.9570644  55.2981191
   8.8576181  40.1423402  59.8608253   9.6336572  40.6319854  60.1332870
   8.1324316  40.5681456  60.3180123  11.2948740  40.8551021  60.9182194
  11.8893231  40.6146757  60.2075502  11.3675324  40.1358151  61.5455730
   4.6504859  49.8821555  50.2401934   5.3540709  50.0871558  50.8559589
   3.9267507  50.4498317  50.5051017   5.4802669  45.6331417  56.3604204
   5.4237870  46.0899968  55.5211836   6.0331011  44.8722101  56.1827047
   9.2907475  41.4221148  57.1854323   9.0344409  41.0217784  58.0162531
   8.6660343  42.1364942  57.0604463  13.6019813  44.1617222  59.6925615
  13.0419371  44.2310411  60.4657177  12.9963316  43.9858206  58.9725111
   6.5591556  50.3204085  52.2900394   7.3937160  49.8885283  52.1077869
   6.3975899  50.1486098  53.2177288   6.2137448  46.8236198  53.6556733
   6.1586252  46.6580469  52.7145177   5.5883504  47.5312231  53.8118923
   3.5283355  49.1285110  72.9810296   4.3974515  49.3025762  72.6196931
   3.0490107  49.9479527  72.8586025   3.3385693  32.9187083  57.4887988
   2.5718089  32.3645570  57.6344671   3.7496398  32.9908952  58.3502140
  15.1875831  60.8373736  62.3855571  15.8254241  60.7180483  61.6818911
  15.0696674  61.7854580  62.4443523  11.9965538  60.7901164  62.3217095
  11.6584049  60.6742228  61.4337630  12.8655306  60.3892329  62.3018101
   7.8552353  62.6436640  58.3113986   7.2917218  62.5526577  57.5430274
   7.7404748  61.8236545  58.7916479  12.4785320  61.9436015  68.2803301
  12.4673961  61.5488814  67.4083805  12.6405960  61.2102088  68.8737072
   5.4016785  64.1387832  61.1498207   6.1938077  63.7978656  60.7344506
   5.6413435  64.2482807  62.0700360  13.4351912  66.3107608  53.6228451
  12.7839892  66.8961688  53.2362465  14.2296275  66.8413803  53.6823489
   7.3607539  63.3996745  54.0215586   8.1338415  62.8525732  53.8828461
   7.7132938  64.2640994  54.2330047   9.1992582  64.7273127  67.2282485
   8.9082448  65.6318758  67.1129151   9.8349566  64.7689655  67.9426554
  10.1248788  62.1049976  63.8183844  10.7212361  61.8805998  63.1040807
  10.1823760  61.3634721  64.4209292   9.6973817  59.5589411  51.6534035
   9.9499338  59.0370932  50.8917498   8.7598376  59.3955557  51.7560719
  14.7417100  58.5625189  59.4608779  15.5280189  58.1444613  59.1099196
  15.0055804  59.4671282  59.6290427  14.9127177  63.9998040  54.1597435
  14.2773010  64.0732666  54.8718340  14.5824583  64.5891639  53.4816515
  20.1425527  58.5000423  60.3641757  20.8750699  57.9299639  60.5979587
  19.3864883  58.1122023  60.8048263   9.4170106  61.4617517  53.8558410
   9.3006364  60.7862420  54.5239495   9.5272366  60.9749891  53.0390563
  11.7601647  60.9227664  57.5605100  11.3959854  60.3958285  58.2718021
  12.6168762  60.5326133  57.3871585  17.6650947  52.2121997  64.8236366
  17.3334272  53.0817408  64.5997581  17.0696561  51.8958281  65.5030396
  11.4007134  55.9517564  52.5566448  11.5681536  56.8197800  52.9236919
  11.2104303  56.1144846  51.6327737  14.1582467  64.4134543  64.2232279
  13.8583190  65.3159582  64.1148086  13.8133526  64.1466726  65.0753431
   7.6094948  60.8648340  60.2568983   6.6845445  60.7324554  60.4646675
   7.8579361  61.6442559  60.7538925  17.5579611  56.9317083  61.9029716
  16.6496488  56.8632491  61.6088477  17.5067206  57.4089028  62.7311541
  11.3796354  58.4075221  53.5413115  11.2595980  58.8532272  54.3798595
  10.6848943  58.7560539  52.9826653   4.9703759  60.5081613  61.0912772
   5.0996140  60.7616092  62.0052184   4.2901211  61.1009321  60.7717427
   9.1403247  71.1778863  57.1903246   9.0627276  72.1286688  57.2691727
   8.5364890  70.8324736  57.8478173  11.6320476  58.3506729  69.8464613
  10.8553810  58.9100649  69.8367478  12.2711039  58.8363512  70.3679483
  19.4241257  55.1333521  63.6807590  18.7815637  55.4266055  63.0347384
  18.9196185  55.0186442  64.4860786  17.0781421  58.8796695  54.3693449
  17.9899277  59.1124081  54.1941147  16.5691068  59.4633739  53.8068528
   9.8866849  61.1592182  69.4082580  10.6281533  61.6977226  69.1317404
   9.1803834  61.7858471  69.5654132  15.3622188  63.3021322  68.0054742
  15.7705544  62.8603733  67.2609374  14.6399450  62.7273950  68.2588934
  11.7153258  58.2393929  65.3788299  12.5614453  58.6633343  65.5222948
  11.6551896  57.5827553  66.0726862  15.6851003  63.8622513  61.7607030
  15.0559865  64.0268227  61.0583098  15.2976665  64.2764123  62.5317995
  19.5640235  64.7976951  59.1151394  18.8791273  65.1775852  58.5648428
  19.6484084  65.4072278  59.8483342  14.8652704  55.8998298  67.0369472
  14.6213635  56.6540358  66.5003748  15.1412634  56.2783645  67.8716719
  16.8191166  62.4436910  65.7146738  17.0308062  63.0868670  65.0381119
  16.7720915  61.6099226  65.2468668  14.4217395  55.0554731  62.6183310
  13.5601874  55.3535984  62.9100047  14.4479830  55.2725129  61.6864343
  11.2378965  63.5996921  59.0257116  11.7017310  63.8784624  58.2361738
  10.9735763  62.6980366  58.8430206   8.1303046  63.1468403  61.9636879
   8.7004403  63.5755671  61.3254363   8.7211158  62.8650987  62.6621065
  10.1747851  59.7220073  55.8346681  10.8771894  60.1741117  56.3020607
   9.8428479  59.0803892  56.4626574   8.6228212  58.3131830  70.2097890
   7.9926873  58.9948111  70.4433287   8.5164300  58.2014912  69.2651028
   3.9173185  57.9803626  61.1363814   3.1272239  58.2361155  60.6603925
   4.4084432  58.7951964  61.2415855  17.9336994  65.3208865  63.8869095
  18.7554438  64.9189053  63.6051777  17.9299397  65.2177099  64.8385211
   5.8687930  58.3448205  58.0947291   5.0719093  58.4566900  58.6130787
   5.6413522  58.6834858  57.2288182  11.6993598  64.8692909  66.0429806
  11.7638030  65.3313316  66.8787977  10.9904522  64.2390274  66.1712115
   2.2010888  58.2334117  63.5678805   2.4518926  59.1181126  63.8336381
   2.7370436  58.0538718  62.7953897  26.0242987  61.6647614  60.2354067
  25.2706696  61.0955012  60.0798071  26.1590529  61.6310278  61.1824701
  11.4141615  66.5361016  55.9108786  11.2787290  67.3812552  56.3393634
  11.9551428  66.7380294  55.1474720   7.9008955  52.6152596  72.5723141
   7.5075901  52.0618794  73.2470785   8.7175095  52.9263174  72.9629659
   4.8671013  64.0536454  56.4836711   5.3795533  64.8479704  56.6342276
   5.5193726  63.3562745  56.4170312   6.6765898  67.1702210  58.5659464
   6.8532526  68.0920175  58.3780448   7.4722731  66.8560630  58.9953844
  10.8176916  54.0310475  70.1643398  11.5586629  54.6317628  70.0847860
  11.0494839  53.2888113  69.6061440   5.9618254  59.2166842  68.4421627
   5.8471769  58.3152100  68.7428726   5.1062772  59.4630539  68.0906444
  13.0410092  67.1584583  70.0409128  12.5973946  66.3720961  69.7230033
  13.7027305  67.3463733  69.3753019   7.7997213  68.6880384  64.5669807
   8.3504638  68.5597448  63.7946800   6.9608689  68.9875273  64.2164699
  15.1391330  67.4387383  68.0690529  15.1209805  68.2596264  67.5770798
  16.0611250  67.3141458  68.2940670  11.5964384  64.9531512  68.9114038
  12.1292721  64.1919800  68.6813346  11.0678465  64.6605164  69.6538192
  14.7634079  50.0591578  64.4407679  14.4198348  50.9493220  64.3646790
  15.1313042  49.8693236  63.5777264   2.8319930  62.3825108  57.2596282
   3.6695152  62.7922117  57.0429989   3.0098197  61.4424551  57.2296475
  14.7284362  60.0500189  52.9480115  14.2130985  60.8204794  53.1868502
  14.4561670  59.3765325  53.5713176  12.3131473  54.8949890  58.0065353
  11.4573069  54.5056740  57.8270992  12.7258425  54.9741851  57.1465138
  13.8430619  52.4296233  62.4056913  13.3395415  52.3926368  61.5924718
  14.1361226  53.3388976  62.4653569  10.0873505  52.5134963  61.4123094
  10.9526502  52.3177772  61.0528984  10.1551014  52.2845315  62.3392451
  19.7018636  62.8032544  54.8833288  18.9248079  62.4643703  54.4388450
  20.3810117  62.8085167  54.2088253  14.5170665  57.9227281  54.7739896
  14.2120800  58.2373430  55.6250039  15.4701107  58.0008701  54.8167229
  12.9617097  64.0817504  56.4232850  12.4338458  63.3470264  56.1106087
  12.4604599  64.8592181  56.1772818  17.9409943  62.2766525  61.5399896
  17.2833617  62.9665786  61.6280025  18.7450342  62.6662957  61.8833882
   7.6935824  54.7437171  58.7839461   8.2679576  54.5212352  58.0512654
   8.2806807  54.8125865  59.5368062  16.7515402  60.6310898  59.5903838
  17.2647283  61.2640890  60.0925547  17.4016625  60.0312093  59.2247198
   8.0205411  56.7741632  52.8035346   7.1842724  57.1116318  53.1244621
   7.8810181  56.6390612  51.8662483   9.9958492  51.6178420  57.5114531
   9.3422904  51.3027437  56.8871145   9.9538966  50.9954160  58.2374354
  11.1069697  61.8997715  49.4267823  10.1996759  61.6686968  49.6258972
  11.6040729  61.1035334  49.6141804  14.0137776  70.6095222  52.3464509
  13.3399475  70.9126919  52.9549467  14.4003598  71.4124302  51.9969966
  13.2296232  58.1060353  61.8362178  12.3118794  58.3275300  61.6783866
  13.6456376  58.1806664  60.9773886  14.0131280  59.5051769  56.9664859
  14.7603099  60.0173166  56.6571981  14.2822870  59.1835822  57.8269252
  12.2857930  62.0010310  53.9491813  11.3769150  61.7169342  54.0464283
  12.3153014  62.4209388  53.0895120  17.5177198  65.6116899  57.7182980
  17.0639525  64.7707809  57.7748171  16.8871164  66.2478297  58.0557761
  16.4610117  56.5408885  58.9483648  15.7232874  56.0286271  59.2793890
  16.7136891  56.1009267  58.1366925  15.9610137  67.4493396  58.6532799
  16.2533111  68.0098453  57.9345164  16.4708758  67.7421957  59.4085958
  16.5621745  49.3185137  59.5425417  16.8680621  48.4582501  59.2551332
  17.2874349  49.9102757  59.3424411   2.8546101  59.7215824  57.9307015
   2.6570501  59.1285184  57.2058082   2.2992765  59.4168034  58.6482954
  10.8342824  59.6138930  60.0501608  10.8891434  58.6612767  59.9744085
  10.0234026  59.7698369  60.5342907  11.9834018  63.5419053  51.2879891
  11.5453448  62.8254912  50.8285529  12.7244459  63.7695168  50.7264983
   8.7735184  58.2315990  57.8091987   7.9603050  58.5310161  58.2157179
   9.2694179  57.8371679  58.5266469  10.9243762  68.2273747  59.7426252
  10.8819941  68.4534593  58.8134784  11.8406461  67.9937121  59.8912053
  14.3709396  58.6957814  66.6406881  14.7258784  58.9229288  67.5001347
  15.0181527  59.0276191  66.0184136  20.1007133  61.8176250  57.3456210
  19.9625032  62.0077846  56.4177399  19.7443352  62.5795633  57.8024261
   8.2649259  55.8034345  63.4253222   8.9048638  55.6623105  62.7276185
   7.4326790  55.5168859  63.0491824  20.1276513  63.8852777  62.3567481
  20.5613019  63.7928066  63.2050535  20.8408093  63.8610278  61.7187497
   9.0409563  65.1036776  59.5388214   9.8350161  64.6087096  59.3370789
   8.3301255  64.5754639  59.1755920  13.8604407  67.4854871  63.8900582
  13.9141430  68.0545808  64.6578298  12.9919189  67.6556756  63.5254619
   5.3492326  59.2479858  55.6147967   4.4189915  59.1864313  55.8317929
   5.4449798  58.7255810  54.8184608   5.2677875  55.7734670  58.2026209
   5.5284693  56.6880004  58.0935369   6.0895048  55.3059113  58.3522822
   6.7402801  57.1872428  65.3725033   7.4125854  56.9789790  64.7237682
   5.9132587  56.9894514  64.9330266  20.9892062  63.9276478  64.8900367
  21.1827952  64.8322288  65.1359642  20.8892680  63.4683897  65.7238952
  12.6428373  53.8134369  67.3890694  11.9956288  54.5124318  67.2955171
  13.4129388  54.2470512  67.7566942  16.0507171  64.0783221  70.4641247
  15.8992677  63.8493772  69.5471331  16.0411850  65.0353822  70.4772592
  12.8192507  61.6515133  65.4487514  13.7484567  61.8026293  65.2756481
  12.3983537  61.7399154  64.5936160  11.6180839  65.6765798  63.2186052
  11.4791925  65.3084582  64.0911990  10.8295435  66.1913437  63.0470009
  12.2128991  70.7774894  54.5611588  12.3880747  70.3062938  55.3757211
  11.5261779  71.4040661  54.7892849  13.1686054  65.0547401  60.6074889
  12.8335887  65.0148171  61.5032539  12.6690000  64.3892117  60.1345300
   7.1430298  60.4615031  66.1327470   7.0050096  59.7295269  66.7339010
   8.0535222  60.3723931  65.8511658  16.1045246  62.4003435  50.8811949
  15.4874416  61.6750263  50.7845002  15.6361734  63.1612795  50.5379023
   9.7712599  60.1734990  65.6211150  10.4812217  59.5328182  65.5797769
   9.7281907  60.4247885  66.5437331  17.7599377  67.1102343  68.5417729
  17.7011924  66.4261563  67.8748312  18.1618896  67.8521333  68.0898355
   8.4841533  57.1600208  67.4406790   7.9478890  56.7090946  68.0928386
   7.8958241  57.2946117  66.6977254   6.7790076  73.9264257  61.3351448
   7.0186674  74.5582781  62.0130467   5.9359273  73.5752297  61.6216807
   7.8943792  56.6188859  50.0033253   7.0173258  56.4977660  49.6395500
   8.3701545  55.8274938  49.7512142  17.7616785  65.0741927  66.7731709
  16.8743563  64.7367849  66.8958108  18.3315336  64.3424958  67.0100474
   4.2180654  56.2956216  64.5259784   4.1338843  55.6881885  63.7910194
   3.3963360  56.7865234  64.5269280  11.2917938  69.7343380  63.7392952
  11.2188110  70.5398351  64.2512257  10.8495331  69.9335345  62.9140974
  11.0807718  68.9715150  57.2495774  10.2975240  69.5136830  57.3433998
  11.7800463  69.4889129  57.6490015  14.3904368  54.7809779  59.8929979
  14.8873067  54.0279741  59.5731049  13.6191349  54.8174096  59.3273188
  22.2434125  60.4850145  61.5348271  22.2324001  61.3674860  61.1642204
  21.3751505  60.1321695  61.3402808  13.7516622  69.6330214  65.8951111
  14.4644594  70.2677678  65.8227012  13.2606650  69.7294080  65.0791113
  15.4734149  63.5381466  57.4668403  14.5390427  63.6582929  57.2973107
  15.6510817  62.6353933  57.2028412  10.9739337  56.9227162  59.6201664
  10.6037124  56.3698202  60.3082569  11.4698429  56.3185296  59.0676664
  18.8606700  59.3798786  58.0018437  19.3267152  60.2126777  57.9278739
  19.3114200  58.9143767  58.7063695   8.8028535  67.3824657  66.7156682
   9.5037995  68.0161140  66.8686076   8.3323650  67.7239389  65.9552321
  16.9282931  65.7242607  55.0004589  17.2042775  65.6099201  55.9098463
  16.0587430  65.3260092  54.9616762  16.8323363  51.7479373  62.0409338
  15.9186442  51.9783599  62.2091545  17.2616464  51.8317817  62.8923370
  16.6029821  59.9369265  64.5409232  15.9501271  60.1845172  63.8861685
  16.9810201  59.1233403  64.2071709  13.5636995  69.9728958  58.6437402
  13.7459390  69.1550614  59.1065155  14.3869981  70.1896650  58.2062292
  13.8979160  68.8997143  55.9052451  14.4266927  68.3889597  55.2922613
  14.1607380  68.5839673  56.7697984  12.6517394  60.6789076  71.0275269
  11.9758031  60.5783205  71.6977644  13.4745028  60.5228289  71.4911266
   4.3996253  66.9161012  63.6487784   4.9849690  66.1704700  63.7815689
   4.2021092  67.2264969  64.5324448   7.2534908  69.9512260  58.6650227
   6.5845284  70.4358387  58.1814267   7.1147778  70.1981480  59.5793605
  11.3940177  71.9856003  65.2632885  11.9458485  72.1487625  66.0281970
  11.7346370  72.5760441  64.5912910   6.3704670  54.3331153  65.8654770
   6.4345997  55.1945984  65.4532168   6.3071790  53.7205154  65.1327128
   5.8456943  56.4054285  69.5127804   6.4728982  56.0231363  70.1265328
   4.9884862  56.1868487  69.8783497  16.2451051  66.8117261  71.1181540
  16.7890955  67.4247219  70.6236494  15.6637896  67.3696839  71.6348553
   2.6222486  58.2130714  55.4446159   2.9175927  57.3041393  55.3913213
   1.7210521  58.1918454  55.1227161  14.5308564  69.9337979  62.2496567
  14.4059704  69.1327718  61.7407513  15.1887655  70.4284172  61.7610537
   6.1516733  56.2886711  61.4273708   5.4303318  56.9022679  61.2881181
   6.9409988  56.8244476  61.3490353  16.5943473  67.7346999  63.8776117
  15.6473808  67.6152350  63.8054444  16.9426246  66.8469497  63.9602379
   8.9543046  53.6241138  67.7014359   9.4777448  53.8703434  68.4640669
   8.7355379  54.4561172  67.2817497   4.3510327  55.8944812  55.5685484
   4.0223033  55.0142191  55.3860590   4.7049698  55.8392481  56.4561873
  13.5989906  67.5299715  60.0780470  13.4514868  66.6016422  60.2588040
  14.4243399  67.5519806  59.5937545   7.4652150  56.1817782  55.9360962
   7.8048223  56.7103703  55.2139570   7.9124271  56.5198188  56.7119528
  17.2024028  68.3528274  61.1645342  18.1270575  68.1471135  61.0269793
  17.0339331  68.1044675  62.0734684  10.1595591  54.5654833  65.3864030
   9.8192411  53.7662646  65.7884710   9.4534597  54.8656544  64.8140863
  10.8112063  51.6504145  63.8391353  11.6338132  51.1764623  63.7170243
  11.0550126  52.4294629  64.3390039   9.4520297  54.6792404  54.1354254
  10.1728660  55.0573656  53.6317971   8.8285602  55.3981280  54.2389232
  13.5951420  55.3837553  55.0712587  13.8115035  56.2662190  54.7701415
  13.1145487  54.9923766  54.3418229   8.3350642  58.3423266  61.6483331
   8.1895222  58.6563569  62.5407613   7.8575845  58.9608166  61.0954230
  10.1947025  55.3325814  61.6964221  10.1808593  54.4366907  61.3596519
  10.9119453  55.3396477  62.3302507  12.0473155  55.7663154  63.7417348
  11.7890933  56.6880225  63.7401679  11.5158196  55.3693588  64.4317813
  16.9919344  68.8713941  56.5207434  17.1656222  68.3060364  55.7681286
  17.4848235  69.6714836  56.3386924   2.8096304  60.8828610  64.5870993
   2.2649772  61.6588418  64.7191267   3.6875654  61.2299415  64.4290114
   9.5983920  54.2140194  56.9651791   9.7199832  53.2856840  57.1642679
   9.3085963  54.2278880  56.0530107  12.4675111  51.8995104  60.1018511
  12.4896808  51.9634438  59.1470491  12.8843170  51.0599613  60.2959017
  22.8458735  61.6350364  58.1397734  23.2889881  60.8857689  57.7416857
  21.9685245  61.6260500  57.7571466  17.9794517  68.1880705  53.6204332
  18.6745421  68.8087398  53.8391647  18.3217667  67.3376057  53.8956710
   3.5962326  60.0098506  67.4801149   2.8544062  60.1581142  68.0665780
   3.2755070  60.2706772  66.6167899  19.8785940  65.6380411  55.1491663
  20.4037264  65.9767684  54.4240983  19.7908292  64.7027426  54.9654797
  11.5405988  69.5514485  67.2781539  11.8493115  69.3063631  68.1504239
  12.3381470  69.7561123  66.7900410  11.5626600  71.7052394  59.5086916
  11.1231591  71.2128773  60.2019773  12.3134717  71.1625362  59.2678991
   4.0418939  67.8963935  59.5111544   4.8676959  67.5967707  59.1310188
   3.6912991  67.1271558  59.9601333   9.0100473  67.2490403  61.5809218
   8.3880482  66.5861108  61.2811446   9.6805339  67.2751535  60.8982865
   2.2427544  65.8150262  60.4700478   1.4059453  65.3872436  60.2884479
   2.2151190  66.0082705  61.4071269   9.0825000  55.7272191  71.1741724
   9.1313156  56.6034314  70.7919493   9.6247514  55.1849584  70.6013367
  19.5679846  66.2713315  70.4542861  18.7775389  66.2537453  69.9147360
  19.3313200  66.8101608  71.2091897  19.6877721  63.1205781  67.7675589
  19.7375726  62.9555788  68.7091112  19.5791644  62.2533040  67.3773470
   8.5713979  65.7994327  55.0567678   8.7202100  66.4829791  54.4034351
   9.3780423  65.7799417  55.5717134  16.9781483  59.1036709  69.0834896
  17.8791346  58.9643174  68.7918894  17.0529458  59.2691164  70.0233073
  11.3124288  56.4803564  67.9288082  10.4427598  56.7737130  67.6570671
  11.5483769  57.0644009  68.6495346  21.1895918  65.5402723  68.0117611
  20.8980726  65.9032703  68.8481072  20.5768049  64.8269731  67.8330943
  22.3891600  63.1055602  60.5320181  23.2238491  63.5445406  60.6957741
  22.5250729  62.6294255  59.7128427  19.4383106  60.6635337  66.4797669
  19.9137227  60.8562983  65.6716520  18.5148671  60.7194523  66.2341053
   6.3266612  61.8259504  56.0628747   6.0812654  60.9221834  56.2608957
   6.4962527  61.8276655  55.1208225  14.0163322  52.6983181  65.4453503
  14.5345266  53.4344208  65.1199991  13.6618455  53.0047174  66.2800262
   5.5962260  57.5587862  53.5614909   4.9031505  57.6332217  52.9054945
   5.3514012  56.7948206  54.0836426  14.2675916  49.1183463  60.9654399
  14.5477670  48.4506652  61.5914826  15.0526523  49.3112559  60.4529063
  12.0709385  68.2942457  52.5279426  11.4983352  68.9132644  52.0749898
  12.6442179  68.8441819  53.0619348  18.1384775  57.5401097  64.7125974
  19.0902198  57.6399195  64.7338199  17.9688225  56.7479366  65.2224059
  16.1599154  54.6256680  64.8985375  15.5649086  54.9061693  64.2031864
  15.8748851  55.1150581  65.6702116  15.2906645  68.5779607  53.6588008
  16.2237318  68.5125169  53.8620883  15.2029858  69.4135874  53.2002541
  17.9194661  67.8945478  50.6191956  17.8408293  67.5605341  51.5127713
  18.7404328  68.3867246  50.6183428  20.6172853  60.7607217  63.8268274
  20.5849173  59.8223218  64.0127958  21.2273476  60.8391254  63.0934099
  12.4556183  59.6303270  49.8695478  13.4015288  59.5009478  49.9383896
  12.0770428  58.8917932  50.3464906  20.7667341  57.5518260  63.8726557
  20.2506390  56.7676717  63.6856486  21.6507290  57.2236977  64.0373077
  18.4278068  51.2959276  59.8322370  18.2302889  50.9874364  60.7165702
  19.0377774  52.0220915  59.9620300  26.4349402  61.8223224  62.9674311
  27.1652791  61.5608512  63.5282014  25.8256348  61.0851946  63.0076379
  24.5164700  59.9631086  63.5648762  23.7897863  59.8287051  62.9565254
  24.1011986  60.2707915  64.3705480  12.3394876  63.6821016  71.3296135
  13.2597885  63.8599615  71.5236182  12.3044459  62.7377061  71.1775834
  10.6399101  57.5553246  49.8050363   9.7330556  57.2586359  49.8813077
  10.9175082  57.2583064  48.9384650   1.5577041  58.8759610  60.2549410
   1.2379825  58.0224918  59.9623784   1.0110469  59.0908188  61.0107377
   5.3356949  61.5922051  63.9718916   5.5542958  62.5239158  63.9906950
   5.7482722  61.2330025  64.7573720  12.2561166  52.0990136  55.9594605
  11.4461895  51.7537221  56.3349851  12.9445583  51.7897680  56.5482216
  14.1851715  51.1768183  57.5818901  14.7382753  51.5963636  58.2408924
  14.4221801  50.2503931  57.6241857  10.2084814  57.1655256  73.3621665
  10.1081541  58.1149613  73.2933756   9.9906356  56.8373495  72.4897735
   9.4097885  54.4140181  49.9462343  10.2717049  54.7395080  50.2058160
   9.5948229  53.6271677  49.4335408   1.4265301  62.4962521  62.2242531
   0.7328772  62.0816474  61.7112486   2.1738292  62.5383058  61.6275950
  17.5630522  53.2868708  57.0897566  16.9829191  53.9453512  56.7075618
  17.2966454  52.4646053  56.6784983  16.0134088  52.6873766  59.2918886
  16.5133866  52.7990300  58.4833205  16.6569696  52.3834819  59.9319694
  10.0716084  60.5952395  72.1786727   9.5883166  61.3952755  72.3850616
  10.1577023  60.6060340  71.2254171   3.3402044  62.4280775  60.1008546
   3.3172732  62.5268462  59.1490429   3.6502680  63.2745926  60.4225712
   5.9989421  64.4856930  64.2155161   6.9532675  64.4540872  64.1485092
   5.8001945  64.0247554  65.0305387   6.5888804  63.0558046  66.7825958
   7.4081693  63.5502125  66.8060796   6.8625611  62.1390014  66.7543526
  16.3455400  55.4468798  56.1453914  15.4581255  55.7318449  55.9274109
  16.7609389  55.2862562  55.2981191  19.6969936  55.4715319  59.8608253
  20.4730326  55.9611772  60.1332870  18.9718070  55.8973374  60.3180123
  22.1342495  56.1842939  60.9182194  22.7286985  55.9438674  60.2075502
  22.2069078  55.4650069  61.5455730   4.3539650  70.0276549  61.2325359
   4.2194118  69.2676950  60.6663357   3.9371712  70.7517449  60.7654147
  15.4898613  65.2113473  50.2401934  16.1934463  65.4163476  50.8559589
  14.7661262  65.7790235  50.5051017  16.3196423  60.9623334  56.3604204
  16.2631625  61.4191886  55.5211836  16.8724766  60.2014019  56.1827047
  20.1301229  56.7513066  57.1854323  19.8738164  56.3509702  58.0162531
  19.5054097  57.4656860  57.0604463  24.4413567  59.4909139  59.6925615
  23.8813125  59.5602329  60.4657177  23.8357071  59.3150124  58.9725111
   7.5108776  70.9245866  61.4443801   7.3941160  71.8691299  61.3422491
   6.6901222  70.6219428  61.8329600  17.3985311  65.6496002  52.2900394
  18.2330915  65.2177201  52.1077869  17.2369654  65.4778016  53.2177288
  17.0531203  62.1528116  53.6556733  16.9980007  61.9872387  52.7145177
  16.4277258  62.8604148  53.8118923   1.8423718  57.3896180  67.4818155
   2.4882581  56.8795134  67.9705381   1.6340869  58.1264862  68.0561581
  14.3677110  64.4577027  72.9810296  15.2368270  64.6317680  72.6196931
  13.8883861  65.2771444  72.8586025  10.3627328  51.6536225  53.2342052
  10.3505998  52.5978064  53.3910322  11.2550750  51.4706370  52.9401513
   8.5363290  71.5774128  64.6599730   9.4390537  71.6097739  64.9766225
   8.3100660  70.6474579  64.6746065  10.2916892  70.3305115  61.3209808
   9.3412523  70.3306977  61.2074181  10.5949378  69.5837849  60.8045843
  14.1779448  48.2479001  57.4887988  13.4111844  47.6937488  57.6344671
  14.5890153  48.3200870  58.3502140   6.1821209  54.5363797  71.5793170
   7.0452670  54.1800602  71.7896494   5.6086619  54.1977692  72.2668574
  18.6946108  77.9728558  58.3113986  18.1310973  77.8818495  57.5430274
  18.5798503  77.1528462  58.7916479  16.2410540  79.4679749  61.1498207
  17.0331832  79.1270574  60.7344506  16.4807190  79.5774724  62.0700360
  24.2745666  81.6399526  53.6228451  23.6233646  82.2253606  53.2362465
  25.0690029  82.1705720  53.6823489  18.2001294  78.7288663  54.0215586
  18.9732170  78.1817650  53.8828461  18.5526692  79.5932912  54.2330047
  20.0386336  80.0565045  67.2282485  19.7476202  80.9610676  67.1129151
  20.6743320  80.0981573  67.9426554  20.9642543  77.4341893  63.8183844
  21.5606115  77.2097916  63.1040807  21.0217515  76.6926639  64.4209292
  20.5367571  74.8881329  51.6534035  20.7893092  74.3662850  50.8917498
  19.5992130  74.7247474  51.7560719  25.7520932  79.3289957  54.1597435
  25.1166765  79.4024584  54.8718340  25.4218338  79.9183556  53.4816515
  20.2563860  76.7909435  53.8558410  20.1400118  76.1154338  54.5239495
  20.3666120  76.3041809  53.0390563  22.5995401  76.2519582  57.5605100
  22.2353608  75.7250203  58.2718021  23.4562517  75.8618051  57.3871585
  22.2400888  71.2809482  52.5566448  22.4075290  72.1489718  52.9236919
  22.0498057  71.4436763  51.6327737  24.9976221  79.7426460  64.2232279
  24.6976944  80.6451499  64.1148086  24.6527281  79.4758644  65.0753431
  18.4488703  76.1940257  60.2568983  17.5239199  76.0616471  60.4646675
  18.6973116  76.9734477  60.7538925  22.2190109  73.7367139  53.5413115
  22.0989734  74.1824190  54.3798595  21.5242697  74.0852457  52.9826653
  15.8097514  75.8373531  61.0912772  15.9389895  76.0908010  62.0052184
  15.1294965  76.4301239  60.7717427  19.9797001  86.5070781  57.1903246
  19.9021031  87.4578606  57.2691727  19.3758645  86.1616653  57.8478173
  27.9175175  74.2088612  54.3693449  28.8293031  74.4415999  54.1941147
  27.4084822  74.7925656  53.8068528  20.7260603  76.4884100  69.4082580
  21.4675287  77.0269144  69.1317404  20.0197589  77.1150388  69.5654132
  26.5244757  79.1914431  61.7607030  25.8953620  79.3560145  61.0583098
  26.1370419  79.6056040  62.5317995  30.4033989  80.1268869  59.1151394
  29.7185027  80.5067770  58.5648428  30.4877839  80.7364195  59.8483342
  22.0772719  78.9288839  59.0257116  22.5411065  79.2076542  58.2361738
  21.8129517  78.0272283  58.8430206  18.9696800  78.4760320  61.9636879
  19.5398157  78.9047589  61.3254363  19.5604912  78.1942905  62.6621065
  21.0141605  75.0511991  55.8346681  21.7165649  75.5033035  56.3020607
  20.6822234  74.4095810  56.4626574  19.4621967  73.6423748  70.2097890
  18.8320627  74.3240029  70.4433287  19.3558055  73.5306829  69.2651028
  14.7566939  73.3095544  61.1363814  13.9665993  73.5653072  60.6603925
  15.2478187  74.1243882  61.2415855  28.7730749  80.6500783  63.8869095
  29.5948193  80.2480970  63.6051777  28.7693152  80.5469017  64.8385211
  16.7081685  73.6740123  58.0947291  15.9112848  73.7858817  58.6130787
  16.4807277  74.0126775  57.2288182  22.5387352  80.1984826  66.0429806
  22.6031785  80.6605234  66.8787977  21.8298276  79.5682191  66.1712115
  13.0404642  73.5626034  63.5678805  13.2912681  74.4473044  63.8336381
  13.5764191  73.3830636  62.7953897  22.2535370  81.8652934  55.9108786
  22.1181045  82.7104469  56.3393634  22.7945182  82.0672211  55.1474720
  18.7402710  67.9444514  72.5723141  18.3469655  67.3910712  73.2470785
  19.5568850  68.2555092  72.9629659  15.7064767  79.3828372  56.4836711
  16.2189288  80.1771622  56.6342276  16.3587480  78.6854662  56.4170312
  17.5159652  82.4994128  58.5659464  17.6926280  83.4212093  58.3780448
  18.3116486  82.1852547  58.9953844  21.6570671  69.3602393  70.1643398
  22.3980384  69.9609546  70.0847860  21.8888593  68.6180031  69.6061440
  16.8012009  74.5458760  68.4421627  16.6865524  73.6444017  68.7428726
  15.9456526  74.7922457  68.0906444  23.8803846  82.4876500  70.0409128
  23.4367700  81.7012879  69.7230033  24.5421060  82.6755651  69.3753019
  18.6390967  84.0172302  64.5669807  19.1898393  83.8889365  63.7946800
  17.8002443  84.3167191  64.2164699  25.9785084  82.7679300  68.0690529
  25.9603560  83.5888181  67.5770798  26.9005004  82.6433375  68.2940670
  22.4358139  80.2823430  68.9114038  22.9686475  79.5211718  68.6813346
  21.9072220  79.9897082  69.6538192  13.6713684  77.7117026  57.2596282
  14.5088906  78.1214034  57.0429989  13.8491952  76.7716468  57.2296475
  25.5678116  75.3792107  52.9480115  25.0524740  76.1496711  53.1868502
  25.2955425  74.7057243  53.5713176  23.1525227  70.2241808  58.0065353
  22.2966824  69.8348658  57.8270992  23.5652179  70.3033768  57.1465138
  20.9267260  67.8426881  61.4123094  21.7920257  67.6469689  61.0528984
  20.9944769  67.6137232  62.3392451  30.5412390  78.1324461  54.8833288
  29.7641833  77.7935621  54.4388450  31.2203871  78.1377085  54.2088253
  25.3564419  73.2519199  54.7739896  25.0514555  73.5665348  55.6250039
  26.3094862  73.3300619  54.8167229  23.8010851  79.4109422  56.4232850
  23.2732213  78.6762182  56.1106087  23.2998354  80.1884099  56.1772818
  18.5329579  70.0729088  58.7839461  19.1073331  69.8504270  58.0512654
  19.1200561  70.1417783  59.5368062  18.8599166  72.1033549  52.8035346
  18.0236478  72.4408236  53.1244621  18.7203936  71.9682529  51.8662483
  20.8352247  66.9470337  57.5114531  20.1816659  66.6319355  56.8871145
  20.7932721  66.3246078  58.2374354  21.9463451  77.2289632  49.4267823
  21.0390513  76.9978886  49.6258972  22.4434483  76.4327252  49.6141804
  24.8531530  85.9387140  52.3464509  24.1793229  86.2418836  52.9549467
  25.2397352  86.7416220  51.9969966  23.1251685  77.3302227  53.9491813
  22.2162904  77.0461260  54.0464283  23.1546769  77.7501306  53.0895120
  28.3570952  80.9408817  57.7182980  27.9033279  80.0999727  57.7748171
  27.7264919  81.5770215  58.0557761  26.8003892  82.7785313  58.6532799
  27.0926866  83.3390371  57.9345164  27.3102512  83.0713874  59.4085958
  27.4015499  64.6477055  59.5425417  27.7074376  63.7874418  59.2551332
  28.1268104  65.2394675  59.3424411  13.6939855  75.0507741  57.9307015
  13.4964255  74.4577102  57.2058082  13.1386519  74.7459952  58.6482954
  22.8227773  78.8710971  51.2879891  22.3847203  78.1546830  50.8285529
  23.5638214  79.0987086  50.7264983  19.6128939  73.5607908  57.8091987
  18.7996804  73.8602078  58.2157179  20.1087933  73.1663596  58.5266469
  21.7637517  83.5565665  59.7426252  21.7213695  83.7826511  58.8134784
  22.6800216  83.3229039  59.8912053  30.9400887  77.1468168  57.3456210
  30.8018786  77.3369764  56.4177399  30.5837106  77.9087551  57.8024261
  19.1043014  71.1326263  63.4253222  19.7442393  70.9915022  62.7276185
  18.2720544  70.8460777  63.0491824  19.8803317  80.4328694  59.5388214
  20.6743916  79.9379014  59.3370789  19.1695010  79.9046557  59.1755920
  24.6998162  82.8146789  63.8900582  24.7535184  83.3837725  64.6578298
  23.8312943  82.9848674  63.5254619  16.1886081  74.5771775  55.6147967
  15.2583669  74.5156231  55.8317929  16.2843553  74.0547728  54.8184608
  16.1071630  71.1026588  58.2026209  16.3678447  72.0171921  58.0935369
  16.9288802  70.6351031  58.3522822  17.5796555  72.5164345  65.3725033
  18.2519609  72.3081707  64.7237682  16.7526342  72.3186431  64.9330266
  22.4574593  81.0057716  63.2186052  22.3185679  80.6376500  64.0911990
  21.6689190  81.5205355  63.0470009  23.0522745  86.1066812  54.5611588
  23.2274501  85.6354855  55.3757211  22.3655533  86.7332578  54.7892849
  24.0079809  80.3839318  60.6074889  23.6729641  80.3440088  61.5032539
  23.5083754  79.7184034  60.1345300  17.9824053  75.7906948  66.1327470
  17.8443851  75.0587187  66.7339010  18.8928976  75.7015848  65.8511658
  26.9439000  77.7295353  50.8811949  26.3268171  77.0042181  50.7845002
  26.4755489  78.4904713  50.5379023  28.5993132  82.4394261  68.5417729
  28.5405678  81.7553481  67.8748312  29.0012650  83.1813251  68.0898355
  17.6183831  89.2556175  61.3351448  17.8580429  89.8874699  62.0130467
  16.7753027  88.9044215  61.6216807  18.7337546  71.9480777  50.0033253
  17.8567012  71.8269578  49.6395500  19.2095299  71.1566855  49.7512142
  28.6010539  80.4033845  66.7731709  27.7137318  80.0659767  66.8958108
  29.1709090  79.6716876  67.0100474  10.2539686  76.7357937  60.0974760
  10.9410726  76.4219667  59.5095776  10.0987815  77.6399301  59.8242012
  15.0574408  71.6248133  64.5259784  14.9732597  71.0173803  63.7910194
  14.2357115  72.1157152  64.5269280  22.1311693  85.0635297  63.7392952
  22.0581864  85.8690269  64.2512257  21.6889086  85.2627263  62.9140974
  21.9201472  84.3007067  57.2495774  21.1368994  84.8428747  57.3433998
  22.6194217  84.8181047  57.6490015  24.5910376  84.9622131  65.8951111
  25.3038348  85.5969596  65.8227012  24.1000405  85.0585997  65.0791113
  26.3127903  78.8673384  57.4668403  25.3784182  78.9874846  57.2973107
  26.4904571  77.9645851  57.2028412  19.6422290  82.7116575  66.7156682
  20.3431749  83.3453058  66.8686076  19.1717405  83.0531306  65.9552321
  27.7676685  81.0534525  55.0004589  28.0436529  80.9391119  55.9098463
  26.8981184  80.6552009  54.9616762  24.4030749  85.3020875  58.6437402
  24.5853144  84.4842531  59.1065155  25.2263736  85.5188568  58.2062292
  24.7372915  84.2289061  55.9052451  25.2660681  83.7181515  55.2922613
  25.0001135  83.9131591  56.7697984  15.2390008  82.2452930  63.6487784
  15.8243445  81.4996618  63.7815689  15.0414846  82.5556887  64.5324448
  18.0928663  85.2804177  58.6650227  17.4239038  85.7650305  58.1814267
  17.9541533  85.5273398  59.5793605   9.8307662  74.8158530  62.3692228
   9.8691762  74.2822121  63.1629346   9.3247955  74.2893736  61.7503205
  22.2333932  87.3147921  65.2632885  22.7852240  87.4779542  66.0281970
  22.5740125  87.9052359  64.5912910  17.2098425  69.6623071  65.8654770
  17.2739751  70.5237901  65.4532168  17.1465545  69.0497072  65.1327128
  16.6850697  71.7346203  69.5127804  17.3122736  71.3523280  70.1265328
  15.8278616  71.5160405  69.8783497  27.0844806  82.1409178  71.1181540
  27.6284710  82.7539136  70.6236494  26.5031651  82.6988757  71.6348553
  13.4616240  73.5422632  55.4446159  13.7569681  72.6333311  55.3913213
  12.5604276  73.5210372  55.1227161  25.3702319  85.2629896  62.2496567
  25.2453458  84.4619636  61.7407513  26.0281410  85.7576090  61.7610537
  16.9910487  71.6178629  61.4273708  16.2697073  72.2314596  61.2881181
  17.7803743  72.1536394  61.3490353  27.4337227  83.0638916  63.8776117
  26.4867563  82.9444268  63.8054444  27.7820000  82.1761414  63.9602379
  19.7936801  68.9533055  67.7014359  20.3171202  69.1995352  68.4640669
  19.5749134  69.7853090  67.2817497  15.1904082  71.2236730  55.5685484
  14.8616788  70.3434109  55.3860590  15.5443452  71.1684399  56.4561873
  24.4383660  82.8591633  60.0780470  24.2908623  81.9308340  60.2588040
  25.2637154  82.8811723  59.5937545  18.3045905  71.5109700  55.9360962
  18.6441977  72.0395621  55.2139570  18.7518025  71.8490106  56.7119528
  28.0417782  83.6820191  61.1645342  28.9664330  83.4763053  61.0269793
  27.8733086  83.4336592  62.0734684  21.6505817  66.9796063  63.8391353
  22.4731887  66.5056541  63.7170243  21.8943881  67.7586547  64.3390039
  20.2914052  70.0084321  54.1354254  21.0122414  70.3865574  53.6317971
  19.6679356  70.7273198  54.2389232  24.4345175  70.7129470  55.0712587
  24.6508789  71.5954108  54.7701415  23.9539242  70.3215684  54.3418229
  19.1744396  73.6715183  61.6483331  19.0288977  73.9855486  62.5407613
  18.6969600  74.2900084  61.0954230  21.0340779  70.6617731  61.6964221
  21.0202348  69.7658825  61.3596519  21.7513207  70.6688395  62.3302507
  27.8313099  84.2005859  56.5207434  28.0049976  83.6352281  55.7681286
  28.3241990  85.0006754  56.3386924  13.6490058  76.2120528  64.5870993
  13.1043526  76.9880336  64.7191267  14.5269408  76.5591332  64.4290114
  20.4377675  69.5432112  56.9651791  20.5593586  68.6148758  57.1642679
  20.1479717  69.5570798  56.0530107  23.3068865  67.2287022  60.1018511
  23.3290562  67.2926355  59.1470491  23.7236924  66.3891531  60.2959017
  33.6852490  76.9642282  58.1397734  34.1283636  76.2149607  57.7416857
  32.8079000  76.9552418  57.7571466  28.8188271  83.5172623  53.6204332
  29.5139176  84.1379316  53.8391647  29.1611421  82.6667974  53.8956710
  14.4356080  75.3390424  67.4801149  13.6937816  75.4873059  68.0665780
  14.1148824  75.5998690  66.6167899  30.7179694  80.9672329  55.1491663
  31.2431018  81.3059601  54.4240983  30.6302047  80.0319344  54.9654797
  22.3799743  84.8806402  67.2781539  22.6886869  84.6355549  68.1504239
  23.1775225  85.0853041  66.7900410  22.4020355  87.0344312  59.5086916
  21.9625345  86.5420691  60.2019773  23.1528472  86.4917280  59.2678991
  14.8812694  83.2255853  59.5111544  15.7070714  82.9259625  59.1310188
  14.5306746  82.4563475  59.9601333  19.8494227  82.5782321  61.5809218
  19.2274236  81.9153026  61.2811446  20.5199094  82.6043453  60.8982865
  13.0821299  81.1442179  60.4700478  12.2453207  80.7164354  60.2884479
  13.0544944  81.3374623  61.4071269  19.9218755  71.0564109  71.1741724
  19.9706910  71.9326232  70.7919493  20.4641269  70.5141502  70.6013367
  30.4073600  81.6005232  70.4542861  29.6169144  81.5829371  69.9147360
  30.1706955  82.1393526  71.2091897  19.4107734  81.1286244  55.0567678
  19.5595854  81.8121709  54.4034351  20.2174177  81.1091334  55.5717134
  32.0289672  80.8694640  68.0117611  31.7374480  81.2324621  68.8481072
  31.4161803  80.1561648  67.8330943  33.2285354  78.4347520  60.5320181
  34.0632246  78.8737324  60.6957741  33.3644483  77.9586173  59.7128427
  17.1660367  77.1551422  56.0628747  16.9206409  76.2513752  56.2608957
  17.3356281  77.1568572  55.1208225  16.4356014  72.8879780  53.5614909
  15.7425259  72.9624135  52.9054945  16.1907766  72.1240123  54.0836426
  25.1069671  64.4475381  60.9654399  25.3871425  63.7798570  61.5914826
  25.8920278  64.6404477  60.4529063  22.9103139  83.6234375  52.5279426
  22.3377107  84.2424562  52.0749898  23.4835933  84.1733736  53.0619348
  26.1300399  83.9071525  53.6588008  27.0631072  83.8417087  53.8620883
  26.0423612  84.7427792  53.2002541  28.7588416  83.2237395  50.6191956
  28.6802047  82.8897259  51.5127713  29.5798083  83.7159163  50.6183428
  23.2949938  74.9595188  49.8695478  24.2409043  74.8301396  49.9383896
  22.9164183  74.2209849  50.3464906  29.2671823  66.6251194  59.8322370
  29.0696644  66.3166282  60.7165702  29.8771528  67.3512832  59.9620300
  23.1788630  79.0112934  71.3296135  24.0991640  79.1891533  71.5236182
  23.1438214  78.0668979  71.1775834  21.4792855  72.8845164  49.8050363
  20.5724311  72.5878277  49.8813077  21.7568836  72.5874982  48.9384650
  12.3970795  74.2051527  60.2549410  12.0773580  73.3516836  59.9623784
  11.8504224  74.4200106  61.0107377  16.1750703  76.9213968  63.9718916
  16.3936713  77.8531076  63.9906950  16.5876477  76.5621943  64.7573720
  23.0954921  67.4282054  55.9594605  22.2855649  67.0829139  56.3349851
  23.7839338  67.1189597  56.5482216  25.0245469  66.5060100  57.5818901
  25.5776508  66.9255554  58.2408924  25.2615555  65.5795849  57.6241857
  21.0478568  72.4947174  73.3621665  20.9475295  73.4441531  73.2933756
  20.8300110  72.1665413  72.4897735  20.2491640  69.7432099  49.9462343
  21.1110804  70.0686997  50.2058160  20.4341984  68.9563595  49.4335408
  12.2659056  77.8254439  62.2242531  11.5722527  77.4108392  61.7112486
  13.0132047  77.8674975  61.6275950  26.8527843  68.0165683  59.2918886
  27.3527621  68.1282218  58.4833205  27.4963451  67.7126736  59.9319694
  20.9109838  75.9244313  72.1786727  20.4276920  76.7244673  72.3850616
  20.9970777  75.9352258  71.2254171  14.1795798  77.7572693  60.1008546
  14.1566486  77.8560380  59.1490429  14.4896435  78.6037843  60.4225712
  16.8383176  79.8148848  64.2155161  17.7926429  79.7832790  64.1485092
  16.6395699  79.3539471  65.0305387  17.4282558  78.3849964  66.7825958
  18.2475447  78.8794042  66.8060796  17.7019366  77.4681932  66.7543526
  27.1849154  70.7760716  56.1453914  26.2975009  71.0610367  55.9274109
  27.6003143  70.6154479  55.2981191  15.1933405  85.3568467  61.2325359
  15.0587873  84.5968868  60.6663357  14.7765467  86.0809367  60.7654147
  26.3292368  80.5405391  50.2401934  27.0328218  80.7455393  50.8559589
  25.6055016  81.1082153  50.5051017  27.1590178  76.2915252  56.3604204
  27.1025379  76.7483803  55.5211836  27.7118520  75.5305937  56.1827047
  35.2807322  74.8201057  59.6925615  34.7206880  74.8894246  60.4657177
  34.6750825  74.6442042  58.9725111  18.3502531  86.2537784  61.4443801
  18.2334915  87.1983217  61.3422491  17.5294977  85.9511346  61.8329600
  28.2379065  80.9787920  52.2900394  29.0724669  80.5469118  52.1077869
  28.0763408  80.8069934  53.2177288  27.8924957  77.4820033  53.6556733
  27.8373761  77.3164305  52.7145177  27.2671013  78.1896066  53.8118923
  12.6817472  72.7188098  67.4818155  13.3276336  72.2087052  67.9705381
  12.4734623  73.4556779  68.0561581  25.2070864  79.7868945  72.9810296
  26.0762024  79.9609597  72.6196931  24.7277616  80.6063362  72.8586025
  21.2021083  66.9828142  53.2342052  21.1899753  67.9269982  53.3910322
  22.0944505  66.7998288  52.9401513  19.3757045  86.9066046  64.6599730
  20.2784291  86.9389656  64.9766225  19.1494415  85.9766497  64.6746065
  21.1310647  85.6597033  61.3209808  20.1806278  85.6598894  61.2074181
  21.4343133  84.9129767  60.8045843  25.0173202  63.5770919  57.4887988
  24.2505598  63.0229406  57.6344671  25.4283907  63.6492788  58.3502140
  17.0214963  69.8655715  71.5793170  17.8846425  69.5092519  71.7896494
  16.4480374  69.5269609  72.2668574  36.8663340  91.4957571  62.3855571
  37.5041750  91.3764318  61.6818911  36.7484183  92.4438415  62.4443523
  33.6753046  91.4484999  62.3217095  33.3371558  91.3326064  61.4337630
  34.5442815  91.0476164  62.3018101  29.5339862  93.3020476  58.3113986
  28.9704727  93.2110412  57.5430274  29.4192257  92.4820380  58.7916479
  34.1572829  92.6019851  68.2803301  34.1461470  92.2072649  67.4083805
  34.3193469  91.8685923  68.8737072  27.0804294  94.7971667  61.1498207
  27.8725586  94.4562492  60.7344506  27.3200944  94.9066642  62.0700360
  35.1139421  96.9691443  53.6228451  34.4627401  97.5545524  53.2362465
  35.9083784  97.4997638  53.6823489  29.0395048  94.0580580  54.0215586
  29.8125924  93.5109567  53.8828461  29.3920447  94.9224830  54.2330047
  30.8780091  95.3856963  67.2282485  30.5869957  96.2902593  67.1129151
  31.5137075  95.4273490  67.9426554  31.8036297  92.7633811  63.8183844
  32.3999870  92.5389834  63.1040807  31.8611269  92.0218557  64.4209292
  31.3761326  90.2173246  51.6534035  31.6286847  89.6954768  50.8917498
  30.4385885  90.0539392  51.7560719  36.4204609  89.2209025  59.4608779
  37.2067698  88.8028448  59.1099196  36.6843313  90.1255117  59.6290427
  36.5914686  94.6581875  54.1597435  35.9560519  94.7316502  54.8718340
  36.2612092  95.2475474  53.4816515  41.8213036  89.1584258  60.3641757
  42.5538208  88.5883475  60.5979587  41.0652392  88.7705858  60.8048263
  31.0957615  92.1201352  53.8558410  30.9793873  91.4446256  54.5239495
  31.2059875  91.6333726  53.0390563  33.4389156  91.5811500  57.5605100
  33.0747363  91.0542121  58.2718021  34.2956271  91.1909969  57.3871585
  39.3438456  82.8705832  64.8236366  39.0121781  83.7401243  64.5997581
  38.7484070  82.5542116  65.5030396  33.0794643  86.6101399  52.5566448
  33.2469045  87.4781636  52.9236919  32.8891812  86.7728681  51.6327737
  35.8369976  95.0718378  64.2232279  35.5370699  95.9743417  64.1148086
  35.4921035  94.8050561  65.0753431  29.2882457  91.5232175  60.2568983
  28.3632954  91.3908389  60.4646675  29.5366870  92.3026394  60.7538925
  39.2367119  87.5900918  61.9029716  38.3283997  87.5216327  61.6088477
  39.1854715  88.0672863  62.7311541  33.0583863  89.0659057  53.5413115
  32.9383489  89.5116107  54.3798595  32.3636452  89.4144374  52.9826653
  26.6491268  91.1665449  61.0912772  26.7783649  91.4199927  62.0052184
  25.9688720  91.7593157  60.7717427  30.8190756 101.8362698  57.1903246
  30.7414785 102.7870524  57.2691727  30.2152399 101.4908571  57.8478173
  33.3107985  89.0090564  69.8464613  32.5341319  89.5684484  69.8367478
  33.9498548  89.4947347  70.3679483  41.1028766  85.7917357  63.6807590
  40.4603146  86.0849890  63.0347384  40.5983694  85.6770277  64.4860786
  38.7568930  89.5380530  54.3693449  39.6686786  89.7707917  54.1941147
  38.2478577  90.1217574  53.8068528  31.5654358  91.8176017  69.4082580
  32.3069042  92.3561061  69.1317404  30.8591343  92.4442306  69.5654132
  37.0409697  93.9605158  68.0054742  37.4493053  93.5187568  67.2609374
  36.3186959  93.3857785  68.2588934  33.3940767  88.8977765  65.3788299
  34.2401962  89.3217178  65.5222948  33.3339405  88.2411389  66.0726862
  37.3638512  94.5206348  61.7607030  36.7347374  94.6852062  61.0583098
  36.9764174  94.9347958  62.5317995  41.2427744  95.4560786  59.1151394
  40.5578782  95.8359688  58.5648428  41.3271593  96.0656113  59.8483342
  36.5440213  86.5582133  67.0369472  36.3001144  87.3124193  66.5003748
  36.8200143  86.9367480  67.8716719  38.4978675  93.1020745  65.7146738
  38.7095571  93.7452505  65.0381119  38.4508424  92.2683062  65.2468668
  36.1004904  85.7138566  62.6183310  35.2389383  86.0119819  62.9100047
  36.1267339  85.9308965  61.6864343  32.9166474  94.2580756  59.0257116
  33.3804819  94.5368459  58.2361738  32.6523272  93.3564201  58.8430206
  29.8090555  93.8052238  61.9636879  30.3791912  94.2339506  61.3254363
  30.3998667  93.5234823  62.6621065  31.8535360  90.3803909  55.8346681
  32.5559403  90.8324952  56.3020607  31.5215988  89.7387728  56.4626574
  30.3015721  88.9715665  70.2097890  29.6714382  89.6531946  70.4433287
  30.1951809  88.8598747  69.2651028  25.5960694  88.6387461  61.1363814
  24.8059748  88.8944990  60.6603925  26.0871941  89.4535799  61.2415855
  39.6124503  95.9792701  63.8869095  40.4341947  95.5772888  63.6051777
  39.6086906  95.8760935  64.8385211  27.5475439  89.0032041  58.0947291
  26.7506602  89.1150735  58.6130787  27.3201031  89.3418693  57.2288182
  33.3781107  95.5276744  66.0429806  33.4425539  95.9897151  66.8787977
  32.6692031  94.8974109  66.1712115  23.8798397  88.8917952  63.5678805
  24.1306435  89.7764962  63.8336381  24.4157945  88.7122553  62.7953897
  47.7030496  92.3231449  60.2354067  46.9494205  91.7538847  60.0798071
  47.8378038  92.2894114  61.1824701  33.0929124  97.1944851  55.9108786
  32.9574799  98.0396387  56.3393634  33.6338937  97.3964129  55.1474720
  29.5796464  83.2736431  72.5723141  29.1863410  82.7202630  73.2470785
  30.3962604  83.5847010  72.9629659  26.5458522  94.7120289  56.4836711
  27.0583042  95.5063540  56.6342276  27.1981235  94.0146580  56.4170312
  28.3553407  97.8286046  58.5659464  28.5320035  98.7504010  58.3780448
  29.1510240  97.5144465  58.9953844  32.4964425  84.6894310  70.1643398
  33.2374138  85.2901464  70.0847860  32.7282348  83.9471948  69.6061440
  27.6405763  89.8750678  68.4421627  27.5259278  88.9735935  68.7428726
  26.7850281  90.1214374  68.0906444  34.7197601  97.8168418  70.0409128
  34.2761455  97.0304797  69.7230033  35.3814814  98.0047568  69.3753019
  29.4784722  99.3464220  64.5669807  30.0292147  99.2181283  63.7946800
  28.6396198  99.6459109  64.2164699  36.8178839  98.0971218  68.0690529
  36.7997314  98.9180099  67.5770798  37.7398759  97.9725293  68.2940670
  33.2751893  95.6115347  68.9114038  33.8080230  94.8503636  68.6813346
  32.7465974  95.3188999  69.6538192  24.5107439  93.0408944  57.2596282
  25.3482661  93.4505952  57.0429989  24.6885706  92.1008386  57.2296475
  36.4071871  90.7084024  52.9480115  35.8918494  91.4788629  53.1868502
  36.1349179  90.0349161  53.5713176  33.9918982  85.5533725  58.0065353
  33.1360578  85.1640576  57.8270992  34.4045934  85.6325686  57.1465138
  35.5218128  83.0880068  62.4056913  35.0182924  83.0510204  61.5924718
  35.8148735  83.9972811  62.4653569  31.7661014  83.1718798  61.4123094
  32.6314011  82.9761607  61.0528984  31.8338523  82.9429150  62.3392451
  41.3806145  93.4616379  54.8833288  40.6035588  93.1227539  54.4388450
  42.0597626  93.4669002  54.2088253  36.1958174  88.5811117  54.7739896
  35.8908309  88.8957266  55.6250039  37.1488616  88.6592536  54.8167229
  34.6404606  94.7401340  56.4232850  34.1125967  94.0054099  56.1106087
  34.1392108  95.5176016  56.1772818  39.6197452  92.9350360  61.5399896
  38.9621126  93.6249622  61.6280025  40.4237851  93.3246792  61.8833882
  29.3723333  85.4021006  58.7839461  29.9467085  85.1796188  58.0512654
  29.9594316  85.4709701  59.5368062  38.4302911  91.2894733  59.5903838
  38.9434792  91.9224725  60.0925547  39.0804134  90.6895929  59.2247198
  29.6992920  87.4325467  52.8035346  28.8630233  87.7700154  53.1244621
  29.5597690  87.2974447  51.8662483  31.6746001  82.2762255  57.5114531
  31.0210413  81.9611272  56.8871145  31.6326475  81.6537995  58.2374354
  32.7857206  92.5581550  49.4267823  31.8784268  92.3270804  49.6258972
  33.2828238  91.7619169  49.6141804  35.6925285 101.2679057  52.3464509
  35.0186984 101.5710754  52.9549467  36.0791107 102.0708138  51.9969966
  34.9083741  88.7644189  61.8362178  33.9906303  88.9859136  61.6783866
  35.3243885  88.8390499  60.9773886  35.6918789  90.1635604  56.9664859
  36.4390608  90.6757001  56.6571981  35.9610379  89.8419657  57.8269252
  33.9645439  92.6594145  53.9491813  33.0556659  92.3753178  54.0464283
  33.9940523  93.0793224  53.0895120  39.1964707  96.2700734  57.7182980
  38.7427034  95.4291644  57.7748171  38.5658673  96.9062133  58.0557761
  38.1397626  87.1992721  58.9483648  37.4020383  86.6870107  59.2793890
  38.3924400  86.7593102  58.1366925  37.6397646  98.1077231  58.6532799
  37.9320620  98.6682288  57.9345164  38.1496267  98.4005792  59.4085958
  38.2409254  79.9768973  59.5425417  38.5468130  79.1166336  59.2551332
  38.9661858  80.5686593  59.3424411  24.5333610  90.3799659  57.9307015
  24.3358010  89.7869020  57.2058082  23.9780274  90.0751869  58.6482954
  32.5130333  90.2722766  60.0501608  32.5678943  89.3196602  59.9744085
  31.7021535  90.4282205  60.5342907  33.6621527  94.2002889  51.2879891
  33.2240957  93.4838748  50.8285529  34.4031968  94.4279003  50.7264983
  30.4522693  88.8899825  57.8091987  29.6390559  89.1893996  58.2157179
  30.9481687  88.4955514  58.5266469  32.6031271  98.8857582  59.7426252
  32.5607450  99.1118429  58.8134784  33.5193970  98.6520957  59.8912053
  36.0496905  89.3541650  66.6406881  36.4046293  89.5813123  67.5001347
  36.6969036  89.6860027  66.0184136  41.7794642  92.4760086  57.3456210
  41.6412541  92.6661682  56.4177399  41.4230861  93.2379469  57.8024261
  29.9436768  86.4618181  63.4253222  30.5836147  86.3206940  62.7276185
  29.1114299  86.1752694  63.0491824  41.8064022  94.5436613  62.3567481
  42.2400528  94.4511902  63.2050535  42.5195602  94.5194113  61.7187497
  30.7197072  95.7620611  59.5388214  31.5137670  95.2670931  59.3370789
  30.0088764  95.2338474  59.1755920  35.5391916  98.1438707  63.8900582
  35.5928939  98.7129643  64.6578298  34.6706698  98.3140592  63.5254619
  27.0279835  89.9063693  55.6147967  26.0977424  89.8448148  55.8317929
  27.1237307  89.3839646  54.8184608  26.9465384  86.4318506  58.2026209
  27.2072202  87.3463839  58.0935369  27.7682557  85.9642948  58.3522822
  28.4190310  87.8456263  65.3725033  29.0913363  87.6373625  64.7237682
  27.5920096  87.6478349  64.9330266  42.6679571  94.5860313  64.8900367
  42.8615461  95.4906124  65.1359642  42.5680189  94.1267732  65.7238952
  34.3215882  84.4718204  67.3890694  33.6743797  85.1708154  67.2955171
  35.0916897  84.9054348  67.7566942  37.7294680  94.7367056  70.4641247
  37.5780186  94.5077608  69.5471331  37.7199359  95.6937658  70.4772592
  34.4980016  92.3098969  65.4487514  35.4272076  92.4610128  65.2756481
  34.0771046  92.3982990  64.5936160  33.2968348  96.3349633  63.2186052
  33.1579434  95.9668418  64.0911990  32.5082944  96.8497273  63.0470009
  33.8916500 101.4358730  54.5611588  34.0668256 100.9646773  55.3757211
  33.2049288 102.0624496  54.7892849  34.8473563  95.7131236  60.6074889
  34.5123396  95.6732006  61.5032539  34.3477509  95.0475952  60.1345300
  28.8217807  91.1198866  66.1327470  28.6837605  90.3879105  66.7339010
  29.7322731  91.0307766  65.8511658  37.7832755  93.0587270  50.8811949
  37.1661925  92.3334098  50.7845002  37.3149243  93.8196631  50.5379023
  31.4500108  90.8318825  65.6211150  32.1599726  90.1912017  65.5797769
  31.4069416  91.0831720  66.5437331  39.4386886  97.7686179  68.5417729
  39.3799433  97.0845399  67.8748312  39.8406405  98.5105169  68.0898355
  30.1629042  87.8184043  67.4406790  29.6266399  87.3674782  68.0928386
  29.5745750  87.9529952  66.6977254  28.4577585 104.5848092  61.3351448
  28.6974183 105.2166617  62.0130467  27.6146782 104.2336133  61.6216807
  29.5731301  87.2772695  50.0033253  28.6960767  87.1561495  49.6395500
  30.0489054  86.4858773  49.7512142  39.4404294  95.7325763  66.7731709
  38.5531072  95.3951684  66.8958108  40.0102845  95.0008794  67.0100474
  21.0933441  92.0649854  60.0974760  21.7804481  91.7511584  59.5095776
  20.9381569  92.9691219  59.8242012  25.8968163  86.9540051  64.5259784
  25.8126352  86.3465720  63.7910194  25.0750869  87.4449069  64.5269280
  32.9705447 100.3927215  63.7392952  32.8975619 101.1982186  64.2512257
  32.5282840 100.5919181  62.9140974  32.7595227  99.6298985  57.2495774
  31.9762749 100.1720665  57.3433998  33.4587972 100.1472965  57.6490015
  36.0691877  85.4393614  59.8929979  36.5660576  84.6863577  59.5731049
  35.2978858  85.4757931  59.3273188  43.9221634  91.1433980  61.5348271
  43.9111510  92.0258695  61.1642204  43.0539014  90.7905531  61.3402808
  35.4304131 100.2914049  65.8951111  36.1432103 100.9261514  65.8227012
  34.9394159 100.3877915  65.0791113  37.1521658  94.1965302  57.4668403
  36.2177936  94.3166764  57.2973107  37.3298326  93.2937768  57.2028412
  32.6526846  87.5810997  59.6201664  32.2824633  87.0282038  60.3082569
  33.1485938  86.9769131  59.0676664  40.5394209  90.0382621  58.0018437
  41.0054661  90.8710613  57.9278739  40.9901709  89.5727602  58.7063695
  30.4816044  98.0408492  66.7156682  31.1825504  98.6744975  66.8686076
  30.0111159  98.3823224  65.9552321  38.6070440  96.3826442  55.0004589
  38.8830284  96.2683037  55.9098463  37.7374939  95.9843927  54.9616762
  38.2817330  90.5953100  64.5409232  37.6288780  90.8429007  63.8861685
  38.6597710  89.7817238  64.2071709  35.2424504 100.6312793  58.6437402
  35.4246899  99.8134449  59.1065155  36.0657490 100.8480485  58.2062292
  35.5766669  99.5580978  55.9052451  36.1054436  99.0473433  55.2922613
  35.8394889  99.2423508  56.7697984  34.3304903  91.3372911  71.0275269
  33.6545540  91.2367040  71.6977644  35.1532537  91.1812125  71.4911266
  26.0783762  97.5744847  63.6487784  26.6637199  96.8288535  63.7815689
  25.8808601  97.8848804  64.5324448  28.9322417 100.6096095  58.6650227
  28.2632793 101.0942222  58.1814267  28.7935287 100.8565315  59.5793605
  20.6701417  90.1450448  62.3692228  20.7085516  89.6114038  63.1629346
  20.1641710  89.6185653  61.7503205  33.0727686 102.6439838  65.2632885
  33.6245994 102.8071460  66.0281970  33.4133879 103.2344276  64.5912910
  28.0492179  84.9914988  65.8654770  28.1133506  85.8529819  65.4532168
  27.9859299  84.3788990  65.1327128  27.5244452  87.0638121  69.5127804
  28.1516491  86.6815198  70.1265328  26.6672371  86.8452323  69.8783497
  37.9238560  97.4701096  71.1181540  38.4678464  98.0831054  70.6236494
  37.3425405  98.0280674  71.6348553  24.3009995  88.8714550  55.4446159
  24.5963436  87.9625228  55.3913213  23.3998030  88.8502289  55.1227161
  36.2096073 100.5921814  62.2496567  36.0847213  99.7911554  61.7407513
  36.8675164 101.0868007  61.7610537  27.8304242  86.9470546  61.4273708
  27.1090827  87.5606514  61.2881181  28.6197497  87.4828311  61.3490353
  38.2730982  98.3930834  63.8776117  37.3261317  98.2736185  63.8054444
  38.6213755  97.5053332  63.9602379  30.6330555  84.2824973  67.7014359
  31.1564957  84.5287269  68.4640669  30.4142888  85.1145008  67.2817497
  26.0297836  86.5528647  55.5685484  25.7010542  85.6726026  55.3860590
  26.3837207  86.4976316  56.4561873  35.2777415  98.1883550  60.0780470
  35.1302377  97.2600258  60.2588040  36.1030908  98.2103641  59.5937545
  29.1439659  86.8401617  55.9360962  29.4835732  87.3687539  55.2139570
  29.5911780  87.1782023  56.7119528  38.8811537  99.0112109  61.1645342
  39.8058084  98.8054970  61.0269793  38.7126840  98.7628510  62.0734684
  31.8383100  85.2238668  65.3864030  31.4979920  84.4246481  65.7884710
  31.1322106  85.5240379  64.8140863  32.4899572  82.3087980  63.8391353
  33.3125641  81.8348459  63.7170243  32.7337635  83.0878464  64.3390039
  31.1307806  85.3376239  54.1354254  31.8516169  85.7157492  53.6317971
  30.5073111  86.0565116  54.2389232  35.2738929  86.0421388  55.0712587
  35.4902544  86.9246026  54.7701415  34.7932996  85.6507601  54.3418229
  30.0138151  89.0007101  61.6483331  29.8682731  89.3147404  62.5407613
  29.5363354  89.6192001  61.0954230  31.8734534  85.9909649  61.6964221
  31.8596102  85.0950742  61.3596519  32.5906962  85.9980313  62.3302507
  33.7260664  86.4246989  63.7417348  33.4678442  87.3464060  63.7401679
  33.1945705  86.0277424  64.4317813  38.6706853  99.5297776  56.5207434
  38.8443731  98.9644199  55.7681286  39.1635744 100.3298671  56.3386924
  24.4883813  91.5412445  64.5870993  23.9437281  92.3172253  64.7191267
  25.3663163  91.8883250  64.4290114  31.2771429  84.8724029  56.9651791
  31.3987341  83.9440676  57.1642679  30.9873472  84.8862715  56.0530107
  34.1462620  82.5578940  60.1018511  34.1684317  82.6218273  59.1470491
  34.5630679  81.7183448  60.2959017  44.5246244  92.2934199  58.1397734
  44.9677390  91.5441525  57.7416857  43.6472754  92.2844336  57.7571466
  39.6582026  98.8464541  53.6204332  40.3532930  99.4671233  53.8391647
  40.0005176  97.9959892  53.8956710  25.2749835  90.6682342  67.4801149
  24.5331571  90.8164977  68.0665780  24.9542579  90.9290607  66.6167899
  41.5573449  96.2964246  55.1491663  42.0824773  96.6351519  54.4240983
  41.4695801  95.3611262  54.9654797  33.2193497 100.2098320  67.2781539
  33.5280624  99.9647467  68.1504239  34.0168979 100.4144958  66.7900410
  33.2414109 102.3636230  59.5086916  32.8019100 101.8712608  60.2019773
  33.9922226 101.8209197  59.2678991  25.7206448  98.5547770  59.5111544
  26.5464468  98.2551542  59.1310188  25.3700500  97.7855393  59.9601333
  30.6887982  97.9074239  61.5809218  30.0667991  97.2444944  61.2811446
  31.3592848  97.9335371  60.8982865  23.9215053  96.4734097  60.4700478
  23.0846962  96.0456271  60.2884479  23.8938699  96.6666540  61.4071269
  30.7612509  86.3856027  71.1741724  30.8100664  87.2618150  70.7919493
  31.3035023  85.8433420  70.6013367  41.2467355  96.9297150  70.4542861
  40.4562898  96.9121289  69.9147360  41.0100709  97.4685444  71.2091897
  41.3665230  93.7789616  67.7675589  41.4163235  93.6139624  68.7091112
  41.2579153  92.9116875  67.3773470  30.2501488  96.4578162  55.0567678
  30.3989609  97.1413626  54.4034351  31.0567932  96.4383252  55.5717134
  38.6568992  89.7620544  69.0834896  39.5578855  89.6227009  68.7918894
  38.7316967  89.9274999  70.0233073  32.9911797  87.1387399  67.9288082
  32.1215107  87.4320965  67.6570671  33.2271278  87.7227844  68.6495346
  42.8683427  96.1986558  68.0117611  42.5768235  96.5616538  68.8481072
  42.2555558  95.4853566  67.8330943  44.0679109  93.7639438  60.5320181
  44.9026000  94.2029242  60.6957741  44.2038238  93.2878091  59.7128427
  41.1170615  91.3219172  66.4797669  41.5924736  91.5146819  65.6716520
  40.1936180  91.3778358  66.2341053  28.0054121  92.4843340  56.0628747
  27.7600163  91.5805670  56.2608957  28.1750036  92.4860490  55.1208225
  35.6950831  83.3567016  65.4453503  36.2132775  84.0928043  65.1199991
  35.3405964  83.6631009  66.2800262  27.2749769  88.2171697  53.5614909
  26.5819014  88.2916052  52.9054945  27.0301521  87.4532041  54.0836426
  33.7496894  98.9526292  52.5279426  33.1770861  99.5716480  52.0749898
  34.3229688  99.5025654  53.0619348  39.8172284  88.1984933  64.7125974
  40.7689707  88.2983030  64.7338199  39.6475734  87.4063201  65.2224059
  37.8386663  85.2840516  64.8985375  37.2436595  85.5645529  64.2031864
  37.5536360  85.7734417  65.6702116  36.9694154  99.2363443  53.6588008
  37.9024827  99.1709004  53.8620883  36.8817367 100.0719709  53.2002541
  39.5982170  98.5529313  50.6191956  39.5195802  98.2189177  51.5127713
  40.4191837  99.0451081  50.6183428  42.2960362  91.4191052  63.8268274
  42.2636682  90.4807053  64.0127958  42.9060985  91.4975089  63.0934099
  34.1343692  90.2887105  49.8695478  35.0802797  90.1593313  49.9383896
  33.7557937  89.5501767  50.3464906  42.4454850  88.2102096  63.8726557
  41.9293899  87.4260552  63.6856486  43.3294799  87.8820812  64.0373077
  40.1065577  81.9543111  59.8322370  39.9090398  81.6458199  60.7165702
  40.7165283  82.6804750  59.9620300  48.1136911  92.4807059  62.9674311
  48.8440300  92.2192347  63.5282014  47.5043857  91.7435781  63.0076379
  46.1952209  90.6214922  63.5648762  45.4685372  90.4870887  62.9565254
  45.7799495  90.9291750  64.3705480  34.0182385  94.3404851  71.3296135
  34.9385394  94.5183450  71.5236182  33.9831968  93.3960897  71.1775834
  32.3186610  88.2137082  49.8050363  31.4118065  87.9170194  49.8813077
  32.5962591  87.9166900  48.9384650  23.2364550  89.5343445  60.2549410
  22.9167334  88.6808753  59.9623784  22.6897978  89.7492023  61.0107377
  27.0144458  92.2505886  63.9718916  27.2330467  93.1822994  63.9906950
  27.4270231  91.8913860  64.7573720  33.9348675  82.7573971  55.9594605
  33.1249404  82.4121056  56.3349851  34.6233092  82.4481515  56.5482216
  35.8639224  81.8352018  57.5818901  36.4170262  82.2547472  58.2408924
  36.1009310  80.9087766  57.6241857  31.8872323  87.8239092  73.3621665
  31.7869050  88.7733449  73.2933756  31.6693865  87.4957331  72.4897735
  31.0885394  85.0724017  49.9462343  31.9504558  85.3978915  50.2058160
  31.2735738  84.2855513  49.4335408  23.1052810  93.1546357  62.2242531
  22.4116281  92.7400309  61.7112486  23.8525801  93.1966893  61.6275950
  39.2418031  83.9452543  57.0897566  38.6616700  84.6037347  56.7075618
  38.9753963  83.1229888  56.6784983  37.6921597  83.3457601  59.2918886
  38.1921375  83.4574136  58.4833205  38.3357205  83.0418654  59.9319694
  31.7503593  91.2536231  72.1786727  31.2670675  92.0536591  72.3850616
  31.8364532  91.2644175  71.2254171  25.0189553  93.0864610  60.1008546
  24.9960241  93.1852298  59.1490429  25.3290189  93.9329761  60.4225712
  27.6776930  95.1440765  64.2155161  28.6320184  95.1124708  64.1485092
  27.4789454  94.6831389  65.0305387  28.2676313  93.7141881  66.7825958
  29.0869202  94.2085960  66.8060796  28.5413120  92.7973850  66.7543526
  38.0242909  86.1052634  56.1453914  37.1368764  86.3902284  55.9274109
  38.4396898  85.9446397  55.2981191  41.3757445  86.1299155  59.8608253
  42.1517835  86.6195607  60.1332870  40.6505579  86.5557209  60.3180123
  43.8130003  86.8426774  60.9182194  44.4074494  86.6022510  60.2075502
  43.8856587  86.1233904  61.5455730  26.0327159 100.6860385  61.2325359
  25.8981627  99.9260786  60.6663357  25.6159221 101.4101285  60.7654147
  37.1686122  95.8697308  50.2401934  37.8721972  96.0747311  50.8559589
  36.4448771  96.4374070  50.5051017  37.9983932  91.6207170  56.3604204
  37.9419134  92.0775721  55.5211836  38.5512275  90.8597854  56.1827047
  41.8088738  87.4096901  57.1854323  41.5525673  87.0093537  58.0162531
  41.1841606  88.1240695  57.0604463  46.1201076  90.1492975  59.6925615
  45.5600634  90.2186164  60.4657177  45.5144580  89.9733959  58.9725111
  29.1896285 101.5829702  61.4443801  29.0728669 102.5275134  61.3422491
  28.3688731 101.2803263  61.8329600  39.0772820  96.3079838  52.2900394
  39.9118424  95.8761036  52.1077869  38.9157163  96.1361851  53.2177288
  38.7318712  92.8111951  53.6556733  38.6767516  92.6456222  52.7145177
  38.1064767  93.5187984  53.8118923  23.5211227  88.0480015  67.4818155
  24.1670090  87.5378969  67.9705381  23.3128378  88.7848697  68.0561581
  36.0464619  95.1160863  72.9810296  36.9155779  95.2901515  72.6196931
  35.5671370  95.9355280  72.8586025  32.0414837  82.3120060  53.2342052
  32.0293507  83.2561900  53.3910322  32.9338259  82.1290205  52.9401513
  30.2150799 102.2357964  64.6599730  31.1178046 102.2681574  64.9766225
  29.9888169 101.3058415  64.6746065  31.9704401 100.9888950  61.3209808
  31.0200032 100.9890812  61.2074181  32.2736887 100.2421685  60.8045843
  35.8566957  78.9062837  57.4887988  35.0899353  78.3521323  57.6344671
  36.2677662  78.9784705  58.3502140  27.8608718  85.1947632  71.5793170
  28.7240179  84.8384437  71.7896494  27.2874128  84.8561527  72.2668574
  47.7057095 106.8249489  62.3855571  48.3435505 106.7056236  61.6818911
  47.5877938 107.7730333  62.4443523  44.5146801 106.7776917  62.3217095
  44.1765312 106.6617981  61.4337630  45.3836569 106.3768082  62.3018101
  40.3733617 108.6312393  58.3113986  39.8098482 108.5402330  57.5430274
  40.2586012 107.8112298  58.7916479  44.9966584 107.9311768  68.2803301
  44.9855225 107.5364567  67.4083805  45.1587223 107.1977841  68.8737072
  37.9198049 110.1263585  61.1498207  38.7119341 109.7854409  60.7344506
  38.1594699 110.2358560  62.0700360  45.9533175 112.2983361  53.6228451
  45.3021155 112.8837441  53.2362465  46.7477538 112.8289556  53.6823489
  39.8788803 109.3872498  54.0215586  40.6519679 108.8401485  53.8828461
  40.2314201 110.2516747  54.2330047  41.7173845 110.7148880  67.2282485
  41.4263711 111.6194511  67.1129151  42.3530829 110.7565408  67.9426554
  42.6430052 108.0925729  63.8183844  43.2393624 107.8681751  63.1040807
  42.7005023 107.3510474  64.4209292  42.2155080 105.5465164  51.6534035
  42.4680601 105.0246685  50.8917498  41.2779639 105.3831310  51.7560719
  47.2598363 104.5500943  59.4608779  48.0461452 104.1320366  59.1099196
  47.5237068 105.4547035  59.6290427  47.4308441 109.9873793  54.1597435
  46.7954274 110.0608419  54.8718340  47.1005847 110.5767392  53.4816515
  52.6606790 104.4876176  60.3641757  53.3931962 103.9175393  60.5979587
  51.9046146 104.0997776  60.8048263  41.9351369 107.4493270  53.8558410
  41.8187627 106.7738173  54.5239495  42.0453629 106.9625644  53.0390563
  44.2782910 106.9103417  57.5605100  43.9141117 106.3834038  58.2718021
  45.1350026 106.5201886  57.3871585  50.1832211  98.1997750  64.8236366
  49.8515535  99.0693161  64.5997581  49.5877824  97.8834034  65.5030396
  43.9188397 101.9393317  52.5566448  44.0862799 102.8073553  52.9236919
  43.7285566 102.1020599  51.6327737  46.6763730 110.4010296  64.2232279
  46.3764453 111.3035335  64.1148086  46.3314790 110.1342479  65.0753431
  40.1276212 106.8524093  60.2568983  39.2026708 106.7200307  60.4646675
  40.3760625 107.6318312  60.7538925  50.0760874 102.9192836  61.9029716
  49.1677751 102.8508244  61.6088477  50.0248470 103.3964781  62.7311541
  43.8977618 104.3950974  53.5413115  43.7777243 104.8408025  54.3798595
  43.2030206 104.7436292  52.9826653  37.4885023 106.4957366  61.0912772
  37.6177404 106.7491845  62.0052184  36.8082474 107.0885074  60.7717427
  41.6584510 117.1654616  57.1903246  41.5808540 118.1162441  57.2691727
  41.0546154 116.8200489  57.8478173  44.1501740 104.3382482  69.8464613
  43.3735074 104.8976402  69.8367478  44.7892303 104.8239265  70.3679483
  51.9422520 101.1209274  63.6807590  51.2996901 101.4141808  63.0347384
  51.4377449 101.0062195  64.4860786  49.5962684 104.8672448  54.3693449
  50.5080540 105.0999834  54.1941147  49.0872331 105.4509492  53.8068528
  42.4048112 107.1467935  69.4082580  43.1462796 107.6852979  69.1317404
  41.6985098 107.7734224  69.5654132  47.8803452 109.2897075  68.0054742
  48.2886808 108.8479486  67.2609374  47.1580713 108.7149703  68.2588934
  44.2334522 104.2269682  65.3788299  45.0795717 104.6509096  65.5222948
  44.1733159 103.5703307  66.0726862  48.2032266 109.8498266  61.7607030
  47.5741129 110.0143980  61.0583098  47.8157928 110.2639876  62.5317995
  52.0821498 110.7852704  59.1151394  51.3972536 111.1651605  58.5648428
  52.1665348 111.3948031  59.8483342  47.3833967 101.8874051  67.0369472
  47.1394899 102.6416111  66.5003748  47.6593898 102.2659398  67.8716719
  49.3372430 108.4312663  65.7146738  49.5489325 109.0744423  65.0381119
  49.2902178 107.5974979  65.2468668  46.9398659 101.0430484  62.6183310
  46.0783138 101.3411737  62.9100047  46.9661093 101.2600882  61.6864343
  43.7560228 109.5872674  59.0257116  44.2198574 109.8660377  58.2361738
  43.4917026 108.6856119  58.8430206  40.6484309 109.1344156  61.9636879
  41.2185666 109.5631424  61.3254363  41.2392421 108.8526740  62.6621065
  42.6929114 105.7095827  55.8346681  43.3953158 106.1616870  56.3020607
  42.3609743 105.0679645  56.4626574  41.1409476 104.3007583  70.2097890
  40.5108136 104.9823864  70.4433287  41.0345564 104.1890665  69.2651028
  36.4354448 103.9679379  61.1363814  35.6453502 104.2236908  60.6603925
  36.9265696 104.7827717  61.2415855  50.4518258 111.3084618  63.8869095
  51.2735702 110.9064806  63.6051777  50.4480661 111.2052853  64.8385211
  38.3869194 104.3323958  58.0947291  37.5900357 104.4442653  58.6130787
  38.1594786 104.6710611  57.2288182  44.2174861 110.8568662  66.0429806
  44.2819294 111.3189069  66.8787977  43.5085785 110.2266027  66.1712115
  34.7192151 104.2209870  63.5678805  34.9700190 105.1056880  63.8336381
  35.2551700 104.0414471  62.7953897  58.5424251 107.6523367  60.2354067
  57.7887959 107.0830765  60.0798071  58.6771792 107.6186031  61.1824701
  43.9322879 112.5236769  55.9108786  43.7968554 113.3688305  56.3393634
  44.4732691 112.7256047  55.1474720  40.4190219  98.6028349  72.5723141
  40.0257164  98.0494548  73.2470785  41.2356359  98.9138927  72.9629659
  37.3852276 110.0412207  56.4836711  37.8976797 110.8355457  56.6342276
  38.0374989 109.3438498  56.4170312  39.1947161 113.1577963  58.5659464
  39.3713789 114.0795928  58.3780448  39.9903995 112.8436383  58.9953844
  43.3358180 100.0186228  70.1643398  44.0767893 100.6193381  70.0847860
  43.5676102  99.2763866  69.6061440  38.4799518 105.2042595  68.4421627
  38.3653033 104.3027853  68.7428726  37.6244035 105.4506292  68.0906444
  45.5591355 113.1460336  70.0409128  45.1155209 112.3596714  69.7230033
  46.2208569 113.3339486  69.3753019  40.3178476 114.6756137  64.5669807
  40.8685902 114.5473201  63.7946800  39.4789952 114.9751026  64.2164699
  47.6572593 113.4263136  68.0690529  47.6391069 114.2472017  67.5770798
  48.5792513 113.3017211  68.2940670  44.1145648 110.9407265  68.9114038
  44.6473984 110.1795553  68.6813346  43.5859729 110.6480917  69.6538192
  47.2815342  96.0467331  64.4407679  46.9379612  96.9368973  64.3646790
  47.6494305  95.8568989  63.5777264  35.3501193 108.3700861  57.2596282
  36.1876415 108.7797870  57.0429989  35.5279461 107.4300304  57.2296475
  47.2465625 106.0375942  52.9480115  46.7312249 106.8080547  53.1868502
  46.9742934 105.3641078  53.5713176  44.8312736 100.8825643  58.0065353
  43.9754333 100.4932493  57.8270992  45.2439688 100.9617604  57.1465138
  46.3611883  98.4171986  62.4056913  45.8576678  98.3802121  61.5924718
  46.6542490  99.3264729  62.4653569  42.6054769  98.5010716  61.4123094
  43.4707766  98.3053525  61.0528984  42.6732278  98.2721068  62.3392451
  52.2199899 108.7908297  54.8833288  51.4429342 108.4519456  54.4388450
  52.8991380 108.7960920  54.2088253  47.0351928 103.9103034  54.7739896
  46.7302064 104.2249183  55.6250039  47.9882370 103.9884454  54.8167229
  45.4798360 110.0693258  56.4232850  44.9519722 109.3346017  56.1106087
  44.9785863 110.8467934  56.1772818  50.4591206 108.2642278  61.5399896
  49.8014881 108.9541539  61.6280025  51.2631605 108.6538710  61.8833882
  40.2117088 100.7312924  58.7839461  40.7860840 100.5088105  58.0512654
  40.7988070 100.8001618  59.5368062  49.2696665 106.6186651  59.5903838
  49.7828547 107.2516643  60.0925547  49.9197889 106.0187846  59.2247198
  40.5386675 102.7617385  52.8035346  39.7023987 103.0992071  53.1244621
  40.3991445 102.6266365  51.8662483  42.5139756  97.6054173  57.5114531
  41.8604168  97.2903190  56.8871145  42.4720230  96.9829913  58.2374354
  43.6250960 107.8873468  49.4267823  42.7178022 107.6562721  49.6258972
  44.1221992 107.0911087  49.6141804  46.5319039 116.5970975  52.3464509
  45.8580738 116.9002672  52.9549467  46.9184861 117.4000055  51.9969966
  45.7477496 104.0936106  61.8362178  44.8300057 104.3151053  61.6783866
  46.1637640 104.1682417  60.9773886  46.5312544 105.4927522  56.9664859
  47.2784363 106.0048919  56.6571981  46.8004133 105.1711575  57.8269252
  44.8039194 107.9886063  53.9491813  43.8950413 107.7045095  54.0464283
  44.8334278 108.4085141  53.0895120  50.0358461 111.5992652  57.7182980
  49.5820788 110.7583562  57.7748171  49.4052428 112.2354051  58.0557761
  48.9791381 102.5284638  58.9483648  48.2414138 102.0162024  59.2793890
  49.2318154 102.0885020  58.1366925  48.4791400 113.4369149  58.6532799
  48.7714375 113.9974206  57.9345164  48.9890021 113.7297710  59.4085958
  49.0803008  95.3060890  59.5425417  49.3861885  94.4458254  59.2551332
  49.8055613  95.8978510  59.3424411  35.3727364 105.7091577  57.9307015
  35.1751764 105.1160937  57.2058082  34.8174028 105.4043787  58.6482954
  43.3524088 105.6014683  60.0501608  43.4072698 104.6488520  59.9744085
  42.5415290 105.7574122  60.5342907  44.5015282 109.5294806  51.2879891
  44.0634712 108.8130665  50.8285529  45.2425723 109.7570921  50.7264983
  41.2916448 104.2191743  57.8091987  40.4784313 104.5185914  58.2157179
  41.7875442 103.8247432  58.5266469  43.4425026 114.2149500  59.7426252
  43.4001204 114.4410346  58.8134784  44.3587725 113.9812875  59.8912053
  46.8890659 104.6833567  66.6406881  47.2440047 104.9105041  67.5001347
  47.5362791 105.0151944  66.0184136  52.6188396 107.8052003  57.3456210
  52.4806295 107.9953599  56.4177399  52.2624615 108.5671386  57.8024261
  40.7830523 101.7910099  63.4253222  41.4229902 101.6498858  62.7276185
  39.9508053 101.5044612  63.0491824  52.6457776 109.8728530  62.3567481
  53.0794283 109.7803819  63.2050535  53.3589357 109.8486031  61.7187497
  41.5590826 111.0912529  59.5388214  42.3531425 110.5962849  59.3370789
  40.8482519 110.5630392  59.1755920  46.3785671 113.4730624  63.8900582
  46.4322693 114.0421561  64.6578298  45.5100452 113.6432510  63.5254619
  37.8673590 105.2355611  55.6147967  36.9371178 105.1740066  55.8317929
  37.9631062 104.7131563  54.8184608  37.7859139 101.7610424  58.2026209
  38.0465956 102.6755757  58.0935369  38.6076311 101.2934866  58.3522822
  39.2584064 103.1748181  65.3725033  39.9307118 102.9665543  64.7237682
  38.4313851 102.9770267  64.9330266  53.5073326 109.9152231  64.8900367
  53.7009216 110.8198042  65.1359642  53.4073944 109.4559650  65.7238952
  45.1609636  99.8010122  67.3890694  44.5137551 100.5000071  67.2955171
  45.9310652 100.2346266  67.7566942  48.5688434 110.0658974  70.4641247
  48.4173941 109.8369525  69.5471331  48.5593114 111.0229575  70.4772592
  45.3373771 107.6390887  65.4487514  46.2665831 107.7902046  65.2756481
  44.9164801 107.7274907  64.5936160  44.1362102 111.6641551  63.2186052
  43.9973188 111.2960335  64.0911990  43.3476699 112.1789190  63.0470009
  44.7310254 116.7650647  54.5611588  44.9062010 116.2938691  55.3757211
  44.0443042 117.3916414  54.7892849  45.6867318 111.0423154  60.6074889
  45.3517150 111.0023924  61.5032539  45.1871263 110.3767870  60.1345300
  39.6611562 106.4490784  66.1327470  39.5231359 105.7171022  66.7339010
  40.5716485 106.3599684  65.8511658  48.6226509 108.3879188  50.8811949
  48.0055680 107.6626016  50.7845002  48.1542998 109.1488548  50.5379023
  42.2893862 106.1610743  65.6211150  42.9993481 105.5203935  65.5797769
  42.2463170 106.4123638  66.5437331  50.2780641 113.0978096  68.5417729
  50.2193187 112.4137316  67.8748312  50.6800159 113.8397086  68.0898355
  41.0022796 103.1475961  67.4406790  40.4660153 102.6966699  68.0928386
  40.4139505 103.2821870  66.6977254  40.4125055 102.6064612  50.0033253
  39.5354521 102.4853413  49.6395500  40.8882808 101.8150691  49.7512142
  50.2798048 111.0617680  66.7731709  49.3924827 110.7243602  66.8958108
  50.8496599 110.3300711  67.0100474  31.9327195 107.3941772  60.0974760
  32.6198235 107.0803502  59.5095776  31.7775324 108.2983137  59.8242012
  36.7361917 102.2831969  64.5259784  36.6520106 101.6757638  63.7910194
  35.9144624 102.7740987  64.5269280  43.8099202 115.7219133  63.7392952
  43.7369373 116.5274104  64.2512257  43.3676595 115.9211098  62.9140974
  43.5988981 114.9590903  57.2495774  42.8156503 115.5012583  57.3433998
  44.2981726 115.4764882  57.6490015  46.9085631 100.7685532  59.8929979
  47.4054331 100.0155494  59.5731049  46.1372613 100.8049849  59.3273188
  54.7615389 106.4725898  61.5348271  54.7505265 107.3550613  61.1642204
  53.8932768 106.1197448  61.3402808  46.2697885 115.6205967  65.8951111
  46.9825857 116.2553431  65.8227012  45.7787914 115.7169833  65.0791113
  47.9915412 109.5257219  57.4668403  47.0571691 109.6458682  57.2973107
  48.1692080 108.6229686  57.2028412  43.4920600 102.9102915  59.6201664
  43.1218388 102.3573955  60.3082569  43.9879693 102.3061049  59.0676664
  51.3787963 105.3674539  58.0018437  51.8448416 106.2002530  57.9278739
  51.8295464 104.9019520  58.7063695  41.3209799 113.3700410  66.7156682
  42.0219258 114.0036893  66.8686076  40.8504914 113.7115142  65.9552321
  49.4464194 111.7118360  55.0004589  49.7224038 111.5974954  55.9098463
  48.5768693 111.3135845  54.9616762  49.3504626  97.7355126  62.0409338
  48.4367706  97.9659352  62.2091545  49.7797728  97.8193570  62.8923370
  49.1211085 105.9245018  64.5409232  48.4682535 106.1720925  63.8861685
  49.4991464 105.1109156  64.2071709  46.0818258 115.9604711  58.6437402
  46.2640653 115.1426367  59.1065155  46.9051244 116.1772403  58.2062292
  46.4160424 114.8872896  55.9052451  46.9448190 114.3765350  55.2922613
  46.6788644 114.5715426  56.7697984  45.1698658 106.6664829  71.0275269
  44.4939295 106.5658958  71.6977644  45.9926292 106.5104042  71.4911266
  36.9177517 112.9036765  63.6487784  37.5030954 112.1580453  63.7815689
  36.7202355 113.2140722  64.5324448  39.7716172 115.9388013  58.6650227
  39.1026547 116.4234140  58.1814267  39.6329042 116.1857233  59.5793605
  31.5095171 105.4742365  62.3692228  31.5479271 104.9405956  63.1629346
  31.0035464 104.9477571  61.7503205  43.9121440 117.9731756  65.2632885
  44.4639749 118.1363378  66.0281970  44.2527634 118.5636194  64.5912910
  38.8885934 100.3206906  65.8654770  38.9527260 101.1821737  65.4532168
  38.8253054  99.7080908  65.1327128  38.3638206 102.3930038  69.5127804
  38.9910245 102.0107116  70.1265328  37.5066125 102.1744240  69.8783497
  48.7632315 112.7993014  71.1181540  49.3072219 113.4122972  70.6236494
  48.1819160 113.3572592  71.6348553  35.1403749 104.2006468  55.4446159
  35.4357190 103.2917146  55.3913213  34.2391785 104.1794207  55.1227161
  47.0489828 115.9213732  62.2496567  46.9240967 115.1203471  61.7407513
  47.7068919 116.4159925  61.7610537  38.6697996 102.2762464  61.4273708
  37.9484582 102.8898432  61.2881181  39.4591252 102.8120229  61.3490353
  49.1124736 113.7222752  63.8776117  48.1655072 113.6028103  63.8054444
  49.4607509 112.8345250  63.9602379  41.4724310  99.6116891  67.7014359
  41.9958711  99.8579187  68.4640669  41.2536643 100.4436925  67.2817497
  36.8691591 101.8820565  55.5685484  36.5404297 101.0017944  55.3860590
  37.2230961 101.8268234  56.4561873  46.1171169 113.5175468  60.0780470
  45.9696132 112.5892175  60.2588040  46.9424663 113.5395559  59.5937545
  39.9833414 102.1693535  55.9360962  40.3229486 102.6979456  55.2139570
  40.4305534 102.5073941  56.7119528  49.7205291 114.3404027  61.1645342
  50.6451839 114.1346888  61.0269793  49.5520595 114.0920428  62.0734684
  42.6776855 100.5530586  65.3864030  42.3373675  99.7538399  65.7884710
  41.9715861 100.8532297  64.8140863  43.3293326  97.6379898  63.8391353
  44.1519396  97.1640376  63.7170243  43.5731390  98.4170382  64.3390039
  41.9701561 100.6668157  54.1354254  42.6909923 101.0449409  53.6317971
  41.3466865 101.3857033  54.2389232  46.1132684 101.3713306  55.0712587
  46.3296298 102.2537943  54.7701415  45.6326751 100.9799519  54.3418229
  40.8531905 104.3299019  61.6483331  40.7076486 104.6439322  62.5407613
  40.3757109 104.9483919  61.0954230  42.7128288 101.3201567  61.6964221
  42.6989857 100.4242660  61.3596519  43.4300716 101.3272230  62.3302507
  44.5654419 101.7538907  63.7417348  44.3072197 102.6755978  63.7401679
  44.0339459 101.3569341  64.4317813  49.5100608 114.8589694  56.5207434
  49.6837485 114.2936117  55.7681286  50.0029499 115.6590589  56.3386924
  35.3277567 106.8704363  64.5870993  34.7831035 107.6464171  64.7191267
  36.2056917 107.2175168  64.4290114  42.1165184 100.2015947  56.9651791
  42.2381095  99.2732593  57.1642679  41.8267226 100.2154633  56.0530107
  44.9856374  97.8870857  60.1018511  45.0078071  97.9510191  59.1470491
  45.4024433  97.0475366  60.2959017  55.3639999 107.6226117  58.1397734
  55.8071145 106.8733442  57.7416857  54.4866509 107.6136253  57.7571466
  50.4975780 114.1756458  53.6204332  51.1926685 114.7963151  53.8391647
  50.8398930 113.3251810  53.8956710  36.1143589 105.9974259  67.4801149
  35.3725325 106.1456895  68.0665780  35.7936333 106.2582525  66.6167899
  52.3967203 111.6256164  55.1491663  52.9218527 111.9643437  54.4240983
  52.3089556 110.6903179  54.9654797  44.0587252 115.5390238  67.2781539
  44.3674378 115.2939384  68.1504239  44.8562734 115.7436876  66.7900410
  44.0807864 117.6928147  59.5086916  43.6412854 117.2004526  60.2019773
  44.8315981 117.1501115  59.2678991  36.5600203 113.8839688  59.5111544
  37.3858223 113.5843460  59.1310188  36.2094255 113.1147311  59.9601333
  41.5281736 113.2366156  61.5809218  40.9061745 112.5736861  61.2811446
  42.1986603 113.2627288  60.8982865  34.7608808 111.8026015  60.4700478
  33.9240716 111.3748189  60.2884479  34.7332453 111.9958458  61.4071269
  41.6006264 101.7147944  71.1741724  41.6494419 102.5910067  70.7919493
  42.1428778 101.1725337  70.6013367  52.0861109 112.2589068  70.4542861
  51.2956653 112.2413206  69.9147360  51.8494464 112.7977361  71.2091897
  52.2058984 109.1081534  67.7675589  52.2556989 108.9431541  68.7091112
  52.0972908 108.2408793  67.3773470  41.0895243 111.7870080  55.0567678
  41.2383363 112.4705544  54.4034351  41.8961686 111.7675170  55.5717134
  49.4962747 105.0912462  69.0834896  50.3972609 104.9518927  68.7918894
  49.5710721 105.2566917  70.0233073  43.8305552 102.4679317  67.9288082
  42.9608861 102.7612883  67.6570671  44.0665032 103.0519762  68.6495346
  53.7077181 111.5278476  68.0117611  53.4161989 111.8908456  68.8481072
  53.0949312 110.8145484  67.8330943  54.9072863 109.0931355  60.5320181
  55.7419755 109.5321159  60.6957741  55.0431992 108.6170009  59.7128427
  51.9564369 106.6511090  66.4797669  52.4318491 106.8438736  65.6716520
  51.0329935 106.7070276  66.2341053  38.8447876 107.8135257  56.0628747
  38.5993918 106.9097587  56.2608957  39.0143790 107.8152408  55.1208225
  46.5344586  98.6858934  65.4453503  47.0526530  99.4219961  65.1199991
  46.1799719  98.9922927  66.2800262  38.1143523 103.5463615  53.5614909
  37.4212768 103.6207970  52.9054945  37.8695275 102.7823959  54.0836426
  46.7857180  95.1059216  60.9654399  47.0658934  94.4382405  61.5914826
  47.5707787  95.2988312  60.4529063  44.5890648 114.2818210  52.5279426
  44.0164616 114.9008397  52.0749898  45.1623442 114.8317572  53.0619348
  50.6566038 103.5276850  64.7125974  51.6083461 103.6274948  64.7338199
  50.4869489 102.7355119  65.2224059  48.6780418 100.6132433  64.8985375
  48.0830350 100.8937446  64.2031864  48.3930114 101.1026334  65.6702116
  47.8087908 114.5655360  53.6588008  48.7418581 114.5000922  53.8620883
  47.7211121 115.4011627  53.2002541  50.4375925 113.8821231  50.6191956
  50.3589556 113.5481094  51.5127713  51.2585592 114.3742999  50.6183428
  53.1354116 106.7482970  63.8268274  53.1030436 105.8098971  64.0127958
  53.7454740 106.8267007  63.0934099  44.9737447 105.6179023  49.8695478
  45.9196552 105.4885231  49.9383896  44.5951692 104.8793685  50.3464906
  53.2848605 103.5394013  63.8726557  52.7687653 102.7552470  63.6856486
  54.1688553 103.2112730  64.0373077  50.9459331  97.2835029  59.8322370
  50.7484153  96.9750117  60.7165702  51.5559037  98.0096668  59.9620300
  58.9530666 107.8098977  62.9674311  59.6834054 107.5484265  63.5282014
  58.3437611 107.0727699  63.0076379  57.0345963 105.9506839  63.5648762
  56.3079127 105.8162804  62.9565254  56.6193250 106.2583668  64.3705480
  44.8576139 109.6696769  71.3296135  45.7779149 109.8475368  71.5236182
  44.8225723 108.7252814  71.1775834  43.1580364 103.5428999  49.8050363
  42.2511819 103.2462112  49.8813077  43.4356345 103.2458817  48.9384650
  34.0758304 104.8635363  60.2549410  33.7561089 104.0100671  59.9623784
  33.5291733 105.0783941  61.0107377  37.8538212 107.5797804  63.9718916
  38.0724222 108.5114912  63.9906950  38.2663986 107.2205778  64.7573720
  44.7742430  98.0865889  55.9594605  43.9643158  97.7412974  56.3349851
  45.4626847  97.7773433  56.5482216  46.7032978  97.1643936  57.5818901
  47.2564017  97.5839389  58.2408924  46.9403064  96.2379684  57.6241857
  42.7266077 103.1531009  73.3621665  42.6262804 104.1025366  73.2933756
  42.5087619 102.8249248  72.4897735  41.9279149 100.4015935  49.9462343
  42.7898313 100.7270833  50.2058160  42.1129493  99.6147430  49.4335408
  33.9446564 108.4838274  62.2242531  33.2510036 108.0692227  61.7112486
  34.6919555 108.5258811  61.6275950  50.0811785  99.2744461  57.0897566
  49.5010454  99.9329265  56.7075618  49.8147718  98.4521806  56.6784983
  48.5315352  98.6749519  59.2918886  49.0315130  98.7866053  58.4833205
  49.1750959  98.3710572  59.9319694  42.5897347 106.5828148  72.1786727
  42.1064429 107.3828508  72.3850616  42.6758286 106.5936093  71.2254171
  35.8583307 108.4156528  60.1008546  35.8353995 108.5144215  59.1490429
  36.1683944 109.2621679  60.4225712  38.5170685 110.4732683  64.2155161
  39.4713938 110.4416625  64.1485092  38.3183208 110.0123307  65.0305387
  39.1070067 109.0433799  66.7825958  39.9262956 109.5377878  66.8060796
  39.3806875 108.1265767  66.7543526  48.8636663 101.4344551  56.1453914
  47.9762518 101.7194202  55.9274109  49.2790652 101.2738315  55.2981191
  52.2151199 101.4591072  59.8608253  52.9911589 101.9487525  60.1332870
  51.4899334 101.8849127  60.3180123  54.6523758 102.1718692  60.9182194
  55.2468249 101.9314428  60.2075502  54.7250342 101.4525822  61.5455730
  48.0079877 111.1989226  50.2401934  48.7115727 111.4039229  50.8559589
  47.2842525 111.7665988  50.5051017  48.8377687 106.9499087  56.3604204
  48.7812888 107.4067639  55.5211836  49.3906029 106.1889772  56.1827047
  52.6482493 102.7388819  57.1854323  52.3919427 102.3385455  58.0162531
  52.0235361 103.4532613  57.0604463  56.9594831 105.4784892  59.6925615
  56.3994389 105.5478082  60.4657177  56.3538334 105.3025877  58.9725111
  49.9166574 111.6371755  52.2900394  50.7512178 111.2052954  52.1077869
  49.7550917 111.4653769  53.2177288  49.5712466 108.1403869  53.6556733
  49.5161270 107.9748140  52.7145177  48.9458522 108.8479901  53.8118923
  34.3604981 103.3771933  67.4818155  35.0063845 102.8670887  67.9705381
  34.1522132 104.1140615  68.0561581  46.8858373 110.4452780  72.9810296
  47.7549533 110.6193433  72.6196931  46.4065125 111.2647197  72.8586025
  42.8808592  97.6411978  53.2342052  42.8687262  98.5853817  53.3910322
  43.7732014  97.4582123  52.9401513  41.0544554 117.5649881  64.6599730
  41.9571800 117.5973492  64.9766225  40.8281924 116.6350332  64.6746065
  42.8098156 116.3180868  61.3209808  41.8593787 116.3182730  61.2074181
  43.1130642 115.5713603  60.8045843  46.6960711  94.2354754  57.4887988
  45.9293107  93.6813241  57.6344671  47.1071416  94.3076623  58.3502140
  38.7002472 100.5239550  71.5793170  39.5633934 100.1676355  71.7896494
  38.1267883 100.1853445  72.2668574  58.5450849 122.1541406  62.3855571
  59.1829259 122.0348154  61.6818911  58.4271692 123.1022250  62.4443523
  55.3540555 122.1068834  62.3217095  55.0159067 121.9909899  61.4337630
  56.2230324 121.7060000  62.3018101  55.8360338 123.2603686  68.2803301
  55.8248979 122.8656484  67.4083805  55.9980978 122.5269759  68.8737072
  53.0548835 120.8757082  51.6534035  53.3074356 120.3538603  50.8917498
  52.1173394 120.7123227  51.7560719  58.0992118 119.8792860  59.4608779
  58.8855207 119.4612283  59.1099196  58.3630822 120.7838952  59.6290427
  63.5000545 119.8168093  60.3641757  64.2325717 119.2467310  60.5979587
  62.7439901 119.4289694  60.8048263  55.1176665 122.2395335  57.5605100
  54.7534872 121.7125956  58.2718021  55.9743780 121.8493804  57.3871585
  61.0225965 113.5289668  64.8236366  60.6909290 114.3985078  64.5997581
  60.4271579 113.2125952  65.5030396  54.7582152 117.2685235  52.5566448
  54.9256554 118.1365471  52.9236919  54.5679321 117.4312516  51.6327737
  60.9154628 118.2484754  61.9029716  60.0071506 118.1800162  61.6088477
  60.8642224 118.7256699  62.7311541  54.7371372 119.7242892  53.5413115
  54.6170998 120.1699943  54.3798595  54.0423961 120.0728210  52.9826653
  54.9895494 119.6674399  69.8464613  54.2128828 120.2268319  69.8367478
  55.6286057 120.1531182  70.3679483  62.7816275 116.4501192  63.6807590
  62.1390655 116.7433725  63.0347384  62.2771203 116.3354112  64.4860786
  60.4356439 120.1964365  54.3693449  61.3474295 120.4291752  54.1941147
  59.9266086 120.7801409  53.8068528  55.0728276 119.5561600  65.3788299
  55.9189471 119.9801013  65.5222948  55.0126914 118.8995224  66.0726862
  58.2227722 117.2165968  67.0369472  57.9788653 117.9708029  66.5003748
  58.4987652 117.5951316  67.8716719  60.1766184 123.7604581  65.7146738
  60.3883080 124.4036340  65.0381119  60.1295933 122.9266897  65.2468668
  57.7792413 116.3722401  62.6183310  56.9176892 116.6703655  62.9100047
  57.8054848 116.5892800  61.6864343  53.5322869 121.0387744  55.8346681
  54.2346912 121.4908788  56.3020607  53.2003497 120.3971563  56.4626574
  51.9803230 119.6299501  70.2097890  51.3501891 120.3115782  70.4433287
  51.8739318 119.5182582  69.2651028  47.2748203 119.2971297  61.1363814
  46.4847257 119.5528825  60.6603925  47.7659450 120.1119635  61.2415855
  49.2262948 119.6615876  58.0947291  48.4294111 119.7734570  58.6130787
  48.9988540 120.0002528  57.2288182  69.3818005 122.9815284  60.2354067
  68.6281714 122.4122683  60.0798071  69.5165547 122.9477949  61.1824701
  51.2583973 113.9320267  72.5723141  50.8650919 113.3786465  73.2470785
  52.0750113 114.2430845  72.9629659  54.1751934 115.3478146  70.1643398
  54.9161647 115.9485299  70.0847860  54.4069857 114.6055784  69.6061440
  58.1209097 111.3759249  64.4407679  57.7773366 112.2660890  64.3646790
  58.4888060 111.1860906  63.5777264  58.0859380 121.3667860  52.9480115
  57.5706003 122.1372464  53.1868502  57.8136688 120.6932996  53.5713176
  55.6706491 116.2117561  58.0065353  54.8148087 115.8224411  57.8270992
  56.0833442 116.2909521  57.1465138  57.2005637 113.7463904  62.4056913
  56.6970433 113.7094039  61.5924718  57.4936244 114.6556647  62.4653569
  53.4448523 113.8302634  61.4123094  54.3101520 113.6345442  61.0528984
  53.5126032 113.6012985  62.3392451  63.0593654 124.1200214  54.8833288
  62.2823097 123.7811374  54.4388450  63.7385135 124.1252838  54.2088253
  57.8745683 119.2394952  54.7739896  57.5695818 119.5541101  55.6250039
  58.8276125 119.3176372  54.8167229  61.2984961 123.5934196  61.5399896
  60.6408635 124.2833457  61.6280025  62.1025360 123.9830628  61.8833882
  51.0510842 116.0604841  58.7839461  51.6254594 115.8380023  58.0512654
  51.6381825 116.1293536  59.5368062  60.1090420 121.9478568  59.5903838
  60.6222301 122.5808560  60.0925547  60.7591643 121.3479764  59.2247198
  51.3780429 118.0909303  52.8035346  50.5417742 118.4283989  53.1244621
  51.2385199 117.9558282  51.8662483  53.3533510 112.9346090  57.5114531
  52.6997922 112.6195108  56.8871145  53.3113984 112.3121831  58.2374354
  56.5871250 119.4228024  61.8362178  55.6693812 119.6442971  61.6783866
  57.0031394 119.4974334  60.9773886  57.3706298 120.8219440  56.9664859
  58.1178117 121.3340837  56.6571981  57.6397888 120.5003492  57.8269252
  59.8185135 117.8576556  58.9483648  59.0807892 117.3453942  59.2793890
  60.0711909 117.4176937  58.1366925  59.9196763 110.6352808  59.5425417
  60.2255639 109.7750171  59.2551332  60.6449367 111.2270428  59.3424411
  54.1917842 120.9306601  60.0501608  54.2466452 119.9780437  59.9744085
  53.3809044 121.0866040  60.5342907  52.1310202 119.5483661  57.8091987
  51.3178068 119.8477831  58.2157179  52.6269196 119.1539349  58.5266469
  57.7284414 120.0125485  66.6406881  58.0833802 120.2396958  67.5001347
  58.3756545 120.3443862  66.0184136  63.4582151 123.1343921  57.3456210
  63.3200050 123.3245517  56.4177399  63.1018370 123.8963304  57.8024261
  51.6224277 117.1202016  63.4253222  52.2623656 116.9790775  62.7276185
  50.7901808 116.8336530  63.0491824  63.4851531 125.2020448  62.3567481
  63.9188037 125.1095737  63.2050535  64.1983111 125.1777949  61.7187497
  48.7067344 120.5647528  55.6147967  47.7764933 120.5031984  55.8317929
  48.8024816 120.0423481  54.8184608  48.6252893 117.0902341  58.2026209
  48.8859711 118.0047674  58.0935369  49.4470066 116.6226784  58.3522822
  50.0977819 118.5040098  65.3725033  50.7700872 118.2957460  64.7237682
  49.2707605 118.3062184  64.9330266  64.3467080 125.2444149  64.8900367
  64.5402970 126.1489959  65.1359642  64.2467698 124.7851568  65.7238952
  56.0003391 115.1302039  67.3890694  55.3531306 115.8291989  67.2955171
  56.7704406 115.5638183  67.7566942  56.1767525 122.9682804  65.4487514
  57.1059585 123.1193964  65.2756481  55.7558555 123.0566825  64.5936160
  59.4620264 123.7171106  50.8811949  58.8449434 122.9917934  50.7845002
  58.9936752 124.4780466  50.5379023  53.1287617 121.4902661  65.6211150
  53.8387235 120.8495853  65.5797769  53.0856925 121.7415556  66.5437331
  51.8416551 118.4767879  67.4406790  51.3053908 118.0258617  68.0928386
  51.2533259 118.6113787  66.6977254  51.2518810 117.9356530  50.0033253
  50.3748276 117.8145331  49.6395500  51.7276563 117.1442608  49.7512142
  47.5755672 117.6123886  64.5259784  47.4913861 117.0049556  63.7910194
  46.7538378 118.1032905  64.5269280  57.7479386 116.0977450  59.8929979
  58.2448085 115.3447412  59.5731049  56.9766367 116.1341766  59.3273188
  65.6009143 121.8017815  61.5348271  65.5899019 122.6842531  61.1642204
  64.7326523 121.4489366  61.3402808  54.3314355 118.2394833  59.6201664
  53.9612142 117.6865873  60.3082569  54.8273447 117.6352966  59.0676664
  62.2181718 120.6966456  58.0018437  62.6842170 121.5294448  57.9278739
  62.6689218 120.2311438  58.7063695  60.1898381 113.0647043  62.0409338
  59.2761460 113.2951270  62.2091545  60.6191482 113.1485487  62.8923370
  59.9604839 121.2536935  64.5409232  59.3076289 121.5012843  63.8861685
  60.3385219 120.4401073  64.2071709  56.0092412 121.9956746  71.0275269
  55.3333049 121.8950876  71.6977644  56.8320046 121.8395960  71.4911266
  49.7279688 115.6498824  65.8654770  49.7921015 116.5113654  65.4532168
  49.6646808 115.0372825  65.1327128  49.2031961 117.7221956  69.5127804
  49.8304000 117.3399033  70.1265328  48.3459880 117.5036158  69.8783497
  45.9797503 119.5298385  55.4446159  46.2750945 118.6209064  55.3913213
  45.0785539 119.5086125  55.1227161  49.5091750 117.6054382  61.4273708
  48.7878336 118.2190349  61.2881181  50.2985006 118.1412147  61.3490353
  52.3118064 114.9408808  67.7014359  52.8352466 115.1871105  68.4640669
  52.0930397 115.7728843  67.2817497  47.7085345 117.2112483  55.5685484
  47.3798051 116.3309862  55.3860590  48.0624716 117.1560152  56.4561873
  50.8227168 117.4985453  55.9360962  51.1623241 118.0271374  55.2139570
  51.2699289 117.8365859  56.7119528  53.5170609 115.8822503  65.3864030
  53.1767429 115.0830316  65.7884710  52.8109615 116.1824214  64.8140863
  54.1687081 112.9671816  63.8391353  54.9913150 112.4932294  63.7170243
  54.4125144 113.7462300  64.3390039  52.8095315 115.9960074  54.1354254
  53.5303678 116.3741327  53.6317971  52.1860620 116.7148951  54.2389232
  56.9526438 116.7005223  55.0712587  57.1690053 117.5829861  54.7701415
  56.4720505 116.3091437  54.3418229  51.6925660 119.6590936  61.6483331
  51.5470240 119.9731240  62.5407613  51.2150863 120.2775837  61.0954230
  53.5522043 116.6493484  61.6964221  53.5383611 115.7534578  61.3596519
  54.2694471 116.6564148  62.3302507  55.4048173 117.0830825  63.7417348
  55.1465951 118.0047895  63.7401679  54.8733214 116.6861259  64.4317813
  52.9558938 115.5307865  56.9651791  53.0774850 114.6024511  57.1642679
  52.6660981 115.5446551  56.0530107  55.8250129 113.2162775  60.1018511
  55.8471826 113.2802108  59.1470491  56.2418188 112.3767284  60.2959017
  66.2033753 122.9518035  58.1397734  66.6464899 122.2025360  57.7416857
  65.3260263 122.9428171  57.7571466  52.4400018 117.0439862  71.1741724
  52.4888173 117.9201985  70.7919493  52.9822532 116.5017255  70.6013367
  63.0452739 124.4373452  67.7675589  63.0950744 124.2723459  68.7091112
  62.9366662 123.5700711  67.3773470  60.3356501 120.4204380  69.0834896
  61.2366364 120.2810845  68.7918894  60.4104476 120.5858835  70.0233073
  54.6699306 117.7971234  67.9288082  53.8002616 118.0904801  67.6570671
  54.9058787 118.3811679  68.6495346  65.7466618 124.4223273  60.5320181
  66.5813509 124.8613077  60.6957741  65.8825747 123.9461926  59.7128427
  62.7958124 121.9803008  66.4797669  63.2712245 122.1730654  65.6716520
  61.8723689 122.0362194  66.2341053  57.3738340 114.0150851  65.4453503
  57.8920284 114.7511878  65.1199991  57.0193473 114.3214845  66.2800262
  48.9537278 118.8755533  53.5614909  48.2606523 118.9499888  52.9054945
  48.7089030 118.1115876  54.0836426  57.6250934 110.4351134  60.9654399
  57.9052688 109.7674323  61.5914826  58.4101541 110.6280230  60.4529063
  61.4959793 118.8568768  64.7125974  62.4477216 118.9566866  64.7338199
  61.3263243 118.0647036  65.2224059  59.5174172 115.9424351  64.8985375
  58.9224104 116.2229364  64.2031864  59.2323869 116.4318252  65.6702116
  63.9747871 122.0774888  63.8268274  63.9424191 121.1390888  64.0127958
  64.5848494 122.1558924  63.0934099  55.8131201 120.9470941  49.8695478
  56.7590306 120.8177149  49.9383896  55.4345446 120.2085602  50.3464906
  64.1242359 118.8685931  63.8726557  63.6081408 118.0844388  63.6856486
  65.0082308 118.5404648  64.0373077  61.7853086 112.6126947  59.8322370
  61.5877907 112.3042035  60.7165702  62.3952792 113.3388586  59.9620300
  69.7924420 123.1390894  62.9674311  70.5227809 122.8776183  63.5282014
  69.1831366 122.4019616  63.0076379  67.8739718 121.2798757  63.5648762
  67.1472881 121.1454722  62.9565254  67.4587004 121.5875586  64.3705480
  53.9974119 118.8720917  49.8050363  53.0905574 118.5754030  49.8813077
  54.2750100 118.5750735  48.9384650  55.6136184 113.4157807  55.9594605
  54.8036913 113.0704892  56.3349851  56.3020601 113.1065350  56.5482216
  57.5426733 112.4935854  57.5818901  58.0957771 112.9131307  58.2408924
  57.7796819 111.5671602  57.6241857  53.5659832 118.4822927  73.3621665
  53.4656559 119.4317284  73.2933756  53.3481374 118.1541166  72.4897735
  52.7672903 115.7307852  49.9462343  53.6292067 116.0562751  50.2058160
  52.9523247 114.9439348  49.4335408  60.9205540 114.6036379  57.0897566
  60.3404209 115.2621183  56.7075618  60.6541472 113.7813723  56.6784983
  59.3709106 114.0041436  59.2918886  59.8708884 114.1157971  58.4833205
  60.0144714 113.7002489  59.9319694  59.7030418 116.7636469  56.1453914
  58.8156273 117.0486120  55.9274109  60.1184407 116.6030232  55.2981191
  63.0544954 116.7882990  59.8608253  63.8305344 117.2779442  60.1332870
  62.3293088 117.2141044  60.3180123  65.4917512 117.5010609  60.9182194
  66.0862003 117.2606345  60.2075502  65.5644096 116.7817740  61.5455730
  59.6771441 122.2791005  56.3604204  59.6206643 122.7359556  55.5211836
  60.2299784 121.5181690  56.1827047  63.4876247 118.0680737  57.1854323
  63.2313182 117.6677373  58.0162531  62.8629115 118.7824531  57.0604463
  67.7988585 120.8076810  59.6925615  67.2388143 120.8769999  60.4657177
  67.1932089 120.6317795  58.9725111  60.4106221 123.4695786  53.6556733
  60.3555025 123.3040058  52.7145177  59.7852276 124.1771819  53.8118923
  45.1998736 118.7063851  67.4818155  45.8457599 118.1962805  67.9705381
  44.9915887 119.4432532  68.0561581  53.7202346 112.9703895  53.2342052
  53.7081016 113.9145735  53.3910322  54.6125768 112.7874041  52.9401513
  57.5354466 109.5646672  57.4887988  56.7686861 109.0105159  57.6344671
  57.9465171 109.6368541  58.3502140  49.5396227 115.8531468  71.5793170
  50.4027688 115.4968273  71.7896494  48.9661637 115.5145362  72.2668574
  68.9602851 126.7051166  64.4407679  68.6167121 127.5952808  64.3646790
  69.3281814 126.5152824  63.5777264  70.7590517 125.9644726  59.5425417
  71.0649394 125.1042089  59.2551332  71.4843122 126.5562346  59.3424411
  68.4644689 125.7643052  60.9654399  68.7446443 125.0966241  61.5914826
  69.2495296 125.9572147  60.4529063  72.6246840 127.9418864  59.8322370
  72.4271662 127.6333952  60.7165702  73.2346546 128.6680503  59.9620300
  68.3748220 124.8938590  57.4887988  67.6080616 124.3397076  57.6344671
  68.7858925 124.9660458  58.3502140   4.3482078  22.5143941  49.1100877
   4.9860488  22.3950688  48.4064217   4.2302921  23.4624785  49.1688829
   1.1571784  22.4671369  49.0462402   0.8190296  22.3512433  48.1582937
   2.0261552  22.0662534  49.0263408   1.6391567  23.6206220  55.0048607
   1.6280208  23.2259019  54.1329111   1.8012207  22.8872293  55.5982379
   2.5958159  27.9877813  40.3473758   1.9446138  28.5731893  39.9607772
   3.3902521  28.5184008  40.4068795   3.9023346  20.2395394  46.1854085
   4.6886436  19.8214818  45.8344502   4.1662051  21.1441487  46.3535734
   4.0733424  25.6768245  40.8842742   3.4379257  25.7502871  41.5963647
   3.7430830  26.2661844  40.2061821   9.3031774  20.1770628  47.0887064
  10.0356946  19.6069844  47.3224893   8.5471129  19.7892228  47.5293569
   0.9207893  22.5997869  44.2850406   0.5566101  22.0728490  44.9963328
   1.7775009  22.2096338  44.1116892   3.3188713  26.0904748  50.9477585
   3.0189437  26.9929787  50.8393392   2.9739773  25.8236931  51.7998738
   6.7185857  18.6087288  48.6275022   5.8102735  18.5402696  48.3333783
   6.6673453  19.0859233  49.4556848   8.5847504  16.8103726  50.4052896
   7.9421884  17.1036259  49.7592691   8.0802432  16.6956647  51.2106093
   6.2387667  20.5566899  41.0938756   7.1505523  20.7894286  40.9186453
   5.7297314  21.1403944  40.5313834   4.5228435  24.9791527  54.7300048
   4.9311791  24.5373938  53.9854681   3.8005697  24.4044155  54.9834241
   0.8759505  19.9164134  52.1033605   1.7220700  20.3403548  52.2468254
   0.8158143  19.2597758  52.7972168   4.8457250  25.5392718  48.4852337
   4.2166112  25.7038432  47.7828405   4.4582912  25.9534327  49.2563301
   8.7246482  26.4747156  45.8396701   8.0397520  26.8546057  45.2893734
   8.8090331  27.0842482  46.5728649   4.0258950  17.5768502  53.7614779
   3.7819882  18.3310563  53.2249055   4.3018881  17.9553850  54.5962026
   5.9797413  24.1207115  52.4392044   6.1914308  24.7638875  51.7626425
   5.9327161  23.2869431  51.9713974   3.5823642  16.7324935  49.3428617
   2.7208121  17.0306189  49.6345354   3.6086077  16.9495334  48.4109649
   7.0943241  26.9979070  50.6114402   7.9160685  26.5959258  50.3297083
   7.0905644  26.8947304  51.5630518  15.1849234  23.3417819  46.9599373
  14.4312943  22.7725217  46.8043378  15.3196775  23.3080483  47.9070008
   0.5747862  28.2131221  42.6354093   0.4393537  29.0582757  43.0638940
   1.1157675  28.4150499  41.8720026   2.2016339  28.8354788  56.7654435
   1.7580193  28.0491166  56.4475339   2.8633552  29.0233938  56.0998325
   4.2997577  29.1157587  54.7935836   4.2816052  29.9366468  54.3016105
   5.2217497  28.9911663  55.0185977   3.8890608  21.7270394  39.6725421
   3.3737232  22.4974999  39.9113809   3.6167917  21.0535530  40.2958483
   8.8624883  24.4802749  41.6078595   8.0854325  24.1413908  41.1633757
   9.5416364  24.4855372  40.9333560   3.6776912  19.5997486  41.4985202
   3.3727047  19.9143635  42.3495346   4.6307354  19.6778906  41.5412535
   2.1223344  25.7587709  43.1478156   1.5944705  25.0240469  42.8351394
   1.6210846  26.5362386  42.9018125   7.1016190  23.9536730  48.2645203
   6.4439864  24.6435991  48.3525331   7.9056589  24.3433162  48.6079189
   5.9121648  22.3081103  46.3149144   6.4253530  22.9411094  46.8170854
   6.5622872  21.7082298  45.9492504   3.1744023  32.2865427  39.0709816
   2.5005721  32.5897124  39.6794773   3.5609845  33.0894507  38.7215273
   2.3902479  19.7830558  48.5607485   1.4725041  20.0045505  48.4029173
   2.8062623  19.8576869  47.7019192   3.1737527  21.1821974  43.6910165
   3.9209346  21.6943371  43.3817287   3.4429116  20.8606027  44.5514559
   1.4464177  23.6780515  40.6737119   0.5375396  23.3939547  40.7709589
   1.4759261  24.0979593  39.8140426   6.6783445  27.2887104  44.4428287
   6.2245772  26.4478014  44.4993477   6.0477411  27.9248502  44.7803067
   5.6216364  18.2179090  45.6728954   4.8839121  17.7056476  46.0039197
   5.8743138  17.7779472  44.8612231   5.1216384  29.1263601  45.3778105
   5.4139358  29.6868658  44.6590471   5.6315004  29.4192162  46.1331264
   1.1440265  25.2189258  38.0125198   0.7059695  24.5025117  37.5530835
   1.8850706  25.4465373  37.4510289   3.5315643  20.3728019  53.3652188
   3.8865030  20.5999492  54.2246653   4.1787774  20.7046396  52.7429443
   9.2613380  23.4946455  44.0701517   9.1231278  23.6848051  43.1422706
   8.9049599  24.2565838  44.5269568   9.2882759  25.5622982  49.0812788
   9.7219266  25.4698271  49.9295842  10.0014340  25.5380483  48.4432804
   3.0210654  29.1625076  50.6145889   3.0747677  29.7316013  51.3823605
   2.1525436  29.3326961  50.2499926  10.1498309  25.6046683  51.6145673
  10.3434199  26.5092493  51.8604948  10.0498927  25.1454102  52.4484259
   5.2113418  25.7553426  57.1886554   5.0598924  25.5263977  56.2716638
   5.2018097  26.7124027  57.2017899   1.9798754  23.3285338  52.1732821
   2.9090814  23.4796498  52.0001788   1.5589784  23.4169359  51.3181467
   1.3735238  32.4545099  41.2856895   1.5486993  31.9833142  42.1002517
   0.6868026  33.0810865  41.5138155   2.3292301  26.7317606  47.3320196
   1.9942134  26.6918375  48.2277846   1.8296247  26.0662321  46.8590606
   5.2651493  24.0773640  37.6057256   4.6480663  23.3520468  37.5090308
   4.7967981  24.8383000  37.2624330   6.9205624  28.7872548  55.2663036
   6.8618170  28.1031768  54.5993619   7.3225143  29.5291538  54.8143662
   6.9223031  26.7512132  53.4977016   6.0349810  26.4138054  53.6203415
   7.4921583  26.0195163  53.7345781   3.5510615  16.4579984  46.6175286
   4.0479314  15.7049946  46.2976356   2.7797596  16.4944301  46.0518495
  11.4040372  22.1620350  48.2593577  11.3930248  23.0445065  47.8887510
  10.5357751  21.8091900  48.0648114   2.9122868  31.3100419  52.6196417
   3.6250841  31.9447883  52.5472319   2.4212897  31.4064285  51.8036419
   4.6340395  25.2151671  44.1913709   3.6996674  25.3353134  44.0218413
   4.8117064  24.3124138  43.9273719   8.0212947  21.0568990  44.7263743
   8.4873399  21.8896982  44.6524046   8.4720447  20.5913972  45.4309002
   6.0889178  27.4012812  41.7249895   6.3649022  27.2869406  42.6343769
   5.2193676  27.0030297  41.6862068   5.7636068  21.6139469  51.2654539
   5.1107518  21.8615377  50.6106991   6.1416448  20.8003608  50.9317016
   2.7243242  31.6499163  45.3682709   2.9065636  30.8320819  45.8310461
   3.5476228  31.8666855  44.9307599   3.0585407  30.5767348  42.6297757
   3.5873174  30.0659802  42.0167920   3.3213627  30.2609878  43.4943290
   1.8123641  22.3559280  57.7520576   1.1364278  22.2553410  58.4222951
   2.6351275  22.1998494  58.2156573   0.5546424  33.6626208  51.9878192
   1.1064732  33.8257829  52.7527277   0.8952617  34.2530646  51.3158217
   5.4057298  28.4887465  57.8426846   5.9497202  29.1017424  57.3481801
   4.8244143  29.0467044  58.3593859   3.6914811  31.6108183  48.9741874
   3.5665951  30.8097923  48.4652819   4.3493902  32.1054377  48.4855844
   5.7549719  29.4117204  50.6021424   4.8080055  29.2922555  50.5299751
   6.1032493  28.5239702  50.6847685   2.7596153  29.2069920  46.8025776
   2.6121115  28.2786627  46.9833346   3.5849646  29.2290010  46.3182851
   6.3630275  30.0298478  47.8890649   7.2876822  29.8241340  47.7515100
   6.1945578  29.7814880  48.7979990   6.1525591  30.5484146  43.2452740
   6.3262468  29.9830568  42.4926593   6.6454482  31.3485041  43.0632230
  12.0064982  23.3120569  44.8643040  12.4496128  22.5627894  44.4662163
  11.1291492  23.3030705  44.4816772   7.1400763  29.8650910  40.3449639
   7.8351668  30.4857603  40.5636953   7.4823913  29.0146262  40.6202017
   9.0392186  27.3150616  41.8736969   9.5643510  27.6537889  41.1486289
   8.9514539  26.3797631  41.6900104   0.7012235  31.2284690  54.0026846
   1.0099362  30.9833836  54.8749546   1.4987717  31.4331328  53.5145716
   8.7286092  27.9483520  57.1788167   7.9381636  27.9307658  56.6392667
   8.4919447  28.4871813  57.9337204   8.8483968  24.7975986  54.4920896
   8.8981972  24.6325993  55.4336419   8.7397891  23.9303245  54.1018777
   6.1387730  20.7806914  55.8080203   7.0397593  20.6413379  55.5164200
   6.2135704  20.9461369  56.7478380  10.3502164  27.2172927  54.7362918
  10.0586973  27.5802908  55.5726378   9.7374296  26.5039936  54.5576250
  11.5497847  24.7825807  47.2565488  12.3844738  25.2215611  47.4203048
  11.6856975  24.3064460  46.4373734   8.5989353  22.3405542  53.2042975
   9.0743474  22.5333188  52.3961827   7.6754918  22.3964728  52.9586359
   1.2315632  29.9712662  39.2524732   0.6589599  30.5902849  38.7995204
   1.8048425  30.5212024  39.7864654   7.2991022  19.2171302  51.4371281
   8.2508444  19.3169400  51.4583505   7.1294472  18.4249571  51.9469365
   5.3205401  16.3026885  51.6230682   4.7255333  16.5831898  50.9277171
   5.0355098  16.7920786  52.3947423   4.4512892  30.2549812  40.3833315
   5.3843565  30.1895374  40.5866190   4.3636104  31.0906079  39.9247847
   7.0800908  29.5715683  37.3437262   7.0014540  29.2375546  38.2373020
   7.9010575  30.0637450  37.3428734   9.7779099  22.4377422  50.5513581
   9.7455419  21.4993423  50.7373265  10.3879723  22.5161459  49.8179406
   1.6162430  21.3073475  36.5940785   2.5621535  21.1779683  36.6629203
   1.2376675  20.5688137  37.0710213   9.9273588  19.2288465  50.5971864
   9.4112637  18.4446922  50.4101793  10.8113536  18.9007182  50.7618383
  15.5955649  23.4993429  49.6919618  16.3259038  23.2378717  50.2527321
  14.9862595  22.7622151  49.7321686  13.6770946  21.6401291  50.2894069
  12.9504110  21.5057256  49.6810560  13.2618233  21.9478120  51.0950787
   1.5001123  25.3591221  58.0541442   2.4204132  25.5369820  58.2481488
   1.4650706  24.4147266  57.9021141   6.7236768  14.9638913  43.8142872
   6.1435438  15.6223717  43.4320925   6.4572701  14.1416257  43.4030290
   5.5061647  17.1239003  42.8699220   4.6187502  17.4088654  42.6519415
   5.9215636  16.9632767  42.0226497   8.8576183  17.1485524  46.5853560
   9.6336573  17.6381977  46.8578177   8.1324317  17.5743578  47.0425429
  11.2948741  17.8613143  47.6427500  11.8893232  17.6208879  46.9320809
  11.3675325  17.1420274  48.2701037   4.6504860  26.8883678  36.9647240
   5.3540710  27.0933680  37.5804896   3.9267509  27.4560440  37.2296324
   5.4802670  22.6393539  43.0849511   5.4237872  23.0962091  42.2457143
   6.0331013  21.8784224  42.9072353   9.2907476  18.4283271  43.9099630
   9.0344410  18.0279907  44.7407838   8.6660344  19.1427065  43.7849769
  13.6019814  21.1679344  46.4170922  13.0419372  21.2372534  47.1902484
  12.9963317  20.9920329  45.6970418   6.5591557  27.3266207  39.0145701
   7.3937161  26.8947406  38.8323175   6.3975900  27.1548221  39.9422595
   6.2137450  23.8298320  40.3802040   6.1586253  23.6642592  39.4390484
   5.5883505  24.5374353  40.5364230   3.5283357  26.1347232  59.7055603
   4.3974516  26.3087885  59.3442238   3.0490108  26.9541649  59.5831332
  15.1875832  37.8435858  49.1100877  15.8254242  37.7242606  48.4064217
  15.0696675  38.7916702  49.1688829  11.9965539  37.7963286  49.0462402
  11.6584050  37.6804351  48.1582937  12.8655307  37.3954451  49.0263408
   7.8552354  39.6498763  45.0359293   7.2917220  39.5588700  44.2675581
   7.7404749  38.8298667  45.5161785  12.4785322  38.9498138  55.0048607
  12.4673963  38.5550936  54.1329111  12.6405961  38.2164211  55.5982379
   5.4016786  41.1449954  47.8743513   6.1938078  40.8040779  47.4589813
   5.6413437  41.2544929  48.7945667  13.4351913  43.3169730  40.3473758
  12.7839893  43.9023811  39.9607772  14.2296276  43.8475925  40.4068795
   7.3607540  40.4058868  40.7460892   8.1338416  39.8587855  40.6073768
   7.7132939  41.2703117  40.9575354   9.1992583  41.7335250  53.9527791
   8.9082449  42.6380881  53.8374458   9.8349567  41.7751777  54.6671861
  10.1248790  39.1112098  50.5429151  10.7212362  38.8868121  49.8286114
  10.1823761  38.3696844  51.1454599   9.6973818  36.5651534  38.3779342
   9.9499339  36.0433055  37.6162805   8.7598377  36.4017679  38.4806026
  14.7417101  35.5687312  46.1854085  15.5280190  35.1506735  45.8344502
  15.0055805  36.4733404  46.3535734  14.9127178  41.0060162  40.8842742
  14.2773011  41.0794789  41.5963647  14.5824585  41.5953761  40.2061821
  20.1425528  35.5062545  47.0887064  20.8750700  34.9361762  47.3224893
  19.3864884  35.1184146  47.5293569   9.4170107  38.4679640  40.5803717
   9.3006365  37.7924543  41.2484801   9.5272367  37.9812014  39.7635870
  11.7601648  37.9289787  44.2850406  11.3959855  37.4020408  44.9963328
  12.6168764  37.5388256  44.1116892  17.6650948  29.2184119  51.5481672
  17.3334273  30.0879530  51.3242887  17.0696562  28.9020403  52.2275703
  11.4007135  32.9579686  39.2811755  11.5681537  33.8259923  39.6482226
  11.2104304  33.1206968  38.3573044  14.1582468  41.4196665  50.9477585
  13.8583191  42.3221704  50.8393392  13.8133527  41.1528849  51.7998738
   7.6094949  37.8710462  46.9814290   6.6845446  37.7386676  47.1891981
   7.8579363  38.6504681  47.4784232  17.5579612  33.9379206  48.6275022
  16.6496489  33.8694614  48.3333783  17.5067208  34.4151150  49.4556848
  11.3796356  35.4137344  40.2658422  11.2595981  35.8594395  41.1043902
  10.6848944  35.7622662  39.7071960   4.9703760  37.5143736  47.8158079
   5.0996142  37.7678215  48.7297490   4.2901212  38.1071444  47.4962734
   9.1403248  48.1840986  43.9148553   9.0627277  49.1348811  43.9937033
   8.5364891  47.8386858  44.5723479  11.6320478  35.3568851  56.5709920
  10.8553812  35.9162771  56.5612784  12.2711041  35.8425634  57.0924790
  19.4241258  32.1395644  50.4052896  18.7815638  32.4328177  49.7592691
  18.9196187  32.0248564  51.2106093  17.0781422  35.8858817  41.0938756
  17.9899278  36.1186204  40.9186453  16.5691069  36.4695861  40.5313834
   9.8866850  38.1654305  56.1327887  10.6281534  38.7039348  55.8562710
   9.1803835  38.7920593  56.2899439  15.3622189  40.3083445  54.7300048
  15.7705546  39.8665856  53.9854681  14.6399451  39.7336072  54.9834241
  11.7153260  35.2456052  52.1033605  12.5614455  35.6695465  52.2468254
  11.6551897  34.5889676  52.7972168  15.6851004  40.8684636  48.4852337
  15.0559867  41.0330350  47.7828405  15.2976666  41.2826245  49.2563301
  19.5640236  41.8039073  45.8396701  18.8791274  42.1837975  45.2893734
  19.6484085  42.4134400  46.5728649  14.8652705  32.9060420  53.7614779
  14.6213637  33.6602481  53.2249055  15.1412635  33.2845768  54.5962026
  16.8191168  39.4499032  52.4392044  17.0308063  40.0930792  51.7626425
  16.7720916  38.6161349  51.9713974  14.4217397  32.0616853  49.3428617
  13.5601876  32.3598107  49.6345354  14.4479831  32.2787252  48.4109649
  11.2378966  40.6059044  45.7502422  11.7017312  40.8846747  44.9607045
  10.9735764  39.7042488  45.5675513   8.1303047  40.1530525  48.6882185
   8.7004404  40.5817794  48.0499670   8.7211159  39.8713110  49.3866371
  10.1747852  36.7282196  42.5591987  10.8771895  37.1803240  43.0265914
   9.8428481  36.0866015  43.1871880   8.6228214  35.3193953  56.9343197
   7.9926874  36.0010234  57.1678594   8.5164301  35.2077034  55.9896335
   3.9173186  34.9865749  47.8609121   3.1272240  35.2423277  47.3849232
   4.4084433  35.8014087  47.9661161  17.9336996  42.3270988  50.6114402
  18.7554439  41.9251175  50.3297083  17.9299398  42.2239222  51.5630518
   5.8687931  35.3510328  44.8192598   5.0719095  35.4629022  45.3376093
   5.6413524  35.6896980  43.9533488  11.6993599  41.8755031  52.7675112
  11.7638032  42.3375438  53.6033284  10.9904523  41.2452396  52.8957422
   2.2010889  35.2396239  50.2924112   2.4518927  36.1243249  50.5581688
   2.7370437  35.0600841  49.5199204  26.0242989  38.6709736  46.9599373
  25.2706697  38.1017134  46.8043378  26.1590530  38.6372401  47.9070008
  11.4141617  43.5423139  42.6354093  11.2787291  44.3874674  43.0638940
  11.9551429  43.7442416  41.8720026   7.9008956  29.6214719  59.2968448
   7.5075902  29.0680917  59.9716092   8.7175097  29.9325297  59.6874965
   4.8671014  41.0598577  43.2082018   5.3795535  41.8541827  43.3587582
   5.5193727  40.3624867  43.1415619   6.6765899  44.1764333  45.2904771
   6.8532527  45.0982298  45.1025755   7.4722732  43.8622752  45.7199151
  10.8176917  31.0372598  56.8888704  11.5586631  31.6379751  56.8093167
  11.0494840  30.2950235  56.3306747   5.9618255  36.2228965  55.1666934
   5.8471770  35.3214222  55.4674033   5.1062773  36.4692662  54.8151751
  13.0410093  44.1646705  56.7654435  12.5973947  43.3783084  56.4475339
  13.7027307  44.3525856  56.0998325   7.7997214  45.6942507  51.2915113
   8.3504639  45.5659570  50.5192107   6.9608690  45.9937396  50.9410006
  15.1391331  44.4449505  54.7935836  15.1209806  45.2658386  54.3016105
  16.0611251  44.3203580  55.0185977  11.5964385  41.9593635  55.6359344
  12.1292722  41.1981923  55.4058652  11.0678466  41.6667286  56.3783499
  14.7634080  27.0653701  51.1652986  14.4198350  27.9555342  51.0892097
  15.1313043  26.8755358  50.3022571   2.8319931  39.3887231  43.9841588
   3.6695153  39.7984239  43.7675296   3.0098199  38.4486673  43.9541782
  14.7284363  37.0562312  39.6725421  14.2130986  37.8266916  39.9113809
  14.4561671  36.3827448  40.2958483  12.3131474  31.9012012  44.7310660
  11.4573070  31.5118863  44.5516298  12.7258426  31.9803973  43.8710445
  13.8430621  29.4358356  49.1302219  13.3395416  29.3988491  48.3170025
  14.1361228  30.3451098  49.1898876  10.0873507  29.5197085  48.1368401
  10.9526503  29.3239894  47.7774290  10.1551015  29.2907437  49.0637758
  19.7018637  39.8094666  41.6078595  18.9248080  39.4705826  41.1633757
  20.3810118  39.8147289  40.9333560  14.5170666  34.9289404  41.4985202
  14.2120802  35.2435553  42.3495346  15.4701108  35.0070824  41.5412535
  12.9617098  41.0879627  43.1478156  12.4338460  40.3532387  42.8351394
  12.4604601  41.8654303  42.9018125  17.9409944  39.2828648  48.2645203
  17.2833618  39.9727909  48.3525331  18.7450343  39.6725080  48.6079189
   7.6935826  31.7499293  45.5084768   8.2679578  31.5274475  44.7757961
   8.2806808  31.8187988  46.2613369  16.7515403  37.6373020  46.3149144
  17.2647285  38.2703012  46.8170854  17.4016627  37.0374216  45.9492504
   8.0205413  33.7803754  39.5280653   7.1842725  34.1178441  39.8489928
   7.8810182  33.6452734  38.5907790   9.9958493  28.6240542  44.2359837
   9.3422906  28.3089559  43.6116452   9.9538967  28.0016283  44.9619660
  11.1069698  38.9059837  36.1513129  10.1996760  38.6749091  36.3504278
  11.6040730  38.1097457  36.3387111  14.0137777  47.6157345  39.0709816
  13.3399476  47.9189041  39.6794773  14.4003599  48.4186425  38.7215273
  13.2296234  35.1122476  48.5607485  12.3118795  35.3337423  48.4029173
  13.6456377  35.1868786  47.7019192  14.0131281  36.5113891  43.6910165
  14.7603100  37.0235289  43.3817287  14.2822871  36.1897944  44.5514559
  12.2857932  39.0072432  40.6737119  11.3769151  38.7231465  40.7709589
  12.3153015  39.4271511  39.8140426  17.5177199  42.6179022  44.4428287
  17.0639526  41.7769932  44.4993477  16.8871166  43.2540420  44.7803067
  16.4610119  33.5471008  45.6728954  15.7232875  33.0348394  46.0039197
  16.7136892  33.1071389  44.8612231  15.9610138  44.4555518  45.3778105
  16.2533113  45.0160576  44.6590471  16.4708759  44.7484079  46.1331264
  16.5621746  26.3247260  46.2670724  16.8680623  25.4644623  45.9796639
  17.2874351  26.9164880  46.0669718   2.8546102  36.7277946  44.6552322
   2.6570502  36.1347307  43.9303388   2.2992766  36.4230157  45.3728260
  10.8342826  36.6201053  46.7746915  10.8891435  35.6674889  46.6989391
  10.0234028  36.7760492  47.2588213  11.9834019  40.5481176  38.0125198
  11.5453449  39.8317035  37.5530835  12.7244460  40.7757291  37.4510289
   8.7735186  35.2378113  44.5337294   7.9603051  35.5372283  44.9402486
   9.2694180  34.8433801  45.2511776  10.9243763  45.2335869  46.4671558
  10.8819942  45.4596716  45.5380090  11.8406462  44.9999244  46.6157359
  14.3709397  35.7019937  53.3652188  14.7258785  35.9291410  54.2246653
  15.0181528  36.0338314  52.7429443  20.1007134  38.8238373  44.0701517
  19.9625033  39.0139969  43.1422706  19.7443353  39.5857756  44.5269568
   8.2649260  32.8096468  50.1498529   8.9048640  32.6685227  49.4521492
   7.4326791  32.5230981  49.7737131  20.1276514  40.8914900  49.0812788
  20.5613020  40.7990189  49.9295842  20.8408095  40.8672400  48.4432804
   9.0409564  42.1098899  46.2633521   9.8350163  41.6149219  46.0616096
   8.3301257  41.5816762  45.9001227  13.8604409  44.4916994  50.6145889
  13.9141431  45.0607930  51.3823605  12.9919190  44.6618879  50.2499926
   5.3492328  36.2541980  42.3393274   4.4189916  36.1926436  42.5563236
   5.4449800  35.7317933  41.5429915   5.2677877  32.7796793  44.9271515
   5.5284694  33.6942126  44.8180676   6.0895049  32.3121236  45.0768128
   6.7402802  34.1934550  52.0970340   7.4125856  33.9851912  51.4482989
   5.9132589  33.9956636  51.6575572  20.9892063  40.9338601  51.6145673
  21.1827953  41.8384411  51.8604948  20.8892682  40.4746020  52.4484259
  12.6428374  30.8196491  54.1136001  11.9956289  31.5186441  54.0200477
  13.4129390  31.2532635  54.4812249  16.0507172  41.0845343  57.1886554
  15.8992678  40.8555895  56.2716638  16.0411852  42.0415945  57.2017899
  12.8192508  38.6577256  52.1732821  13.7484568  38.8088416  52.0001788
  12.3983538  38.7461277  51.3181467  11.6180840  42.6827920  49.9431358
  11.4791926  42.3146705  50.8157296  10.8295436  43.1975560  49.7715316
  12.2128992  47.7837017  41.2856895  12.3880748  47.3125060  42.1002517
  11.5261780  48.4102783  41.5138155  13.1686055  42.0609523  47.3320196
  12.8335888  42.0210293  48.2277846  12.6690001  41.3954239  46.8590606
   7.1430299  37.4677153  52.8572777   7.0050097  36.7357392  53.4584316
   8.0535223  37.3786053  52.5756965  16.1045247  39.4065558  37.6057256
  15.4874418  38.6812386  37.5090308  15.6361735  40.1674918  37.2624330
   9.7712600  37.1797113  52.3456457  10.4812219  36.5390305  52.3043075
   9.7281908  37.4310007  53.2682638  17.7599379  44.1164466  55.2663036
  17.7011925  43.4323686  54.5993619  18.1618897  44.8583456  54.8143662
   8.4841534  34.1662330  54.1652096   7.9478891  33.7153069  54.8173693
   7.8958242  34.3008239  53.4222561   6.7790077  50.9326380  48.0596755
   7.0186676  51.5644904  48.7375773   5.9359274  50.5814420  48.3462114
   7.8943793  33.6250982  36.7278560   7.0173259  33.5039783  36.3640807
   8.3701546  32.8337060  36.4757449  17.7616786  42.0804050  53.4977016
  16.8743565  41.7429972  53.6203415  18.3315337  41.3487081  53.7345781
   4.2180655  33.3018338  51.2505091   4.1338844  32.6944008  50.5155501
   3.3963362  33.7927356  51.2514587  11.2917939  46.7405502  50.4638259
  11.2188111  47.5460474  50.9757563  10.8495332  46.9397468  49.6386280
  11.0807719  45.9777272  43.9741080  10.2975241  46.5198952  44.0679305
  11.7800464  46.4951252  44.3735322  14.3904369  31.7871902  46.6175286
  14.8873069  31.0341864  46.2976356  13.6191351  31.8236218  46.0518495
  22.2434126  37.4912267  48.2593577  22.2324003  38.3736983  47.8887510
  21.3751506  37.1383818  48.0648114  13.7516623  46.6392336  52.6196417
  14.4644595  47.2739801  52.5472319  13.2606652  46.7356202  51.8036419
  15.4734150  40.5443589  44.1913709  14.5390429  40.6645051  44.0218413
  15.6510818  39.6416056  43.9273719  10.9739338  33.9289285  46.3446970
  10.6037125  33.3760325  47.0327876  11.4698430  33.3247418  45.7921970
  18.8606701  36.3860908  44.7263743  19.3267153  37.2188900  44.6524046
  19.3114202  35.9205890  45.4309002   8.8028536  44.3886780  53.4401988
   9.5037996  45.0223263  53.5931383   8.3323651  44.7301511  52.6797628
  16.9282932  42.7304729  41.7249895  17.2042776  42.6161324  42.6343769
  16.0587431  42.3322214  41.6862068  16.8323364  28.7541495  48.7654645
  15.9186444  28.9845722  48.9336852  17.2616465  28.8379939  49.6168677
  16.6029822  36.9431387  51.2654539  15.9501273  37.1907295  50.6106991
  16.9810202  36.1295525  50.9317016  13.5636996  46.9791080  45.3682709
  13.7459391  46.1612736  45.8310461  14.3869982  47.1958773  44.9307599
  13.8979162  45.9059265  42.6297757  14.4266928  45.3951720  42.0167920
  14.1607381  45.5901796  43.4943290  12.6517395  37.6851198  57.7520576
  11.9758032  37.5845327  58.4222951  13.4745029  37.5290412  58.2156573
   4.3996254  43.9223135  50.3733091   4.9849691  43.1766823  50.5060995
   4.2021093  44.2327091  51.2569755   7.2534910  46.9574382  45.3895533
   6.5845285  47.4420510  44.9059573   7.1147779  47.2043603  46.3038912
  11.3940178  48.9918126  51.9878192  11.9458486  49.1549747  52.7527277
  11.7346372  49.5822563  51.3158217   6.3704672  31.3393275  52.5900076
   6.4345998  32.2008106  52.1777474   6.3071792  30.7267277  51.8572435
   5.8456944  33.4116408  56.2373111   6.4728983  33.0293485  56.8510635
   4.9884863  33.1930610  56.6028803  16.2451053  43.8179383  57.8426846
  16.7890957  44.4309341  57.3481801  15.6637897  44.3758962  58.3593859
   2.6222487  35.2192837  42.1691466   2.9175928  34.3103515  42.1158519
   1.7210523  35.1980577  41.8472468  14.5308566  46.9400101  48.9741874
  14.4059705  46.1389841  48.4652819  15.1887657  47.4346295  48.4855844
   6.1516734  33.2948834  48.1519014   5.4303320  33.9084801  48.0126487
   6.9409990  33.8306598  48.0735660  16.5943474  44.7409121  50.6021424
  15.6473809  44.6214472  50.5299751  16.9426247  43.8531619  50.6847685
   8.9543047  30.6303260  54.4259666   9.4777449  30.8765557  55.1885975
   8.7355381  31.4623295  54.0062803   4.3510328  32.9006935  42.2930791
   4.0223035  32.0204314  42.1105897   4.7049699  32.8454603  43.1807180
  13.5989907  44.5361837  46.8025776  13.4514870  43.6078545  46.9833346
  14.4243401  44.5581928  46.3182851   7.4652152  33.1879905  42.6606268
   7.8048224  33.7165826  41.9384877   7.9124272  33.5260311  43.4364835
  17.2024029  45.3590396  47.8890649  18.1270577  45.1533258  47.7515100
  17.0339332  45.1106797  48.7979990  10.1595592  31.5716955  52.1109336
   9.8192413  30.7724768  52.5130016   9.4534599  31.8718666  51.5386170
  10.8112064  28.6566268  50.5636659  11.6338133  28.1826746  50.4415550
  11.0550128  29.4356751  51.0635346   9.4520299  31.6854526  40.8599561
  10.1728661  32.0635779  40.3563278   8.8285603  32.4043403  40.9634539
  13.5951422  32.3899675  41.7957893  13.8115036  33.2724313  41.4946722
  13.1145489  31.9985889  41.0663535   8.3350643  35.3485388  48.3728638
   8.1895224  35.6625691  49.2652920   7.8575847  35.9670289  47.8199537
  10.1947026  32.3387936  48.4209528  10.1808595  31.4429030  48.0841826
  10.9119454  32.3458600  49.0547814  12.0473157  32.7725277  50.4662655
  11.7890934  33.6942347  50.4646985  11.5158197  32.3755711  51.1563119
  16.9919345  45.8776064  43.2452740  17.1656223  45.3122486  42.4926593
  17.4848237  46.6776959  43.0632230   2.8096305  37.8890733  51.3116299
   2.2649773  38.6650541  51.4436574   3.6875655  38.2361537  51.1535421
   9.5983922  31.2202317  43.6897098   9.7199833  30.2918963  43.8887985
   9.3085964  31.2341003  42.7775413  12.4675112  28.9057227  46.8263818
  12.4896809  28.9696560  45.8715797  12.8843171  28.0661736  47.0204324
  22.8458736  38.6412487  44.8643040  23.2889882  37.8919812  44.4662163
  21.9685247  38.6322623  44.4816772  17.9794518  45.1942828  40.3449639
  18.6745422  45.8149521  40.5636953  18.3217668  44.3438179  40.6202017
   3.5962327  37.0160629  54.2046456   2.8544063  37.1643264  54.7911087
   3.2755071  37.2768895  53.3413206  19.8785941  42.6442534  41.8736969
  20.4037265  42.9829806  41.1486289  19.7908293  41.7089549  41.6900104
  11.5405990  46.5576607  54.0026846  11.8493116  46.3125754  54.8749546
  12.3381472  46.7623246  53.5145716  11.5626602  48.7114517  46.2332223
  11.1231592  48.2190896  46.9265079  12.3134719  48.1687485  45.9924298
   4.0418941  44.9026058  46.2356851   4.8676961  44.6029830  45.8555494
   3.6912993  44.1333680  46.6846639   9.0100474  44.2552526  48.3054524
   8.3880483  43.5923231  48.0056752   9.6805341  44.2813658  47.6228172
   2.2427546  42.8212384  47.1945784   1.4059454  42.3934559  47.0129786
   2.2151191  43.0144828  48.1316576   9.0825001  32.7334314  57.8987030
   9.1313157  33.6096437  57.5164800   9.6247515  32.1911707  57.3258674
  19.5679847  43.2775437  57.1788167  18.7775391  43.2599576  56.6392667
  19.3313202  43.8163731  57.9337204  19.6877722  40.1267904  54.4920896
  19.7375727  39.9617911  55.4336419  19.5791645  39.2595163  54.1018777
   8.5713981  42.8056449  41.7812985   8.7202101  43.4891914  41.1279658
   9.3780424  42.7861539  42.2962441  16.9781484  36.1098832  55.8080203
  17.8791347  35.9705296  55.5164200  17.0529459  36.2753286  56.7478380
  11.3124290  33.4865686  54.6533389  10.4427599  33.7799252  54.3815978
  11.5483770  34.0706131  55.3740653  21.1895919  42.5464845  54.7362918
  20.8980727  42.9094826  55.5726378  20.5768050  41.8331853  54.5576250
  22.3891601  40.1117725  47.2565488  23.2238493  40.5507529  47.4203048
  22.5250730  39.6356378  46.4373734  19.4383107  37.6697460  53.2042975
  19.9137229  37.8625106  52.3961827  18.5148672  37.7256646  52.9586359
   6.3266614  38.8321627  42.7874054   6.0812656  37.9283957  42.9854264
   6.4962528  38.8338777  41.8453532  14.0163324  29.7045303  52.1698809
  14.5345267  30.4406330  51.8445298  13.6618456  30.0109297  53.0045569
   5.5962261  34.5649984  40.2860215   4.9031506  34.6394339  39.6300251
   5.3514013  33.8010328  40.8081732  14.2675918  26.1245586  47.6899706
  14.5477672  25.4568775  48.3160133  15.0526525  26.3174681  47.1774370
  12.0709386  45.3004580  39.2524732  11.4983353  45.9194767  38.7995204
  12.6442180  45.8503941  39.7864654  18.1384776  34.5463220  51.4371281
  19.0902199  34.6461317  51.4583505  17.9688227  33.7541488  51.9469365
  16.1599156  31.6318803  51.6230682  15.5649088  31.9123816  50.9277171
  15.8748852  32.1212704  52.3947423  15.2906646  45.5841730  40.3833315
  16.2237319  45.5187292  40.5866190  15.2029859  46.4197997  39.9247847
  17.9194663  44.9007600  37.3437262  17.8408294  44.5667464  38.2373020
  18.7404329  45.3929368  37.3428734  20.6172854  37.7669340  50.5513581
  20.5849174  36.8285340  50.7373265  21.2273478  37.8453376  49.8179406
  12.4556185  36.6365392  36.5940785  13.4015289  36.5071601  36.6629203
  12.0770430  35.8980054  37.0710213  20.7667342  34.5580383  50.5971864
  20.2506391  33.7738840  50.4101793  21.6507291  34.2299100  50.7618383
  18.4278069  28.3021399  46.5567677  18.2302890  27.9936487  47.4411009
  19.0377775  29.0283037  46.6865606  26.4349404  38.8285346  49.6919618
  27.1652792  38.5670634  50.2527321  25.8256349  38.0914068  49.7321686
  24.5164701  36.9693209  50.2894069  23.7897864  36.8349174  49.6810560
  24.1011988  37.2770038  51.0950787  12.3394877  40.6883139  58.0541442
  13.2597887  40.8661738  58.2481488  12.3044460  39.7439184  57.9021141
  10.6399102  34.5615369  36.5295670   9.7330557  34.2648482  36.6058384
  10.9175083  34.2645187  35.6629956   1.5577042  35.8821732  46.9794716
   1.2379827  35.0287040  46.6869090   1.0110470  36.0970310  47.7352684
   5.3356950  38.5984173  50.6964223   5.5542960  39.5301281  50.7152257
   5.7482724  38.2392148  51.4819027  12.2561168  29.1052259  42.6839911
  11.4461896  28.7599344  43.0595157  12.9445585  28.7959802  43.2727523
  14.1851716  28.1830305  44.3064208  14.7382755  28.6025759  44.9654231
  14.4221802  27.2566053  44.3487164  10.2084815  34.1717379  60.0866972
  10.1081542  35.1211736  60.0179063   9.9906357  33.8435618  59.2143042
   9.4097887  31.4202304  36.6707649  10.2717051  31.7457202  36.9303467
   9.5948231  30.6333800  36.1580715   1.4265302  39.5024644  48.9487838
   0.7328774  39.0878597  48.4357792   2.1738293  39.5445180  48.3521257
  17.5630523  30.2930831  43.8142872  16.9829192  30.9515635  43.4320925
  17.2966456  29.4708175  43.4030290  16.0134089  29.6935888  46.0164193
  16.5133868  29.8052423  45.2078511  16.6569697  29.3896941  46.6565001
  10.0716085  37.6014518  58.9032034   9.5883167  38.4014878  59.1095923
  10.1577024  37.6122463  57.9499478   3.3402045  39.4342898  46.8253853
   3.3172733  39.5330585  45.8735736   3.6502681  40.2808048  47.1471019
   5.9989423  41.4919053  50.9400467   6.9532676  41.4602995  50.8730399
   5.8001946  41.0309676  51.7550693   6.5888805  40.0620169  53.5071265
   7.4081694  40.5564247  53.5306102   6.8625613  39.1452137  53.4788832
  16.3455401  32.4530921  42.8699220  15.4581256  32.7380572  42.6519415
  16.7609390  32.2924684  42.0226497  19.6969937  32.4777442  46.5853560
  20.4730327  32.9673894  46.8578177  18.9718071  32.9035496  47.0425429
  22.1342496  33.1905061  47.6427500  22.7286987  32.9500797  46.9320809
  22.2069079  32.4712192  48.2701037   4.3539651  47.0338672  47.9570665
   4.2194119  46.2739073  47.3908663   3.9371714  47.7579572  47.4899454
  15.4898614  42.2175596  36.9647240  16.1934465  42.4225598  37.5804896
  14.7661263  42.7852357  37.2296324  16.3196425  37.9685457  43.0849511
  16.2631626  38.4254008  42.2457143  16.8724767  37.2076141  42.9072353
  20.1301231  33.7575189  43.9099630  19.8738165  33.3571824  44.7407838
  19.5054099  34.4718983  43.7849769  24.4413569  36.4971262  46.4170922
  23.8813126  36.5664451  47.1902484  23.8357072  36.3212247  45.6970418
   7.5108777  47.9307989  48.1689108   7.3941161  48.8753422  48.0667798
   6.6901224  47.6281551  48.5574907  17.3985312  42.6558125  39.0145701
  18.2330916  42.2239323  38.8323175  17.2369655  42.4840138  39.9422595
  17.0531204  39.1590238  40.3802040  16.9980008  38.9934510  39.4390484
  16.4277259  39.8666271  40.5364230   1.8423719  34.3958302  54.2063462
   2.4882583  33.8857256  54.6950687   1.6340870  35.1326984  54.7806887
  14.3677111  41.4639150  59.7055603  15.2368271  41.6379802  59.3442238
  13.8883863  42.2833567  59.5831332  10.3627330  28.6598347  39.9587358
  10.3505999  29.6040187  40.1155629  11.2550751  28.4768493  39.6646819
   8.5363291  48.5836251  51.3845036   9.4390538  48.6159861  51.7011531
   8.3100662  47.6536702  51.3991372  10.2916893  47.3367238  48.0455115
   9.3412524  47.3369099  47.9319487  10.5949380  46.5899972  47.5291149
  14.1779449  25.2541124  44.2133295  13.4111845  24.6999610  44.3589977
  14.5890154  25.3262993  45.0747447   6.1821210  31.5425920  58.3038476
   7.0452672  31.1862724  58.5141801   5.6086621  31.2039814  58.9913881
  26.0269587  53.1727776  49.1100877  26.6647997  53.0534523  48.4064217
  25.9090430  54.1208620  49.1688829  22.8359293  53.1255204  49.0462402
  22.4977805  53.0096269  48.1582937  23.7049061  52.7246369  49.0263408
  18.6946109  54.9790680  45.0359293  18.1310974  54.8880617  44.2675581
  18.5798504  54.1590585  45.5161785  23.3179076  54.2790056  55.0048607
  23.3067717  53.8842854  54.1329111  23.4799716  53.5456128  55.5982379
  16.2410541  56.4741872  47.8743513  17.0331833  56.1332697  47.4589813
  16.4807191  56.5836847  48.7945667  24.2745668  58.6461648  40.3473758
  23.6233647  59.2315729  39.9607772  25.0690030  59.1767843  40.4068795
  18.2001295  55.7350785  40.7460892  18.9732171  55.1879772  40.6073768
  18.5526694  56.5995035  40.9575354  20.0386337  57.0627168  53.9527791
  19.7476203  57.9672798  53.8374458  20.6743322  57.1043695  54.6671861
  20.9642544  54.4404016  50.5429151  21.5606116  54.2160038  49.8286114
  21.0217516  53.6988762  51.1454599  20.5367573  51.8943451  38.3779342
  20.7893093  51.3724973  37.6162805  19.5992132  51.7309597  38.4806026
  25.5810855  50.8979230  46.1854085  26.3673945  50.4798653  45.8344502
  25.8449560  51.8025322  46.3535734  25.7520933  56.3352080  40.8842742
  25.1166766  56.4086707  41.5963647  25.4218339  56.9245679  40.2061821
  30.9819283  50.8354463  47.0887064  31.7144455  50.2653680  47.3224893
  30.2258638  50.4476063  47.5293569  20.2563861  53.7971557  40.5803717
  20.1400119  53.1216461  41.2484801  20.3666121  53.3103931  39.7635870
  22.5995402  53.2581704  44.2850406  22.2353610  52.7312325  44.9963328
  23.4562518  52.8680174  44.1116892  28.5044703  44.5476037  51.5481672
  28.1728028  45.4171448  51.3242887  27.9090316  44.2312321  52.2275703
  22.2400889  48.2871604  39.2811755  22.4075292  49.1551841  39.6482226
  22.0498058  48.4498886  38.3573044  24.9976222  56.7488583  50.9477585
  24.6976946  57.6513622  50.8393392  24.6527282  56.4820766  51.7998738
  18.4488704  53.2002380  46.9814290  17.5239200  53.0678594  47.1891981
  18.6973117  53.9796599  47.4784232  28.3973366  49.2671123  48.6275022
  27.4890244  49.1986532  48.3333783  28.3460962  49.7443068  49.4556848
  22.2190110  50.7429262  40.2658422  22.0989735  51.1886312  41.1043902
  21.5242699  51.0914579  39.7071960  15.8097515  52.8435653  47.8158079
  15.9389896  53.0970132  48.7297490  15.1294966  53.4363361  47.4962734
  19.9797002  63.5132903  43.9148553  19.9021032  64.4640728  43.9937033
  19.3758646  63.1678776  44.5723479  22.4714232  50.6860769  56.5709920
  21.6947566  51.2454689  56.5612784  23.1104795  51.1717552  57.0924790
  30.2635013  47.4687562  50.4052896  29.6209393  47.7620095  49.7592691
  29.7589941  47.3540482  51.2106093  27.9175176  51.2150735  41.0938756
  28.8293032  51.4478122  40.9186453  27.4084823  51.7987779  40.5313834
  20.7260604  53.4946222  56.1327887  21.4675289  54.0331266  55.8562710
  20.0197590  54.1212511  56.2899439  26.2015944  55.6375363  54.7300048
  26.6099300  55.1957773  53.9854681  25.4793205  55.0627990  54.9834241
  22.5547014  50.5747969  52.1033605  23.4008209  50.9987383  52.2468254
  22.4945652  49.9181594  52.7972168  26.5244759  56.1976553  48.4852337
  25.8953621  56.3622267  47.7828405  26.1370421  56.6118163  49.2563301
  25.7046459  48.2352338  53.7614779  25.4607391  48.9894398  53.2249055
  25.9806390  48.6137685  54.5962026  27.6584922  54.7790950  52.4392044
  27.8701817  55.4222710  51.7626425  27.6114670  53.9453267  51.9713974
  25.2611151  47.3908771  49.3428617  24.3995630  47.6890024  49.6345354
  25.2873586  47.6079170  48.4109649  22.0772721  55.9350961  45.7502422
  22.5411066  56.2138664  44.9607045  21.8129519  55.0334406  45.5675513
  18.9696802  55.4822443  48.6882185  19.5398159  55.9109711  48.0499670
  19.5604913  55.2005028  49.3866371  21.0141607  52.0574114  42.5591987
  21.7165650  52.5095157  43.0265914  20.6822235  51.4157933  43.1871880
  19.4621968  50.6485870  56.9343197  18.8320629  51.3302151  57.1678594
  19.3558056  50.5368952  55.9896335  14.7566941  50.3157666  47.8609121
  13.9665995  50.5715195  47.3849232  15.2478188  51.1306004  47.9661161
  28.7730750  57.6562906  50.6114402  29.5948194  57.2543093  50.3297083
  28.7693153  57.5531140  51.5630518  16.7081686  50.6802246  44.8192598
  15.9112849  50.7920940  45.3376093  16.4807278  51.0188898  43.9533488
  22.5387354  57.2046949  52.7675112  22.6031786  57.6667356  53.6033284
  21.8298277  56.5744314  52.8957422  13.0404644  50.5688157  50.2924112
  13.2912682  51.4535167  50.5581688  13.5764192  50.3892758  49.5199204
  22.2535371  58.8715056  42.6354093  22.1181046  59.7166592  43.0638940
  22.7945184  59.0734334  41.8720026  18.7402711  44.9506636  59.2968448
  18.3469656  44.3972835  59.9716092  19.5568851  45.2617215  59.6874965
  15.7064769  56.3890494  43.2082018  16.2189289  57.1833745  43.3587582
  16.3587481  55.6916785  43.1415619  17.5159653  59.5056251  45.2904771
  17.6926282  60.4274215  45.1025755  18.3116487  59.1914670  45.7199151
  21.6570672  46.3664515  56.8888704  22.3980385  46.9671668  56.8093167
  21.8888595  45.6242153  56.3306747  16.8012010  51.5520883  55.1666934
  16.6865525  50.6506140  55.4674033  15.9456528  51.7984579  54.8151751
  23.8803848  59.4938623  56.7654435  23.4367702  58.7075001  56.4475339
  24.5421061  59.6817773  56.0998325  18.6390969  61.0234424  51.2915113
  19.1898394  60.8951488  50.5192107  17.8002445  61.3229313  50.9410006
  25.9785086  59.7741423  54.7935836  25.9603561  60.5950304  54.3016105
  26.9005006  59.6495498  55.0185977  22.4358140  57.2885552  55.6359344
  22.9686477  56.5273840  55.4058652  21.9072221  56.9959204  56.3783499
  25.6027835  42.3945618  51.1652986  25.2592104  43.2847260  51.0892097
  25.9706797  42.2047276  50.3022571  13.6713685  54.7179149  43.9841588
  14.5088907  55.1276157  43.7675296  13.8491953  53.7778591  43.9541782
  25.5678117  52.3854229  39.6725421  25.0524741  53.1558834  39.9113809
  25.2955426  51.7119366  40.2958483  23.1525229  47.2303930  44.7310660
  22.2966825  46.8410781  44.5516298  23.5652180  47.3095891  43.8710445
  24.6824375  44.7650273  49.1302219  24.1789171  44.7280409  48.3170025
  24.9754982  45.6743016  49.1898876  20.9267261  44.8489003  48.1368401
  21.7920258  44.6531812  47.7774290  20.9944770  44.6199355  49.0637758
  30.5412392  55.1386584  41.6078595  29.7641834  54.7997743  41.1633757
  31.2203873  55.1439207  40.9333560  25.3564421  50.2581321  41.4985202
  25.0514556  50.5727471  42.3495346  26.3094863  50.3362741  41.5412535
  23.8010852  56.4171545  43.1478156  23.2732214  55.6824304  42.8351394
  23.2998355  57.1946221  42.9018125  28.7803699  54.6120565  48.2645203
  28.1227373  55.3019827  48.3525331  29.5844098  55.0016997  48.6079189
  18.5329580  47.0791211  45.5084768  19.1073332  46.8566393  44.7757961
  19.1200563  47.1479906  46.2613369  27.5909157  52.9664938  46.3149144
  28.1041039  53.5994930  46.8170854  28.2410381  52.3666133  45.9492504
  18.8599167  49.1095672  39.5280653  18.0236479  49.4470359  39.8489928
  18.7203937  48.9744652  38.5907790  20.8352248  43.9532460  44.2359837
  20.1816660  43.6381477  43.6116452  20.7932722  43.3308200  44.9619660
  21.9463453  54.2351755  36.1513129  21.0390514  54.0041008  36.3504278
  22.4434485  53.4389374  36.3387111  24.8531532  62.9449262  39.0709816
  24.1793230  63.2480959  39.6794773  25.2397354  63.7478343  38.7215273
  24.0689988  50.4414393  48.5607485  23.1512550  50.6629340  48.4029173
  24.4850132  50.5160704  47.7019192  24.8525036  51.8405809  43.6910165
  25.5996855  52.3527206  43.3817287  25.1216625  51.5189862  44.5514559
  23.1251686  54.3364350  40.6737119  22.2162905  54.0523383  40.7709589
  23.1546770  54.7563428  39.8140426  28.3570954  57.9470939  44.4428287
  27.9033281  57.1061849  44.4993477  27.7264920  58.5832338  44.7803067
  27.3003873  48.8762925  45.6728954  26.5626630  48.3640312  46.0039197
  27.5530647  48.4363307  44.8612231  26.8003893  59.7847436  45.3778105
  27.0926867  60.3452493  44.6590471  27.3102513  60.0775997  46.1331264
  27.4015500  41.6539177  46.2670724  27.7074377  40.7936541  45.9796639
  28.1268105  42.2456798  46.0669718  13.6939856  52.0569864  44.6552322
  13.4964256  51.4639225  43.9303388  13.1386520  51.7522074  45.3728260
  21.6736580  51.9492970  46.7746915  21.7285190  50.9966807  46.6989391
  20.8627782  52.1052410  47.2588213  22.8227774  55.8773094  38.0125198
  22.3847204  55.1608952  37.5530835  23.5638215  56.1049208  37.4510289
  19.6128940  50.5670030  44.5337294  18.7996806  50.8664201  44.9402486
  20.1087934  50.1725719  45.2511776  21.7637518  60.5627787  46.4671558
  21.7213697  60.7888633  45.5380090  22.6800217  60.3291162  46.6157359
  25.2103152  51.0311855  53.3652188  25.5652539  51.2583328  54.2246653
  25.8575283  51.3630232  52.7429443  30.9400889  54.1530291  44.0701517
  30.8018787  54.3431887  43.1422706  30.5837108  54.9149673  44.5269568
  19.1043015  48.1388386  50.1498529  19.7442394  47.9977145  49.4521492
  18.2720545  47.8522899  49.7737131  30.9670268  56.2206818  49.0812788
  31.4006775  56.1282107  49.9295842  31.6801849  56.1964318  48.4432804
  19.8803319  57.4390816  46.2633521  20.6743917  56.9441136  46.0616096
  19.1695011  56.9108679  45.9001227  24.6998163  59.8208912  50.6145889
  24.7535185  60.3899848  51.3823605  23.8312945  59.9910797  50.2499926
  16.1886082  51.5833898  42.3393274  15.2583670  51.5218353  42.5563236
  16.2843554  51.0609851  41.5429915  16.1071631  48.1088711  44.9271515
  16.3678449  49.0234044  44.8180676  16.9288804  47.6413153  45.0768128
  17.5796557  49.5226468  52.0970340  18.2519610  49.3143830  51.4482989
  16.7526343  49.3248554  51.6575572  23.4822129  46.1488409  54.1136001
  22.8350044  46.8478358  54.0200477  24.2523144  46.5824553  54.4812249
  26.8900927  56.4137261  57.1886554  26.7386433  56.1847813  56.2716638
  26.8805606  57.3707862  57.2017899  23.6586263  53.9869174  52.1732821
  24.5878323  54.1380333  52.0001788  23.2377293  54.0753195  51.3181467
  22.4574595  58.0119838  49.9431358  22.3185680  57.6438623  50.8157296
  21.6689191  58.5267478  49.7715316  23.0522747  63.1128935  41.2856895
  23.2274502  62.6416978  42.1002517  22.3655535  63.7394701  41.5138155
  24.0079810  57.3901441  47.3320196  23.6729642  57.3502211  48.2277846
  23.5083756  56.7246157  46.8590606  17.9824054  52.7969071  52.8572777
  17.8443852  52.0649310  53.4584316  18.8928977  52.7077971  52.5756965
  26.9439002  54.7357475  37.6057256  26.3268172  54.0104303  37.5090308
  26.4755490  55.4966835  37.2624330  20.6106355  52.5089030  52.3456457
  21.3205973  51.8682222  52.3043075  20.5675663  52.7601925  53.2682638
  28.5993133  59.4456384  55.2663036  28.5405679  58.7615604  54.5993619
  29.0012652  60.1875374  54.8143662  19.3235288  49.4954248  54.1652096
  18.7872645  49.0444987  54.8173693  18.7351997  49.6300157  53.4222561
  17.6183832  66.2618297  48.0596755  17.8580430  66.8936822  48.7375773
  16.7753028  65.9106337  48.3462114  18.7337547  48.9542900  36.7278560
  17.8567014  48.8331700  36.3640807  19.2095301  48.1628978  36.4757449
  28.6010540  57.4095968  53.4977016  27.7137319  57.0721889  53.6203415
  29.1709092  56.6778999  53.7345781  10.2539688  53.7420059  46.8220067
  10.9410727  53.4281789  46.2341082  10.0987816  54.6461424  46.5487318
  15.0574410  48.6310256  51.2505091  14.9732598  48.0235925  50.5155501
  14.2357116  49.1219274  51.2514587  22.1311694  62.0697420  50.4638259
  22.0581865  62.8752391  50.9757563  21.6889087  62.2689386  49.6386280
  21.9201473  61.3069190  43.9741080  21.1368995  61.8490870  44.0679305
  22.6194219  61.8243170  44.3735322  25.2298124  47.1163819  46.6175286
  25.7266823  46.3633782  46.2976356  24.4585105  47.1528136  46.0518495
  33.0827881  52.8204185  48.2593577  33.0717757  53.7028900  47.8887510
  32.2145260  52.4675736  48.0648114  24.5910377  61.9684254  52.6196417
  25.3038350  62.6031719  52.5472319  24.1000406  62.0648120  51.8036419
  26.3127904  55.8735507  44.1913709  25.3784183  55.9936969  44.0218413
  26.4904573  54.9707973  43.9273719  21.8133092  49.2581202  46.3446970
  21.4430880  48.7052243  47.0327876  22.3092185  48.6539336  45.7921970
  29.7000456  51.7152826  44.7263743  30.1660908  52.5480817  44.6524046
  30.1507956  51.2497807  45.4309002  19.6422291  59.7178697  53.4401988
  20.3431750  60.3515180  53.5931383  19.1717406  60.0593429  52.6797628
  27.7676687  58.0596647  41.7249895  28.0436531  57.9453242  42.6343769
  26.8981185  57.6614132  41.6862068  27.6717118  44.0833413  48.7654645
  26.7580198  44.3137640  48.9336852  28.1010220  44.1671857  49.6168677
  27.4423577  52.2723305  51.2654539  26.7895027  52.5199212  50.6106991
  27.8203957  51.4587443  50.9317016  24.4030751  62.3082998  45.3682709
  24.5853145  61.4904654  45.8310461  25.2263737  62.5250690  44.9307599
  24.7372916  61.2351183  42.6297757  25.2660683  60.7243638  42.0167920
  25.0001136  60.9193713  43.4943290  23.4911150  53.0143116  57.7520576
  22.8151787  52.9137245  58.4222951  24.3138784  52.8582330  58.2156573
  15.2390009  59.2515052  50.3733091  15.8243446  58.5058740  50.5060995
  15.0414847  59.5619009  51.2569755  18.0928664  62.2866300  45.3895533
  17.4239039  62.7712427  44.9059573  17.9541534  62.5335520  46.3038912
   9.8307664  51.8220653  49.0937534   9.8691763  51.2884243  49.8874652
   9.3247957  51.2955858  48.4748511  22.2333933  64.3210043  51.9878192
  22.7852241  64.4841665  52.7527277  22.5740126  64.9114481  51.3158217
  17.2098426  46.6685193  52.5900076  17.2739752  47.5300024  52.1777474
  17.1465546  46.0559195  51.8572435  16.6850699  48.7408326  56.2373111
  17.3122737  48.3585403  56.8510635  15.8278617  48.5222528  56.6028803
  27.0844807  59.1471301  57.8426846  27.6284711  59.7601259  57.3481801
  26.5031652  59.7050879  58.3593859  13.4616241  50.5484755  42.1691466
  13.7569682  49.6395433  42.1158519  12.5604277  50.5272494  41.8472468
  25.3702320  62.2692019  48.9741874  25.2453459  61.4681759  48.4652819
  26.0281411  62.7638212  48.4855844  16.9910488  48.6240751  48.1519014
  16.2697074  49.2376719  48.0126487  17.7803744  49.1598516  48.0735660
  27.4337228  60.0701039  50.6021424  26.4867564  59.9506390  50.5299751
  27.7820002  59.1823537  50.6847685  19.7936802  45.9595178  54.4259666
  20.3171204  46.2057474  55.1885975  19.5749135  46.7915213  54.0062803
  15.1904083  48.2298852  42.2930791  14.8616789  47.3496231  42.1105897
  15.5443454  48.1746521  43.1807180  24.4383662  59.8653755  46.8025776
  24.2908624  58.9370463  46.9833346  25.2637155  59.8873846  46.3182851
  18.3045906  48.5171822  42.6606268  18.6441979  49.0457743  41.9384877
  18.7518026  48.8552228  43.4364835  28.0417784  60.6882314  47.8890649
  28.9664331  60.4825175  47.7515100  27.8733087  60.4398715  48.7979990
  20.9989347  46.9008873  52.1109336  20.6586167  46.1016686  52.5130016
  20.2928353  47.2010584  51.5386170  21.6505819  43.9858185  50.5636659
  22.4731888  43.5118664  50.4415550  21.8943882  44.7648669  51.0635346
  20.2914053  47.0146444  40.8599561  21.0122416  47.3927697  40.3563278
  19.6679357  47.7335321  40.9634539  24.4345176  47.7191593  41.7957893
  24.6508790  48.6016231  41.4946722  23.9539243  47.3277806  41.0663535
  19.1744397  50.6777306  48.3728638  19.0288978  50.9917609  49.2652920
  18.6969601  51.2962206  47.8199537  21.0340780  47.6679854  48.4209528
  21.0202349  46.7720947  48.0841826  21.7513208  47.6750518  49.0547814
  22.8866911  48.1017194  50.4662655  22.6284689  49.0234265  50.4646985
  22.3551951  47.7047629  51.1563119  27.8313100  61.2067981  43.2452740
  28.0049977  60.6414404  42.4926593  28.3241991  62.0068876  43.0632230
  13.6490060  53.2182650  51.3116299  13.1043528  53.9942458  51.4436574
  14.5269409  53.5653455  51.1535421  20.4377676  46.5494234  43.6897098
  20.5593587  45.6210880  43.8887985  20.1479719  46.5632920  42.7775413
  23.3068867  44.2349145  46.8263818  23.3290563  44.2988478  45.8715797
  23.7236926  43.3953653  47.0204324  33.6852491  53.9704404  44.8643040
  34.1283637  53.2211729  44.4662163  32.8079001  53.9614541  44.4816772
  28.8188272  60.5234746  40.3449639  29.5139177  61.1441438  40.5636953
  29.1611422  59.6730097  40.6202017  14.4356081  52.3452547  54.2046456
  13.6937817  52.4935182  54.7911087  14.1148826  52.6060812  53.3413206
  30.7179695  57.9734451  41.8736969  31.2431019  58.3121724  41.1486289
  30.6302048  57.0381467  41.6900104  22.3799744  61.8868525  54.0026846
  22.6886871  61.6417672  54.8749546  23.1775226  62.0915163  53.5145716
  22.4020356  64.0406435  46.2332223  21.9625346  63.5482813  46.9265079
  23.1528473  63.4979402  45.9924298  14.8812695  60.2317975  46.2356851
  15.7070715  59.9321747  45.8555494  14.5306747  59.4625598  46.6846639
  19.8494228  59.5844444  48.3054524  19.2274238  58.9215149  48.0056752
  20.5199095  59.6105576  47.6228172  13.0821300  58.1504302  47.1945784
  12.2453208  57.7226476  47.0129786  13.0544946  58.3436745  48.1316576
  19.9218756  48.0626232  57.8987030  19.9706911  48.9388354  57.5164800
  20.4641270  47.5203625  57.3258674  30.4073601  58.6067355  57.1788167
  29.6169145  58.5891494  56.6392667  30.1706956  59.1455649  57.9337204
  30.5271477  55.4559821  54.4920896  30.5769481  55.2909829  55.4336419
  30.4185400  54.5887080  54.1018777  19.4107735  58.1348367  41.7812985
  19.5595856  58.8183831  41.1279658  20.2174179  58.1153457  42.2962441
  27.8175239  51.4390749  55.8080203  28.7185102  51.2997214  55.5164200
  27.8923213  51.6045204  56.7478380  22.1518044  48.8157604  54.6533389
  21.2821354  49.1091170  54.3815978  22.3877525  49.3998049  55.3740653
  30.2776862  52.9989377  53.2042975  30.7530983  53.1917024  52.3961827
  29.3542427  53.0548563  52.9586359  17.1660368  54.1613545  42.7874054
  16.9206410  53.2575875  42.9854264  17.3356283  54.1630695  41.8453532
  24.8557078  45.0337221  52.1698809  25.3739022  45.7698248  51.8445298
  24.5012211  45.3401214  53.0045569  16.4356016  49.8941902  40.2860215
  15.7425261  49.9686257  39.6300251  16.1907768  49.1302246  40.8081732
  25.1069672  41.4537504  47.6899706  25.3871426  40.7860693  48.3160133
  25.8920279  41.6466599  47.1774370  22.9103141  60.6296497  39.2524732
  22.3377108  61.2486685  38.7995204  23.4835934  61.1795859  39.7864654
  28.9778531  49.8755137  51.4371281  29.9295953  49.9753235  51.4583505
  28.8081981  49.0833406  51.9469365  26.9992910  46.9610721  51.6230682
  26.4042842  47.2415733  50.9277171  26.7142607  47.4504622  52.3947423
  26.1300401  60.9133648  40.3833315  27.0631074  60.8479209  40.5866190
  26.0423613  61.7489914  39.9247847  28.7588417  60.2299518  37.3437262
  28.6802049  59.8959381  38.2373020  29.5798084  60.7221286  37.3428734
  31.4566608  53.0961257  50.5513581  31.4242928  52.1577258  50.7373265
  32.0667232  53.1745294  49.8179406  23.2949939  51.9657310  36.5940785
  24.2409044  51.8363518  36.6629203  22.9164184  51.2271972  37.0710213
  31.6061097  49.8872301  50.5971864  31.0900145  49.1030757  50.4101793
  32.4901045  49.5591017  50.7618383  29.2671824  43.6313316  46.5567677
  29.0696645  43.3228404  47.4411009  29.8771529  44.3574955  46.6865606
  35.3558455  52.2985127  50.2894069  34.6291619  52.1641092  49.6810560
  34.9405742  52.6061955  51.0950787  23.1788632  56.0175056  58.0541442
  24.0991641  56.1953655  58.2481488  23.1438215  55.0731102  57.9021141
  21.4792856  49.8907287  36.5295670  20.5724312  49.5940399  36.6058384
  21.7568837  49.5937105  35.6629956  12.3970797  51.2113650  46.9794716
  12.0773581  50.3578958  46.6869090  11.8504225  51.4262228  47.7352684
  16.1750704  53.9276091  50.6964223  16.3936714  54.8593199  50.7152257
  16.5876478  53.5684065  51.4819027  23.0954922  44.4344176  42.6839911
  22.2855650  44.0891261  43.0595157  23.7839339  44.1251720  43.2727523
  25.0245470  43.5122223  44.3064208  25.5776509  43.9317676  44.9654231
  25.2615557  42.5857971  44.3487164  21.0478570  49.5009297  60.0866972
  20.9475297  50.4503654  60.0179063  20.8300112  49.1727536  59.2143042
  20.2491641  46.7494222  36.6707649  21.1110805  47.0749120  36.9303467
  20.4341985  45.9625718  36.1580715  12.2659057  54.8316561  48.9487838
  11.5722528  54.4170514  48.4357792  13.0132048  54.8737098  48.3521257
  28.4024277  45.6222748  43.8142872  27.8222947  46.2807552  43.4320925
  28.1360210  44.8000093  43.4030290  26.8527844  45.0227806  46.0164193
  27.3527622  45.1344340  45.2078511  27.4963452  44.7188859  46.6565001
  20.9109840  52.9306436  58.9032034  20.4276921  53.7306796  59.1095923
  20.9970779  52.9414380  57.9499478  14.1795799  54.7634815  46.8253853
  14.1566487  54.8622502  45.8735736  14.4896436  55.6099966  47.1471019
  16.8383177  56.8210970  50.9400467  17.7926431  56.7894913  50.8730399
  16.6395701  56.3601594  51.7550693  17.4282559  55.3912086  53.5071265
  18.2475448  55.8856165  53.5306102  17.7019367  54.4744054  53.4788832
  27.1849155  47.7822839  42.8699220  26.2975011  48.0672489  42.6519415
  27.6003145  47.6216602  42.0226497  30.5363692  47.8069360  46.5853560
  31.3124082  48.2965812  46.8578177  29.8111826  48.2327414  47.0425429
  32.9736250  48.5196979  47.6427500  33.5680741  48.2792715  46.9320809
  33.0462834  47.8004109  48.2701037  15.1933406  62.3630590  47.9570665
  15.0587874  61.6030991  47.3908663  14.7765468  63.0871490  47.4899454
  26.3292369  57.5467513  36.9647240  27.0328219  57.7517516  37.5804896
  25.6055018  58.1144275  37.2296324  27.1590179  53.2977375  43.0849511
  27.1025381  53.7545926  42.2457143  27.7118522  52.5368059  42.9072353
  30.9694985  49.0867106  43.9099630  30.7131919  48.6863742  44.7407838
  30.3447853  49.8010900  43.7849769  35.2807323  51.8263180  46.4170922
  34.7206881  51.8956369  47.1902484  34.6750826  51.6504164  45.6970418
  18.3502532  63.2599907  48.1689108  18.2334916  64.2045339  48.0667798
  17.5294978  62.9573468  48.5574907  28.2379066  57.9850042  39.0145701
  29.0724670  57.5531241  38.8323175  28.0763409  57.8132056  39.9422595
  27.8924959  54.4882156  40.3802040  27.8373762  54.3226427  39.4390484
  27.2671014  55.1958189  40.5364230  12.6817474  49.7250220  54.2063462
  13.3276337  49.2149174  54.6950687  12.4734625  50.4618902  54.7806887
  25.2070866  56.7931068  59.7055603  26.0762025  56.9671720  59.3442238
  24.7277617  57.6125484  59.5831332  21.2021084  43.9890265  39.9587358
  21.1899754  44.9332105  40.1155629  22.0944506  43.8060410  39.6646819
  19.3757046  63.9128169  51.3845036  20.2784293  63.9451779  51.7011531
  19.1494416  62.9828620  51.3991372  21.1310648  62.6659155  48.0455115
  20.1806279  62.6661017  47.9319487  21.4343134  61.9191890  47.5291149
  25.0173203  40.5833041  44.2133295  24.2505599  40.0291528  44.3589977
  25.4283908  40.6554910  45.0747447  17.0214965  46.8717837  58.3038476
  17.8846426  46.5154642  58.5141801  16.4480375  46.5331732  58.9913881
  29.5339863  70.3082598  45.0359293  28.9704729  70.2172535  44.2675581
  29.4192258  69.4882503  45.5161785  27.0804295  71.8033790  47.8743513
  27.8725587  71.4624614  47.4589813  27.3200946  71.9128765  48.7945667
  35.1139422  73.9753566  40.3473758  34.4627402  74.5607646  39.9607772
  35.9083785  74.5059761  40.4068795  29.0395049  71.0642703  40.7460892
  29.8125925  70.5171690  40.6073768  29.3920448  71.9286952  40.9575354
  31.3761327  67.2235369  38.3779342  31.6286848  66.7016890  37.6162805
  30.4385886  67.0601515  38.4806026  36.5914687  71.6643998  40.8842742
  35.9560520  71.7378624  41.5963647  36.2612094  72.2537597  40.2061821
  31.0957616  69.1263475  40.5803717  30.9793874  68.4508378  41.2484801
  31.2059876  68.6395849  39.7635870  33.0794644  63.6163522  39.2811755
  33.2469046  64.4843758  39.6482226  32.8891813  63.7790804  38.3573044
  29.2882458  68.5294298  46.9814290  28.3632955  68.3970512  47.1891981
  29.5366872  69.3088517  47.4784232  33.0583865  66.0721179  40.2658422
  32.9383490  66.5178230  41.1043902  32.3636453  66.4206497  39.7071960
  26.6491269  68.1727571  47.8158079  26.7783651  68.4262050  48.7297490
  25.9688721  68.7655279  47.4962734  30.8190757  78.8424821  43.9148553
  30.7414786  79.7932646  43.9937033  30.2152400  78.4970694  44.5723479
  32.9166475  71.2642879  45.7502422  33.3804821  71.5430582  44.9607045
  32.6523273  70.3626324  45.5675513  29.8090556  70.8114361  48.6882185
  30.3791913  71.2401629  48.0499670  30.3998668  70.5296945  49.3866371
  31.8535361  67.3866031  42.5591987  32.5559404  67.8387075  43.0265914
  31.5215990  66.7449850  43.1871880  30.3015723  65.9777788  56.9343197
  29.6714383  66.6594069  57.1678594  30.1951810  65.8660870  55.9896335
  25.5960695  65.6449584  47.8609121  24.8059749  65.9007113  47.3849232
  26.0871942  66.4597922  47.9661161  27.5475440  66.0094163  44.8192598
  26.7506604  66.1212858  45.3376093  27.3201033  66.3480816  43.9533488
  23.8798398  65.8980075  50.2924112  24.1306436  66.7827084  50.5581688
  24.4157946  65.7184676  49.5199204  47.7030498  69.3293572  46.9599373
  46.9494206  68.7600970  46.8043378  47.8378039  69.2956236  47.9070008
  33.0929126  74.2006974  42.6354093  32.9574800  75.0458510  43.0638940
  33.6338938  74.4026252  41.8720026  26.5458523  71.7182412  43.2082018
  27.0583044  72.5125662  43.3587582  27.1981236  71.0208703  43.1415619
  28.3553408  74.8348168  45.2904771  28.5320036  75.7566133  45.1025755
  29.1510241  74.5206588  45.7199151  27.6405764  66.8812800  55.1666934
  27.5259279  65.9798057  55.4674033  26.7850282  67.1276497  54.8151751
  29.4784723  76.3526342  51.2915113  30.0292148  76.2243406  50.5192107
  28.6396199  76.6521231  50.9410006  24.5107440  70.0471066  43.9841588
  25.3482662  70.4568075  43.7675296  24.6885708  69.1070509  43.9541782
  36.4071872  67.7146147  39.6725421  35.8918495  68.4850752  39.9113809
  36.1349180  67.0411283  40.2958483  41.3806146  70.4678502  41.6078595
  40.6035589  70.1289661  41.1633757  42.0597627  70.4731125  40.9333560
  34.6404607  71.7463462  43.1478156  34.1125969  71.0116222  42.8351394
  34.1392110  72.5238139  42.9018125  29.3723335  62.4083129  45.5084768
  29.9467086  62.1858310  44.7757961  29.9594317  62.4771823  46.2613369
  29.6992922  64.4387590  39.5280653  28.8630234  64.7762276  39.8489928
  29.5597691  64.3036570  38.5907790  32.7857207  69.5643673  36.1513129
  31.8784269  69.3332926  36.3504278  33.2828239  68.7681292  36.3387111
  35.6925286  78.2741180  39.0709816  35.0186985  78.5772877  39.6794773
  36.0791108  79.0770260  38.7215273  33.9645441  69.6656268  40.6737119
  33.0556660  69.3815300  40.7709589  33.9940524  70.0855346  39.8140426
  39.1964708  73.2762857  44.4428287  38.7427035  72.4353767  44.4993477
  38.5658675  73.9124255  44.7803067  37.6397647  75.1139354  45.3778105
  37.9320622  75.6744411  44.6590471  38.1496268  75.4067915  46.1331264
  24.5333611  67.3861782  44.6552322  24.3358011  66.7931142  43.9303388
  23.9780275  67.0813992  45.3728260  33.6621528  71.2065011  38.0125198
  33.2240958  70.4900870  37.5530835  34.4031969  71.4341126  37.4510289
  30.4522695  65.8961948  44.5337294  29.6390560  66.1956118  44.9402486
  30.9481689  65.5017637  45.2511776  32.6031272  75.8919705  46.4671558
  32.5607451  76.1180551  45.5380090  33.5193971  75.6583079  46.6157359
  29.9436769  63.4680303  50.1498529  30.5836149  63.3269063  49.4521492
  29.1114300  63.1814817  49.7737131  30.7197073  72.7682734  46.2633521
  31.5137672  72.2733054  46.0616096  30.0088766  72.2400597  45.9001227
  35.5391918  75.1500829  50.6145889  35.5928940  75.7191766  51.3823605
  34.6706699  75.3202714  50.2499926  27.0279837  66.9125816  42.3393274
  26.0977425  66.8510271  42.5563236  27.1237309  66.3901768  41.5429915
  26.9465386  63.4380628  44.9271515  27.2072203  64.3525962  44.8180676
  27.7682558  62.9705071  45.0768128  28.4190311  64.8518386  52.0970340
  29.0913364  64.6435748  51.4482989  27.5920098  64.6540472  51.6575572
  33.2968349  73.3411756  49.9431358  33.1579435  72.9730540  50.8157296
  32.5082945  73.8559395  49.7715316  33.8916501  78.4420852  41.2856895
  34.0668257  77.9708896  42.1002517  33.2049289  79.0686619  41.5138155
  34.8473564  72.7193359  47.3320196  34.5123397  72.6794129  48.2277846
  34.3477510  72.0538074  46.8590606  28.8217808  68.1260989  52.8572777
  28.6837606  67.3941227  53.4584316  29.7322732  68.0369889  52.5756965
  37.7832756  70.0649393  37.6057256  37.1661927  69.3396221  37.5090308
  37.3149244  70.8258753  37.2624330  30.1629043  64.8246166  54.1652096
  29.6266400  64.3736904  54.8173693  29.5745751  64.9592075  53.4222561
  28.4577586  81.5910215  48.0596755  28.6974185  82.2228739  48.7375773
  27.6146783  81.2398255  48.3462114  29.5731302  64.2834817  36.7278560
  28.6960768  64.1623618  36.3640807  30.0489055  63.4920895  36.4757449
  21.0933442  69.0711977  46.8220067  21.7804482  68.7573707  46.2341082
  20.9381571  69.9753342  46.5487318  25.8968164  63.9602173  51.2505091
  25.8126353  63.3527843  50.5155501  25.0750871  64.4511192  51.2514587
  32.9705448  77.3989338  50.4638259  32.8975620  78.2044309  50.9757563
  32.5282841  77.5981303  49.6386280  32.7595228  76.6361108  43.9741080
  31.9762750  77.1782788  44.0679305  33.4587973  77.1535087  44.3735322
  35.4304132  77.2976172  52.6196417  36.1432104  77.9323636  52.5472319
  34.9394160  77.3940038  51.8036419  37.1521659  71.2027424  44.1913709
  36.2177937  71.3228887  44.0218413  37.3298327  70.2999891  43.9273719
  38.6070441  73.3888565  41.7249895  38.8830285  73.2745159  42.6343769
  37.7374940  72.9906050  41.6862068  35.2424505  77.6374916  45.3682709
  35.4246900  76.8196572  45.8310461  36.0657491  77.8542608  44.9307599
  35.5766671  76.5643101  42.6297757  36.1054437  76.0535555  42.0167920
  35.8394890  76.2485631  43.4943290  26.0783763  74.5806970  50.3733091
  26.6637200  73.8350658  50.5060995  25.8808602  74.8910927  51.2569755
  28.9322419  77.6158217  45.3895533  28.2632794  78.1004345  44.9059573
  28.7935288  77.8627438  46.3038912  20.6701418  67.1512570  49.0937534
  20.7085518  66.6176161  49.8874652  20.1641711  66.6247776  48.4748511
  33.0727687  79.6501961  51.9878192  33.6245995  79.8133582  52.7527277
  33.4133881  80.2406399  51.3158217  28.0492180  61.9977111  52.5900076
  28.1133507  62.8591942  52.1777474  27.9859301  61.3851112  51.8572435
  27.5244453  64.0700243  56.2373111  28.1516492  63.6877321  56.8510635
  26.6672372  63.8514445  56.6028803  24.3009996  65.8776672  42.1691466
  24.5963437  64.9687351  42.1158519  23.3998032  65.8564412  41.8472468
  36.2096075  77.5983937  48.9741874  36.0847214  76.7973676  48.4652819
  36.8675166  78.0930130  48.4855844  27.8304243  63.9532669  48.1519014
  27.1090829  64.5668637  48.0126487  28.6197499  64.4890434  48.0735660
  26.0297837  63.5590770  42.2930791  25.7010544  62.6788149  42.1105897
  26.3837208  63.5038439  43.1807180  35.2777416  75.1945673  46.8025776
  35.1302379  74.2662380  46.9833346  36.1030910  75.2165764  46.3182851
  29.1439661  63.8463740  42.6606268  29.4835733  64.3749661  41.9384877
  29.5911781  64.1844146  43.4364835  38.8811538  76.0174232  47.8890649
  39.8058086  75.8117093  47.7515100  38.7126841  75.7690633  48.7979990
  31.1307808  62.3438361  40.8599561  31.8516170  62.7219614  40.3563278
  30.5073112  63.0627238  40.9634539  35.2738931  63.0483510  41.7957893
  35.4902545  63.9308148  41.4946722  34.7932998  62.6569724  41.0663535
  30.0138152  66.0069224  48.3728638  29.8682733  66.3209527  49.2652920
  29.5363356  66.6254124  47.8199537  38.6706854  76.5359899  43.2452740
  38.8443732  75.9706321  42.4926593  39.1635746  77.3360794  43.0632230
  24.4883814  68.5474568  51.3116299  23.9437282  69.3234376  51.4436574
  25.3663164  68.8945373  51.1535421  31.2771431  61.8786152  43.6897098
  31.3987342  60.9502798  43.8887985  30.9873473  61.8924838  42.7775413
  39.6582027  75.8526663  40.3449639  40.3532931  76.4733356  40.5636953
  40.0005177  75.0022015  40.6202017  25.2749836  67.6744464  54.2046456
  24.5331572  67.8227100  54.7911087  24.9542580  67.9352730  53.3413206
  41.5573450  73.3026369  41.8736969  42.0824774  73.6413642  41.1486289
  41.4695802  72.3673384  41.6900104  33.2193499  77.2160443  54.0026846
  33.5280625  76.9709589  54.8749546  34.0168981  77.4207081  53.5145716
  33.2414111  79.3698352  46.2332223  32.8019101  78.8774731  46.9265079
  33.9922228  78.8271320  45.9924298  25.7206450  75.5609893  46.2356851
  26.5464470  75.2613665  45.8555494  25.3700502  74.7917515  46.6846639
  30.6887983  74.9136361  48.3054524  30.0667992  74.2507066  48.0056752
  31.3592850  74.9397493  47.6228172  23.9215055  73.4796220  47.1945784
  23.0846963  73.0518394  47.0129786  23.8938700  73.6728663  48.1316576
  30.2501490  73.4640285  41.7812985  30.3989610  74.1475749  41.1279658
  31.0567933  73.4445375  42.2962441  28.0054123  69.4905462  42.7874054
  27.7600165  68.5867792  42.9854264  28.1750037  69.4922613  41.8453532
  27.2749770  65.2233820  40.2860215  26.5819015  65.2978175  39.6300251
  27.0301522  64.4594163  40.8081732  33.7496895  75.9588415  39.2524732
  33.1770862  76.5778602  38.7995204  34.3229689  76.5087777  39.7864654
  36.9694155  76.2425565  40.3833315  37.9024828  76.1771127  40.5866190
  36.8817368  77.0781832  39.9247847  39.5982172  75.5591436  37.3437262
  39.5195803  75.2251299  38.2373020  40.4191838  76.0513203  37.3428734
  34.1343694  67.2949228  36.5940785  35.0802798  67.1655436  36.6629203
  33.7557939  66.5563890  37.0710213  32.3186611  65.2199204  36.5295670
  31.4118066  64.9232317  36.6058384  32.5962592  64.9229022  35.6629956
  23.2364551  66.5405568  46.9794716  22.9167336  65.6870876  46.6869090
  22.6897979  66.7554146  47.7352684  27.0144459  69.2568009  50.6964223
  27.2330469  70.1885116  50.7152257  27.4270233  68.8975983  51.4819027
  31.0885395  62.0786139  36.6707649  31.9504559  62.4041038  36.9303467
  31.2735740  61.2917635  36.1580715  23.1052811  70.1608479  48.9487838
  22.4116283  69.7462432  48.4357792  23.8525802  70.2029016  48.3521257
  31.7503594  68.2598353  58.9032034  31.2670676  69.0598713  59.1095923
  31.8364533  68.2706298  57.9499478  25.0189554  70.0926733  46.8253853
  24.9960242  70.1914420  45.8735736  25.3290190  70.9391884  47.1471019
  27.6776932  72.1502888  50.9400467  28.6320185  72.1186830  50.8730399
  27.4789455  71.6893512  51.7550693  28.2676314  70.7204004  53.5071265
  29.0869203  71.2148083  53.5306102  28.5413121  69.8035972  53.4788832
  26.0327160  77.6922507  47.9570665  25.8981628  76.9322908  47.3908663
  25.6159223  78.4163407  47.4899454  37.1686123  72.8759431  36.9647240
  37.8721974  73.0809433  37.5804896  36.4448772  73.4436193  37.2296324
  29.1896286  78.5891824  48.1689108  29.0728670  79.5337257  48.0667798
  28.3688733  78.2865386  48.5574907  39.0772821  73.3141960  39.0145701
  39.9118425  72.8823159  38.8323175  38.9157164  73.1423974  39.9422595
  38.7318713  69.8174073  40.3802040  38.6767517  69.6518345  39.4390484
  38.1064768  70.5250106  40.5364230  23.5211228  65.0542138  54.2063462
  24.1670092  64.5441092  54.6950687  23.3128379  65.7910819  54.7806887
  32.0414839  59.3182182  39.9587358  32.0293508  60.2624022  40.1155629
  32.9338260  59.1352328  39.6646819  30.2150800  79.2420086  51.3845036
  31.1178047  79.2743697  51.7011531  29.9888171  78.3120537  51.3991372
  31.9704402  77.9951073  48.0455115  31.0200033  77.9952934  47.9319487
  32.2736889  77.2483807  47.5291149  35.8566958  55.9124959  44.2133295
  35.0899354  55.3583446  44.3589977  36.2677663  55.9846828  45.0747447
  27.8608719  62.2009755  58.3038476  28.7240181  61.8446560  58.5141801
  27.2874130  61.8623650  58.9913881  47.7057096  83.8311611  49.1100877
  48.3435506  83.7118359  48.4064217  47.5877939  84.7792455  49.1688829
  44.5146802  83.7839039  49.0462402  44.1765314  83.6680104  48.1582937
  45.3836570  83.3830204  49.0263408  40.3733618  85.6374516  45.0359293
  39.8098483  85.5464453  44.2675581  40.2586013  84.8174420  45.5161785
  44.9966585  84.9373891  55.0048607  44.9855226  84.5426689  54.1329111
  45.1587225  84.2039964  55.5982379  37.9198050  87.1325707  47.8743513
  38.7119342  86.7916532  47.4589813  38.1594700  87.2420682  48.7945667
  45.9533177  89.3045483  40.3473758  45.3021156  89.8899564  39.9607772
  46.7477539  89.8351678  40.4068795  39.8788804  86.3934621  40.7460892
  40.6519680  85.8463608  40.6073768  40.2314203  87.2578870  40.9575354
  41.7173846  87.7211003  53.9527791  41.4263712  88.6256634  53.8374458
  42.3530831  87.7627531  54.6671861  42.6430053  85.0987851  50.5429151
  43.2393625  84.8743874  49.8286114  42.7005025  84.3572597  51.1454599
  42.2155082  82.5527287  38.3779342  42.4680602  82.0308808  37.6162805
  41.2779641  82.3893432  38.4806026  47.2598364  81.5563065  46.1854085
  48.0461454  81.1382488  45.8344502  47.5237069  82.4609157  46.3535734
  47.4308442  86.9935915  40.8842742  46.7954275  87.0670542  41.5963647
  47.1005848  87.5829514  40.2061821  52.6606792  81.4938298  47.0887064
  53.3931964  80.9237515  47.3224893  51.9046147  81.1059899  47.5293569
  41.9351370  84.4555393  40.5803717  41.8187628  83.7800296  41.2484801
  42.0453630  83.9687767  39.7635870  44.2782911  83.9165540  44.2850406
  43.9141119  83.3896161  44.9963328  45.1350027  83.5264009  44.1116892
  50.1832212  75.2059872  51.5481672  49.8515537  76.0755283  51.3242887
  49.5877825  74.8896156  52.2275703  43.9188398  78.9455440  39.2811755
  44.0862801  79.8135676  39.6482226  43.7285567  79.1082721  38.3573044
  46.6763731  87.4072418  50.9477585  46.3764455  88.3097457  50.8393392
  46.3314791  87.1404602  51.7998738  40.1276213  83.8586215  46.9814290
  39.2026709  83.7262429  47.1891981  40.3760626  84.6380434  47.4784232
  50.0760875  79.9254959  48.6275022  49.1677753  79.8570367  48.3333783
  50.0248471  80.4026904  49.4556848  43.8977619  81.4013097  40.2658422
  43.7777244  81.8470148  41.1043902  43.2030208  81.7498415  39.7071960
  37.4885024  83.5019489  47.8158079  37.6177405  83.7553968  48.7297490
  36.8082475  84.0947197  47.4962734  41.6584511  94.1716739  43.9148553
  41.5808541  95.1224564  43.9937033  41.0546155  93.8262611  44.5723479
  44.1501741  81.3444604  56.5709920  43.3735075  81.9038524  56.5612784
  44.7892304  81.8301387  57.0924790  51.9422522  78.1271397  50.4052896
  51.2996902  78.4203930  49.7592691  51.4377450  78.0124317  51.2106093
  49.5962685  81.8734570  41.0938756  50.5080541  82.1061957  40.9186453
  49.0872332  82.4571614  40.5313834  42.4048113  84.1530058  56.1327887
  43.1462798  84.6915102  55.8562710  41.6985099  84.7796346  56.2899439
  47.8803453  86.2959198  54.7300048  48.2886809  85.8541609  53.9854681
  47.1580714  85.7211826  54.9834241  44.2334523  81.2331805  52.1033605
  45.0795718  81.6571218  52.2468254  44.1733161  80.5765429  52.7972168
  48.2032268  86.8560389  48.4852337  47.5741130  87.0206103  47.7828405
  47.8157930  87.2701998  49.2563301  52.0821500  87.7914826  45.8396701
  51.3972538  88.1713728  45.2893734  52.1665349  88.4010153  46.5728649
  47.3833968  78.8936173  53.7614779  47.1394900  79.6478234  53.2249055
  47.6593899  79.2721521  54.5962026  49.3372431  85.4374786  52.4392044
  49.5489326  86.0806545  51.7626425  49.2902179  84.6037102  51.9713974
  46.9398660  78.0492606  49.3428617  46.0783139  78.3473860  49.6345354
  46.9661095  78.2663005  48.4109649  43.7560229  86.5934797  45.7502422
  44.2198575  86.8722500  44.9607045  43.4917028  85.6918241  45.5675513
  40.6484311  86.1406278  48.6882185  41.2185668  86.5693547  48.0499670
  41.2392422  85.8588863  49.3866371  42.6929116  82.7157949  42.5591987
  43.3953159  83.1678993  43.0265914  42.3609744  82.0741768  43.1871880
  41.1409477  81.3069706  56.9343197  40.5108138  81.9885987  57.1678594
  41.0345565  81.1952787  55.9896335  36.4354449  80.9741502  47.8609121
  35.6453503  81.2299030  47.3849232  36.9265697  81.7889840  47.9661161
  50.4518259  88.3146741  50.6114402  51.2735703  87.9126928  50.3297083
  50.4480662  88.2114975  51.5630518  38.3869195  81.3386081  44.8192598
  37.5900358  81.4504775  45.3376093  38.1594787  81.6772733  43.9533488
  44.2174863  87.8630784  52.7675112  44.2819295  88.3251191  53.6033284
  43.5085786  87.2328149  52.8957422  34.7192152  81.2271992  50.2924112
  34.9700191  82.1119002  50.5581688  35.2551701  81.0476594  49.5199204
  58.5424252  84.6585489  46.9599373  57.7887960  84.0892887  46.8043378
  58.6771793  84.6248154  47.9070008  43.9322880  89.5298892  42.6354093
  43.7968555  90.3750427  43.0638940  44.4732693  89.7318169  41.8720026
  37.3852278  87.0474330  43.2082018  37.8976798  87.8417580  43.3587582
  38.0374990  86.3500620  43.1415619  39.1947162  90.1640086  45.2904771
  39.3713791  91.0858051  45.1025755  39.9903996  89.8498505  45.7199151
  43.3358181  77.0248351  56.8888704  44.0767894  77.6255504  56.8093167
  43.5676104  76.2825988  56.3306747  38.4799519  82.2104718  55.1666934
  38.3653034  81.3089975  55.4674033  37.6244037  82.4568415  54.8151751
  45.5591357  90.1522458  56.7654435  45.1155211  89.3658837  56.4475339
  46.2208570  90.3401609  56.0998325  40.3178478  91.6818260  51.2915113
  40.8685903  91.5535323  50.5192107  39.4789954  91.9813149  50.9410006
  47.6572595  90.4325258  54.7935836  47.6391070  91.2534139  54.3016105
  48.5792515  90.3079333  55.0185977  44.1145649  87.9469388  55.6359344
  44.6473986  87.1857676  55.4058652  43.5859730  87.6543039  56.3783499
  47.2815344  73.0529454  51.1652986  46.9379613  73.9431095  51.0892097
  47.6494306  72.8631111  50.3022571  35.3501194  85.3762984  43.9841588
  36.1876416  85.7859992  43.7675296  35.5279462  84.4362426  43.9541782
  47.2465626  83.0438065  39.6725421  46.7312250  83.8142669  39.9113809
  46.9742935  82.3703201  40.2958483  44.8312737  77.8887765  44.7310660
  43.9754334  77.4994616  44.5516298  45.2439689  77.9679726  43.8710445
  46.3611884  75.4234109  49.1302219  45.8576680  75.3864244  48.3170025
  46.6542491  76.3326851  49.1898876  52.2199901  85.7970419  41.6078595
  51.4429343  85.4581579  41.1633757  52.8991382  85.8023043  40.9333560
  47.0351930  80.9165157  41.4985202  46.7302065  81.2311306  42.3495346
  47.9882372  80.9946577  41.5412535  45.4798361  87.0755380  43.1478156
  44.9519723  86.3408140  42.8351394  44.9785864  87.8530056  42.9018125
  50.4591207  85.2704401  48.2645203  49.8014882  85.9603662  48.3525331
  51.2631607  85.6600833  48.6079189  40.2117089  77.7375046  45.5084768
  40.7860841  77.5150228  44.7757961  40.7988072  77.8063741  46.2613369
  49.2696666  83.6248773  46.3149144  49.7828548  84.2578765  46.8170854
  49.9197890  83.0249969  45.9492504  40.5386676  79.7679507  39.5280653
  39.7023988  80.1054194  39.8489928  40.3991446  79.6328487  38.5907790
  42.5139757  74.6116295  44.2359837  41.8604169  74.2965312  43.6116452
  42.4720231  73.9892036  44.9619660  43.6250962  84.8935590  36.1513129
  42.7178023  84.6624844  36.3504278  44.1221994  84.0973210  36.3387111
  46.5319041  93.6033098  39.0709816  45.8580739  93.9064794  39.6794773
  46.9184863  94.4062178  38.7215273  45.7477497  81.0998229  48.5607485
  44.8300059  81.3213176  48.4029173  46.1637641  81.1744539  47.7019192
  46.5312545  82.4989645  43.6910165  47.2784364  83.0111042  43.3817287
  46.8004134  82.1773697  44.5514559  44.8039195  84.9948185  40.6737119
  43.8950414  84.7107218  40.7709589  44.8334279  85.4147264  39.8140426
  50.0358463  88.6054775  44.4428287  49.5820790  87.7645685  44.4993477
  49.4052429  89.2416173  44.7803067  48.9791382  79.5346761  45.6728954
  48.2414139  79.0224147  46.0039197  49.2318156  79.0947142  44.8612231
  48.4791402  90.4431271  45.3778105  48.7714376  91.0036329  44.6590471
  48.9890022  90.7359832  46.1331264  49.0803009  72.3123013  46.2670724
  49.3861886  71.4520376  45.9796639  49.8055614  72.9040633  46.0669718
  35.3727365  82.7153699  44.6552322  35.1751765  82.1223060  43.9303388
  34.8174029  82.4105910  45.3728260  43.3524089  82.6076806  46.7746915
  43.4072699  81.6550642  46.6989391  42.5415291  82.7636245  47.2588213
  44.5015283  86.5356929  38.0125198  44.0634713  85.8192788  37.5530835
  45.2425724  86.7633044  37.4510289  41.2916449  81.2253866  44.5337294
  40.4784315  81.5248036  44.9402486  41.7875443  80.8309554  45.2511776
  43.4425027  91.2211623  46.4671558  43.4001206  91.4472469  45.5380090
  44.3587726  90.9874997  46.6157359  46.8890661  81.6895690  53.3652188
  47.2440048  81.9167163  54.2246653  47.5362792  82.0214067  52.7429443
  52.6188398  84.8114126  44.0701517  52.4806296  85.0015722  43.1422706
  52.2624616  85.5733509  44.5269568  40.7830524  78.7972221  50.1498529
  41.4229903  78.6560980  49.4521492  39.9508054  78.5106735  49.7737131
  52.6457777  86.8790653  49.0812788  53.0794284  86.7865942  49.9295842
  53.3589358  86.8548153  48.4432804  41.5590828  88.0974652  46.2633521
  42.3531426  87.6024972  46.0616096  40.8482520  87.5692515  45.9001227
  46.3785672  90.4792747  50.6145889  46.4322694  91.0483683  51.3823605
  45.5100454  90.6494632  50.2499926  37.8673591  82.2417733  42.3393274
  36.9371179  82.1802189  42.5563236  37.9631063  81.7193686  41.5429915
  37.7859140  78.7672546  44.9271515  38.0465958  79.6817879  44.8180676
  38.6076313  78.2996989  45.0768128  39.2584066  80.1810303  52.0970340
  39.9307119  79.9727665  51.4482989  38.4313852  79.9832389  51.6575572
  45.1609638  76.8072244  54.1136001  44.5137553  77.5062194  54.0200477
  45.9310653  77.2408388  54.4812249  45.3373772  84.6453009  52.1732821
  46.2665832  84.7964169  52.0001788  44.9164802  84.7337030  51.3181467
  44.1362104  88.6703674  49.9431358  43.9973189  88.3022458  50.8157296
  43.3476700  89.1851313  49.7715316  44.7310256  93.7712770  41.2856895
  44.9062011  93.3000813  42.1002517  44.0443044  94.3978536  41.5138155
  45.6867319  88.0485276  47.3320196  45.3517151  88.0086046  48.2277846
  45.1871265  87.3829992  46.8590606  39.6611563  83.4552906  52.8572777
  39.5231361  82.7233145  53.4584316  40.5716486  83.3661806  52.5756965
  48.6226511  85.3941311  37.6057256  48.0055681  84.6688139  37.5090308
  48.1542999  86.1550671  37.2624330  42.2893863  83.1672866  52.3456457
  42.9993482  82.5266058  52.3043075  42.2463172  83.4185760  53.2682638
  50.2780642  90.1040219  55.2663036  50.2193188  89.4199439  54.5993619
  50.6800161  90.8459209  54.8143662  41.0022797  80.1538083  54.1652096
  40.4660154  79.7028822  54.8173693  40.4139506  80.2883992  53.4222561
  39.2971341  96.9202133  48.0596755  39.5367939  97.5520657  48.7375773
  38.4540537  96.5690173  48.3462114  40.4125056  79.6126735  36.7278560
  39.5354523  79.4915536  36.3640807  40.8882809  78.8212813  36.4757449
  50.2798049  88.0679803  53.4977016  49.3924828  87.7305725  53.6203415
  50.8496600  87.3362834  53.7345781  31.9327197  84.4003895  46.8220067
  32.6198236  84.0865625  46.2341082  31.7775325  85.3045259  46.5487318
  36.7361919  79.2894091  51.2505091  36.6520107  78.6819761  50.5155501
  35.9144625  79.7803109  51.2514587  43.8099203  92.7281255  50.4638259
  43.7369374  93.5336227  50.9757563  43.3676596  92.9273221  49.6386280
  43.5988982  91.9653025  43.9741080  42.8156504  92.5074705  44.0679305
  44.2981728  92.4827005  44.3735322  46.9085633  77.7747655  46.6175286
  47.4054332  77.0217617  46.2976356  46.1372614  77.8111971  46.0518495
  54.7615390  83.4788020  48.2593577  54.7505266  84.3612736  47.8887510
  53.8932769  83.1259571  48.0648114  46.2697886  92.6268089  52.6196417
  46.9825859  93.2615554  52.5472319  45.7787915  92.7231955  51.8036419
  47.9915413  86.5319342  44.1913709  47.0571692  86.6520804  44.0218413
  48.1692082  85.6291809  43.9273719  43.4920601  79.9165038  46.3446970
  43.1218389  79.3636078  47.0327876  43.9879694  79.3123171  45.7921970
  51.3787965  82.3736661  44.7263743  51.8448417  83.2064653  44.6524046
  51.8295465  81.9081643  45.4309002  41.3209800  90.3762533  53.4401988
  42.0219259  91.0099016  53.5931383  40.8504915  90.7177264  52.6797628
  49.4464196  88.7180482  41.7249895  49.7224040  88.6037077  42.6343769
  48.5768694  88.3197967  41.6862068  49.3504627  74.7417248  48.7654645
  48.4367707  74.9721475  48.9336852  49.7797729  74.8255692  49.6168677
  49.1211086  82.9307140  51.2654539  48.4682536  83.1783048  50.6106991
  49.4991466  82.1171278  50.9317016  46.0818260  92.9666833  45.3682709
  46.2640654  92.1488489  45.8310461  46.9051246  93.1834526  44.9307599
  46.4160425  91.8935018  42.6297757  46.9448192  91.3827473  42.0167920
  46.6788645  91.5777549  43.4943290  45.1698659  83.6726951  57.7520576
  44.4939296  83.5721081  58.4222951  45.9926293  83.5166165  58.2156573
  36.9177518  89.9098888  50.3733091  37.5030955  89.1642576  50.5060995
  36.7202356  90.2202844  51.2569755  39.7716173  92.9450135  45.3895533
  39.1026548  93.4296263  44.9059573  39.6329043  93.1919356  46.3038912
  31.5095173  82.4804488  49.0937534  31.5479272  81.9468079  49.8874652
  31.0035465  81.9539693  48.4748511  43.9121442  94.9793879  51.9878192
  44.4639750  95.1425500  52.7527277  44.2527635  95.5698316  51.3158217
  38.3638208  79.3992161  56.2373111  38.9910246  79.0169238  56.8510635
  37.5066126  79.1806363  56.6028803  48.7632316  89.8055136  57.8426846
  49.3072220  90.4185094  57.3481801  48.1819161  90.3634715  58.3593859
  35.1403750  81.2068590  42.1691466  35.4357191  80.2979269  42.1158519
  34.2391786  81.1856330  41.8472468  47.0489829  92.9275854  48.9741874
  46.9240968  92.1265594  48.4652819  47.7068920  93.4222048  48.4855844
  38.6697997  79.2824587  48.1519014  37.9484583  79.8960554  48.0126487
  39.4591253  79.8182352  48.0735660  49.1124737  90.7284874  50.6021424
  48.1655073  90.6090225  50.5299751  49.4607511  89.8407372  50.6847685
  41.4724311  76.6179013  54.4259666  41.9958713  76.8641310  55.1885975
  41.2536644  77.4499048  54.0062803  36.8691592  78.8882688  42.2930791
  36.5404298  78.0080067  42.1105897  37.2230963  78.8330356  43.1807180
  46.1171171  90.5237590  46.8025776  45.9696133  89.5954298  46.9833346
  46.9424664  90.5457681  46.3182851  39.9833415  79.1755658  42.6606268
  40.3229488  79.7041579  41.9384877  40.4305535  79.5136064  43.4364835
  49.7205293  91.3466149  47.8890649  50.6451840  91.1409011  47.7515100
  49.5520596  91.0982550  48.7979990  42.6776856  77.5592708  52.1109336
  42.3373676  76.7600521  52.5130016  41.9715862  77.8594419  51.5386170
  41.9701562  77.6730279  40.8599561  42.6909925  78.0511532  40.3563278
  41.3466866  78.3919156  40.9634539  46.1132685  78.3775428  41.7957893
  46.3296299  79.2600066  41.4946722  45.6326752  77.9861642  41.0663535
  40.8531906  81.3361141  48.3728638  40.7076487  81.6501444  49.2652920
  40.3757110  81.9546042  47.8199537  42.7128289  78.3263689  48.4209528
  42.6989858  77.4304783  48.0841826  43.4300717  78.3334353  49.0547814
  44.5654420  78.7601030  50.4662655  44.3072198  79.6818100  50.4646985
  44.0339460  78.3631464  51.1563119  49.5100609  91.8651817  43.2452740
  49.6837486  91.2998239  42.4926593  50.0029500  92.6652712  43.0632230
  35.3277569  83.8766486  51.3116299  34.7831037  84.6526294  51.4436574
  36.2056918  84.2237290  51.1535421  42.1165185  77.2078070  43.6897098
  42.2381096  76.2794716  43.8887985  41.8267228  77.2216756  42.7775413
  55.3640000  84.6288240  44.8643040  55.8071146  83.8795565  44.4662163
  54.4866510  84.6198376  44.4816772  50.4975781  91.1818581  40.3449639
  51.1926686  91.8025274  40.5636953  50.8398931  90.3313932  40.6202017
  36.1143590  83.0036382  54.2046456  35.3725326  83.1519017  54.7911087
  35.7936335  83.2644648  53.3413206  52.3967204  88.6318287  41.8736969
  52.9218528  88.9705559  41.1486289  52.3089557  87.6965302  41.6900104
  44.0587253  92.5452360  54.0026846  44.3674380  92.3001507  54.8749546
  44.8562735  92.7498999  53.5145716  44.0807865  94.6990270  46.2332223
  43.6412855  94.2066649  46.9265079  44.8315982  94.1563238  45.9924298
  36.5600204  90.8901811  46.2356851  37.3858224  90.5905583  45.8555494
  36.2094256  90.1209433  46.6846639  41.5281737  90.2428279  48.3054524
  40.9061747  89.5798984  48.0056752  42.1986604  90.2689411  47.6228172
  34.7608809  88.8088137  47.1945784  33.9240717  88.3810312  47.0129786
  34.7332455  89.0020581  48.1316576  41.6006265  78.7210067  57.8987030
  41.6494420  79.5972190  57.5164800  42.1428779  78.1787460  57.3258674
  52.0861110  89.2651190  57.1788167  51.2956654  89.2475329  56.6392667
  51.8494465  89.8039484  57.9337204  52.2058985  86.1143657  54.4920896
  52.2556990  85.9493664  55.4336419  52.0972909  85.2470916  54.1018777
  41.0895244  88.7932202  41.7812985  41.2383365  89.4767667  41.1279658
  41.8961688  88.7737292  42.2962441  43.8305553  79.4741439  54.6533389
  42.9608863  79.7675005  54.3815978  44.0665034  80.0581884  55.3740653
  54.9072865  86.0993478  47.2565488  55.7419756  86.5383282  47.4203048
  55.0431993  85.6232131  46.4373734  51.9564371  83.6573213  53.2042975
  52.4318492  83.8500859  52.3961827  51.0329936  83.7132399  52.9586359
  38.8447877  84.8197380  42.7874054  38.5993919  83.9159710  42.9854264
  39.0143792  84.8214530  41.8453532  46.5344587  75.6921056  52.1698809
  47.0526531  76.4282083  51.8445298  46.1799720  75.9985050  53.0045569
  38.1143525  80.5525738  40.2860215  37.4212770  80.6270093  39.6300251
  37.8695277  79.7886081  40.8081732  46.7857181  72.1121339  47.6899706
  47.0658935  71.4444528  48.3160133  47.5707788  72.3050434  47.1774370
  44.5890650  91.2880333  39.2524732  44.0164617  91.9070520  38.7995204
  45.1623443  91.8379694  39.7864654  50.6566040  80.5338973  51.4371281
  51.6083462  80.6337071  51.4583505  50.4869490  79.7417241  51.9469365
  48.6780419  77.6194556  51.6230682  48.0830351  77.8999569  50.9277171
  48.3930116  78.1088457  52.3947423  47.8087909  91.5717483  40.3833315
  48.7418583  91.5063045  40.5866190  47.7211122  92.4073750  39.9247847
  50.4375926  90.8883353  37.3437262  50.3589558  90.5543217  38.2373020
  51.2585593  91.3805121  37.3428734  53.1354117  83.7545093  50.5513581
  53.1030437  82.8161093  50.7373265  53.7454741  83.8329129  49.8179406
  44.9737448  82.6241146  36.5940785  45.9196553  82.4947354  36.6629203
  44.5951693  81.8855807  37.0710213  53.2848606  80.5456136  50.5971864
  52.7687654  79.7614593  50.4101793  54.1688554  80.2174853  50.7618383
  50.9459333  74.2897152  46.5567677  50.7484154  73.9812240  47.4411009
  51.5559038  75.0158790  46.6865606  58.9530667  84.8161099  49.6919618
  59.6834056  84.5546388  50.2527321  58.3437613  84.0789821  49.7321686
  57.0345964  82.9568962  50.2894069  56.3079128  82.8224927  49.6810560
  56.6193251  83.2645791  51.0950787  44.8576141  86.6758892  58.0541442
  45.7779150  86.8537491  58.2481488  44.8225724  85.7314937  57.9021141
  43.1580365  80.5491122  36.5295670  42.2511821  80.2524235  36.6058384
  43.4356346  80.2520940  35.6629956  34.0758306  81.8697485  46.9794716
  33.7561090  81.0162793  46.6869090  33.5291734  82.0846063  47.7352684
  37.8538213  84.5859926  50.6964223  38.0724223  85.5177034  50.7152257
  38.2663987  84.2267901  51.4819027  44.7742431  75.0928012  42.6839911
  43.9643159  74.7475097  43.0595157  45.4626848  74.7835555  43.2727523
  46.7032979  74.1706058  44.3064208  47.2564018  74.5901512  44.9654231
  46.9403066  73.2441807  44.3487164  42.7266079  80.1593132  60.0866972
  42.6262805  81.1087489  60.0179063  42.5087621  79.8311371  59.2143042
  41.9279150  77.4078057  36.6707649  42.7898314  77.7332955  36.9303467
  42.1129494  76.6209553  36.1580715  33.9446566  85.4900397  48.9487838
  33.2510037  85.0754350  48.4357792  34.6919557  85.5320933  48.3521257
  50.0811786  76.2806584  43.8142872  49.5010456  76.9391388  43.4320925
  49.8147719  75.4583928  43.4030290  48.5315353  75.6811641  46.0164193
  49.0315131  75.7928176  45.2078511  49.1750961  75.3772694  46.6565001
  42.5897349  83.5890271  58.9032034  42.1064430  84.3890631  59.1095923
  42.6758288  83.5998216  57.9499478  35.8583308  85.4218651  46.8253853
  35.8353996  85.5206338  45.8735736  36.1683945  86.2683801  47.1471019
  38.5170686  87.4794806  50.9400467  39.4713940  87.4478748  50.8730399
  38.3183210  87.0185429  51.7550693  39.1070068  86.0495922  53.5071265
  39.9262957  86.5440000  53.5306102  39.3806876  85.1327890  53.4788832
  48.8636664  78.4406674  42.8699220  47.9762520  78.7256325  42.6519415
  49.2790654  78.2800437  42.0226497  52.2151201  78.4653195  46.5853560
  52.9911591  78.9549647  46.8578177  51.4899335  78.8911249  47.0425429
  54.6523759  79.1780814  47.6427500  55.2468250  78.9376550  46.9320809
  54.7250343  78.4587945  48.2701037  36.8720915  93.0214425  47.9570665
  36.7375383  92.2614826  47.3908663  36.4552977  93.7455325  47.4899454
  48.0079878  88.2051349  36.9647240  48.7115728  88.4101351  37.5804896
  47.2842527  88.7728111  37.2296324  48.8377688  83.9561210  43.0849511
  48.7812890  84.4129761  42.2457143  49.3906031  83.1951894  42.9072353
  52.6482494  79.7450942  43.9099630  52.3919428  79.3447577  44.7407838
  52.0235362  80.4594736  43.7849769  56.9594832  82.4847015  46.4170922
  56.3994390  82.5540204  47.1902484  56.3538335  82.3088000  45.6970418
  40.0290041  93.9183742  48.1689108  39.9122425  94.8629175  48.0667798
  39.2082487  93.6157304  48.5574907  49.9166575  88.6433878  39.0145701
  50.7512179  88.2115076  38.8323175  49.7550918  88.4715892  39.9422595
  49.5712468  85.1465991  40.3802040  49.5161271  84.9810263  39.4390484
  48.9458523  85.8542024  40.5364230  34.3604983  80.3834056  54.2063462
  35.0063846  79.8733009  54.6950687  34.1522134  81.1202737  54.7806887
  42.8808593  74.6474100  39.9587358  42.8687263  75.5915940  40.1155629
  43.7732015  74.4644246  39.6646819  41.0544555  94.5712004  51.3845036
  41.9571802  94.6035614  51.7011531  40.8281925  93.6412455  51.3991372
  42.8098157  93.3242991  48.0455115  41.8593788  93.3244852  47.9319487
  43.1130643  92.5775725  47.5291149  46.6960712  71.2416877  44.2133295
  45.9293108  70.6875363  44.3589977  47.1071417  71.3138746  45.0747447
  58.5450850  99.1603529  49.1100877  59.1829260  99.0410276  48.4064217
  58.4271693 100.1084373  49.1688829  55.3540557  99.1130957  49.0462402
  55.0159068  98.9972022  48.1582937  56.2230325  98.7122122  49.0263408
  51.2127372 100.9666433  45.0359293  50.6492238 100.8756370  44.2675581
  51.0979767 100.1466338  45.5161785  55.8360340 100.2665809  55.0048607
  55.8248980  99.8718607  54.1329111  55.9980979  99.5331881  55.5982379
  48.7591804 102.4617625  47.8743513  49.5513096 102.1208450  47.4589813
  48.9988455 102.5712600  48.7945667  56.7926931 104.6337401  40.3473758
  56.1414911 105.2191482  39.9607772  57.5871294 105.1643596  40.4068795
  50.7182558 101.7226538  40.7460892  51.4913434 101.1755525  40.6073768
  51.0707957 102.5870788  40.9575354  52.5567601 103.0502921  53.9527791
  52.2657467 103.9548551  53.8374458  53.1924585 103.0919448  54.6671861
  53.4823808 100.4279769  50.5429151  54.0787380 100.2035791  49.8286114
  53.5398779  99.6864515  51.1454599  53.0548836  97.8819204  38.3779342
  53.3074357  97.3600726  37.6162805  52.1173395  97.7185350  38.4806026
  58.0992119  96.8854983  46.1854085  58.8855208  96.4674406  45.8344502
  58.3630823  97.7901075  46.3535734  58.2702196 102.3227833  40.8842742
  57.6348029 102.3962460  41.5963647  57.9399603 102.9121432  40.2061821
  63.5000546  96.8230216  47.0887064  64.2325718  96.2529433  47.3224893
  62.7439902  96.4351816  47.5293569  52.7745125  99.7847310  40.5803717
  52.6581383  99.1092214  41.2484801  52.8847385  99.2979684  39.7635870
  55.1176666  99.2457457  44.2850406  54.7534873  98.7188078  44.9963328
  55.9743782  98.8555927  44.1116892  61.0225966  90.5351790  51.5481672
  60.6909291  91.4047201  51.3242887  60.4271580  90.2188074  52.2275703
  54.7582153  94.2747357  39.2811755  54.9256555  95.1427594  39.6482226
  54.5679322  94.4374639  38.3573044  57.5157486 102.7364336  50.9477585
  57.2158209 103.6389375  50.8393392  57.1708545 102.4696519  51.7998738
  50.9669967  99.1878133  46.9814290  50.0420464  99.0554347  47.1891981
  51.2154381  99.9672352  47.4784232  60.9154630  95.2546876  48.6275022
  60.0071507  95.1862285  48.3333783  60.8642226  95.7318821  49.4556848
  54.7371374  96.7305015  40.2658422  54.6170999  97.1762065  41.1043902
  54.0423962  97.0790332  39.7071960  48.3278778  98.8311406  47.8158079
  48.4571160  99.0845885  48.7297490  47.6476230  99.4239114  47.4962734
  52.4978266 109.5008656  43.9148553  52.4202295 110.4516482  43.9937033
  51.8939909 109.1554529  44.5723479  54.9895496  96.6736522  56.5709920
  54.2128830  97.2330442  56.5612784  55.6286059  97.1593305  57.0924790
  62.7816276  93.4563315  50.4052896  62.1390656  93.7495848  49.7592691
  62.2771205  93.3416235  51.2106093  60.4356440  97.2026488  41.0938756
  61.3474296  97.4353875  40.9186453  59.9266087  97.7863532  40.5313834
  53.2441868  99.4821975  56.1327887  53.9856552 100.0207019  55.8562710
  52.5378853 100.1088264  56.2899439  58.7197207 101.6251116  54.7300048
  59.1280563 101.1833526  53.9854681  57.9974469 101.0503743  54.9834241
  55.0728278  96.5623722  52.1033605  55.9189473  96.9863136  52.2468254
  55.0126915  95.9057347  52.7972168  59.0426022 102.1852306  48.4852337
  58.4134885 102.3498020  47.7828405  58.6551684 102.5993916  49.2563301
  62.9215254 103.1206744  45.8396701  62.2366292 103.5005646  45.2893734
  63.0059103 103.7302071  46.5728649  58.2227723  94.2228091  53.7614779
  57.9788655  94.9770151  53.2249055  58.4987653  94.6013438  54.5962026
  60.1766186 100.7666703  52.4392044  60.3883081 101.4098463  51.7626425
  60.1295934  99.9329020  51.9713974  57.7792415  93.3784524  49.3428617
  56.9176894  93.6765777  49.6345354  57.8054849  93.5954923  48.4109649
  54.5953984 101.9226714  45.7502422  55.0592330 102.2014417  44.9607045
  54.3310782 101.0210159  45.5675513  51.4878065 101.4698196  48.6882185
  52.0579422 101.8985464  48.0499670  52.0786177 101.1880781  49.3866371
  53.5322870  98.0449867  42.5591987  54.2346913  98.4970910  43.0265914
  53.2003499  97.4033686  43.1871880  51.9803232  96.6361623  56.9343197
  51.3501892  97.3177904  57.1678594  51.8739319  96.5244705  55.9896335
  47.2748204  96.3033419  47.8609121  46.4847258  96.5590948  47.3849232
  47.7659451  97.1181757  47.9661161  61.2912014 103.6438659  50.6114402
  62.1129457 103.2418846  50.3297083  61.2874416 103.5406893  51.5630518
  49.2262949  96.6677999  44.8192598  48.4294113  96.7796693  45.3376093
  48.9988542  97.0064651  43.9533488  55.0568617 103.1922702  52.7675112
  55.1213050 103.6543109  53.6033284  54.3479541 102.5620067  52.8957422
  45.5585907  96.5563910  50.2924112  45.8093945  97.4410920  50.5581688
  46.0945455  96.3768511  49.5199204  69.3818007  99.9877407  46.9599373
  68.6281715  99.4184805  46.8043378  69.5165548  99.9540072  47.9070008
  54.7716635 104.8590809  42.6354093  54.6362309 105.7042345  43.0638940
  55.3126447 105.0610087  41.8720026  51.2583974  90.9382389  59.2968448
  50.8650920  90.3848588  59.9716092  52.0750115  91.2492968  59.6874965
  48.2246032 102.3766247  43.2082018  48.7370553 103.1709498  43.3587582
  48.8768745 101.6792538  43.1415619  50.0340917 105.4932004  45.2904771
  50.2107545 106.4149968  45.1025755  50.8297750 105.1790423  45.7199151
  54.1751935  92.3540268  56.8888704  54.9161649  92.9547421  56.8093167
  54.4069858  91.6117906  56.3306747  49.3193273  97.5396636  55.1666934
  49.2046788  96.6381893  55.4674033  48.4637791  97.7860332  54.8151751
  56.3985111 105.4814376  56.7654435  55.9548965 104.6950754  56.4475339
  57.0602325 105.6693526  56.0998325  51.1572232 107.0110177  51.2915113
  51.7079657 106.8827241  50.5192107  50.3183708 107.3105067  50.9410006
  58.4966349 105.7617176  54.7935836  58.4784824 106.5826057  54.3016105
  59.4186269 105.6371251  55.0185977  54.9539403 103.2761305  55.6359344
  55.4867740 102.5149593  55.4058652  54.4253484 102.9834957  56.3783499
  58.1209098  88.3821371  51.1652986  57.7773368  89.2723013  51.0892097
  58.4888061  88.1923029  50.3022571  46.1894949 100.7054902  43.9841588
  47.0270171 101.1151910  43.7675296  46.3673217  99.7654344  43.9541782
  58.0859381  98.3729982  39.6725421  57.5706004  99.1434587  39.9113809
  57.8136689  97.6995119  40.2958483  55.6706492  93.2179683  44.7310660
  54.8148088  92.8286534  44.5516298  56.0833444  93.2971644  43.8710445
  57.2005639  90.7526026  49.1302219  56.6970434  90.7156162  48.3170025
  57.4936245  91.6618769  49.1898876  53.4448524  90.8364756  48.1368401
  54.3101521  90.6407565  47.7774290  53.5126033  90.6075108  49.0637758
  63.0593655 101.1262337  41.6078595  62.2823098 100.7873497  41.1633757
  63.7385136 101.1314960  40.9333560  57.8745684  96.2457074  41.4985202
  57.5695820  96.5603224  42.3495346  58.8276126  96.3238494  41.5412535
  56.3192116 102.4047298  43.1478156  55.7913478 101.6700057  42.8351394
  55.8179619 103.1821974  42.9018125  61.2984962 100.5996318  48.2645203
  60.6408636 101.2895580  48.3525331  62.1025361 100.9892750  48.6079189
  51.0510844  93.0666964  45.5084768  51.6254595  92.8442146  44.7757961
  51.6381826  93.1355659  46.2613369  60.1090421  98.9540691  46.3149144
  60.6222303  99.5870683  46.8170854  60.7591645  98.3541886  45.9492504
  51.3780431  95.0971425  39.5280653  50.5417743  95.4346112  39.8489928
  51.2385200  94.9620405  38.5907790  53.3533511  89.9408213  44.2359837
  52.6997924  89.6257230  43.6116452  53.3113985  89.3183953  44.9619660
  54.4644716 100.2227508  36.1513129  53.5571778  99.9916762  36.3504278
  54.9615748  99.4265127  36.3387111  57.3712795 108.9325015  39.0709816
  56.6974494 109.2356712  39.6794773  57.7578617 109.7354096  38.7215273
  56.5871252  96.4290147  48.5607485  55.6693813  96.6505094  48.4029173
  57.0031395  96.5036457  47.7019192  57.3706299  97.8281562  43.6910165
  58.1178118  98.3402959  43.3817287  57.6397889  97.5065615  44.5514559
  55.6432950 100.3240103  40.6737119  54.7344169 100.0399136  40.7709589
  55.6728033 100.7439181  39.8140426  60.8752217 103.9346692  44.4428287
  60.4214544 103.0937602  44.4993477  60.2446184 104.5708091  44.7803067
  59.8185137  94.8638678  45.6728954  59.0807893  94.3516065  46.0039197
  60.0711910  94.4239060  44.8612231  59.3185156 105.7723189  45.3778105
  59.6108131 106.3328246  44.6590471  59.8283777 106.0651750  46.1331264
  59.9196764  87.6414930  46.2670724  60.2255641  86.7812294  45.9796639
  60.6449369  88.2332551  46.0669718  46.2121120  98.0445617  44.6552322
  46.0145520  97.4514978  43.9303388  45.6567784  97.7397827  45.3728260
  54.1917844  97.9368724  46.7746915  54.2466453  96.9842560  46.6989391
  53.3809046  98.0928163  47.2588213  55.3409037 101.8648847  38.0125198
  54.9028467 101.1484706  37.5530835  56.0819478 102.0924961  37.4510289
  52.1310204  96.5545783  44.5337294  51.3178069  96.8539954  44.9402486
  52.6269198  96.1601472  45.2511776  54.2818781 106.5503540  46.4671558
  54.2394960 106.7764387  45.5380090  55.1981480 106.3166915  46.6157359
  57.7284415  97.0187608  53.3652188  58.0833803  97.2459081  54.2246653
  58.3756546  97.3505985  52.7429443  63.4582152 100.1406044  44.0701517
  63.3200051 100.3307640  43.1422706  63.1018371 100.9025426  44.5269568
  51.6224278  94.1264139  50.1498529  52.2623658  93.9852898  49.4521492
  50.7901809  93.8398652  49.7737131  63.4851532 102.2082571  49.0812788
  63.9188038 102.1157860  49.9295842  64.1983112 102.1840071  48.4432804
  52.3984582 103.4266569  46.2633521  53.1925181 102.9316889  46.0616096
  51.6876275 102.8984432  45.9001227  57.2179427 105.8084665  50.6145889
  57.2716449 106.3775601  51.3823605  56.3494208 105.9786550  50.2499926
  48.7067346  97.5709651  42.3393274  47.7764934  97.5094106  42.5563236
  48.8024818  97.0485604  41.5429915  48.6252895  94.0964464  44.9271515
  48.8859712  95.0109797  44.8180676  49.4470067  93.6288906  45.0768128
  50.0977820  95.5102221  52.0970340  50.7700873  95.3019583  51.4482989
  49.2707607  95.3124307  51.6575572  64.3467081 102.2506271  51.6145673
  64.5402971 103.1552082  51.8604948  64.2467699 101.7913690  52.4484259
  56.0003392  92.1364162  54.1136001  55.3531307  92.8354112  54.0200477
  56.7704407  92.5700306  54.4812249  59.4082190 102.4013014  57.1886554
  59.2567696 102.1723566  56.2716638  59.3986869 103.3583615  57.2017899
  56.1767526  99.9744927  52.1732821  57.1059586 100.1256086  52.0001788
  55.7558556 100.0628948  51.3181467  54.9755858 103.9995591  49.9431358
  54.8366944 103.6314376  50.8157296  54.1870454 104.5143231  49.7715316
  55.5704010 109.1004688  41.2856895  55.7455766 108.6292731  42.1002517
  54.8836798 109.7270454  41.5138155  56.5261073 103.3777194  47.3320196
  56.1910906 103.3377964  48.2277846  56.0265019 102.7121910  46.8590606
  50.5005317  98.7844824  52.8572777  50.3625115  98.0525063  53.4584316
  51.4110241  98.6953724  52.5756965  59.4620265 100.7233228  37.6057256
  58.8449436  99.9980056  37.5090308  58.9936753 101.4842589  37.2624330
  53.1287618  98.4964783  52.3456457  53.8387236  97.8557975  52.3043075
  53.0856926  98.7477678  53.2682638  61.1174397 105.4332137  55.2663036
  61.0586943 104.7491357  54.5993619  61.5193915 106.1751127  54.8143662
  51.8416552  95.4830001  54.1652096  51.3053909  95.0320740  54.8173693
  51.2533260  95.6175910  53.4222561  50.1365095 112.2494050  48.0596755
  50.3761694 112.8812575  48.7375773  49.2934292 111.8982090  48.3462114
  51.2518811  94.9418653  36.7278560  50.3748277  94.8207453  36.3640807
  51.7276564  94.1504731  36.4757449  61.1191804 103.3971721  53.4977016
  60.2318583 103.0597642  53.6203415  61.6890355 102.6654752  53.7345781
  42.7720951  99.7295812  46.8220067  43.4591991  99.4157542  46.2341082
  42.6169080 100.6337177  46.5487318  47.5755673  94.6186009  51.2505091
  47.4913862  94.0111678  50.5155501  46.7538380  95.1095027  51.2514587
  54.6492957 108.0573173  50.4638259  54.5763129 108.8628144  50.9757563
  54.2070350 108.2565139  49.6386280  54.4382737 107.2944943  43.9741080
  53.6550259 107.8366623  44.0679305  55.1375482 107.8118923  44.3735322
  57.7479387  93.1039572  46.6175286  58.2448087  92.3509535  46.2976356
  56.9766369  93.1403889  46.0518495  65.6009144  98.8079938  48.2593577
  65.5899021  99.6904653  47.8887510  64.7326524  98.4551489  48.0648114
  57.1091641 107.9560007  52.6196417  57.8219613 108.5907472  52.5472319
  56.6181669 108.0523873  51.8036419  58.8309168 101.8611260  44.1913709
  57.8965446 101.9812722  44.0218413  59.0085836 100.9583726  43.9273719
  54.3314356  95.2456955  46.3446970  53.9612143  94.6927996  47.0327876
  54.8273448  94.6415089  45.7921970  62.2181719  97.7028579  44.7263743
  62.6842171  98.5356570  44.6524046  62.6689220  97.2373560  45.4309002
  52.1603554 105.7054450  53.4401988  52.8613014 106.3390933  53.5931383
  51.6898669 106.0469182  52.6797628  60.2857950 104.0472400  41.7249895
  60.5617794 103.9328995  42.6343769  59.4162449 103.6489885  41.6862068
  60.1898382  90.0709166  48.7654645  59.2761462  90.3013393  48.9336852
  60.6191483  90.1547610  49.6168677  59.9604840  98.2599058  51.2654539
  59.3076291  98.5074965  50.6106991  60.3385220  97.4463196  50.9317016
  56.9212014 108.2958751  45.3682709  57.1034409 107.4780407  45.8310461
  57.7445000 108.5126443  44.9307599  57.2554180 107.2226936  42.6297757
  57.7841946 106.7119391  42.0167920  57.5182399 106.9069466  43.4943290
  56.0092413  99.0018869  57.7520576  55.3333050  98.9012998  58.4222951
  56.8320047  98.8458083  58.2156573  47.7571272 105.2390805  50.3733091
  48.3424709 104.4934493  50.5060995  47.5596111 105.5494762  51.2569755
  50.6109928 108.2742053  45.3895533  49.9420303 108.7588180  44.9059573
  50.4722797 108.5211273  46.3038912  42.3488927  97.8096406  49.0937534
  42.3873027  97.2759996  49.8874652  41.8429220  97.2831611  48.4748511
  54.7515196 110.3085796  51.9878192  55.3033504 110.4717418  52.7527277
  55.0921390 110.8990234  51.3158217  49.7279689  92.6560946  52.5900076
  49.7921016  93.5175777  52.1777474  49.6646810  92.0434948  51.8572435
  49.2031962  94.7284079  56.2373111  49.8304001  94.3461156  56.8510635
  48.3459881  94.5098281  56.6028803  59.6026071 105.1347054  57.8426846
  60.1465975 105.7477012  57.3481801  59.0212915 105.6926632  58.3593859
  45.9797505  96.5360508  42.1691466  46.2750946  95.6271186  42.1158519
  45.0785541  96.5148247  41.8472468  57.8883584 108.2567772  48.9741874
  57.7634723 107.4557512  48.4652819  58.5462675 108.7513965  48.4855844
  49.5091752  94.6116504  48.1519014  48.7878338  95.2252472  48.0126487
  50.2985008  95.1474269  48.0735660  59.9518492 106.0576792  50.6021424
  59.0048827 105.9382143  50.5299751  60.3001265 105.1699290  50.6847685
  52.3118065  91.9470931  54.4259666  52.8352467  92.1933227  55.1885975
  52.0930399  92.7790966  54.0062803  47.7085346  94.2174605  42.2930791
  47.3798052  93.3371984  42.1105897  48.0624717  94.1622274  43.1807180
  56.9564925 105.8529508  46.8025776  56.8089888 104.9246216  46.9833346
  57.7818419 105.8749599  46.3182851  50.8227169  94.5047575  42.6606268
  51.1623242  95.0333496  41.9384877  51.2699290  94.8427981  43.4364835
  60.5599047 106.6758067  47.8890649  61.4845595 106.4700928  47.7515100
  60.3914350 106.4274468  48.7979990  53.5170610  92.8884626  52.1109336
  53.1767431  92.0892439  52.5130016  52.8109617  93.1886337  51.5386170
  54.1687082  89.9733938  50.5636659  54.9913151  89.4994417  50.4415550
  54.4125146  90.7524422  51.0635346  52.8095317  93.0022197  40.8599561
  53.5303679  93.3803450  40.3563278  52.1860621  93.7211074  40.9634539
  56.9526440  93.7067346  41.7957893  57.1690054  94.5891984  41.4946722
  56.4720507  93.3153559  41.0663535  51.6925661  96.6653059  48.3728638
  51.5470242  96.9793362  49.2652920  51.2150865  97.2837959  47.8199537
  53.5522044  93.6555607  48.4209528  53.5383613  92.7596700  48.0841826
  54.2694472  93.6626271  49.0547814  55.4048174  94.0892947  50.4662655
  55.1465952  95.0110018  50.4646985  54.8733215  93.6923382  51.1563119
  60.3494363 107.1943734  43.2452740  60.5231241 106.6290157  42.4926593
  60.8423254 107.9944629  43.0632230  46.1671323  99.2058403  51.3116299
  45.6224791  99.9818211  51.4436574  47.0450673  99.5529208  51.1535421
  52.9558940  92.5369987  43.6897098  53.0774851  91.6086633  43.8887985
  52.6660982  92.5508673  42.7775413  55.8250130  90.2224898  46.8263818
  55.8471827  90.2864231  45.8715797  56.2418189  89.3829406  47.0204324
  66.2033754  99.9580157  44.8643040  66.6464900  99.2087482  44.4662163
  65.3260265  99.9490294  44.4816772  61.3369536 106.5110499  40.3449639
  62.0320440 107.1317191  40.5636953  61.6792686 105.6605850  40.6202017
  46.9537345  98.3328300  54.2046456  46.2119081  98.4810935  54.7911087
  46.6330089  98.5936565  53.3413206  63.2360959 103.9610204  41.8736969
  63.7612283 104.2997477  41.1486289  63.1483311 103.0257220  41.6900104
  54.8981008 107.8744278  54.0026846  55.2068134 107.6293425  54.8749546
  55.6956490 108.0790916  53.5145716  54.9201620 110.0282188  46.2332223
  54.4806610 109.5358566  46.9265079  55.6709737 109.4855155  45.9924298
  47.3993959 106.2193728  46.2356851  48.2251979 105.9197500  45.8555494
  47.0488011 105.4501351  46.6846639  52.3675492 105.5720197  48.3054524
  51.7455501 104.9090902  48.0056752  53.0380359 105.5981329  47.6228172
  45.6002564 104.1380055  47.1945784  44.7634472 103.7102229  47.0129786
  45.5726209 104.3312498  48.1316576  52.4400019  94.0501985  57.8987030
  52.4888175  94.9264107  57.5164800  52.9822533  93.5079378  57.3258674
  62.9254865 104.5943108  57.1788167  62.1350409 104.5767247  56.6392667
  62.6888220 105.1331402  57.9337204  63.0452740 101.4435574  54.4920896
  63.0950745 101.2785582  55.4336419  62.9366663 100.5762833  54.1018777
  51.9288999 104.1224120  41.7812985  52.0777119 104.8059584  41.1279658
  52.7355442 104.1029210  42.2962441  60.3356502  97.4266502  55.8080203
  61.2366365  97.2872967  55.5164200  60.4104477  97.5920957  56.7478380
  54.6699308  94.8033357  54.6533389  53.8002617  95.0966923  54.3815978
  54.9058788  95.3873802  55.3740653  64.5470937 103.8632516  54.7362918
  64.2555745 104.2262496  55.5726378  63.9343068 103.1499524  54.5576250
  65.7466619 101.4285396  47.2565488  66.5813511 101.8675200  47.4203048
  65.8825748 100.9524049  46.4373734  62.7958125  98.9865130  53.2042975
  63.2712247  99.1792777  52.3961827  61.8723690  99.0424316  52.9586359
  49.6841632 100.1489298  42.7874054  49.4387674  99.2451628  42.9854264
  49.8537546 100.1506448  41.8453532  57.3738342  91.0212974  52.1698809
  57.8920285  91.7574001  51.8445298  57.0193474  91.3276967  53.0045569
  48.9537279  95.8817655  40.2860215  48.2606524  95.9562010  39.6300251
  48.7089031  95.1177999  40.8081732  57.6250936  87.4413257  47.6899706
  57.9052689  86.7736446  48.3160133  58.4101543  87.6342352  47.1774370
  55.4284404 106.6172250  39.2524732  54.8558371 107.2362438  38.7995204
  56.0017198 107.1671612  39.7864654  61.4959794  95.8630891  51.4371281
  62.4477217  95.9628988  51.4583505  61.3263244  95.0709159  51.9469365
  59.5174174  92.9486474  51.6230682  58.9224106  93.2291486  50.9277171
  59.2323870  93.4380375  52.3947423  58.6481664 106.9009401  40.3833315
  59.5812337 106.8354962  40.5866190  58.5604877 107.7365667  39.9247847
  61.2769681 106.2175271  37.3437262  61.1983312 105.8835135  38.2373020
  62.0979347 106.7097039  37.3428734  63.9747872  99.0837010  50.5513581
  63.9424192  98.1453011  50.7373265  64.5848495  99.1621047  49.8179406
  55.8131203  97.9533063  36.5940785  56.7590307  97.8239271  36.6629203
  55.4345448  97.2147725  37.0710213  64.1242360  95.8748054  50.5971864
  63.6081409  95.0906510  50.4101793  65.0082309  95.5466770  50.7618383
  61.7853087  89.6189069  46.5567677  61.5877908  89.3104157  47.4411009
  62.3952793  90.3450708  46.6865606  69.7924422 100.1453017  49.6919618
  70.5227810  99.8838305  50.2527321  69.1831367  99.4081739  49.7321686
  67.8739719  98.2860880  50.2894069  67.1472882  98.1516845  49.6810560
  67.4587006  98.5937708  51.0950787  55.6969895 102.0050809  58.0541442
  56.6172905 102.1829408  58.2481488  55.6619478 101.0606855  57.9021141
  53.9974120  95.8783040  36.5295670  53.0905575  95.5816152  36.6058384
  54.2750101  95.5812858  35.6629956  44.9152060  97.1989403  46.9794716
  44.5954845  96.3454711  46.6869090  44.3685488  97.4137981  47.7352684
  48.6931968  99.9151844  50.6964223  48.9117978 100.8468952  50.7152257
  49.1057742  99.5559818  51.4819027  55.6136186  90.4219929  42.6839911
  54.8036914  90.0767014  43.0595157  56.3020603  90.1127473  43.2727523
  57.5426734  89.4997976  44.3064208  58.0957772  89.9193430  44.9654231
  57.7796820  88.5733724  44.3487164  53.5659833  95.4885050  60.0866972
  53.4656560  96.4379407  60.0179063  53.3481375  95.1603289  59.2143042
  52.7672904  92.7369975  36.6707649  53.6292068  93.0624873  36.9303467
  52.9523249  91.9501471  36.1580715  44.7840320 100.8192314  48.9487838
  44.0903792 100.4046267  48.4357792  45.5313311 100.8612851  48.3521257
  60.9205541  91.6098501  43.8142872  60.3404210  92.2683305  43.4320925
  60.6541474  90.7875846  43.4030290  59.3709107  91.0103559  46.0164193
  59.8708886  91.1220093  45.2078511  60.0144715  90.7064612  46.6565001
  53.4291103  98.9182189  58.9032034  52.9458185  99.7182549  59.1095923
  53.5152042  98.9290133  57.9499478  46.6977063 100.7510568  46.8253853
  46.6747751 100.8498256  45.8735736  47.0077699 101.5975719  47.1471019
  49.3564441 102.8086723  50.9400467  50.3107694 102.7770666  50.8730399
  49.1576964 102.3477347  51.7550693  49.9463823 101.3787839  53.5071265
  50.7656712 101.8731918  53.5306102  50.2200630 100.4619807  53.4788832
  59.7030419  93.7698592  42.8699220  58.8156274  94.0548242  42.6519415
  60.1184408  93.6092355  42.0226497  63.0544955  93.7945113  46.5853560
  63.8305345  94.2841565  46.8578177  62.3293089  94.2203167  47.0425429
  65.4917514  94.5072732  47.6427500  66.0862005  94.2668468  46.9320809
  65.5644097  93.7879862  48.2701037  47.7114669 108.3506343  47.9570665
  47.5769137 107.5906744  47.3908663  47.2946732 109.0747243  47.4899454
  58.8473632 103.5343266  36.9647240  59.5509483 103.7393269  37.5804896
  58.1236281 104.1020028  37.2296324  59.6771443  99.2853128  43.0849511
  59.6206644  99.7421679  42.2457143  60.2299785  98.5243812  42.9072353
  63.4876249  95.0742859  43.9099630  63.2313183  94.6739495  44.7407838
  62.8629117  95.7886653  43.7849769  67.7988586  97.8138933  46.4170922
  67.2388144  97.8832122  47.1902484  67.1932090  97.6379917  45.6970418
  50.8683795 109.2475660  48.1689108  50.7516179 110.1921092  48.0667798
  50.0476242 108.9449221  48.5574907  60.7560330 103.9725796  39.0145701
  61.5905934 103.5406994  38.8323175  60.5944673 103.8007809  39.9422595
  60.4106222 100.4757909  40.3802040  60.3555026 100.3102180  39.4390484
  59.7852277 101.1833942  40.5364230  45.1998737  95.7125973  54.2063462
  45.8457601  95.2024927  54.6950687  44.9915888  96.4494655  54.7806887
  57.7252129 102.7806821  59.7055603  58.5943289 102.9547473  59.3442238
  57.2458881 103.6001238  59.5831332  53.7202347  89.9766018  39.9587358
  53.7081017  90.9207858  40.1155629  54.6125769  89.7936163  39.6646819
  51.8938309 109.9003922  51.3845036  52.7965556 109.9327532  51.7011531
  51.6675679 108.9704373  51.3991372  53.6491911 108.6534908  48.0455115
  52.6987542 108.6536770  47.9319487  53.9524398 107.9067643  47.5291149
  57.5354467  86.5708794  44.2133295  56.7686863  86.0167281  44.3589977
  57.9465172  86.6430663  45.0747447  49.5396228  92.8593590  58.3038476
  50.4027690  92.5030395  58.5141801  48.9661639  92.5207485  58.9913881
  69.3844605 114.4895447  49.1100877  70.0223015 114.3702194  48.4064217
  69.2665448 115.4376291  49.1688829  66.1934311 114.4422875  49.0462402
  65.8552823 114.3263939  48.1582937  67.0624079 114.0414040  49.0263408
  62.0521127 116.2958351  45.0359293  61.4885992 116.2048288  44.2675581
  61.9373522 115.4758256  45.5161785  66.6754094 115.5957726  55.0048607
  66.6642735 115.2010525  54.1329111  66.8374734 114.8623799  55.5982379
  59.5985559 117.7909543  47.8743513  60.3906851 117.4500367  47.4589813
  59.8382209 117.9004518  48.7945667  67.6320686 119.9629319  40.3473758
  66.9808665 120.5483399  39.9607772  68.4265048 120.4935514  40.4068795
  61.5576313 117.0518456  40.7460892  62.3307189 116.5047443  40.6073768
  61.9101712 117.9162705  40.9575354  63.3961355 118.3794838  53.9527791
  63.1051221 119.2840469  53.8374458  64.0318340 118.4211366  54.6671861
  64.3217562 115.7571687  50.5429151  64.9181134 115.5327709  49.8286114
  64.3792534 115.0156432  51.1454599  63.8942591 113.2111122  38.3779342
  64.1468111 112.6892643  37.6162805  62.9567150 113.0477268  38.4806026
  68.9385873 112.2146900  46.1854085  69.7248963 111.7966324  45.8344502
  69.2024578 113.1192993  46.3535734  69.1095951 117.6519751  40.8842742
  68.4741784 117.7254377  41.5963647  68.7793357 118.2413350  40.2061821
  74.3394301 112.1522134  47.0887064  75.0719472 111.5821350  47.3224893
  73.5833656 111.7643734  47.5293569  63.6138879 115.1139228  40.5803717
  63.4975137 114.4384131  41.2484801  63.7241139 114.6271602  39.7635870
  65.9570420 114.5749375  44.2850406  65.5928627 114.0479996  44.9963328
  66.8137536 114.1847844  44.1116892  71.8619721 105.8643708  51.5481672
  71.5303046 106.7339119  51.3242887  71.2665334 105.5479992  52.2275703
  65.5975907 109.6039275  39.2811755  65.7650310 110.4719511  39.6482226
  65.4073076 109.7666557  38.3573044  68.3551240 118.0656254  50.9477585
  68.0551964 118.9681293  50.8393392  68.0102300 117.7988437  51.7998738
  61.8063722 114.5170051  46.9814290  60.8814218 114.3846265  47.1891981
  62.0548135 115.2964270  47.4784232  71.7548384 110.5838794  48.6275022
  70.8465262 110.5154202  48.3333783  71.7035980 111.0610739  49.4556848
  65.5765128 112.0596932  40.2658422  65.4564753 112.5053983  41.1043902
  64.8817717 112.4082250  39.7071960  59.1672533 114.1603324  47.8158079
  59.2964914 114.4137803  48.7297490  58.4869984 114.7531032  47.4962734
  63.3372020 124.8300574  43.9148553  63.2596050 125.7808399  43.9937033
  62.7333664 124.4846447  44.5723479  65.8289250 112.0028440  56.5709920
  65.0522584 112.5622360  56.5612784  66.4679813 112.4885223  57.0924790
  73.6210031 108.7855232  50.4052896  72.9784411 109.0787766  49.7592691
  73.1164959 108.6708153  51.2106093  71.2750194 112.5318406  41.0938756
  72.1868050 112.7645792  40.9186453  70.7659841 113.1155450  40.5313834
  64.0835622 114.8113893  56.1327887  64.8250307 115.3498937  55.8562710
  63.3772608 115.4380182  56.2899439  69.5590962 116.9543033  54.7300048
  69.9674318 116.5125444  53.9854681  68.8368223 116.3795661  54.9834241
  65.9122032 111.8915640  52.1033605  66.7583227 112.3155054  52.2468254
  65.8520670 111.2349264  52.7972168  69.8819777 117.5144224  48.4852337
  69.2528639 117.6789938  47.7828405  69.4945439 117.9285834  49.2563301
  73.7609008 118.4498662  45.8396701  73.0760047 118.8297563  45.2893734
  73.8452858 119.0593988  46.5728649  69.0621477 109.5520008  53.7614779
  68.8182409 110.3062069  53.2249055  69.3381408 109.9305356  54.5962026
  71.0159940 116.0958621  52.4392044  71.2276835 116.7390381  51.7626425
  70.9689688 115.2620937  51.9713974  68.6186169 108.7076442  49.3428617
  67.7570648 109.0057695  49.6345354  68.6448604 108.9246840  48.4109649
  65.4347738 117.2518632  45.7502422  65.8986084 117.5306335  44.9607045
  65.1704537 116.3502077  45.5675513  62.3271820 116.7990114  48.6882185
  62.8973177 117.2277382  48.0499670  62.9179931 116.5172698  49.3866371
  64.3716625 113.3741784  42.5591987  65.0740668 113.8262828  43.0265914
  64.0397253 112.7325603  43.1871880  62.8196986 111.9653541  56.9343197
  62.1895647 112.6469822  57.1678594  62.7133074 111.8536623  55.9896335
  58.1141958 111.6325337  47.8609121  57.3241012 111.8882866  47.3849232
  58.6053206 112.4473675  47.9661161  72.1305768 118.9730576  50.6114402
  72.9523212 118.5710764  50.3297083  72.1268171 118.8698810  51.5630518
  60.0656704 111.9969916  44.8192598  59.2687867 112.1088611  45.3376093
  59.8382296 112.3356569  43.9533488  65.8962371 118.5214620  52.7675112
  65.9606804 118.9835027  53.6033284  65.1873295 117.8911984  52.8957422
  56.3979661 111.8855828  50.2924112  56.6487700 112.7702837  50.5581688
  56.9339210 111.7060429  49.5199204  80.2211761 115.3169325  46.9599373
  79.4675469 114.7476723  46.8043378  80.3559302 115.2831989  47.9070008
  65.6110389 120.1882727  42.6354093  65.4756064 121.0334263  43.0638940
  66.1520202 120.3902005  41.8720026  62.0977729 106.2674307  59.2968448
  61.7044674 105.7140505  59.9716092  62.9143869 106.5784885  59.6874965
  59.0639787 117.7058165  43.2082018  59.5764307 118.5001415  43.3587582
  59.7162499 117.0084456  43.1415619  60.8734671 120.8223921  45.2904771
  61.0501300 121.7441886  45.1025755  61.6691505 120.5082341  45.7199151
  65.0145690 107.6832186  56.8888704  65.7555403 108.2839339  56.8093167
  65.2463613 106.9409824  56.3306747  60.1587028 112.8688553  55.1666934
  60.0440543 111.9673811  55.4674033  59.3031546 113.1152250  54.8151751
  67.2378866 120.8106294  56.7654435  66.7942720 120.0242672  56.4475339
  67.8996079 120.9985444  56.0998325  61.9965987 122.3402095  51.2915113
  62.5473412 122.2119159  50.5192107  61.1577463 122.6396984  50.9410006
  69.3360104 121.0909094  54.7935836  69.3178579 121.9117975  54.3016105
  70.2580024 120.9663169  55.0185977  65.7933158 118.6053223  55.6359344
  66.3261495 117.8441511  55.4058652  65.2647239 118.3126875  56.3783499
  68.9602853 103.7113289  51.1652986  68.6167122 104.6014931  51.0892097
  69.3281815 103.5214947  50.3022571  57.0288703 116.0346819  43.9841588
  57.8663925 116.4443828  43.7675296  57.2066971 115.0946262  43.9541782
  68.9253135 113.7021900  39.6725421  68.4099759 114.4726505  39.9113809
  68.6530444 113.0287036  40.2958483  66.5100246 108.5471601  44.7310660
  65.6541843 108.1578451  44.5516298  66.9227198 108.6263562  43.8710445
  68.0399393 106.0817944  49.1302219  67.5364189 106.0448079  48.3170025
  68.3330000 106.9910687  49.1898876  64.2842279 106.1656674  48.1368401
  65.1495276 105.9699483  47.7774290  64.3519788 105.9367026  49.0637758
  73.8987410 116.4554255  41.6078595  73.1216852 116.1165414  41.1633757
  74.5778891 116.4606878  40.9333560  68.7139439 111.5748992  41.4985202
  68.4089574 111.8895141  42.3495346  69.6669881 111.6530412  41.5412535
  67.1585870 117.7339215  43.1478156  66.6307232 116.9991975  42.8351394
  66.6573373 118.5113892  42.9018125  72.1378716 115.9288236  48.2645203
  71.4802391 116.6187497  48.3525331  72.9419116 116.3184668  48.6079189
  61.8904598 108.3958882  45.5084768  62.4648350 108.1734063  44.7757961
  62.4775581 108.4647576  46.2613369  70.9484175 114.2832609  46.3149144
  71.4616057 114.9162600  46.8170854  71.5985399 113.6833804  45.9492504
  62.2174185 110.4263343  39.5280653  61.3811497 110.7638029  39.8489928
  62.0778955 110.2912323  38.5907790  64.1927266 105.2700131  44.2359837
  63.5391678 104.9549148  43.6116452  64.1507740 104.6475871  44.9619660
  65.3038471 115.5519426  36.1513129  64.3965532 115.3208679  36.3504278
  65.8009503 114.7557045  36.3387111  68.2106550 124.2616933  39.0709816
  67.5368248 124.5648630  39.6794773  68.5972371 125.0646013  38.7215273
  67.4265006 111.7582064  48.5607485  66.5087568 111.9797011  48.4029173
  67.8425150 111.8328375  47.7019192  68.2100054 113.1573480  43.6910165
  68.9571873 113.6694877  43.3817287  68.4791643 112.8357533  44.5514559
  66.4826704 115.6532021  40.6737119  65.5737923 115.3691053  40.7709589
  66.5121788 116.0731099  39.8140426  71.7145971 119.2638610  44.4428287
  71.2608299 118.4229520  44.4993477  71.0839938 119.9000008  44.7803067
  70.6578891 110.1930596  45.6728954  69.9201648 109.6807982  46.0039197
  70.9105665 109.7530978  44.8612231  70.1578911 121.1015107  45.3778105
  70.4501885 121.6620164  44.6590471  70.6677531 121.3943668  46.1331264
  70.7590518 102.9706848  46.2670724  71.0649395 102.1104212  45.9796639
  71.4843123 103.5624468  46.0669718  57.0514874 113.3737535  44.6552322
  56.8539274 112.7806895  43.9303388  56.4961538 113.0689745  45.3728260
  65.0311598 113.2660641  46.7746915  65.0860208 112.3134478  46.6989391
  64.2202800 113.4220080  47.2588213  66.1802792 117.1940764  38.0125198
  65.7422222 116.4776623  37.5530835  66.9213233 117.4216879  37.4510289
  62.9703958 111.8837701  44.5337294  62.1571824 112.1831872  44.9402486
  63.4662952 111.4893390  45.2511776  65.1212536 121.8795458  46.4671558
  65.0788715 122.1056304  45.5380090  66.0375235 121.6458832  46.6157359
  68.5678170 112.3479525  53.3652188  68.9227557 112.5750999  54.2246653
  69.2150301 112.6797902  52.7429443  74.2975907 115.4697961  44.0701517
  74.1593805 115.6599557  43.1422706  73.9412125 116.2317344  44.5269568
  62.4618033 109.4556056  50.1498529  63.1017412 109.3144816  49.4521492
  61.6295563 109.1690570  49.7737131  74.3245286 117.5374488  49.0812788
  74.7581793 117.4449777  49.9295842  75.0376867 117.5131989  48.4432804
  63.2378337 118.7558487  46.2633521  64.0318935 118.2608807  46.0616096
  62.5270029 118.2276350  45.9001227  68.0573181 121.1376582  50.6145889
  68.1110203 121.7067519  51.3823605  67.1887963 121.3078467  50.2499926
  59.5461100 112.9001569  42.3393274  58.6158688 112.8386024  42.5563236
  59.6418572 112.3777521  41.5429915  59.4646649 109.4256381  44.9271515
  59.7253467 110.3401715  44.8180676  60.2863822 108.9580824  45.0768128
  60.9371575 110.8394139  52.0970340  61.6094628 110.6311501  51.4482989
  60.1101361 110.6416225  51.6575572  75.1860836 117.5798189  51.6145673
  75.3796726 118.4843999  51.8604948  75.0861454 117.1205608  52.4484259
  66.8397147 107.4656080  54.1136001  66.1925062 108.1646029  54.0200477
  67.6098162 107.8992223  54.4812249  70.2475944 117.7304932  57.1886554
  70.0961451 117.5015483  56.2716638  70.2380624 118.6875533  57.2017899
  67.0161281 115.3036844  52.1732821  67.9453341 115.4548004  52.0001788
  66.5952311 115.3920865  51.3181467  65.8149613 119.3287509  49.9431358
  65.6760698 118.9606293  50.8157296  65.0264209 119.8435148  49.7715316
  66.4097765 124.4296605  41.2856895  66.5849520 123.9584649  42.1002517
  65.7230553 125.0562372  41.5138155  67.3654828 118.7069112  47.3320196
  67.0304660 118.6669882  48.2277846  66.8658774 118.0413827  46.8590606
  61.3399072 114.1136742  52.8572777  61.2018870 113.3816980  53.4584316
  62.2503995 114.0245642  52.5756965  70.3014019 116.0525146  37.6057256
  69.6843190 115.3271974  37.5090308  69.8330508 116.8134506  37.2624330
  63.9681372 113.8256701  52.3456457  64.6780991 113.1849893  52.3043075
  63.9250681 114.0769596  53.2682638  71.9568151 120.7624054  55.2663036
  71.8980697 120.0783274  54.5993619  72.3587670 121.5043044  54.8143662
  62.6810306 110.8121919  54.1652096  62.1447663 110.3612657  54.8173693
  62.0927015 110.9467828  53.4222561  62.0912565 110.2710570  36.7278560
  61.2142032 110.1499371  36.3640807  62.5670318 109.4796649  36.4757449
  71.9585558 118.7263638  53.4977016  71.0712337 118.3889560  53.6203415
  72.5284109 117.9946669  53.7345781  53.6114706 115.0587730  46.8220067
  54.2985745 114.7449460  46.2341082  53.4562834 115.9629095  46.5487318
  58.4149428 109.9477927  51.2505091  58.3307616 109.3403596  50.5155501
  57.5932134 110.4386945  51.2514587  65.4886712 123.3865091  50.4638259
  65.4156883 124.1920062  50.9757563  65.0464105 123.5857056  49.6386280
  65.2776491 122.6236861  43.9741080  64.4944013 123.1658541  44.0679305
  65.9769237 123.1410840  44.3735322  68.5873142 108.4331490  46.6175286
  69.0841841 107.6801452  46.2976356  67.8160123 108.4695807  46.0518495
  76.4402899 114.1371856  48.2593577  76.4292775 115.0196571  47.8887510
  75.5720278 113.7843406  48.0648114  67.9485395 123.2851925  52.6196417
  68.6613368 123.9199389  52.5472319  67.4575424 123.3815791  51.8036419
  69.6702922 117.1903177  44.1913709  68.7359201 117.3104640  44.0218413
  69.8479591 116.2875644  43.9273719  65.1708110 110.5748873  46.3446970
  64.8005898 110.0219913  47.0327876  65.6667203 109.9707007  45.7921970
  73.0575474 113.0320497  44.7263743  73.5235926 113.8648488  44.6524046
  73.5082974 112.5665478  45.4309002  62.9997309 121.0346368  53.4401988
  63.7006768 121.6682851  53.5931383  62.5292424 121.3761100  52.6797628
  71.1251705 119.3764318  41.7249895  71.4011549 119.2620912  42.6343769
  70.2556203 118.9781803  41.6862068  71.0292136 105.4001084  48.7654645
  70.1155216 105.6305310  48.9336852  71.4585238 105.4839528  49.6168677
  70.7998595 113.5890976  51.2654539  70.1470045 113.8366883  50.6106991
  71.1778975 112.7755114  50.9317016  67.7605769 123.6250669  45.3682709
  67.9428163 122.8072325  45.8310461  68.5838755 123.8418361  44.9307599
  68.0947934 122.5518854  42.6297757  68.6235701 122.0411308  42.0167920
  68.3576154 122.2361384  43.4943290  66.8486168 114.3310787  57.7520576
  66.1726805 114.2304916  58.4222951  67.6713802 114.1750000  58.2156573
  58.5965027 120.5682723  50.3733091  59.1818464 119.8226411  50.5060995
  58.3989865 120.8786680  51.2569755  61.4503682 123.6033970  45.3895533
  60.7814057 124.0880098  44.9059573  61.3116552 123.8503191  46.3038912
  53.1882682 113.1388323  49.0937534  53.2266781 112.6051914  49.8874652
  52.6822974 112.6123529  48.4748511  65.5908951 125.6377714  51.9878192
  66.1427259 125.8009336  52.7527277  65.9315144 126.2282152  51.3158217
  60.5673444 107.9852864  52.5900076  60.6314770 108.8467695  52.1777474
  60.5040564 107.3726865  51.8572435  60.0425716 110.0575996  56.2373111
  60.6697755 109.6753074  56.8510635  59.1853635 109.8390198  56.6028803
  70.4419825 120.4638972  57.8426846  70.9859729 121.0768930  57.3481801
  69.8606670 121.0218550  58.3593859  56.8191259 111.8652425  42.1691466
  57.1144700 110.9563104  42.1158519  55.9179295 111.8440165  41.8472468
  68.7277338 123.5859690  48.9741874  68.6028477 122.7849429  48.4652819
  69.3856429 124.0805883  48.4855844  60.3485506 109.9408422  48.1519014
  59.6272092 110.5544390  48.0126487  61.1378762 110.4766187  48.0735660
  70.7912246 121.3868710  50.6021424  69.8442582 121.2674061  50.5299751
  71.1395020 120.4991208  50.6847685  63.1511820 107.2762849  54.4259666
  63.6746222 107.5225145  55.1885975  62.9324153 108.1082883  54.0062803
  58.5479101 109.5466523  42.2930791  58.2191807 108.6663902  42.1105897
  58.9018472 109.4914192  43.1807180  67.7958680 121.1821426  46.8025776
  67.6483642 120.2538133  46.9833346  68.6212173 121.2041517  46.3182851
  61.6620924 109.8339493  42.6606268  62.0016996 110.3625414  41.9384877
  62.1093044 110.1719899  43.4364835  71.3992802 122.0049985  47.8890649
  72.3239349 121.7992846  47.7515100  71.2308105 121.7566386  48.7979990
  64.3564365 108.2176544  52.1109336  64.0161185 107.4184357  52.5130016
  63.6503371 108.5178254  51.5386170  65.0080837 105.3025856  50.5636659
  65.8306906 104.8286334  50.4415550  65.2518900 106.0816340  51.0635346
  63.6489071 108.3314115  40.8599561  64.3697434 108.7095367  40.3563278
  63.0254375 109.0502991  40.9634539  67.7920194 109.0359263  41.7957893
  68.0083808 109.9183901  41.4946722  67.3114261 108.6445477  41.0663535
  62.5319415 111.9944977  48.3728638  62.3863996 112.3085280  49.2652920
  62.0544619 112.6129877  47.8199537  64.3915798 108.9847525  48.4209528
  64.3777367 108.0888618  48.0841826  65.1088226 108.9918188  49.0547814
  66.2441929 109.4184865  50.4662655  65.9859707 110.3401936  50.4646985
  65.7126969 109.0215299  51.1563119  71.1888118 122.5235652  43.2452740
  71.3624995 121.9582074  42.4926593  71.6817009 123.3236547  43.0632230
  57.0065078 114.5350321  51.3116299  56.4618546 115.3110129  51.4436574
  57.8844427 114.8821126  51.1535421  63.7952694 107.8661905  43.6897098
  63.9168605 106.9378551  43.8887985  63.5054737 107.8800591  42.7775413
  66.6643885 105.5516815  46.8263818  66.6865581 105.6156148  45.8715797
  67.0811944 104.7121324  47.0204324  77.0427509 115.2872075  44.8643040
  77.4858655 114.5379400  44.4662163  76.1654019 115.2782211  44.4816772
  72.1763290 121.8402416  40.3449639  72.8714195 122.4609109  40.5636953
  72.5186440 120.9897768  40.6202017  57.7931099 113.6620217  54.2046456
  57.0512835 113.8102853  54.7911087  57.4723844 113.9228483  53.3413206
  74.0754713 119.2902122  41.8736969  74.6006037 119.6289395  41.1486289
  73.9877066 118.3549137  41.6900104  65.7374762 123.2036196  54.0026846
  66.0461888 122.9585342  54.8749546  66.5350244 123.4082834  53.5145716
  65.7595374 125.3574105  46.2332223  65.3200364 124.8650484  46.9265079
  66.5103491 124.8147073  45.9924298  58.2387713 121.5485646  46.2356851
  59.0645733 121.2489418  45.8555494  57.8881765 120.7793269  46.6846639
  63.2069246 120.9012114  48.3054524  62.5849256 120.2382819  48.0056752
  63.8774113 120.9273246  47.6228172  56.4396318 119.4671973  47.1945784
  55.6028226 119.0394147  47.0129786  56.4119964 119.6604416  48.1316576
  63.2793774 109.3793902  57.8987030  63.3281929 110.2556025  57.5164800
  63.8216288 108.8371295  57.3258674  73.7648619 119.9235026  57.1788167
  72.9744163 119.9059164  56.6392667  73.5281974 120.4623319  57.9337204
  73.8846494 116.7727492  54.4920896  73.9344499 116.6077499  55.4336419
  73.7760418 115.9054751  54.1018777  62.7682753 119.4516038  41.7812985
  62.9170874 120.1351502  41.1279658  63.5749197 119.4321128  42.2962441
  71.1750257 112.7558420  55.8080203  72.0760120 112.6164885  55.5164200
  71.2498231 112.9212875  56.7478380  65.5093062 110.1325275  54.6533389
  64.6396372 110.4258841  54.3815978  65.7452543 110.7165720  55.3740653
  75.3864691 119.1924433  54.7362918  75.0949500 119.5554414  55.5726378
  74.7736823 118.4791442  54.5576250  76.5860374 116.7577313  47.2565488
  77.4207265 117.1967117  47.4203048  76.7219502 116.2815966  46.4373734
  73.6351880 114.3157048  53.2042975  74.1106001 114.5084694  52.3961827
  72.7117445 114.3716234  52.9586359  60.5235386 115.4781215  42.7874054
  60.2781428 114.5743545  42.9854264  60.6931301 115.4798366  41.8453532
  68.2132096 106.3504892  52.1698809  68.7314040 107.0865919  51.8445298
  67.8587229 106.6568885  53.0045569  59.7931034 111.2109573  40.2860215
  59.1000279 111.2853928  39.6300251  59.5482786 110.4469917  40.8081732
  68.4644690 102.7705174  47.6899706  68.7446444 102.1028363  48.3160133
  69.2495297 102.9634270  47.1774370  66.2678159 121.9464168  39.2524732
  65.6952126 122.5654355  38.7995204  66.8410952 122.4963530  39.7864654
  72.3353549 111.1922808  51.4371281  73.2870971 111.2920906  51.4583505
  72.1656999 110.4001077  51.9469365  70.3567928 108.2778391  51.6230682
  69.7617860 108.5583404  50.9277171  70.0717625 108.7672292  52.3947423
  69.4875418 122.2301318  40.3833315  70.4206092 122.1646880  40.5866190
  69.3998631 123.0657585  39.9247847  72.1163435 121.5467189  37.3437262
  72.0377067 121.2127052  38.2373020  72.9373102 122.0388956  37.3428734
  74.8141626 114.4128928  50.5513581  74.7817946 113.4744929  50.7373265
  75.4242250 114.4912965  49.8179406  66.6524957 113.2824981  36.5940785
  67.5984062 113.1531189  36.6629203  66.2739202 112.5439643  37.0710213
  74.9636115 111.2039971  50.5971864  74.4475163 110.4198428  50.4101793
  75.8476063 110.8758688  50.7618383  72.6246842 104.9480987  46.5567677
  72.4271663 104.6396075  47.4411009  73.2346547 105.6742626  46.6865606
  80.6318176 115.4744935  49.6919618  81.3621565 115.2130223  50.2527321
  80.0225122 114.7373657  49.7321686  78.7133473 113.6152797  50.2894069
  77.9866637 113.4808762  49.6810560  78.2980760 113.9229626  51.0950787
  66.5363650 117.3342727  58.0541442  67.4566659 117.5121326  58.2481488
  66.5013233 116.3898772  57.9021141  64.8367874 111.2074957  36.5295670
  63.9299330 110.9108070  36.6058384  65.1143855 110.9104775  35.6629956
  55.7545815 112.5281321  46.9794716  55.4348599 111.6746629  46.6869090
  55.2079243 112.7429899  47.7352684  59.5325722 115.2443762  50.6964223
  59.7511732 116.1760869  50.7152257  59.9451496 114.8851736  51.4819027
  66.4529940 105.7511847  42.6839911  65.6430668 105.4058932  43.0595157
  67.1414357 105.4419391  43.2727523  68.3820488 104.8289894  44.3064208
  68.9351527 105.2485347  44.9654231  68.6190575 103.9025642  44.3487164
  64.4053588 110.8176967  60.0866972  64.3050314 111.7671324  60.0179063
  64.1875130 110.4895206  59.2143042  63.6066659 108.0661892  36.6707649
  64.4685823 108.3916791  36.9303467  63.7917003 107.2793388  36.1580715
  55.6234075 116.1484232  48.9487838  54.9297546 115.7338185  48.4357792
  56.3707066 116.1904769  48.3521257  71.7599295 106.9390419  43.8142872
  71.1797964 107.5975223  43.4320925  71.4935228 106.1167764  43.4030290
  70.2102862 106.3395477  46.0164193  70.7102640 106.4512011  45.2078511
  70.8538470 106.0356529  46.6565001  64.2684858 114.2474106  58.9032034
  63.7851939 115.0474466  59.1095923  64.3545797 114.2582051  57.9499478
  57.5370817 116.0802486  46.8253853  57.5141505 116.1790173  45.8735736
  57.8471454 116.9267637  47.1471019  60.1958195 118.1378641  50.9400467
  61.1501449 118.1062583  50.8730399  59.9970719 117.6769265  51.7550693
  60.7857577 116.7079757  53.5071265  61.6050466 117.2023836  53.5306102
  61.0594385 115.7911725  53.4788832  70.5424173 109.0990509  42.8699220
  69.6550028 109.3840160  42.6519415  70.9578163 108.9384273  42.0226497
  73.8938710 109.1237030  46.5853560  74.6699100 109.6133483  46.8578177
  73.1686844 109.5495084  47.0425429  76.3311268 109.8364650  47.6427500
  76.9255759 109.5960385  46.9320809  76.4037852 109.1171780  48.2701037
  69.6867387 118.8635184  36.9647240  70.3903237 119.0685186  37.5804896
  68.9630036 119.4311946  37.2296324  70.5165197 114.6145045  43.0849511
  70.4600399 115.0713597  42.2457143  71.0693540 113.8535730  42.9072353
  74.3270003 110.4034777  43.9099630  74.0706937 110.0031413  44.7407838
  73.7022871 111.1178571  43.7849769  78.6382341 113.1430850  46.4170922
  78.0781899 113.2124040  47.1902484  78.0325844 112.9671835  45.6970418
  71.5954084 119.3017713  39.0145701  72.4299688 118.8698912  38.8323175
  71.4338427 119.1299727  39.9422595  71.2499977 115.8049826  40.3802040
  71.1948780 115.6394098  39.4390484  70.6246032 116.5125859  40.5364230
  56.0392491 111.0417891  54.2063462  56.6851355 110.5316845  54.6950687
  55.8309643 111.7786573  54.7806887  68.5645884 118.1098738  59.7055603
  69.4337043 118.2839391  59.3442238  68.0852635 118.9293155  59.5831332
  64.5596102 105.3057935  39.9587358  64.5474772 106.2499775  40.1155629
  65.4519524 105.1228081  39.6646819  62.7332064 125.2295839  51.3845036
  63.6359311 125.2619450  51.7011531  62.5069434 124.2996290  51.3991372
  64.4885666 123.9826826  48.0455115  63.5381297 123.9828688  47.9319487
  64.7918152 123.2359560  47.5291149  68.3748221 101.9000712  44.2133295
  67.6080617 101.3459199  44.3589977  68.7858926 101.9722581  45.0747447
  60.3789982 108.1885508  58.3038476  61.2421444 107.8322313  58.5141801
  59.8055393 107.8499403  58.9913881  80.2238359 129.8187364  49.1100877
  80.8616769 129.6994112  48.4064217  80.1059202 130.7668208  49.1688829
  77.0328066 129.7714792  49.0462402  76.6946577 129.6555857  48.1582937
  77.9017834 129.3705957  49.0263408  77.5147849 130.9249644  55.0048607
  77.5036489 130.5302442  54.1329111  77.6768488 130.1915717  55.5982379
  74.7336345 128.5403040  38.3779342  74.9861866 128.0184561  37.6162805
  73.7960904 128.3769185  38.4806026  79.7779628 127.5438818  46.1854085
  80.5642717 127.1258241  45.8344502  80.0418332 128.4484910  46.3535734
  85.1788055 127.4814051  47.0887064  85.9113227 126.9113268  47.3224893
  84.4227411 127.0935652  47.5293569  76.7964175 129.9041293  44.2850406
  76.4322382 129.3771914  44.9963328  77.6531291 129.5139762  44.1116892
  82.7013475 121.1935625  51.5481672  82.3696800 122.0631036  51.3242887
  82.1059089 120.8771909  52.2275703  76.4369662 124.9331193  39.2811755
  76.6044064 125.8011429  39.6482226  76.2466831 125.0958474  38.3573044
  82.5942139 125.9130712  48.6275022  81.6859016 125.8446120  48.3333783
  82.5429734 126.3902657  49.4556848  76.4158883 127.3888850  40.2658422
  76.2958508 127.8345901  41.1043902  75.7211471 127.7374168  39.7071960
  76.6683004 127.3320357  56.5709920  75.8916339 127.8914277  56.5612784
  77.3073568 127.8177140  57.0924790  84.4603785 124.1147150  50.4052896
  83.8178165 124.4079683  49.7592691  83.9558714 124.0000070  51.2106093
  82.1143949 127.8610323  41.0938756  83.0261805 128.0937710  40.9186453
  81.6053596 128.4447367  40.5313834  76.7515786 127.2207558  52.1033605
  77.5976982 127.6446971  52.2468254  76.6914424 126.5641182  52.7972168
  79.9015232 124.8811926  53.7614779  79.6576164 125.6353987  53.2249055
  80.1775162 125.2597274  54.5962026  79.4579924 124.0368359  49.3428617
  78.5964403 124.3349613  49.6345354  79.4842358 124.2538758  48.4109649
  75.2110379 128.7033702  42.5591987  75.9134422 129.1554746  43.0265914
  74.8791008 128.0617521  43.1871880  73.6590741 127.2945459  56.9343197
  73.0289401 127.9761740  57.1678594  73.5526828 127.1828540  55.9896335
  68.9535713 126.9617255  47.8609121  68.1634767 127.2174783  47.3849232
  69.4446960 127.7765593  47.9661161  70.9050458 127.3261834  44.8192598
  70.1081622 127.4380528  45.3376093  70.6776051 127.6648486  43.9533488
  72.9371483 121.5966225  59.2968448  72.5438429 121.0432423  59.9716092
  73.7537624 121.9076803  59.6874965  75.8539444 123.0124104  56.8888704
  76.5949158 123.6131257  56.8093167  76.0857367 122.2701741  56.3306747
  79.7996607 119.0405207  51.1652986  79.4560877 119.9306848  51.0892097
  80.1675570 118.8506864  50.3022571  79.7646890 129.0313818  39.6725421
  79.2493513 129.8018422  39.9113809  79.4924198 128.3578954  40.2958483
  77.3494001 123.8763519  44.7310660  76.4935597 123.4870369  44.5516298
  77.7620953 123.9555479  43.8710445  78.8793148 121.4109862  49.1302219
  78.3757943 121.3739997  48.3170025  79.1723754 122.3202605  49.1898876
  75.1236033 121.4948592  48.1368401  75.9889030 121.2991400  47.7774290
  75.1913542 121.2658943  49.0637758  79.5533193 126.9040910  41.4985202
  79.2483329 127.2187059  42.3495346  80.5063635 126.9822330  41.5412535
  72.7298353 123.7250799  45.5084768  73.3042104 123.5025981  44.7757961
  73.3169335 123.7939494  46.2613369  81.7877930 129.6124526  46.3149144
  82.3009812 130.2454518  46.8170854  82.4379154 129.0125722  45.9492504
  73.0567940 125.7555260  39.5280653  72.2205252 126.0929947  39.8489928
  72.9172709 125.6204240  38.5907790  75.0321020 120.5992048  44.2359837
  74.3785433 120.2841066  43.6116452  74.9901494 119.9767789  44.9619660
  78.2658761 127.0873982  48.5607485  77.3481322 127.3088929  48.4029173
  78.6818904 127.1620292  47.7019192  79.0493808 128.4865398  43.6910165
  79.7965627 128.9986795  43.3817287  79.3185398 128.1649450  44.5514559
  81.4972646 125.5222514  45.6728954  80.7595402 125.0099900  46.0039197
  81.7499419 125.0822895  44.8612231  81.5984273 118.2998766  46.2670724
  81.9043150 117.4396129  45.9796639  82.3236878 118.8916386  46.0669718
  75.8705353 128.5952559  46.7746915  75.9253962 127.6426395  46.6989391
  75.0596555 128.7511998  47.2588213  73.8097713 127.2129619  44.5337294
  72.9965578 127.5123789  44.9402486  74.3056707 126.8185307  45.2511776
  79.4071924 127.6771443  53.3652188  79.7621312 127.9042916  54.2246653
  80.0544055 128.0089820  52.7429443  73.3011787 124.7847974  50.1498529
  73.9411167 124.6436733  49.4521492  72.4689318 124.4982488  49.7737131
  70.3854855 128.2293486  42.3393274  69.4552443 128.1677942  42.5563236
  70.4812327 127.7069439  41.5429915  70.3040404 124.7548299  44.9271515
  70.5647221 125.6693632  44.8180676  71.1257576 124.2872742  45.0768128
  71.7765329 126.1686056  52.0970340  72.4488382 125.9603418  51.4482989
  70.9495116 125.9708142  51.6575572  77.6790901 122.7947997  54.1136001
  77.0318816 123.4937947  54.0200477  78.4491916 123.2284141  54.4812249
  77.8555035 130.6328762  52.1732821  78.7847095 130.7839922  52.0001788
  77.4346065 130.7212783  51.3181467  81.1407774 131.3817064  37.6057256
  80.5236945 130.6563892  37.5090308  80.6724262 132.1426424  37.2624330
  74.8075127 129.1548619  52.3456457  75.5174745 128.5141811  52.3043075
  74.7644435 129.4061513  53.2682638  73.5204061 126.1413836  54.1652096
  72.9841418 125.6904575  54.8173693  72.9320769 126.2759745  53.4222561
  72.9306320 125.6002488  36.7278560  72.0535786 125.4791289  36.3640807
  73.4064073 124.8088566  36.4757449  69.2543182 125.2769844  51.2505091
  69.1701371 124.6695514  50.5155501  68.4325889 125.7678862  51.2514587
  79.4266896 123.7623408  46.6175286  79.9235596 123.0093370  46.2976356
  78.6553878 123.7987724  46.0518495  76.0101865 125.9040791  46.3446970
  75.6399652 125.3511831  47.0327876  76.5060957 125.2998924  45.7921970
  83.8969228 128.3612414  44.7263743  84.3629680 129.1940406  44.6524046
  84.3476729 127.8957396  45.4309002  81.8685891 120.7293001  48.7654645
  80.9548971 120.9597228  48.9336852  82.2978992 120.8131445  49.6168677
  81.6392349 128.9182893  51.2654539  80.9863800 129.1658801  50.6106991
  82.0172729 128.1047031  50.9317016  77.6879922 129.6602704  57.7520576
  77.0120559 129.5596834  58.4222951  78.5107556 129.5041918  58.2156573
  71.4067198 123.3144781  52.5900076  71.4708525 124.1759612  52.1777474
  71.3434319 122.7018783  51.8572435  70.8819471 125.3867914  56.2373111
  71.5091510 125.0044991  56.8510635  70.0247390 125.1682116  56.6028803
  67.6585014 127.1944343  42.1691466  67.9538455 126.2855022  42.1158519
  66.7573049 127.1732083  41.8472468  71.1879261 125.2700340  48.1519014
  70.4665846 125.8836307  48.0126487  71.9772516 125.8058105  48.0735660
  73.9905574 122.6054766  54.4259666  74.5139976 122.8517063  55.1885975
  73.7717908 123.4374801  54.0062803  69.3872855 124.8758441  42.2930791
  69.0585561 123.9955820  42.1105897  69.7412226 124.8206109  43.1807180
  72.5014678 125.1631411  42.6606268  72.8410751 125.6917332  41.9384877
  72.9486799 125.5011817  43.4364835  75.1958119 123.5468461  52.1109336
  74.8554940 122.7476274  52.5130016  74.4897126 123.8470172  51.5386170
  75.8474591 120.6317774  50.5636659  76.6700660 120.1578252  50.4415550
  76.0912655 121.4108258  51.0635346  74.4882826 123.6606032  40.8599561
  75.2091188 124.0387285  40.3563278  73.8648130 124.3794909  40.9634539
  78.6313948 124.3651181  41.7957893  78.8477563 125.2475819  41.4946722
  78.1508016 123.9737395  41.0663535  73.3713170 127.3236894  48.3728638
  73.2257751 127.6377197  49.2652920  72.8938374 127.9421795  47.8199537
  75.2309553 124.3139442  48.4209528  75.2171122 123.4180536  48.0841826
  75.9481981 124.3210106  49.0547814  77.0835683 124.7476783  50.4662655
  76.8253461 125.6693853  50.4646985  76.5520724 124.3507217  51.1563119
  74.6346449 123.1953823  43.6897098  74.7562360 122.2670469  43.8887985
  74.3448491 123.2092509  42.7775413  77.5037639 120.8808733  46.8263818
  77.5259336 120.9448066  45.8715797  77.9205698 120.0413242  47.0204324
  74.1187528 124.7085820  57.8987030  74.1675684 125.5847943  57.5164800
  74.6610042 124.1663213  57.3258674  82.0144011 128.0850338  55.8080203
  82.9153874 127.9456803  55.5164200  82.0891986 128.2504793  56.7478380
  76.3486817 125.4617192  54.6533389  75.4790126 125.7550758  54.3815978
  76.5846297 126.0457637  55.3740653  79.0525851 121.6796809  52.1698809
  79.5707794 122.4157836  51.8445298  78.6980983 121.9860803  53.0045569
  70.6324788 126.5401491  40.2860215  69.9394033 126.6145846  39.6300251
  70.3876540 125.7761834  40.8081732  79.3038445 118.0997092  47.6899706
  79.5840198 117.4320281  48.3160133  80.0889052 118.2926187  47.1774370
  83.1747303 126.5214726  51.4371281  84.1264726 126.6212824  51.4583505
  83.0050753 125.7292994  51.9469365  81.1961682 123.6070309  51.6230682
  80.6011615 123.8875322  50.9277171  80.9111379 124.0964210  52.3947423
  77.4918712 128.6116899  36.5940785  78.4377816 128.4823107  36.6629203
  77.1132957 127.8731560  37.0710213  85.8029869 126.5331889  50.5971864
  85.2868918 125.7490346  50.4101793  86.6869818 126.2050606  50.7618383
  83.4640596 120.2772905  46.5567677  83.2665417 119.9687993  47.4411009
  84.0740302 121.0034543  46.6865606  75.6761629 126.5366875  36.5295670
  74.7693084 126.2399988  36.6058384  75.9537610 126.2396693  35.6629956
  77.2923695 121.0803765  42.6839911  76.4824423 120.7350850  43.0595157
  77.9808111 120.7711308  43.2727523  79.2214243 120.1581811  44.3064208
  79.7745281 120.5777265  44.9654231  79.4584329 119.2317560  44.3487164
  75.2447342 126.1468885  60.0866972  75.1444069 127.0963242  60.0179063
  75.0268884 125.8187124  59.2143042  74.4460413 123.3953810  36.6707649
  75.3079577 123.7208708  36.9303467  74.6310758 122.6085306  36.1580715
  82.5993050 122.2682337  43.8142872  82.0191719 122.9267141  43.4320925
  82.3328983 121.4459681  43.4030290  81.0496616 121.6687394  46.0164193
  81.5496395 121.7803929  45.2078511  81.6932224 121.3648447  46.6565001
  81.3817928 124.4282427  42.8699220  80.4943783 124.7132078  42.6519415
  81.7971917 124.2676190  42.0226497  84.7332464 124.4528948  46.5853560
  85.5092854 124.9425400  46.8578177  84.0080598 124.8787002  47.0425429
  87.1705023 125.1656567  47.6427500  87.7649514 124.9252303  46.9320809
  87.2431606 124.4463698  48.2701037  81.3558952 129.9436963  43.0849511
  81.2994153 130.4005514  42.2457143  81.9087294 129.1827648  42.9072353
  85.1663758 125.7326695  43.9099630  84.9100692 125.3323330  44.7407838
  84.5416626 126.4470489  43.7849769  82.0893731 131.1341744  40.3802040
  82.0342535 130.9686016  39.4390484  81.4639786 131.8417777  40.5364230
  66.8786246 126.3709809  54.2063462  67.5245110 125.8608763  54.6950687
  66.6703397 127.1078490  54.7806887  75.3989856 120.6349853  39.9587358
  75.3868526 121.5791693  40.1155629  76.2913278 120.4519999  39.6646819
  79.2141976 117.2292630  44.2133295  78.4474372 116.6751117  44.3589977
  79.6252681 117.3014499  45.0747447  71.2183737 123.5177426  58.3038476
  72.0815199 123.1614230  58.5141801  70.6449148 123.1791320  58.9913881
  15.1875834  14.8497981  35.8346184  15.8254244  14.7304728  35.1309524
  15.0696677  15.7978825  35.8934136  11.9965540  14.8025409  35.7707709
  11.6584052  14.6866474  34.8828243  12.8655308  14.4016574  35.7508715
  12.4785323  15.9560261  41.7293914  12.4673964  15.5613059  40.8574418
  12.6405962  15.2226333  42.3227686   5.4016788  18.1512077  34.5988820
   6.1938080  17.8102902  34.1835119   5.6413438  18.2607052  35.5190973
   9.1992584  18.7397372  40.6773098   8.9082450  19.6443003  40.5619764
   9.8349569  18.7813900  41.3917168  10.1248791  16.1174221  37.2674458
  10.7212363  15.8930243  36.5531421  10.1823763  15.3758966  37.8699906
  20.1425529  12.5124668  33.8132370  20.8750701  11.9423885  34.0470200
  19.3864885  12.1246268  34.2538876  14.1582469  18.4258788  37.6722892
  13.8583192  19.3283827  37.5638699  13.8133529  18.1590971  38.5244045
  17.5579613  10.9441328  35.3520329  16.6496490  10.8756737  35.0579090
  17.5067209  11.4213273  36.1802155   9.1403249  25.1903108  30.6393859
   9.0627279  26.1410933  30.7182340   8.5364893  24.8448981  31.2968786
  11.6320479  12.3630974  43.2955226  10.8553813  12.9224894  43.2858091
  12.2711042  12.8487757  43.8170097  19.4241259   9.1457767  37.1298203
  18.7815640   9.4390300  36.4837998  18.9196188   9.0310687  37.9351400
   9.8866851  15.1716427  42.8573193  10.6281535  15.7101471  42.5808017
   9.1803837  15.7982716  43.0144745  15.3622191  17.3145568  41.4545355
  15.7705547  16.8727978  40.7099987  14.6399452  16.7398195  41.7079548
  11.7153261  12.2518174  38.8278912  12.5614456  12.6757588  38.9713561
  11.6551898  11.5951799  39.5217475  15.6851005  17.8746758  35.2097644
  15.0559868  18.0392472  34.5073712  15.2976667  18.2888368  35.9808608
  19.5640237  18.8101196  32.5642008  18.8791275  19.1900097  32.0139041
  19.6484087  19.4196523  33.2973955  14.8652706   9.9122543  40.4860085
  14.6213638  10.6664603  39.9494361  15.1412637  10.2907890  41.3207333
  16.8191169  16.4561155  39.1637351  17.0308064  17.0992915  38.4871732
  16.7720917  15.6223472  38.6959281   8.1303048  17.1592648  35.4127492
   8.7004405  17.5879916  34.7744977   8.7211160  16.8775233  36.1111678
  17.9336997  19.3333111  37.3359708  18.7554441  18.9313298  37.0542390
  17.9299400  19.2301345  38.2875824  11.6993600  18.8817154  39.4920419
  11.7638033  19.3437561  40.3278591  10.9904524  18.2514519  39.6202729
  26.0242990  15.6771859  33.6844680  25.2706698  15.1079257  33.5288684
  26.1590531  15.6434523  34.6315315   6.6765900  21.1826456  32.0150077
   6.8532528  22.1044420  31.8271061   7.4722734  20.8684875  32.4444457
  13.0410094  21.1708828  43.4899741  12.5973949  20.3845206  43.1720646
  13.7027308  21.3587978  42.8243632   7.7997216  22.7004629  38.0160420
   8.3504641  22.5721693  37.2437414   6.9608691  22.9999518  37.6655313
  15.1391332  21.4511628  41.5181143  15.1209808  22.2720509  41.0261412
  16.0611252  21.3265703  41.7431284  11.5964387  18.9655757  42.3604651
  12.1292723  18.2044045  42.1303959  11.0678468  18.6729409  43.1028805
  17.9409945  16.2890770  34.9890509  17.2833620  16.9790032  35.0770638
  18.7450344  16.6787202  35.3324496  16.7515404  14.6435143  33.0394451
  17.2647286  15.2765135  33.5416161  17.4016628  14.0436338  32.6737811
  13.2296235  12.1184598  35.2852792  12.3118796  12.3399545  35.1274480
  13.6456379  12.1930909  34.4264499  17.5177200  19.6241144  31.1673594
  17.0639527  18.7832054  31.2238784  16.8871167  20.2602543  31.5048374
  15.9610140  21.4617641  32.1023412  16.2533114  22.0222698  31.3835777
  16.4708760  21.7546202  32.8576571  10.9243765  22.2397992  33.1916865
  10.8819944  22.4658838  32.2625397  11.8406464  22.0061367  33.3402666
  14.3709399  12.7082060  40.0897494  14.7258786  12.9353533  40.9491960
  15.0181530  13.0400436  39.4674749  20.1007135  15.8300496  30.7946823
  19.9625034  16.0202091  29.8668012  19.7443354  16.5919878  31.2514874
  20.1276515  17.8977023  35.8058095  20.5613022  17.8052312  36.6541149
  20.8408096  17.8734523  35.1678111  13.8604410  21.4979117  37.3391195
  13.9141432  22.0670053  38.1068911  12.9919191  21.6681002  36.9745232
  20.9892065  17.9400723  38.3390980  21.1827955  18.8446534  38.5850255
  20.8892683  17.4808142  39.1729565  16.0507173  18.0907466  43.9131861
  15.8992680  17.8618018  42.9961944  16.0411853  19.0478067  43.9263206
  12.8192510  15.6639379  38.8978127  13.7484570  15.8150538  38.7247094
  12.3983540  15.7523399  38.0426774  11.6180841  19.6890043  36.6676665
  11.4791927  19.3208827  37.5402603  10.8295438  20.2037683  36.4960623
  12.2128993  24.7899140  28.0102201  12.3880749  24.3187183  28.8247824
  11.5261781  25.4164906  28.2383462  13.1686057  19.0671646  34.0565503
  12.8335889  19.0272416  34.9523152  12.6690002  18.4016362  33.5835913
   7.1430301  14.4739276  39.5818084   7.0050099  13.7419515  40.1829623
   8.0535224  14.3848176  39.3002271   9.7712601  14.1859235  39.0701763
  10.4812220  13.5452427  39.0288382   9.7281909  14.4372130  39.9927944
  17.7599380  21.1226588  41.9908343  17.7011926  20.4385809  41.3238926
  18.1618898  21.8645578  41.5388969   6.7790079  27.9388502  34.7842061
   7.0186677  28.5707026  35.4621080   5.9359275  27.5876542  35.0707421
  17.7616787  19.0866172  40.2222322  16.8743566  18.7492094  40.3448721
  18.3315338  18.3549204  40.4591088  11.2917941  23.7467625  37.1883565
  11.2188112  24.5522596  37.7002870  10.8495334  23.9459591  36.3631587
  11.0807720  22.9839395  30.6986387  10.2975242  23.5261075  30.7924612
  11.7800465  23.5013374  31.0980628  22.2434128  14.4974390  34.9838884
  22.2324004  15.3799105  34.6132817  21.3751507  14.1445941  34.7893421
  13.7516624  23.6454459  39.3441724  14.4644596  24.2801924  39.2717626
  13.2606653  23.7418325  38.5281726   8.8028538  21.3948902  40.1647295
   9.5037997  22.0285385  40.3176689   8.3323653  21.7363634  39.4042934
  16.6029824  13.9493510  37.9899845  15.9501274  14.1969417  37.3352298
  16.9810204  13.1357648  37.6562323  13.5636998  23.9853203  32.0928016
  13.7459392  23.1674859  32.5555768  14.3869984  24.2020895  31.6552906
  13.8979163  22.9121388  29.3543064  14.4266929  22.4013843  28.7413226
  14.1607383  22.5963918  30.2188597  12.6517397  14.6913321  44.4765882
  11.9758034  14.5907450  45.1468258  13.4745031  14.5352535  44.9401880
   4.3996256  20.9285257  37.0978398   4.9849693  20.1828945  37.2306302
   4.2021094  21.2389214  37.9815062   7.2534911  23.9636505  32.1140840
   6.5845286  24.4482632  31.6304880   7.1147781  24.2105725  33.0284219
  11.3940180  25.9980248  38.7123498  11.9458488  26.1611870  39.4772584
  11.7346373  26.5884686  38.0403523  16.2451054  20.8241506  44.5672153
  16.7890958  21.4371464  44.0727108  15.6637899  21.3821084  45.0839166
  14.5308567  23.9462224  35.6987181  14.4059706  23.1451964  35.1898126
  15.1887658  24.4408417  35.2101151  16.5943475  21.7471244  37.3266731
  15.6473811  21.6276595  37.2545057  16.9426248  20.8593742  37.4092992
  13.5989909  21.5423960  33.5271083  13.4514871  20.6140667  33.7078653
  14.4243402  21.5644051  33.0428158  17.2024030  22.3652519  34.6135956
  18.1270578  22.1595380  34.4760407  17.0339334  22.1168920  35.5225297
  16.9919347  22.8838186  29.9698047  17.1656224  22.3184609  29.2171900
  17.4848238  23.6839081  29.7877537  22.8458738  15.6474609  31.5888347
  23.2889884  14.8981934  31.1907470  21.9685248  15.6384746  31.2062079
  17.9794519  22.2004951  27.0694945  18.6745424  22.8211643  27.2882260
  18.3217669  21.3500302  27.3447323  19.8785942  19.6504656  28.5982276
  20.4037266  19.9891929  27.8731596  19.7908295  18.7151671  28.4145411
  11.5405991  23.5638730  40.7272153  11.8493117  23.3187877  41.5994852
  12.3381473  23.7685368  40.2391023  11.5626603  25.7176639  32.9577529
  11.1231593  25.2253018  33.6510386  12.3134720  25.1749607  32.7169605
   4.0418942  21.9088180  32.9602157   4.8676962  21.6091952  32.5800801
   3.6912994  21.1395803  33.4091946   9.0100475  21.2614649  35.0299831
   8.3880484  20.5985354  34.7302059   9.6805342  21.2875780  34.3473479
  19.5679848  20.2837560  43.9033474  18.7775392  20.2661699  43.3637973
  19.3313203  20.8225853  44.6582511  19.6877723  17.1330026  41.2166203
  19.7375728  16.9680034  42.1581725  19.5791647  16.2657285  40.8264083
  16.9781486  13.1160954  42.5325509  17.8791348  12.9767419  42.2409507
  17.0529460  13.2815409  43.4723687  21.1895920  19.5526968  41.4608224
  20.8980728  19.9156948  42.2971685  20.5768051  18.8393976  41.2821556
  22.3891602  17.1179847  33.9810794  23.2238494  17.5569652  34.1448355
  22.5250731  16.6418501  33.1619040  19.4383108  14.6759582  39.9288282
  19.9137230  14.8687229  39.1207134  18.5148674  14.7318768  39.6831666
  18.1384777  11.5525342  38.1616588  19.0902200  11.6523440  38.1828812
  17.9688228  10.7603611  38.6714672  16.1599157   8.6380926  38.3475989
  15.5649089   8.9185938  37.6522477  15.8748854   9.1274827  39.1192730
  20.6172855  14.7731462  37.2758887  20.5849175  13.8347463  37.4618571
  21.2273479  14.8515499  36.5424712  20.7667344  11.5642506  37.3217171
  20.2506392  10.7800962  37.1347099  21.6507292  11.2361222  37.4863690
  26.4349405  15.8347469  36.4164924  27.1652793  15.5732757  36.9772628
  25.8256350  15.0976191  36.4566992  24.5164702  13.9755332  37.0139375
  23.7897866  13.8411296  36.4055867  24.1011989  14.2832160  37.8196093
  12.3394879  17.6945261  44.7786748  13.2597888  17.8723860  44.9726795
  12.3044462  16.7501307  44.6266448   5.3356951  15.6046296  37.4209530
   5.5542961  16.5363404  37.4397563   5.7482725  15.2454270  38.2064333
  10.0716086  14.6076640  45.6277340   9.5883168  15.4077001  45.8341229
  10.1577025  14.6184585  44.6744784   5.9989424  18.4981175  37.6645774
   6.9532677  18.4665118  37.5975706   5.8001948  18.0371799  38.4796000
   6.5888806  17.0682291  40.2316572   7.4081695  17.5626370  40.2551409
   6.8625614  16.1514259  40.2034139  22.1342497  10.1967184  34.3672807
  22.7286988   9.9562920  33.6566115  22.2069081   9.4774314  34.9946343
   4.3539653  24.0400795  34.6815972   4.2194121  23.2801196  34.1153970
   3.9371715  24.7641695  34.2144761  24.4413570  13.5033385  33.1416228
  23.8813128  13.5726574  33.9147790  23.8357073  13.3274369  32.4215724
   7.5108779  24.9370112  34.8934414   7.3941163  25.8815544  34.7913105
   6.6901225  24.6343673  35.2820214  14.3677112  18.4701273  46.4300909
  15.2368272  18.6441925  46.0687544  13.8883864  19.2895689  46.3076639
   8.5363293  25.5898374  38.1090343   9.4390539  25.6221984  38.4256838
   8.3100663  24.6598825  38.1236679  10.2916895  24.3429360  34.7700422
   9.3412526  24.3431222  34.6564794  10.5949381  23.5962095  34.2536456
  26.0269588  30.1789899  35.8346184  26.6647998  30.0596646  35.1309524
  25.9090431  31.1270742  35.8934136  22.8359295  30.1317327  35.7707709
  22.4977806  30.0158391  34.8828243  23.7049063  29.7308492  35.7508715
  18.6946110  31.9852803  31.7604600  18.1310975  31.8942740  30.9920887
  18.5798505  31.1652707  32.2407092  23.3179078  31.2852178  41.7293914
  23.3067718  30.8904977  40.8574418  23.4799717  30.5518251  42.3227686
  16.2410542  33.4803995  34.5988820  17.0331834  33.1394819  34.1835119
  16.4807192  33.5898970  35.5190973  24.2745669  35.6523771  27.0719064
  23.6233649  36.2377851  26.6853078  25.0690032  36.1829966  27.1314102
  18.2001296  32.7412908  27.4706199  18.9732172  32.1941895  27.3319075
  18.5526695  33.6057157  27.6820660  20.0386339  34.0689290  40.6773098
  19.7476205  34.9734921  40.5619764  20.6743323  34.1105818  41.3917168
  20.9642545  31.4466139  37.2674458  21.5606118  31.2222161  36.5531421
  21.0217517  30.7050884  37.8699906  20.5367574  28.9005574  25.1024649
  20.7893095  28.3787095  24.3408112  19.5992133  28.7371719  25.2051332
  25.5810857  27.9041352  32.9099392  26.3673946  27.4860776  32.5589809
  25.8449561  28.8087445  33.0781040  25.7520934  33.3414203  27.6088049
  25.1166767  33.4148829  28.3208953  25.4218340  33.9307801  26.9307128
  30.9819284  27.8416586  33.8132370  31.7144456  27.2715802  34.0470200
  30.2258640  27.4538186  34.2538876  20.2563863  30.8033680  27.3049024
  20.1400121  30.1278583  27.9730108  20.3666123  30.3166054  26.4881177
  22.5995404  30.2643827  31.0095713  22.2353611  29.7374448  31.7208634
  23.4562519  29.8742296  30.8362198  28.5044704  21.5538160  38.2726979
  28.1728029  22.4233571  38.0488194  27.9090318  21.2374444  38.9521009
  22.2400891  25.2933727  26.0057061  22.4075293  26.1613963  26.3727532
  22.0498060  25.4561008  25.0818351  24.9976224  33.7550706  37.6722892
  24.6976947  34.6575744  37.5638699  24.6527283  33.4882889  38.5244045
  18.4488705  30.2064502  33.7059596  17.5239202  30.0740717  33.9137288
  18.6973118  30.9858722  34.2029539  28.3973368  26.2733246  35.3520329
  27.4890245  26.2048654  35.0579090  28.3460963  26.7505191  36.1802155
  22.2190111  27.7491384  26.9903728  22.0989737  28.1948435  27.8289209
  21.5242700  28.0976702  26.4317266  15.8097516  29.8497776  34.5403385
  15.9389897  30.1032255  35.4542797  15.1294968  30.4425484  34.2208040
  19.9797004  40.5195026  30.6393859  19.9021033  41.4702851  30.7182340
  19.3758647  40.1740899  31.2968786  22.4714233  27.6922891  43.2955226
  21.6947567  28.2516812  43.2858091  23.1104796  28.1779674  43.8170097
  30.2635014  24.4749684  37.1298203  29.6209394  24.7682217  36.4837998
  29.7589942  24.3602605  37.9351400  27.9175178  28.2212857  27.8184062
  28.8293034  28.4540244  27.6431760  27.4084825  28.8049902  27.2559141
  20.7260606  30.5008345  42.8573193  21.4675290  31.0393389  42.5808017
  20.0197591  31.1274634  43.0144745  26.2015945  32.6437485  41.4545355
  26.6099301  32.2019896  40.7099987  25.4793207  32.0690113  41.7079548
  22.5547015  27.5810092  38.8278912  23.4008210  28.0049506  38.9713561
  22.4945653  26.9243716  39.5217475  26.5244760  33.2038676  35.2097644
  25.8953622  33.3684390  34.5073712  26.1370422  33.6180285  35.9808608
  30.4033992  34.1393114  32.5642008  29.7185030  34.5192015  32.0139041
  30.4877841  34.7488440  33.2973955  25.7046461  25.2414460  40.4860085
  25.4607392  25.9956521  39.9494361  25.9806391  25.6199808  41.3207333
  27.6584923  31.7853073  39.1637351  27.8701819  32.4284833  38.4871732
  27.6114672  30.9515389  38.6959281  25.2611152  24.3970893  36.0673923
  24.3995631  24.6952147  36.3590661  25.2873587  24.6141292  35.1354956
  22.0772722  32.9413084  32.4747729  22.5411067  33.2200787  31.6852351
  21.8129520  32.0396529  32.2920820  18.9696803  32.4884566  35.4127492
  19.5398160  32.9171834  34.7744977  19.5604915  32.2067150  36.1111678
  21.0141608  29.0636236  29.2837294  21.7165651  29.5157280  29.7511220
  20.6822236  28.4220055  29.9117187  19.4621969  27.6547993  43.6588503
  18.8320630  28.3364274  43.8923900  19.3558057  27.5431075  42.7141642
  14.7566942  27.3219789  34.5854428  13.9665996  27.5777318  34.1094538
  15.2478189  28.1368127  34.6906468  28.7730751  34.6625028  37.3359708
  29.5948195  34.2605215  37.0542390  28.7693154  34.5593262  38.2875824
  16.7081687  27.6864368  31.5437904  15.9112850  27.7983062  32.0621400
  16.4807279  28.0251020  30.6778795  22.5387355  34.2109071  39.4920419
  22.6031787  34.6729479  40.3278591  21.8298279  33.5806436  39.6202729
  13.0404645  27.5750279  37.0169418  13.2912683  28.4597289  37.2826994
  13.5764193  27.3954881  36.2444510  36.8636744  31.0063777  33.6844680
  36.1100453  30.4371175  33.5288684  36.9984286  30.9726441  34.6315315
  22.2535372  35.8777179  29.3599399  22.1181047  36.7228715  29.7884247
  22.7945185  36.0796457  28.5965333  18.7402712  21.9568759  46.0213754
  18.3469658  21.4034957  46.6961399  19.5568852  22.2679337  46.4120272
  15.7064770  33.3952617  29.9327324  16.2189290  34.1895867  30.0832889
  16.3587483  32.6978907  29.8660926  17.5159655  36.5118373  32.0150077
  17.6926283  37.4336338  31.8271061  18.3116488  36.1976792  32.4444457
  21.6570673  23.3726638  43.6134011  22.3980386  23.9733791  43.5338473
  21.8888596  22.6304276  43.0552054  16.8012011  28.5583005  41.8912241
  16.6865526  27.6568262  42.1919340  15.9456529  28.8046702  41.5397057
  23.8803849  36.5000745  43.4899741  23.4367703  35.7137124  43.1720646
  24.5421062  36.6879896  42.8243632  18.6390970  38.0296547  38.0160420
  19.1898395  37.9013610  37.2437414  17.8002446  38.3291436  37.6655313
  25.9785087  36.7803545  41.5181143  25.9603562  37.6012426  41.0261412
  26.9005007  36.6557621  41.7431284  22.4358141  34.2947675  42.3604651
  22.9686478  33.5335963  42.1303959  21.9072222  34.0021327  43.1028805
  25.6027836  19.4007741  37.8898293  25.2592105  20.2909383  37.8137403
  25.9706799  19.2109398  37.0267878  13.6713687  31.7241271  30.7086895
  14.5088909  32.1338280  30.4920603  13.8491954  30.7840713  30.6787089
  25.5678119  29.3916352  26.3970728  25.0524742  30.1620957  26.6359115
  25.2955427  28.7181488  27.0203789  23.1525230  24.2366053  31.4555966
  22.2966826  23.8472903  31.2761605  23.5652182  24.3158014  30.5955752
  24.6824376  21.7712396  35.8547526  24.1789172  21.7342531  35.0415331
  24.9754983  22.6805139  35.9144183  20.9267262  21.8551126  34.8613708
  21.7920259  21.6593934  34.5019597  20.9944771  21.6261477  35.7883064
  30.5412393  32.1448707  28.3323901  29.7641836  31.8059866  27.8879063
  31.2203874  32.1501330  27.6578866  25.3564422  27.2643444  28.2230509
  25.0514557  27.5789593  29.0740652  26.3094864  27.3424864  28.2657842
  23.8010854  33.4233667  29.8723463  23.2732215  32.6886427  29.5596700
  23.2998356  34.2008344  29.6263431  28.7803700  31.6182688  34.9890509
  28.1227374  32.3081949  35.0770638  29.5844099  32.0079120  35.3324496
  18.5329581  24.0853334  32.2330074  19.1073333  23.8628515  31.5003267
  19.1200564  24.1542028  32.9858676  27.5909159  29.9727061  33.0394451
  28.1041040  30.6057052  33.5416161  28.2410382  29.3728256  32.6737811
  18.8599168  26.1157795  26.2525960  18.0236481  26.4532481  26.5735234
  18.7203938  25.9806774  25.3153097  20.8352249  20.9594583  30.9605144
  20.1816661  20.6443600  30.3361759  20.7932723  20.3370323  31.6864967
  21.9463454  31.2413878  22.8758436  21.0390516  31.0103131  23.0749585
  22.4434486  30.4451497  23.0632418  24.8531533  39.9511385  25.7955122
  24.1793232  40.2543082  26.4040080  25.2397355  40.7540465  25.4460579
  24.0689989  27.4476516  35.2852792  23.1512551  27.6691463  35.1274480
  24.4850133  27.5222827  34.4264499  24.8525037  28.8467932  30.4155472
  25.5996856  29.3589329  30.1062594  25.1216627  28.5251984  31.2759865
  23.1251687  31.3426472  27.3982426  22.2162907  31.0585505  27.4954896
  23.1546771  31.7625551  26.5385733  28.3570955  34.9533062  31.1673594
  27.9033282  34.1123972  31.2238784  27.7264921  35.5894460  31.5048374
  27.3003874  25.8825048  32.3974261  26.5626631  25.3702434  32.7284504
  27.5530648  25.4425430  31.5857538  26.8003894  36.7909559  32.1023412
  27.0926868  37.3514616  31.3835777  27.3102515  37.0838120  32.8576571
  27.4015502  18.6601300  32.9916030  27.7074378  17.7998663  32.7041945
  28.1268106  19.2518920  32.7915024  13.6939858  29.0631987  31.3797628
  13.4964258  28.4701347  30.6548695  13.1386522  28.7584197  32.0973567
  21.6736581  28.9555093  33.4992221  21.7285191  28.0028929  33.4234698
  20.8627783  29.1114532  33.9833520  22.8227775  32.8835216  24.7370505
  22.3847205  32.1671075  24.2776142  23.5638216  33.1111331  24.1755596
  19.6128941  27.5732153  31.2582600  18.7996807  27.8726323  31.6647792
  20.1087936  27.1787842  31.9757083  21.7637519  37.5689910  33.1916865
  21.7213698  37.7950756  32.2625397  22.6800218  37.3353284  33.3402666
  25.2103153  28.0373977  40.0897494  25.5652541  28.2645450  40.9491960
  25.8575284  28.3692354  39.4674749  30.9400890  31.1592413  30.7946823
  30.8018789  31.3494009  29.8668012  30.5837109  31.9211796  31.2514874
  19.1043016  25.1450508  36.8743835  19.7442395  25.0039267  36.1766799
  18.2720547  24.8585022  36.4982437  30.9670270  33.2268940  35.8058095
  31.4006776  33.1344229  36.6541149  31.6801850  33.2026441  35.1678111
  19.8803320  34.4452939  32.9878828  20.6743918  33.9503259  32.7861403
  19.1695012  33.9170802  32.6246533  24.6998164  36.8271034  37.3391195
  24.7535187  37.3961971  38.1068911  23.8312946  36.9972919  36.9745232
  16.1886083  28.5896021  29.0638580  15.2583672  28.5280476  29.2808543
  16.2843555  28.0671973  28.2675222  16.1071633  25.1150833  31.6516822
  16.3678450  26.0296167  31.5425983  16.9288805  24.6475276  31.8013435
  17.5796558  26.5288591  38.8215647  18.2519611  26.3205953  38.1728295
  16.7526344  26.3310677  38.3820879  31.8285819  33.2692641  38.3390980
  32.0221709  34.1738451  38.5850255  31.7286437  32.8100060  39.1729565
  23.4822130  23.1550531  40.8381307  22.8350045  23.8540481  40.7445784
  24.2523145  23.5886675  41.2057556  26.8900928  33.4199384  43.9131861
  26.7386434  33.1909935  42.9961944  26.8805607  34.3769985  43.9263206
  23.6586264  30.9931296  38.8978127  24.5878324  31.1442456  38.7247094
  23.2377294  31.0815317  38.0426774  22.4574596  35.0181961  36.6676665
  22.3185682  34.6500745  37.5402603  21.6689192  35.5329600  36.4960623
  23.0522748  40.1191057  28.0102201  23.2274504  39.6479100  28.8247824
  22.3655536  40.7456823  28.2383462  24.0079811  34.3963563  34.0565503
  23.6729644  34.3564333  34.9523152  23.5083757  33.7308279  33.5835913
  17.9824055  29.8031193  39.5818084  17.8443853  29.0711432  40.1829623
  18.8928979  29.7140094  39.3002271  26.9439003  31.7419598  24.3302562
  26.3268173  31.0166426  24.2335615  26.4755491  32.5028958  23.9869637
  20.6106356  29.5151153  39.0701763  21.3205974  28.8744345  39.0288382
  20.5675664  29.7664048  39.9927944  28.5993134  36.4518506  41.9908343
  28.5405681  35.7677726  41.3238926  29.0012653  37.1937496  41.5388969
  19.3235290  26.5016371  40.8897403  18.7872647  26.0507109  41.5418999
  18.7351998  26.6362280  40.1467867  17.6183833  43.2680420  34.7842061
  17.8580431  43.8998944  35.4621080  16.7753030  42.9168460  35.0707421
  28.6010542  34.4158090  40.2222322  27.7137320  34.0784012  40.3448721
  29.1709093  33.6841121  40.4591088  10.2539689  30.7482182  33.5465374
  10.9410729  30.4343912  32.9586389  10.0987818  31.6523546  33.2732625
  15.0574411  25.6372378  37.9750397  14.9732600  25.0298048  37.2400807
  14.2357117  26.1281397  37.9759894  22.1311695  39.0759542  37.1883565
  22.0581867  39.8814514  37.7002870  21.6889088  39.2751508  36.3631587
  21.9201475  38.3131312  30.6986387  21.1368997  38.8552993  30.7924612
  22.6194220  38.8305292  31.0980628  25.2298125  24.1225942  33.3420592
  25.7266824  23.3695904  33.0221663  24.4585106  24.1590259  32.7763802
  33.0827882  29.8266307  34.9838884  33.0717758  30.7091023  34.6132817
  32.2145262  29.4737858  34.7893421  24.5910379  38.9746376  39.3441724
  25.3038351  39.6093841  39.2717626  24.1000407  39.0710242  38.5281726
  26.3127906  32.8797629  30.9159016  25.3784184  32.9999092  30.7463720
  26.4904574  31.9770096  30.6519026  21.8133094  26.2643325  33.0692277
  21.4430881  25.7114365  33.7573183  22.3092186  25.6601458  32.5167277
  29.7000457  28.7214948  31.4509050  30.1660909  29.5542940  31.3769353
  30.1507957  28.2559930  32.1554308  19.6422292  36.7240820  40.1647295
  20.3431752  37.3577303  40.3176689  19.1717407  37.0655551  39.4042934
  27.7676688  35.0658770  28.4495202  28.0436532  34.9515364  29.3589076
  26.8981187  34.6676255  28.4107375  27.6717120  21.0895535  35.4899951
  26.7580199  21.3199762  35.6582158  28.1010221  21.1733979  36.3413984
  27.4423578  29.2785427  37.9899845  26.7895028  29.5261335  37.3352298
  27.8203958  28.4649566  37.6562323  24.4030752  39.3145121  32.0928016
  24.5853147  38.4966776  32.5555768  25.2263738  39.5312813  31.6552906
  24.7372918  38.2413306  29.3543064  25.2660684  37.7305760  28.7413226
  25.0001137  37.9255836  30.2188597  23.4911151  30.0205238  44.4765882
  22.8151788  29.9199368  45.1468258  24.3138785  29.8644452  44.9401880
  15.2390010  36.2577175  37.0978398  15.8243447  35.5120863  37.2306302
  15.0414849  36.5681132  37.9815062  18.0928665  39.2928422  32.1140840
  17.4239041  39.7774550  31.6304880  17.9541535  39.5397643  33.0284219
   9.8307665  28.8282775  35.8182841   9.8691764  28.2946366  36.6119959
   9.3247958  28.3017981  35.1993818  22.2333934  41.3272166  38.7123498
  22.7852242  41.4903787  39.4772584  22.5740127  41.9176604  38.0403523
  17.2098427  23.6747316  39.3145383  17.2739754  24.5362147  38.9022781
  17.1465547  23.0621317  38.5817742  16.6850700  25.7470448  42.9618417
  17.3122739  25.3647526  43.5755942  15.8278619  25.5284650  43.3274110
  27.0844808  36.1533423  44.5672153  27.6284712  36.7663382  44.0727108
  26.5031653  36.7113002  45.0839166  13.4616243  27.5546877  28.8936772
  13.7569684  26.6457556  28.8403826  12.5604278  27.5334617  28.5717775
  25.3702321  39.2754141  35.6987181  25.2453461  38.4743881  35.1898126
  26.0281412  39.7700335  35.2101151  16.9910490  25.6302874  34.8764321
  16.2697075  26.2438842  34.7371794  17.7803745  26.1660639  34.7980967
  27.4337230  37.0763162  37.3266731  26.4867565  36.9568513  37.2545057
  27.7820003  36.1885660  37.4092992  19.7936803  22.9657300  41.1504973
  20.3171205  23.2119597  41.9131282  19.5749136  23.7977335  40.7308110
  15.1904084  25.2360975  29.0176097  14.8616790  24.3558354  28.8351203
  15.5443455  25.1808644  29.9052487  24.4383663  36.8715878  33.5271083
  24.2908625  35.9432585  33.7078653  25.2637156  36.8935968  33.0428158
  18.3045907  25.5233945  29.3851575  18.6441980  26.0519866  28.6630183
  18.7518028  25.8614351  30.1610142  28.0417785  37.6944436  34.6135956
  28.9664332  37.4887298  34.4760407  27.8733088  37.4460838  35.5225297
  20.9989348  23.9070996  38.8354643  20.6586168  23.1078809  39.2375323
  20.2928354  24.2072706  38.2631476  21.6505820  20.9920308  37.2881966
  22.4731889  20.5180786  37.1660856  21.8943883  21.7710792  37.7880652
  20.2914054  24.0208566  27.5844868  21.0122417  24.3989819  27.0808585
  19.6679359  24.7397443  27.6879846  24.4345177  24.7253715  28.5203200
  24.6508792  25.6078353  28.2192028  23.9539244  24.3339929  27.7908842
  19.1744399  27.6839429  35.0973945  19.0288979  27.9979732  35.9898226
  18.6969602  28.3024329  34.5444843  21.0340782  24.6741977  35.1454834
  21.0202350  23.7783070  34.8087132  21.7513210  24.6812640  35.7793120
  22.8866912  25.1079317  37.1907962  22.6284690  26.0296387  37.1892292
  22.3551953  24.7109751  37.8808426  27.8313101  38.2130104  29.9698047
  28.0049979  37.6476526  29.2171900  28.3241992  39.0130999  29.7877537
  13.6490061  30.2244773  38.0361606  13.1043529  31.0004581  38.1681880
  14.5269411  30.5715577  37.8780727  20.4377677  23.5556357  30.4142404
  20.5593589  22.6273003  30.6133292  20.1479720  23.5695043  29.5020720
  23.3068868  21.2411267  33.5509124  23.3290565  21.3050600  32.5961104
  23.7236927  20.4015776  33.7449630  33.6852492  30.9766527  31.5888347
  34.1283638  30.2273852  31.1907470  32.8079002  30.9676663  31.2062079
  28.8188274  37.5296868  27.0694945  29.5139178  38.1503561  27.2882260
  29.1611424  36.6792220  27.3447323  14.4356083  29.3514669  40.9291763
  13.6937819  29.4997305  41.5156393  14.1148827  29.6122935  40.0658512
  30.7179697  34.9796574  28.5982276  31.2431021  35.3183847  27.8731596
  30.6302049  34.0443589  28.4145411  22.3799745  38.8930647  40.7272153
  22.6886872  38.6479794  41.5994852  23.1775227  39.0977286  40.2391023
  22.4020357  41.0468557  32.9577529  21.9625348  40.5544936  33.6510386
  23.1528474  40.5041525  32.7169605  14.8812696  37.2380098  32.9602157
  15.7070716  36.9383870  32.5800801  14.5306748  36.4687720  33.4091946
  19.8494230  36.5906566  35.0299831  19.2274239  35.9277271  34.7302059
  20.5199096  36.6167698  34.3473479  13.0821301  35.1566424  33.9191091
  12.2453210  34.7288599  33.7375092  13.0544947  35.3498868  34.8561882
  19.9218757  25.0688354  44.6232337  19.9706913  25.9450477  44.2410107
  20.4641271  24.5265747  44.0503980  30.4073603  35.6129477  43.9033474
  29.6169146  35.5953616  43.3637973  30.1706957  36.1517771  44.6582511
  30.5271478  32.4621944  41.2166203  30.5769483  32.2971951  42.1581725
  30.4185401  31.5949203  40.8264083  19.4107736  35.1410490  28.5058292
  19.5595857  35.8245954  27.8524964  20.2174180  35.1215580  29.0207747
  27.8175240  28.4452872  42.5325509  28.7185103  28.3059337  42.2409507
  27.8923215  28.6107327  43.4723687  22.1518045  25.8219727  41.3778696
  21.2821355  26.1153293  41.1061284  22.3877526  26.4060172  42.0985959
  32.0289675  34.8818885  41.4608224  31.7374483  35.2448866  42.2971685
  31.4161806  34.1685894  41.2821556  33.2285357  32.4471765  33.9810794
  34.0632248  32.8861569  34.1448355  33.3644486  31.9710418  33.1619040
  30.2776863  30.0051500  39.9288282  30.7530984  30.1979146  39.1207134
  29.3542428  30.0610686  39.6831666  17.1660369  31.1675667  29.5119360
  16.9206411  30.2637997  29.7099571  17.3356284  31.1692818  28.5698838
  24.8557079  22.0399344  38.8944116  25.3739023  22.7760370  38.5690605
  24.5012212  22.3463337  39.7290875  16.4356017  26.9004025  27.0105522
  15.7425262  26.9748380  26.3545558  16.1907769  26.1364368  27.5327039
  25.1069673  18.4599626  34.4145013  25.3871427  17.7922815  35.0405439
  25.8920280  18.6528722  33.9019676  22.9103142  37.6358620  25.9770039
  22.3377109  38.2548807  25.5240511  23.4835936  38.1857982  26.5109961
  28.9778532  26.8817260  38.1616588  29.9295955  26.9815358  38.1828812
  28.8081982  26.0895529  38.6714672  26.9992911  23.9672843  38.3475989
  26.4042843  24.2477856  37.6522477  26.7142608  24.4566744  39.1192730
  26.1300402  37.9195770  27.1078621  27.0631075  37.8541332  27.3111497
  26.0423615  38.7552037  26.6493154  28.7588418  37.2361640  24.0682569
  28.6802050  36.9021504  24.9618327  29.5798085  37.7283408  24.0674041
  31.4566610  30.1023380  37.2758887  31.4242930  29.1639381  37.4618571
  32.0667233  30.1807416  36.5424712  23.2949940  28.9719433  23.3186091
  24.2409045  28.8425641  23.3874509  22.9164185  28.2334095  23.7955520
  31.6061098  26.8934423  37.3217171  31.0900147  26.1092880  37.1347099
  32.4901047  26.5653140  37.4863690  29.2671825  20.6375439  33.2812983
  29.0696646  20.3290527  34.1656315  29.8771531  21.3637078  33.4110913
  37.2743159  31.1639387  36.4164924  38.0046548  30.9024675  36.9772628
  36.6650105  30.4268109  36.4566992  35.3558457  29.3047249  37.0139375
  34.6291620  29.1703214  36.4055867  34.9405743  29.6124078  37.8196093
  23.1788633  33.0237179  44.7786748  24.0991642  33.2015778  44.9726795
  23.1438216  32.0793224  44.6266448  12.3970798  28.2175773  33.7040023
  12.0773582  27.3641081  33.4114397  11.8504226  28.4324351  34.4597990
  16.1750706  30.9338214  37.4209530  16.3936715  31.8655321  37.4397563
  16.5876479  30.5746188  38.2064333  23.0954923  21.4406299  29.4085218
  22.2855652  21.0953384  29.7840464  23.7839340  21.1313843  29.9972830
  25.0245472  20.5184346  31.0309515  25.5776510  20.9379799  31.6899538
  25.2615558  19.5920094  31.0732471  21.0478571  26.5071419  46.8112279
  20.9475298  27.4565776  46.7424370  20.8300113  26.1789658  45.9388349
  12.2659058  31.8378684  35.6733145  11.5722529  31.4232637  35.1603099
  13.0132049  31.8799221  35.0766564  28.4024279  22.6284871  30.5388179
  27.8222948  23.2869675  30.1566231  28.1360211  21.8062215  30.1275596
  26.8527845  22.0289929  32.7409499  27.3527623  22.1406463  31.9323818
  27.4963453  21.7250981  33.3810308  20.9109841  29.9368558  45.6277340
  20.4276923  30.7368918  45.8341229  20.9970780  29.9476503  44.6744784
  14.1795801  31.7696938  33.5499160  14.1566489  31.8684625  32.5981043
  14.4896437  32.6162089  33.8716326  16.8383178  33.8273093  37.6645774
  17.7926432  33.7957035  37.5975706  16.6395702  33.3663717  38.4796000
  17.4282561  32.3974209  40.2316572  18.2475450  32.8918288  40.2551409
  17.7019368  31.4806177  40.2034139  27.1849157  24.7884961  29.5944527
  26.2975012  25.0734612  29.3764722  27.6003146  24.6278725  28.7471804
  30.5363693  24.8131482  33.3098866  31.3124083  25.3027935  33.5823483
  29.8111827  25.2389536  33.7670736  32.9736252  25.5259101  34.3672807
  33.5680742  25.2854837  33.6566115  33.0462835  24.8066232  34.9946343
  15.1933407  39.3692712  34.6815972  15.0587875  38.6093113  34.1153970
  14.7765469  40.0933612  34.2144761  26.3292370  34.5529636  23.6892547
  27.0328220  34.7579638  24.3050203  25.6055019  35.1206398  23.9541631
  27.1590180  30.3039497  29.8094817  27.1025382  30.7608049  28.9702450
  27.7118523  29.5430182  29.6317660  30.9694986  26.0929229  30.6344937
  30.7131921  25.6925865  31.4653144  30.3447854  26.8073023  30.5095076
  35.2807324  28.8325302  33.1416228  34.7206882  28.9018492  33.9147790
  34.6750828  28.6566287  32.4215724  18.3502533  40.2662029  34.8934414
  18.2334917  41.2107462  34.7913105  17.5294979  39.9635591  35.2820214
  28.2379068  34.9912165  25.7391007  29.0724672  34.5593364  25.5568482
  28.0763411  34.8194179  26.6667902  27.8924960  31.4944278  27.1047346
  27.8373764  31.3288550  26.1635791  27.2671015  32.2020311  27.2609536
  12.6817475  26.7312343  40.9308769  13.3276338  26.2211297  41.4195994
  12.4734626  27.4681024  41.5052194  25.2070867  33.7993190  46.4300909
  26.0762027  33.9733843  46.0687544  24.7277618  34.6187607  46.3076639
  21.2021085  20.9952387  26.6832665  21.1899755  21.9394227  26.8400936
  22.0944507  20.8122533  26.3892126  19.3757047  40.9190291  38.1090343
  20.2784294  40.9513902  38.4256838  19.1494417  39.9890742  38.1236679
  21.1310649  39.6721278  34.7700422  20.1806280  39.6723139  34.6564794
  21.4343135  38.9254012  34.2536456  25.0173205  17.5895164  30.9378602
  24.2505601  17.0353651  31.0835284  25.4283910  17.6617033  31.7992753
  17.0214966  23.8779960  45.0283783  17.8846427  23.5216765  45.2387107
  16.4480376  23.5393855  45.7159187  36.8663343  45.5081816  35.8346184
  37.5041753  45.3888564  35.1309524  36.7484186  46.4562660  35.8934136
  33.6753049  45.4609244  35.7707709  33.3371561  45.3450309  34.8828243
  34.5442817  45.0600409  35.7508715  29.5339865  47.3144721  31.7604600
  28.9704730  47.2234658  30.9920887  29.4192260  46.4944625  32.2407092
  34.1572832  46.6144096  41.7293914  34.1461473  46.2196894  40.8574418
  34.3193471  45.8810169  42.3227686  27.0804297  48.8095912  34.5988820
  27.8725589  48.4686737  34.1835119  27.3200947  48.9190887  35.5190973
  35.1139423  50.9815688  27.0719064  34.4627403  51.5669769  26.6853078
  35.9083786  51.5121883  27.1314102  29.0395051  48.0704826  27.4706199
  29.8125927  47.5233813  27.3319075  29.3920449  48.9349075  27.6820660
  30.8780093  49.3981208  40.6773098  30.5869959  50.3026839  40.5619764
  31.5137077  49.4397735  41.3917168  31.8036300  46.7758056  37.2674458
  32.3999872  46.5514079  36.5531421  31.8611272  46.0342802  37.8699906
  31.3761328  44.2297492  25.1024649  31.6286849  43.7079013  24.3408112
  30.4385887  44.0663637  25.2051332  36.4204611  43.2333270  32.9099392
  37.2067700  42.8152693  32.5589809  36.6843316  44.1379362  33.0781040
  36.5914689  48.6706120  27.6088049  35.9560522  48.7440747  28.3208953
  36.2612095  49.2599719  26.9307128  41.8213038  43.1708503  33.8132370
  42.5538210  42.6007720  34.0470200  41.0652394  42.7830104  34.2538876
  31.0957617  46.1325598  27.3049024  30.9793875  45.4570501  27.9730108
  31.2059877  45.6457972  26.4881177  33.4389158  45.5935745  31.0095713
  33.0747365  45.0666366  31.7208634  34.2956274  45.2034214  30.8362198
  39.3438459  36.8830077  38.2726979  39.0121783  37.7525488  38.0488194
  38.7484072  36.5666361  38.9521009  33.0794645  40.6225644  26.0057061
  33.2469047  41.4905881  26.3727532  32.8891814  40.7852926  25.0818351
  35.8369978  49.0842623  37.6722892  35.5370701  49.9867662  37.5638699
  35.4921038  48.8174807  38.5244045  29.2882460  45.5356420  33.7059596
  28.3632956  45.4032634  33.9137288  29.5366873  46.3150639  34.2029539
  39.2367122  41.6025164  35.3520329  38.3283999  41.5340572  35.0579090
  39.1854718  42.0797108  36.1802155  33.0583866  43.0783302  26.9903728
  32.9383491  43.5240353  27.8289209  32.3636454  43.4268620  26.4317266
  26.6491271  45.1789694  34.5403385  26.7783652  45.4324173  35.4542797
  25.9688722  45.7717402  34.2208040  30.8190758  55.8486944  30.6393859
  30.7414788  56.7994769  30.7182340  30.2152402  55.5032816  31.2968786
  33.3107988  43.0214809  43.2955226  32.5341322  43.5808729  43.2858091
  33.9498551  43.5071592  43.8170097  41.1028768  39.8041602  37.1298203
  40.4603149  40.0974135  36.4837998  40.5983697  39.6894522  37.9351400
  38.7568932  43.5504775  27.8184062  39.6686788  43.7832162  27.6431760
  38.2478579  44.1341819  27.2559141  31.5654360  45.8300262  42.8573193
  32.3069044  46.3685306  42.5808017  30.8591346  46.4566551  43.0144745
  37.0409700  47.9729403  41.4545355  37.4493056  47.5311813  40.7099987
  36.3186961  47.3982030  41.7079548  33.3940770  42.9102010  38.8278912
  34.2401965  43.3341423  38.9713561  33.3339407  42.2535634  39.5217475
  37.3638514  48.5330594  35.2097644  36.7347377  48.6976308  34.5073712
  36.9764176  48.9472203  35.9808608  41.2427746  49.4685031  32.5642008
  40.5578784  49.8483933  32.0139041  41.3271596  50.0780358  33.2973955
  36.5440215  40.5706378  40.4860085  36.3001147  41.3248439  39.9494361
  36.8200146  40.9491726  41.3207333  38.4978678  47.1144990  39.1637351
  38.7095573  47.7576750  38.4871732  38.4508426  46.2807307  38.6959281
  36.1004907  39.7262811  36.0673923  35.2389386  40.0244065  36.3590661
  36.1267341  39.9433210  35.1354956  32.9166476  48.2705002  32.4747729
  33.3804822  48.5492705  31.6852351  32.6523274  47.3688446  32.2920820
  29.8090557  47.8176483  35.4127492  30.3791914  48.2463752  34.7744977
  30.3998669  47.5359068  36.1111678  31.8535362  44.3928154  29.2837294
  32.5559406  44.8449198  29.7511220  31.5215991  43.7511973  29.9117187
  30.3015724  42.9839911  43.6588503  29.6714384  43.6656191  43.8923900
  30.1951812  42.8722992  42.7141642  25.5960696  42.6511707  34.5854428
  24.8059750  42.9069235  34.1094538  26.0871944  43.4660045  34.6906468
  39.6124506  49.9916946  37.3359708  40.4341950  49.5897133  37.0542390
  39.6086909  49.8885180  38.2875824  27.5475442  43.0156286  31.5437904
  26.7506605  43.1274980  32.0621400  27.3201034  43.3542938  30.6778795
  33.3781109  49.5400989  39.4920419  33.4425542  50.0021396  40.3278591
  32.6692033  48.9098354  39.6202729  23.8798399  42.9042197  37.0169418
  24.1306438  43.7889207  37.2826994  24.4157948  42.7246799  36.2444510
  47.7030499  46.3355694  33.6844680  46.9494207  45.7663092  33.5288684
  47.8378040  46.3018359  34.6315315  33.0929127  51.2069097  29.3599399
  32.9574802  52.0520632  29.7884247  33.6338939  51.4088374  28.5965333
  29.5796467  37.2860676  46.0213754  29.1863412  36.7326875  46.6961399
  30.3962607  37.5971255  46.4120272  26.5458524  48.7244535  29.9327324
  27.0583045  49.5187785  30.0832889  27.1981237  48.0270825  29.8660926
  28.3553409  51.8410291  32.0150077  28.5320037  52.7628256  31.8271061
  29.1510243  51.5268710  32.4444457  32.4964428  38.7018556  43.6134011
  33.2374141  39.3025709  43.5338473  32.7282350  37.9596193  43.0552054
  27.6405766  43.8874923  41.8912241  27.5259281  42.9860180  42.1919340
  26.7850283  44.1338620  41.5397057  34.7197603  51.8292663  43.4899741
  34.2761457  51.0429042  43.1720646  35.3814817  52.0171814  42.8243632
  29.4784724  53.3588465  38.0160420  30.0292150  53.2305528  37.2437414
  28.6396200  53.6583354  37.6655313  36.8178841  52.1095463  41.5181143
  36.7997317  52.9304344  41.0261412  37.7398761  51.9849538  41.7431284
  33.2751896  49.6239593  42.3604651  33.8080232  48.8627881  42.1303959
  32.7465977  49.3313244  43.1028805  36.4421591  34.7299659  37.8898293
  36.0985860  35.6201300  37.8137403  36.8100553  34.5401316  37.0267878
  24.5107441  47.0533189  30.7086895  25.3482663  47.4630197  30.4920603
  24.6885709  46.1132631  30.6787089  36.4071873  44.7208270  26.3970728
  35.8918497  45.4912874  26.6359115  36.1349182  44.0473406  27.0203789
  33.9918984  39.5657970  31.4555966  33.1360581  39.1764821  31.2761605
  34.4045936  39.6449931  30.5955752  35.5218131  37.1004314  35.8547526
  35.0182926  37.0634449  35.0415331  35.8148738  38.0097056  35.9144183
  31.7661017  37.1843043  34.8613708  32.6314014  36.9885852  34.5019597
  31.8338526  36.9553395  35.7883064  41.3806147  47.4740624  28.3323901
  40.6035590  47.1351784  27.8879063  42.0597628  47.4793247  27.6578866
  36.1958176  42.5935362  28.2230509  35.8908312  42.9081511  29.0740652
  37.1488619  42.6716782  28.2657842  34.6404608  48.7525585  29.8723463
  34.1125970  48.0178345  29.5596700  34.1392111  49.5300261  29.6263431
  39.6197454  46.9474606  34.9890509  38.9621129  47.6373867  35.0770638
  40.4237853  47.3371037  35.3324496  29.3723336  39.4145251  32.2330074
  29.9467088  39.1920433  31.5003267  29.9594318  39.4833946  32.9858676
  38.4302913  45.3018978  33.0394451  38.9434795  45.9348970  33.5416161
  39.0804137  44.7020174  32.6737811  29.6992923  41.4449712  26.2525960
  28.8630235  41.7824399  26.5735234  29.5597693  41.3098692  25.3153097
  31.6746004  36.2886500  30.9605144  31.0210416  35.9735517  30.3361759
  31.6326478  35.6662241  31.6864967  32.7857208  46.5705795  22.8758436
  31.8784270  46.3395049  23.0749585  33.2828240  45.7743415  23.0632418
  35.6925287  55.2803302  25.7955122  35.0186986  55.5834999  26.4040080
  36.0791109  56.0832383  25.4460579  34.9083744  42.7768434  35.2852792
  33.9906305  42.9983381  35.1274480  35.3243888  42.8514744  34.4264499
  35.6918792  44.1759849  30.4155472  36.4390611  44.6881247  30.1062594
  35.9610381  43.8543902  31.2759865  33.9645442  46.6718390  27.3982426
  33.0556661  46.3877423  27.4954896  33.9940526  47.0917469  26.5385733
  39.1964709  50.2824980  31.1673594  38.7427036  49.4415890  31.2238784
  38.5658676  50.9186378  31.5048374  38.1397629  41.2116966  32.3974261
  37.4020386  40.6994352  32.7284504  38.3924402  40.7717347  31.5857538
  37.6397649  52.1201476  32.1023412  37.9320623  52.6806533  31.3835777
  38.1496269  52.4130037  32.8576571  38.2409256  33.9893218  32.9916030
  38.5468133  33.1290581  32.7041945  38.9661861  34.5810838  32.7915024
  24.5333612  44.3923904  31.3797628  24.3358012  43.7993265  30.6548695
  23.9780276  44.0876114  32.0973567  32.5130336  44.2847011  33.4992221
  32.5678946  43.3320847  33.4234698  31.7021538  44.4406450  33.9833520
  33.6621530  48.2127134  24.7370505  33.2240960  47.4962993  24.2776142
  34.4031971  48.4403249  24.1755596  30.4522696  42.9024071  31.2582600
  29.6390561  43.2018241  31.6647792  30.9481690  42.5079759  31.9757083
  32.6031274  52.8981827  33.1916865  32.5607452  53.1242674  32.2625397
  33.5193973  52.6645202  33.3402666  36.0496908  43.3665895  40.0897494
  36.4046295  43.5937368  40.9491960  36.6969039  43.6984272  39.4674749
  41.7794644  46.4884331  30.7946823  41.6412543  46.6785927  29.8668012
  41.4230863  47.2503714  31.2514874  29.9436771  40.4742426  36.8743835
  30.5836150  40.3331185  36.1766799  29.1114301  40.1876939  36.4982437
  41.8064024  48.5560858  35.8058095  42.2400531  48.4636147  36.6541149
  42.5195605  48.5318358  35.1678111  30.7197074  49.7744856  32.9878828
  31.5137673  49.2795177  32.7861403  30.0088767  49.2462720  32.6246533
  35.5391919  52.1562952  37.3391195  35.5928941  52.7253888  38.1068911
  34.6706700  52.3264837  36.9745232  27.0279838  43.9187938  29.0638580
  26.0977426  43.8572394  29.2808543  27.1237310  43.3963891  28.2675222
  26.9465387  40.4442751  31.6516822  27.2072204  41.3588084  31.5425983
  27.7682559  39.9767194  31.8013435  28.4190312  41.8580508  38.8215647
  29.0913366  41.6497870  38.1728295  27.5920099  41.6602594  38.3820879
  42.6679574  48.5984559  38.3390980  42.8615464  49.5030369  38.5850255
  42.5680192  48.1391978  39.1729565  34.3215884  38.4842449  40.8381307
  33.6743799  39.1832399  40.7445784  35.0916900  38.9178593  41.2057556
  37.7294682  48.7491301  43.9131861  37.5780189  48.5201853  42.9961944
  37.7199362  49.7061903  43.9263206  34.4980019  46.3223214  38.8978127
  35.4272079  46.4734374  38.7247094  34.0771049  46.4107235  38.0426774
  33.2968350  50.3473878  36.6676665  33.1579436  49.9792663  37.5402603
  32.5082947  50.8621518  36.4960623  33.8916502  55.4482975  28.0102201
  34.0668258  54.9771018  28.8247824  33.2049290  56.0748741  28.2383462
  34.8473566  49.7255481  34.0565503  34.5123398  49.6856251  34.9523152
  34.3477511  49.0600197  33.5835913  28.8217810  45.1323111  39.5818084
  28.6837608  44.4003350  40.1829623  29.7322733  45.0432011  39.3002271
  37.7832757  47.0711515  24.3302562  37.1661928  46.3458344  24.2335615
  37.3149246  47.8320876  23.9869637  31.4500110  44.8443070  39.0701763
  32.1599729  44.2036263  39.0288382  31.4069418  45.0955965  39.9927944
  39.4386889  51.7810424  41.9908343  39.3799435  51.0969644  41.3238926
  39.8406407  52.5229414  41.5388969  30.1629044  41.8308288  40.8897403
  29.6266401  41.3799027  41.5418999  29.5745753  41.9654197  40.1467867
  28.4577588  58.5972338  34.7842061  28.6974186  59.2290862  35.4621080
  27.6146784  58.2460378  35.0707421  29.5731303  41.2896940  23.4523867
  28.6960770  41.1685741  23.0886113  30.0489056  40.4983018  23.2002755
  39.4404296  49.7450008  40.2222322  38.5531075  49.4075930  40.3448721
  40.0102847  49.0133039  40.4591088  21.0933443  46.0774100  33.5465374
  21.7804483  45.7635830  32.9586389  20.9381572  46.9815464  33.2732625
  25.8968165  40.9664296  37.9750397  25.8126354  40.3589966  37.2400807
  25.0750872  41.4573314  37.9759894  32.9705450  54.4051460  37.1883565
  32.8975621  55.2106432  37.7002870  32.5282843  54.6043426  36.3631587
  32.7595229  53.6423230  30.6986387  31.9762751  54.1844910  30.7924612
  33.4587974  54.1597210  31.0980628  36.0691879  39.4517860  33.3420592
  36.5660579  38.6987822  33.0221663  35.2978861  39.4882176  32.7763802
  43.9221637  45.1558225  34.9838884  43.9111513  46.0382941  34.6132817
  43.0539016  44.8029776  34.7893421  35.4304133  54.3038294  39.3441724
  36.1432105  54.9385759  39.2717626  34.9394162  54.4002160  38.5281726
  37.1521660  48.2089547  30.9159016  36.2177939  48.3291009  30.7463720
  37.3298328  47.3062014  30.6519026  32.6526848  41.5935243  33.0692277
  32.2824636  41.0406283  33.7573183  33.1485941  40.9893376  32.5167277
  40.5394211  44.0506866  31.4509050  41.0054664  44.8834858  31.3769353
  40.9901712  43.5851848  32.1554308  30.4816047  52.0532738  40.1647295
  31.1825506  52.6869221  40.3176689  30.0111162  52.3947469  39.4042934
  38.6070442  50.3950687  28.4495202  38.8830286  50.2807282  29.3589076
  37.7374941  49.9968172  28.4107375  38.5110874  36.4187453  35.4899951
  37.5973954  36.6491680  35.6582158  38.9403976  36.5025897  36.3413984
  38.2817333  44.6077345  37.9899845  37.6288783  44.8553253  37.3352298
  38.6597713  43.7941483  37.6562323  35.2424506  54.6437038  32.0928016
  35.4246901  53.8258694  32.5555768  36.0657493  54.8604730  31.6552906
  35.5766672  53.5705223  29.3543064  36.1054438  53.0597678  28.7413226
  35.8394892  53.2547754  30.2188597  34.3304906  45.3497156  44.4765882
  33.6545543  45.2491285  45.1468258  35.1532540  45.1936370  44.9401880
  26.0783765  51.5869093  37.0978398  26.6637202  50.8412781  37.2306302
  25.8808603  51.8973049  37.9815062  28.9322420  54.6220340  32.1140840
  28.2632795  55.1066468  31.6304880  28.7935290  54.8689560  33.0284219
  20.6701419  44.1574693  35.8182841  20.7085519  43.6238284  36.6119959
  20.1641712  43.6309898  35.1993818  33.0727689  56.6564084  38.7123498
  33.6245997  56.8195705  39.4772584  33.4133882  57.2468521  38.0403523
  28.0492182  39.0039233  39.3145383  28.1133508  39.8654064  38.9022781
  27.9859302  38.3913235  38.5817742  27.5244454  41.0762366  42.9618417
  28.1516493  40.6939443  43.5755942  26.6672373  40.8576568  43.3274110
  37.9238563  51.4825341  44.5672153  38.4678467  52.0955299  44.0727108
  37.3425408  52.0404919  45.0839166  24.3009997  42.8838795  28.8936772
  24.5963438  41.9749473  28.8403826  23.3998033  42.8626534  28.5717775
  36.2096076  54.6046059  35.6987181  36.0847215  53.8035799  35.1898126
  36.8675167  55.0992252  35.2101151  27.8304244  40.9594792  34.8764321
  27.1090830  41.5730759  34.7371794  28.6197500  41.4952556  34.7980967
  38.2730984  52.4055079  37.3266731  37.3261320  52.2860430  37.2545057
  38.6213757  51.5177577  37.4092992  30.6330558  38.2949218  41.1504973
  31.1564959  38.5411515  41.9131282  30.4142891  39.1269253  40.7308110
  26.0297839  40.5652893  29.0176097  25.7010545  39.6850272  28.8351203
  26.3837209  40.5100561  29.9052487  35.2777417  52.2007795  33.5271083
  35.1302380  51.2724503  33.7078653  36.1030911  52.2227886  33.0428158
  29.1439662  40.8525862  29.3851575  29.4835734  41.3811784  28.6630183
  29.5911782  41.1906269  30.1610142  38.8811539  53.0236354  34.6135956
  39.8058087  52.8179215  34.4760407  38.7126843  52.7752755  35.5225297
  31.8383103  39.2362913  38.8354643  31.4979923  38.4370726  39.2375323
  31.1322109  39.5364624  38.2631476  32.4899574  36.3212226  37.2881966
  33.3125644  35.8472704  37.1660856  32.7337638  37.1002709  37.7880652
  31.1307809  39.3500484  27.5844868  31.8516171  39.7281737  27.0808585
  30.5073113  40.0689361  27.6879846  35.2738932  40.0545633  28.5203200
  35.4902546  40.9370271  28.2192028  34.7932999  39.6631846  27.7908842
  30.0138153  43.0131346  35.0973945  29.8682734  43.3271649  35.9898226
  29.5363357  43.6316247  34.5444843  31.8734536  40.0033894  35.1454834
  31.8596105  39.1074988  34.8087132  32.5906964  40.0104558  35.7793120
  33.7260667  40.4371234  37.1907962  33.4678445  41.3588305  37.1892292
  33.1945707  40.0401669  37.8808426  38.6706856  53.5422022  29.9698047
  38.8443733  52.9768444  29.2171900  39.1635747  54.3422916  29.7877537
  24.4883815  45.5536691  38.0361606  23.9437283  46.3296499  38.1681880
  25.3663165  45.9007495  37.8780727  31.2771432  38.8848275  30.4142404
  31.3987343  37.9564921  30.6133292  30.9873474  38.8986961  29.5020720
  34.1462622  36.5703185  33.5509124  34.1684319  36.6342518  32.5961104
  34.5630681  35.7307694  33.7449630  44.5246247  46.3058445  31.5888347
  44.9677393  45.5565770  31.1907470  43.6472757  46.2968581  31.2062079
  39.6582028  52.8588786  27.0694945  40.3532933  53.4795479  27.2882260
  40.0005178  52.0084137  27.3447323  25.2749837  44.6806587  40.9291763
  24.5331573  44.8289222  41.5156393  24.9542581  44.9414853  40.0658512
  41.5573451  50.3088492  28.5982276  42.0824775  50.6475764  27.8731596
  41.4695804  49.3735507  28.4145411  33.2193500  54.2222565  40.7272153
  33.5280626  53.9771712  41.5994852  34.0168982  54.4269204  40.2391023
  33.2414112  56.3760475  32.9577529  32.8019102  55.8836853  33.6510386
  33.9922229  55.8333442  32.7169605  25.7206451  52.5672016  32.9602157
  26.5464471  52.2675788  32.5800801  25.3700503  51.7979638  33.4091946
  30.6887984  51.9198484  35.0299831  30.0667993  51.2569189  34.7302059
  31.3592851  51.9459616  34.3473479  23.9215056  50.4858342  33.9191091
  23.0846964  50.0580516  33.7375092  23.8938701  50.6790785  34.8561882
  30.7612512  40.3980272  44.6232337  30.8100667  41.2742395  44.2410107
  31.3035026  39.8557665  44.0503980  41.3665232  47.7913862  41.2166203
  41.4163237  47.6263869  42.1581725  41.2579156  46.9241121  40.8264083
  30.2501491  50.4702407  28.5058292  30.3989611  51.1537872  27.8524964
  31.0567934  50.4507497  29.0207747  38.6568995  43.7744790  42.5325509
  39.5578857  43.6351254  42.2409507  38.7316969  43.9399244  43.4723687
  32.9911800  41.1511644  41.3778696  32.1215109  41.4445210  41.1061284
  33.2271280  41.7352089  42.0985959  42.8683429  50.2110803  41.4608224
  42.5768237  50.5740784  42.2971685  42.2555560  49.4977811  41.2821556
  44.0679111  47.7763683  33.9810794  44.9026003  48.2153487  34.1448355
  44.2038240  47.3002336  33.1619040  41.1170617  45.3343418  39.9288282
  41.5924739  45.5271064  39.1207134  40.1936183  45.3902604  39.6831666
  28.0054124  46.4967585  29.5119360  27.7600166  45.5929915  29.7099571
  28.1750038  46.4984735  28.5698838  35.6950834  37.3691261  38.8944116
  36.2132778  38.1052288  38.5690605  35.3405967  37.6755255  39.7290875
  27.2749771  42.2295942  27.0105522  26.5819016  42.3040297  26.3545558
  27.0301523  41.4656286  27.5327039  35.9463428  33.7891544  34.4145013
  36.2265182  33.1214733  35.0405439  36.7314035  33.9820639  33.9019676
  33.7496896  52.9650538  25.9770039  33.1770864  53.5840725  25.5240511
  34.3229690  53.5149899  26.5109961  39.8172286  42.2109178  38.1616588
  40.7689709  42.3107275  38.1828812  39.6475737  41.4187446  38.6714672
  37.8386666  39.2964761  38.3475989  37.2436598  39.5769774  37.6522477
  37.5536362  39.7858662  39.1192730  36.9694156  53.2487688  27.1078621
  37.9024829  53.1833249  27.3111497  36.8817369  54.0843955  26.6493154
  39.5982173  52.5653558  24.0682569  39.5195804  52.2313422  24.9618327
  40.4191840  53.0575326  24.0674041  42.2960364  45.4315297  37.2758887
  42.2636684  44.4931298  37.4618571  42.9060988  45.5099334  36.5424712
  34.1343695  44.3011350  23.3186091  35.0802800  44.1717559  23.3874509
  33.7557940  43.5626012  23.7955520  42.4454853  42.2226341  37.3217171
  41.9293901  41.4384798  37.1347099  43.3294801  41.8945058  37.4863690
  40.1065580  35.9667356  33.2812983  39.9090401  35.6582445  34.1656315
  40.7165285  36.6928995  33.4110913  48.1136914  46.4931304  36.4164924
  48.8440302  46.2316592  36.9772628  47.5043859  45.7560026  36.4566992
  46.1952211  44.6339167  37.0139375  45.4685375  44.4995132  36.4055867
  45.7799498  44.9415995  37.8196093  34.0182388  48.3529097  44.7786748
  34.9385397  48.5307696  44.9726795  33.9831971  47.4085142  44.6266448
  32.3186612  42.2261327  23.2540977  31.4118068  41.9294440  23.3303690
  32.5962593  41.9291145  22.3875263  23.2364553  43.5467690  33.7040023
  22.9167337  42.6932998  33.4114397  22.6897981  43.7616268  34.4597990
  27.0144460  46.2630131  37.4209530  27.2330470  47.1947239  37.4397563
  27.4270234  45.9038106  38.2064333  33.9348678  36.7698217  29.4085218
  33.1249406  36.4245302  29.7840464  34.6233095  36.4605760  29.9972830
  35.8639226  35.8476263  31.0309515  36.4170265  36.2671717  31.6899538
  36.1009312  34.9212011  31.0732471  31.8872325  41.8363337  46.8112279
  31.7869052  42.7857694  46.7424370  31.6693867  41.5081576  45.9388349
  31.0885397  39.0848262  23.3952956  31.9504561  39.4103160  23.6548773
  31.2735741  38.2979758  22.8826022  23.1052813  47.1670602  35.6733145
  22.4116284  46.7524555  35.1603099  23.8525804  47.2091138  35.0766564
  39.2418033  37.9576788  30.5388179  38.6616702  38.6161593  30.1566231
  38.9753966  37.1354133  30.1275596  37.6921600  37.3581846  32.7409499
  38.1921378  37.4698381  31.9323818  38.3357208  37.0542899  33.3810308
  31.7503595  45.2660476  45.6277340  31.2670677  46.0660836  45.8341229
  31.8364534  45.2768421  44.6744784  25.0189555  47.0988855  33.5499160
  24.9960243  47.1976543  32.5981043  25.3290192  47.9454006  33.8716326
  27.6776933  49.1565011  37.6645774  28.6320186  49.1248953  37.5975706
  27.4789456  48.6955634  38.4796000  28.2676315  47.7266127  40.2316572
  29.0869204  48.2210205  40.2551409  28.5413123  46.8098095  40.2034139
  38.0242911  40.1176879  29.5944527  37.1368766  40.4026529  29.3764722
  38.4396900  39.9570642  28.7471804  41.3757447  40.1423400  33.3098866
  42.1517837  40.6319852  33.5823483  40.6505582  40.5681454  33.7670736
  43.8130006  40.8551019  34.3672807  44.4074497  40.6146755  33.6566115
  43.8856590  40.1358150  34.9946343  26.0327162  54.6984630  34.6815972
  25.8981630  53.9385031  34.1153970  25.6159224  55.4225530  34.2144761
  37.1686125  49.8821554  23.6892547  37.8721975  50.0871556  24.3050203
  36.4448773  50.4498315  23.9541631  37.9983935  45.6331415  29.8094817
  37.9419136  46.0899966  28.9702450  38.5512277  44.8722099  29.6317660
  41.8088741  41.4221147  30.6344937  41.5525675  41.0217782  31.4653144
  41.1841609  42.1364941  30.5095076  46.1201079  44.1617220  33.1416228
  45.5600637  44.2310409  33.9147790  45.5144582  43.9858205  32.4215724
  29.1896288  55.5953947  34.8934414  29.0728672  56.5399380  34.7913105
  28.3688734  55.2927509  35.2820214  39.0772822  50.3204083  25.7391007
  39.9118426  49.8885281  25.5568482  38.9157165  50.1486096  26.6667902
  38.7318714  46.8236196  27.1047346  38.6767518  46.6580467  26.1635791
  38.1064770  47.5312229  27.2609536  23.5211229  42.0604260  40.9308769
  24.1670093  41.5503214  41.4195994  23.3128380  42.7972942  41.5052194
  36.0464621  49.1285108  46.4300909  36.9155781  49.3025760  46.0687544
  35.5671373  49.9479525  46.3076639  32.0414840  36.3244305  26.6832665
  32.0293510  37.2686145  26.8400936  32.9338262  36.1414450  26.3892126
  30.2150802  56.2482209  38.1090343  31.1178048  56.2805819  38.4256838
  29.9888172  55.3182660  38.1236679  31.9704404  55.0013195  34.7700422
  31.0200035  55.0015057  34.6564794  32.2736890  54.2545930  34.2536456
  35.8566959  32.9187082  30.9378602  35.0899355  32.3645568  31.0835284
  36.2677664  32.9908950  31.7992753  27.8608720  39.2071878  45.0283783
  28.7240182  38.8508682  45.2387107  27.2874131  38.8685772  45.7159187
  44.5146803  60.7901162  35.7707709  44.1765315  60.6742227  34.8828243
  45.3836572  60.3892327  35.7508715  40.3733619  62.6436638  31.7604600
  39.8098484  62.5526575  30.9920887  40.2586014  61.8236543  32.2407092
  37.9198051  64.1387830  34.5988820  38.7119343  63.7978655  34.1835119
  38.1594701  64.2482805  35.5190973  45.9533178  66.3107606  27.0719064
  45.3021158  66.8961686  26.6853078  46.7477541  66.8413801  27.1314102
  39.8788805  63.3996743  27.4706199  40.6519681  62.8525730  27.3319075
  40.2314204  64.2640993  27.6820660  42.6430054  62.1049974  37.2674458
  43.2393627  61.8805996  36.5531421  42.7005026  61.3634719  37.8699906
  42.2155083  59.5589409  25.1024649  42.4680604  59.0370931  24.3408112
  41.2779642  59.3955555  25.2051332  47.2598366  58.5625188  32.9099392
  48.0461455  58.1444611  32.5589809  47.5237070  59.4671280  33.0781040
  47.4308443  63.9998038  27.6088049  46.7954276  64.0732665  28.3208953
  47.1005849  64.5891637  26.9307128  41.9351372  61.4617515  27.3049024
  41.8187630  60.7862419  27.9730108  42.0453632  60.9749889  26.4881177
  44.2782913  60.9227662  31.0095713  43.9141120  60.3958283  31.7208634
  45.1350028  60.5326131  30.8362198  50.1832213  52.2121995  38.2726979
  49.8515538  53.0817406  38.0488194  49.5877827  51.8958279  38.9521009
  43.9188400  55.9517562  26.0057061  44.0862802  56.8197799  26.3727532
  43.7285569  56.1144844  25.0818351  40.1276214  60.8648338  33.7059596
  39.2026711  60.7324552  33.9137288  40.3760627  61.6442557  34.2029539
  43.8977620  58.4075220  26.9903728  43.7777246  58.8532270  27.8289209
  43.2030209  58.7560537  26.4317266  37.4885025  60.5081611  34.5403385
  37.6177406  60.7616090  35.4542797  36.8082477  61.1009319  34.2208040
  41.6584513  71.1778861  30.6393859  41.5808542  72.1286686  30.7182340
  41.0546156  70.8324734  31.2968786  49.5962687  58.8796693  27.8184062
  50.5080543  59.1124080  27.6431760  49.0872334  59.4633737  27.2559141
  44.2334524  58.2393927  38.8278912  45.0795719  58.6633341  38.9713561
  44.1733162  57.5827552  39.5217475  46.9398661  55.0554729  36.0673923
  46.0783140  55.3535982  36.3590661  46.9661096  55.2725128  35.1354956
  43.7560231  63.5996919  32.4747729  44.2198576  63.8784622  31.6852351
  43.4917029  62.6980364  32.2920820  40.6484312  63.1468401  35.4127492
  41.2185669  63.5755669  34.7744977  41.2392424  62.8650986  36.1111678
  42.6929117  59.7220072  29.2837294  43.3953160  60.1741115  29.7511220
  42.3609745  59.0803891  29.9117187  36.4354451  57.9803624  34.5854428
  35.6453505  58.2361153  34.1094538  36.9265698  58.7951962  34.6906468
  38.3869196  58.3448204  31.5437904  37.5900359  58.4566898  32.0621400
  38.1594788  58.6834856  30.6778795  44.2174864  64.8692907  39.4920419
  44.2819296  65.3313314  40.3278591  43.5085788  64.2390272  39.6202729
  34.7192154  58.2334115  37.0169418  34.9700192  59.1181125  37.2826994
  35.2551702  58.0538716  36.2444510  43.9322881  66.5361014  29.3599399
  43.7968556  67.3812550  29.7884247  44.4732694  66.7380292  28.5965333
  37.3852279  64.0536452  29.9327324  37.8976799  64.8479703  30.0832889
  38.0374992  63.3562743  29.8660926  39.1947164  67.1702209  32.0150077
  39.3713792  68.0920173  31.8271061  39.9903997  66.8560628  32.4444457
  40.3178479  68.6880382  38.0160420  40.8685904  68.5597446  37.2437414
  39.4789955  68.9875271  37.6655313  47.6572596  67.4387381  41.5181143
  47.6391071  68.2596262  41.0261412  48.5792516  67.3141456  41.7431284
  47.2815345  50.0591576  37.8898293  46.9379614  50.9493218  37.8137403
  47.6494308  49.8693234  37.0267878  35.3501196  62.3825107  30.7086895
  36.1876418  62.7922115  30.4920603  35.5279463  61.4424549  30.6787089
  47.2465628  60.0500187  26.3970728  46.7312251  60.8204792  26.6359115
  46.9742936  59.3765323  27.0203789  44.8312739  54.8949888  31.4555966
  43.9754335  54.5056738  31.2761605  45.2439691  54.9741849  30.5955752
  46.3611885  52.4296231  35.8547526  45.8576681  52.3926367  35.0415331
  46.6542492  53.3388974  35.9144183  42.6054771  52.5134961  34.8613708
  43.4707768  52.3177770  34.5019597  42.6732280  52.2845313  35.7883064
  47.0351931  57.9227279  28.2230509  46.7302066  58.2373429  29.0740652
  47.9882373  58.0008699  28.2657842  45.4798363  64.0817503  29.8723463
  44.9519724  63.3470262  29.5596700  44.9785865  64.8592179  29.6263431
  40.2117090  54.7437169  32.2330074  40.7860842  54.5212350  31.5003267
  40.7988073  54.8125864  32.9858676  40.5386677  56.7741630  26.2525960
  39.7023990  57.1116317  26.5735234  40.3991447  56.6390610  25.3153097
  42.5139758  51.6178418  30.9605144  41.8604170  51.3027435  30.3361759
  42.4720232  50.9954158  31.6864967  43.6250963  61.8997713  22.8758436
  42.7178025  61.6686966  23.0749585  44.1221995  61.1035332  23.0632418
  46.5319042  70.6095220  25.7955122  45.8580741  70.9126917  26.4040080
  46.9184864  71.4124301  25.4460579  45.7477498  58.1060351  35.2852792
  44.8300060  58.3275298  35.1274480  46.1637642  58.1806662  34.4264499
  46.5312546  59.5051767  30.4155472  47.2784365  60.0173164  30.1062594
  46.8004136  59.1835820  31.2759865  44.8039196  62.0010308  27.3982426
  43.8950416  61.7169341  27.4954896  44.8334280  62.4209386  26.5385733
  48.4791403  67.4493394  32.1023412  48.7714377  68.0098451  31.3835777
  48.9890024  67.7421955  32.8576571  49.0803011  49.3185135  32.9916030
  49.3861887  48.4582499  32.7041945  49.8055615  49.9102756  32.7915024
  35.3727367  59.7215822  31.3797628  35.1751767  59.1285183  30.6548695
  34.8174031  59.4168032  32.0973567  43.3524090  59.6138928  33.4992221
  43.4072700  58.6612765  33.4234698  42.5415292  59.7698368  33.9833520
  44.5015284  63.5419052  24.7370505  44.0634714  62.8254910  24.2776142
  45.2425725  63.7695166  24.1755596  41.2916450  58.2315988  31.2582600
  40.4784316  58.5310159  31.6647792  41.7875444  57.8371677  31.9757083
  43.4425028  68.2273745  33.1916865  43.4001207  68.4534591  32.2625397
  44.3587727  67.9937120  33.3402666  40.7830525  55.8034344  36.8743835
  41.4229904  55.6623103  36.1766799  39.9508056  55.5168857  36.4982437
  41.5590829  65.1036774  32.9878828  42.3531427  64.6087094  32.7861403
  40.8482521  64.5754637  32.6246533  46.3785673  67.4854870  37.3391195
  46.4322696  68.0545806  38.1068911  45.5100455  67.6556755  36.9745232
  37.8673592  59.2479856  29.0638580  36.9371181  59.1864311  29.2808543
  37.9631064  58.7255809  28.2675222  37.7859141  55.7734669  31.6516822
  38.0465959  56.6880002  31.5425983  38.6076314  55.3059111  31.8013435
  39.2584067  57.1872426  38.8215647  39.9307120  56.9789788  38.1728295
  38.4313853  56.9894512  38.3820879  44.1362105  65.6765796  36.6676665
  43.9973191  65.3084581  37.5402603  43.3476701  66.1913436  36.4960623
  44.7310257  70.7774893  28.0102201  44.9062013  70.3062936  28.8247824
  44.0443045  71.4040659  28.2383462  45.6867320  65.0547399  34.0565503
  45.3517153  65.0148169  34.9523152  45.1871266  64.3892115  33.5835913
  39.6611564  60.4615029  39.5818084  39.5231362  59.7295268  40.1829623
  40.5716488  60.3723929  39.3002271  48.6226512  62.4003433  24.3302562
  48.0055682  61.6750261  24.2335615  48.1543000  63.1612793  23.9869637
  42.2893865  60.1734988  39.0701763  42.9993483  59.5328180  39.0288382
  42.2463173  60.4247883  39.9927944  50.2780643  67.1102342  41.9908343
  50.2193190  66.4261562  41.3238926  50.6800162  67.8521332  41.5388969
  39.2971342  73.9264255  34.7842061  39.5367940  74.5582780  35.4621080
  38.4540539  73.5752295  35.0707421  40.4125058  56.6188857  23.4523867
  39.5354524  56.4977658  23.0886113  40.8882811  55.8274936  23.2002755
  31.9327198  61.4066017  33.5465374  32.6198238  61.0927747  32.9586389
  31.7775326  62.3107382  33.2732625  36.7361920  56.2956214  37.9750397
  36.6520109  55.6881883  37.2400807  35.9144626  56.7865232  37.9759894
  43.8099204  69.7343378  37.1883565  43.7369376  70.5398349  37.7002870
  43.3676597  69.9335344  36.3631587  43.5988984  68.9715148  30.6986387
  42.8156506  69.5136828  30.7924612  44.2981729  69.4889127  31.0980628
  46.9085634  54.7809777  33.3420592  47.4054333  54.0279740  33.0221663
  46.1372615  54.8174094  32.7763802  46.2697888  69.6330212  39.3441724
  46.9825860  70.2677677  39.2717626  45.7787916  69.7294078  38.5281726
  43.4920603  56.9227160  33.0692277  43.1218390  56.3698201  33.7573183
  43.9879695  56.3185294  32.5167277  41.3209801  67.3824655  40.1647295
  42.0219261  68.0161138  40.3176689  40.8504916  67.7239387  39.4042934
  49.4464197  65.7242605  28.4495202  49.7224041  65.6099200  29.3589076
  48.5768696  65.3260090  28.4107375  49.3504629  51.7479371  35.4899951
  48.4367708  51.9783598  35.6582158  49.7797730  51.8317815  36.3413984
  46.0818261  69.9728956  32.0928016  46.2640656  69.1550612  32.5555768
  46.9051247  70.1896648  31.6552906  46.4160426  68.8997141  29.3543064
  46.9448193  68.3889596  28.7413226  46.6788646  68.5839671  30.2188597
  36.9177519  66.9161010  37.0978398  37.5030956  66.1704698  37.2306302
  36.7202358  67.2264967  37.9815062  39.7716174  69.9512258  32.1140840
  39.1026550  70.4358385  31.6304880  39.6329044  70.1981478  33.0284219
  31.5095174  59.4866611  35.8182841  31.5479273  58.9530201  36.6119959
  31.0035467  58.9601816  35.1993818  43.9121443  71.9856001  38.7123498
  44.4639751  72.1487623  39.4772584  44.2527636  72.5760439  38.0403523
  38.8885936  54.3331151  39.3145383  38.9527263  55.1945982  38.9022781
  38.8253056  53.7205153  38.5817742  48.7632317  66.8117259  44.5672153
  49.3072221  67.4247217  44.0727108  48.1819162  67.3696837  45.0839166
  35.1403752  58.2130713  28.8936772  35.4357193  57.3041391  28.8403826
  34.2391787  58.1918452  28.5717775  47.0489830  69.9337977  35.6987181
  46.9240970  69.1327717  35.1898126  47.7068921  70.4284170  35.2101151
  38.6697999  56.2886709  34.8764321  37.9484584  56.9022677  34.7371794
  39.4591254  56.8244474  34.7980967  41.4724312  53.6241136  41.1504973
  41.9958714  53.8703432  41.9131282  41.2536645  54.4561171  40.7308110
  36.8691593  55.8944810  29.0176097  36.5404299  55.0142189  28.8351203
  37.2230964  55.8392479  29.9052487  46.1171172  67.5299713  33.5271083
  45.9696134  66.6016420  33.7078653  46.9424665  67.5519804  33.0428158
  39.9833416  56.1817780  29.3851575  40.3229489  56.7103701  28.6630183
  40.4305537  56.5198186  30.1610142  49.7205294  68.3528272  34.6135956
  50.6451841  68.1471133  34.4760407  49.5520597  68.1044673  35.5225297
  42.6776857  54.5654831  38.8354643  42.3373677  53.7662644  39.2375323
  41.9715863  54.8656542  38.2631476  43.3293329  51.6504143  37.2881966
  44.1519398  51.1764622  37.1660856  43.5731392  52.4294627  37.7880652
  41.9701563  54.6792402  27.5844868  42.6909926  55.0573655  27.0808585
  41.3466868  55.3981279  27.6879846  46.1132686  55.3837551  28.5203200
  46.3296301  56.2662189  28.2192028  45.6326753  54.9923764  27.7908842
  40.8531908  58.3423264  35.0973945  40.7076488  58.6563567  35.9898226
  40.3757111  58.9608164  34.5444843  42.7128291  55.3325812  35.1454834
  42.6989859  54.4366905  34.8087132  43.4300719  55.3396476  35.7793120
  44.5654421  55.7663152  37.1907962  44.3072199  56.6880223  37.1892292
  44.0339462  55.3693587  37.8808426  49.5100610  68.8713939  29.9698047
  49.6837488  68.3060362  29.2171900  50.0029501  69.6714834  29.7877537
  35.3277570  60.8828608  38.0361606  34.7831038  61.6588416  38.1681880
  36.2056920  61.2299413  37.8780727  42.1165186  54.2140192  30.4142404
  42.2381098  53.2856838  30.6133292  41.8267229  54.2278878  29.5020720
  44.9856377  51.8995103  33.5509124  45.0078074  51.9634436  32.5961104
  45.4024436  51.0599611  33.7449630  50.4975783  68.1880704  27.0694945
  51.1926687  68.8087396  27.2882260  50.8398933  67.3376055  27.3447323
  36.1143592  60.0098505  40.9291763  35.3725328  60.1581140  41.5156393
  35.7936336  60.2706770  40.0658512  52.3967206  65.6380409  28.5982276
  52.9218530  65.9767682  27.8731596  52.3089558  64.7027425  28.4145411
  44.0587254  69.5514483  40.7272153  44.3674381  69.3063630  41.5994852
  44.8562736  69.7561121  40.2391023  44.0807866  71.7052392  32.9577529
  43.6412857  71.2128771  33.6510386  44.8315983  71.1625360  32.7169605
  36.5600205  67.8963933  32.9602157  37.3858225  67.5967705  32.5800801
  36.2094257  67.1271556  33.4091946  41.5281739  67.2490402  35.0299831
  40.9061748  66.5861107  34.7302059  42.1986605  67.2751533  34.3473479
  34.7608810  65.8150260  33.9191091  33.9240719  65.3872434  33.7375092
  34.7332456  66.0082703  34.8561882  52.0861112  66.2713313  43.9033474
  51.2956655  66.2537452  43.3637973  51.8494466  66.8101607  44.6582511
  41.0895245  65.7994325  28.5058292  41.2383366  66.4829789  27.8524964
  41.8961689  65.7799415  29.0207747  38.8447878  61.8259503  29.5119360
  38.5993920  60.9221833  29.7099571  39.0143793  61.8276653  28.5698838
  46.5344588  52.6983179  38.8944116  47.0526532  53.4344206  38.5690605
  46.1799721  53.0047172  39.7290875  38.1143526  57.5587860  27.0105522
  37.4212771  57.6332215  26.3545558  37.8695278  56.7948204  27.5327039
  46.7857182  49.1183461  34.4145013  47.0658936  48.4506651  35.0405439
  47.5707789  49.3112557  33.9019676  44.5890651  68.2942455  25.9770039
  44.0164618  68.9132642  25.5240511  45.1623445  68.8441817  26.5109961
  48.6780420  54.6256679  38.3475989  48.0830352  54.9061691  37.6522477
  48.3930117  55.1150580  39.1192730  47.8087911  68.5779605  27.1078621
  48.7418584  68.5125167  27.3111497  47.7211124  69.4135872  26.6493154
  50.4375927  67.8945476  24.0682569  50.3589559  67.5605339  24.9618327
  51.2585594  68.3867244  24.0674041  44.9737449  59.6303268  23.3186091
  45.9196554  59.5009476  23.3874509  44.5951694  58.8917930  23.7955520
  50.9459334  51.2959274  33.2812983  50.7484155  50.9874362  34.1656315
  51.5559040  52.0220913  33.4110913  43.1580367  57.5553244  23.2540977
  42.2511822  57.2586357  23.3303690  43.4356348  57.2583063  22.3875263
  34.0758307  58.8759608  33.7040023  33.7561091  58.0224916  33.4114397
  33.5291735  59.0908186  34.4597990  37.8538215  61.5922049  37.4209530
  38.0724224  62.5239157  37.4397563  38.2663988  61.2330023  38.2064333
  44.7742432  52.0990134  29.4085218  43.9643161  51.7537219  29.7840464
  45.4626849  51.7897678  29.9972830  46.7032981  51.1768181  31.0309515
  47.2564019  51.5963634  31.6899538  46.9403067  50.2503929  31.0732471
  41.9279151  54.4140180  23.3952956  42.7898315  54.7395078  23.6548773
  42.1129495  53.6271676  22.8826022  33.9446567  62.4962519  35.6733145
  33.2510038  62.0816472  35.1603099  34.6919558  62.5383056  35.0766564
  50.0811788  53.2868706  30.5388179  49.5010457  53.9453510  30.1566231
  49.8147720  52.4646051  30.1275596  48.5315354  52.6873764  32.7409499
  49.0315132  52.7990298  31.9323818  49.1750962  52.3834817  33.3810308
  35.8583310  62.4280773  33.5499160  35.8353998  62.5268460  32.5981043
  36.1683946  63.2745924  33.8716326  38.5170687  64.4856928  37.6645774
  39.4713941  64.4540871  37.5975706  38.3183211  64.0247552  38.4796000
  39.1070070  63.0558044  40.2316572  39.9262959  63.5502123  40.2551409
  39.3806877  62.1390012  40.2034139  48.8636666  55.4468797  29.5944527
  47.9762521  55.7318447  29.3764722  49.2790655  55.2862560  28.7471804
  52.2151202  55.4715318  33.3098866  52.9911592  55.9611770  33.5823483
  51.4899336  55.8973372  33.7670736  36.8720916  70.0276548  34.6815972
  36.7375384  69.2676949  34.1153970  36.4552978  70.7517448  34.2144761
  48.0079879  65.2113471  23.6892547  48.7115729  65.4163474  24.3050203
  47.2842528  65.7790233  23.9541631  40.0290042  70.9245865  34.8934414
  39.9122426  71.8691297  34.7913105  39.2082488  70.6219426  35.2820214
  49.9166577  65.6496000  25.7391007  50.7512181  65.2177199  25.5568482
  49.7550920  65.4778014  26.6667902  49.5712469  62.1528114  27.1047346
  49.5161273  61.9872385  26.1635791  48.9458524  62.8604147  27.2609536
  34.3604984  57.3896178  40.9308769  35.0063847  56.8795132  41.4195994
  34.1522135  58.1264860  41.5052194  42.8808594  51.6536223  26.6832665
  42.8687264  52.5978063  26.8400936  43.7732016  51.4706368  26.3892126
  41.0544556  71.5774127  38.1090343  41.9571803  71.6097737  38.4256838
  40.8281926  70.6474578  38.1236679  42.8098158  70.3305113  34.7700422
  41.8593789  70.3306975  34.6564794  43.1130644  69.5837848  34.2536456
  46.6960714  48.2478999  30.9378602  45.9293110  47.6937486  31.0835284
  47.1071419  48.3200868  31.7992753  58.5450852  76.1665652  35.8346184
  59.1829262  76.0472399  35.1309524  58.4271695  77.1146495  35.8934136
  55.3540558  76.1193080  35.7707709  55.0159070  76.0034144  34.8828243
  56.2230326  75.7184245  35.7508715  51.2127374  77.9728556  31.7604600
  50.6492239  77.8818493  30.9920887  51.0979769  77.1528461  32.2407092
  55.8360341  77.2727931  41.7293914  55.8248982  76.8780730  40.8574418
  55.9980980  76.5394004  42.3227686  48.7591806  79.4679748  34.5988820
  49.5513098  79.1270572  34.1835119  48.9988456  79.5774723  35.5190973
  56.7926932  81.6399524  27.0719064  56.1414912  82.2253604  26.6853078
  57.5871295  82.1705719  27.1314102  50.7182560  78.7288661  27.4706199
  51.4913436  78.1817648  27.3319075  51.0707958  79.5932910  27.6820660
  52.5567602  80.0565043  40.6773098  52.2657468  80.9610674  40.5619764
  53.1924586  80.0981571  41.3917168  53.4823809  77.4341892  37.2674458
  54.0787381  77.2097914  36.5531421  53.5398780  76.6926637  37.8699906
  53.0548837  74.8881327  25.1024649  53.3074358  74.3662848  24.3408112
  52.1173396  74.7247472  25.2051332  58.0992120  73.8917105  32.9099392
  58.8855209  73.4736529  32.5589809  58.3630825  74.7963198  33.0781040
  58.2702198  79.3289956  27.6088049  57.6348031  79.4024582  28.3208953
  57.9399604  79.9183555  26.9307128  52.7745126  76.7909433  27.3049024
  52.6581384  76.1154336  27.9730108  52.8847386  76.3041807  26.4881177
  55.1176667  76.2519580  31.0095713  54.7534874  75.7250201  31.7208634
  55.9743783  75.8618049  30.8362198  54.7582154  71.2809480  26.0057061
  54.9256556  72.1489716  26.3727532  54.5679323  71.4436761  25.0818351
  57.5157487  79.7426459  37.6722892  57.2158210  80.6451497  37.5638699
  57.1708547  79.4758642  38.5244045  50.9669969  76.1940256  33.7059596
  50.0420465  76.0616470  33.9137288  51.2154382  76.9734475  34.2029539
  54.7371375  73.7367137  26.9903728  54.6171000  74.1824188  27.8289209
  54.0423963  74.0852455  26.4317266  48.3278780  75.8373529  34.5403385
  48.4571161  76.0908008  35.4542797  47.6476231  76.4301237  34.2208040
  52.4978267  86.5070779  30.6393859  52.4202297  87.4578604  30.7182340
  51.8939911  86.1616652  31.2968786  54.9895497  73.6798644  43.2955226
  54.2128831  74.2392565  43.2858091  55.6286060  74.1655427  43.8170097
  60.4356441  74.2088610  27.8184062  61.3474297  74.4415997  27.6431760
  59.9266088  74.7925655  27.2559141  53.2441869  76.4884098  42.8573193
  53.9856553  77.0269142  42.5808017  52.5378855  77.1150387  43.0144745
  58.7197209  78.6313238  41.4545355  59.1280565  78.1895649  40.7099987
  57.9974470  78.0565866  41.7079548  55.0728279  73.5685845  38.8278912
  55.9189474  73.9925259  38.9713561  55.0126916  72.9119469  39.5217475
  59.0426023  79.1914429  35.2097644  58.4134886  79.3560143  34.5073712
  58.6551685  79.6056038  35.9808608  62.9215255  80.1268867  32.5642008
  62.2366293  80.5067768  32.0139041  63.0059105  80.7364193  33.2973955
  58.2227724  71.2290213  40.4860085  57.9788656  71.9832274  39.9494361
  58.4987655  71.6075561  41.3207333  60.1766187  77.7728826  39.1637351
  60.3883082  78.4160586  38.4871732  60.1295935  76.9391142  38.6959281
  57.7792416  70.3846646  36.0673923  56.9176895  70.6827900  36.3590661
  57.8054850  70.6017045  35.1354956  54.5953985  78.9288837  32.4747729
  55.0592331  79.2076540  31.6852351  54.3310783  78.0272282  32.2920820
  51.4878066  78.4760319  35.4127492  52.0579423  78.9047587  34.7744977
  52.0786178  78.1942903  36.1111678  53.5322871  75.0511989  29.2837294
  54.2346915  75.5033033  29.7511220  53.2003500  74.4095808  29.9117187
  51.9803233  73.6423746  43.6588503  51.3501893  74.3240027  43.8923900
  51.8739321  73.5306828  42.7141642  47.2748205  73.3095542  34.5854428
  46.4847259  73.5653071  34.1094538  47.7659453  74.1243880  34.6906468
  61.2912015  80.6500781  37.3359708  62.1129459  80.2480968  37.0542390
  61.2874418  80.5469015  38.2875824  49.2262951  73.6740121  31.5437904
  48.4294114  73.7858816  32.0621400  48.9988543  74.0126773  30.6778795
  55.0568618  80.1984824  39.4920419  55.1213051  80.6605232  40.3278591
  54.3479542  79.5682189  39.6202729  45.5585908  73.5626032  37.0169418
  45.8093947  74.4473042  37.2826994  46.0945457  73.3830634  36.2444510
  69.3818008  76.9939530  33.6844680  68.6281716  76.4246928  33.5288684
  69.5165549  76.9602194  34.6315315  54.7716636  81.8652932  29.3599399
  54.6362311  82.7104468  29.7884247  55.3126448  82.0672210  28.5965333
  51.2583976  67.9444512  46.0213754  50.8650921  67.3910710  46.6961399
  52.0750116  68.2555090  46.4120272  48.2246033  79.3828370  29.9327324
  48.7370554  80.1771620  30.0832889  48.8768746  78.6854660  29.8660926
  50.0340918  82.4994126  32.0150077  50.2107546  83.4212091  31.8271061
  50.8297752  82.1852546  32.4444457  54.1751937  69.3602391  43.6134011
  54.9161650  69.9609544  43.5338473  54.4069859  68.6180029  43.0552054
  49.3193275  74.5458758  41.8912241  49.2046790  73.6444015  42.1919340
  48.4637792  74.7922455  41.5397057  56.3985112  82.4876498  43.4899741
  55.9548966  81.7012877  43.1720646  57.0602326  82.6755649  42.8243632
  51.1572233  84.0172300  38.0160420  51.7079659  83.8889363  37.2437414
  50.3183709  84.3167189  37.6655313  58.4966350  82.7679298  41.5181143
  58.4784826  83.5888179  41.0261412  59.4186270  82.6433374  41.7431284
  54.9539405  80.2823428  42.3604651  55.4867741  79.5211716  42.1303959
  54.4253486  79.9897080  43.1028805  46.1894950  77.7117024  30.7086895
  47.0270172  78.1214033  30.4920603  46.3673218  76.7716466  30.6787089
  58.0859382  75.3792105  26.3970728  57.5706006  76.1496710  26.6359115
  57.8136691  74.7057241  27.0203789  55.6706493  70.2241806  31.4555966
  54.8148090  69.8348656  31.2761605  56.0833445  70.3033767  30.5955752
  57.2005640  67.7588149  35.8547526  56.6970435  67.7218284  35.0415331
  57.4936247  68.6680892  35.9144183  53.4448526  67.8426879  34.8613708
  54.3101523  67.6469687  34.5019597  53.5126035  67.6137231  35.7883064
  63.0593656  78.1324460  28.3323901  62.2823099  77.7935619  27.8879063
  63.7385137  78.1377083  27.6578866  57.8745685  73.2519197  28.2230509
  57.5695821  73.5665346  29.0740652  58.8276127  73.3300617  28.2657842
  56.3192117  79.4109420  29.8723463  55.7913479  78.6762180  29.5596700
  55.8179620  80.1884097  29.6263431  61.2984963  77.6058441  34.9890509
  60.6408638  78.2957702  35.0770638  62.1025362  77.9954873  35.3324496
  51.0510845  70.0729087  32.2330074  51.6254597  69.8504268  31.5003267
  51.6381827  70.1417781  32.9858676  60.1090422  75.9602814  33.0394451
  60.6222304  76.5932805  33.5416161  60.7591646  75.3604009  32.6737811
  51.3780432  72.1033548  26.2525960  50.5417744  72.4408234  26.5735234
  51.2385202  71.9682527  25.3153097  53.3533513  66.9470336  30.9605144
  52.6997925  66.6319353  30.3361759  53.3113987  66.3246076  31.6864967
  54.4644717  77.2289631  22.8758436  53.5571779  76.9978884  23.0749585
  54.9615749  76.4327250  23.0632418  57.3712796  85.9387138  25.7955122
  56.6974495  86.2418835  26.4040080  57.7578618  86.7416218  25.4460579
  56.5871253  73.4352269  35.2852792  55.6693814  73.6567216  35.1274480
  57.0031397  73.5098580  34.4264499  57.3706301  74.8343685  30.4155472
  58.1178120  75.3465082  30.1062594  57.6397890  74.5127738  31.2759865
  55.6432951  77.3302226  27.3982426  54.7344170  77.0461258  27.4954896
  55.6728035  77.7501304  26.5385733  60.8752218  80.9408815  31.1673594
  60.4214545  80.0999725  31.2238784  60.2446185  81.5770213  31.5048374
  59.3185157  82.7785312  32.1023412  59.6108132  83.3390369  31.3835777
  59.8283778  83.0713873  32.8576571  46.2121121  75.0507740  31.3797628
  46.0145521  74.4577100  30.6548695  45.6567785  74.7459950  32.0973567
  54.1917845  74.9430846  33.4992221  54.2466455  73.9904683  33.4234698
  53.3809047  75.0990285  33.9833520  55.3409039  78.8710969  24.7370505
  54.9028469  78.1546828  24.2776142  56.0819480  79.0987084  24.1755596
  52.1310205  73.5607906  31.2582600  51.3178070  73.8602076  31.6647792
  52.6269199  73.1663595  31.9757083  54.2818783  83.5565663  33.1916865
  54.2394961  83.7826509  32.2625397  55.1981482  83.3229037  33.3402666
  57.7284416  74.0249730  40.0897494  58.0833804  74.2521203  40.9491960
  58.3756548  74.3568107  39.4674749  63.4582153  77.1468166  30.7946823
  63.3200052  77.3369762  29.8668012  63.1018372  77.9087549  31.2514874
  51.6224280  71.1326261  36.8743835  52.2623659  70.9915020  36.1766799
  50.7901810  70.8460775  36.4982437  63.4851533  79.2144693  35.8058095
  63.9188040  79.1219982  36.6541149  64.1983114  79.1902194  35.1678111
  52.3984583  80.4328692  32.9878828  53.1925182  79.9379012  32.7861403
  51.6876276  79.9046555  32.6246533  57.2179428  82.8146787  37.3391195
  57.2716450  83.3837724  38.1068911  56.3494209  82.9848672  36.9745232
  48.7067347  74.5771774  29.0638580  47.7764935  74.5156229  29.2808543
  48.8024819  74.0547726  28.2675222  48.6252896  71.1026586  31.6516822
  48.8859713  72.0171920  31.5425983  49.4470068  70.6351029  31.8013435
  50.0977821  72.5164344  38.8215647  50.7700875  72.3081706  38.1728295
  49.2707608  72.3186430  38.3820879  64.3467083  79.2568394  38.3390980
  64.5402973  80.1614204  38.5850255  64.2467701  78.7975813  39.1729565
  56.0003393  69.1426284  40.8381307  55.3531308  69.8416234  40.7445784
  56.7704409  69.5762428  41.2057556  59.4082191  79.4075137  43.9131861
  59.2567698  79.1785688  42.9961944  59.3986871  80.3645738  43.9263206
  56.1767528  76.9807049  38.8978127  57.1059588  77.1318209  38.7247094
  55.7558558  77.0691070  38.0426774  54.9755859  81.0057714  36.6676665
  54.8366945  80.6376498  37.5402603  54.1870456  81.5205353  36.4960623
  55.5704011  86.1066810  28.0102201  55.7455767  85.6354853  28.8247824
  54.8836799  86.7332576  28.2383462  56.5261075  80.3839316  34.0565503
  56.1910907  80.3440086  34.9523152  56.0265020  79.7184032  33.5835913
  50.5005319  75.7906947  39.5818084  50.3625117  75.0587185  40.1829623
  51.4110242  75.7015847  39.3002271  59.4620266  77.7295351  24.3302562
  58.8449437  77.0042179  24.2335615  58.9936755  78.4904711  23.9869637
  53.1287619  75.5026906  39.0701763  53.8387238  74.8620098  39.0288382
  53.0856927  75.7539801  39.9927944  61.1174398  82.4394259  41.9908343
  61.0586944  81.7553479  41.3238926  61.5193916  83.1813249  41.5388969
  51.8416553  72.4892124  40.8897403  51.3053910  72.0382862  41.5418999
  51.2533262  72.6238033  40.1467867  50.1365097  89.2556173  34.7842061
  50.3761695  89.8874697  35.4621080  49.2934293  88.9044213  35.0707421
  51.2518812  71.9480775  23.4523867  50.3748278  71.8269576  23.0886113
  51.7276565  71.1566853  23.2002755  61.1191805  80.4033843  40.2222322
  60.2318584  80.0659765  40.3448721  61.6890356  79.6716874  40.4591088
  42.7720952  76.7357935  33.5465374  43.4591992  76.4219665  32.9586389
  42.6169081  77.6399300  33.2732625  47.5755674  71.6248131  37.9750397
  47.4913863  71.0173801  37.2400807  46.7538381  72.1157150  37.9759894
  54.6492959  85.0635295  37.1883565  54.5763130  85.8690267  37.7002870
  54.2070352  85.2627261  36.3631587  54.4382738  84.3007065  30.6986387
  53.6550260  84.8428746  30.7924612  55.1375483  84.8181045  31.0980628
  65.6009146  75.8142060  34.9838884  65.5899022  76.6966776  34.6132817
  64.7326525  75.4613611  34.7893421  57.1091642  84.9622130  39.3441724
  57.8219614  85.5969594  39.2717626  56.6181671  85.0585995  38.5281726
  58.8309169  78.8673382  30.9159016  57.8965448  78.9874845  30.7463720
  59.0085837  77.9645849  30.6519026  54.3314357  72.2519078  33.0692277
  53.9612145  71.6990118  33.7573183  54.8273450  71.6477211  32.5167277
  62.2181720  74.7090701  31.4509050  62.6842173  75.5418693  31.3769353
  62.6689221  74.2435683  32.1554308  52.1603556  82.7116573  40.1647295
  52.8613015  83.3453056  40.3176689  51.6898671  83.0531305  39.4042934
  60.2857951  81.0534523  28.4495202  60.5617795  80.9391117  29.3589076
  59.4162450  80.6552008  28.4107375  59.9604842  75.2661180  37.9899845
  59.3076292  75.5137088  37.3352298  60.3385221  74.4525319  37.6562323
  56.9212015  85.3020874  32.0928016  57.1034410  84.4842530  32.5555768
  57.7445001  85.5188566  31.6552906  57.2554181  84.2289059  29.3543064
  57.7841947  83.7181513  28.7413226  57.5182401  83.9131589  30.2188597
  56.0092415  76.0080991  44.4765882  55.3333052  75.9075121  45.1468258
  56.8320049  75.8520205  44.9401880  47.7571274  82.2452928  37.0978398
  48.3424711  81.4996616  37.2306302  47.5596112  82.5556885  37.9815062
  50.6109929  85.2804175  32.1140840  49.9420304  85.7650303  31.6304880
  50.4722799  85.5273396  33.0284219  42.3488928  74.8158528  35.8182841
  42.3873028  74.2822119  36.6119959  41.8429221  74.2893734  35.1993818
  54.7515198  87.3147919  38.7123498  55.3033506  87.4779540  39.4772584
  55.0921391  87.9052357  38.0403523  49.7279691  69.6623069  39.3145383
  49.7921017  70.5237900  38.9022781  49.6646811  69.0497070  38.5817742
  49.2031963  71.7346201  42.9618417  49.8304002  71.3523279  43.5755942
  48.3459882  71.5160403  43.3274110  59.6026072  82.1409176  44.5672153
  60.1465976  82.7539135  44.0727108  59.0212917  82.6988755  45.0839166
  45.9797506  73.5422630  28.8936772  46.2750947  72.6333309  28.8403826
  45.0785542  73.5210370  28.5717775  57.8883585  85.2629894  35.6987181
  57.7634724  84.4619634  35.1898126  58.5462676  85.7576088  35.2101151
  49.5091753  71.6178627  34.8764321  48.7878339  72.2314595  34.7371794
  50.2985009  72.1536392  34.7980967  59.9518493  83.0638915  37.3266731
  59.0048829  82.9444266  37.2545057  60.3001266  82.1761413  37.4092992
  52.3118067  68.9533053  41.1504973  52.8352468  69.1995350  41.9131282
  52.0930400  69.7853088  40.7308110  47.7085348  71.2236728  29.0176097
  47.3798054  70.3434107  28.8351203  48.0624718  71.1684397  29.9052487
  56.9564926  82.8591631  33.5271083  56.8089889  81.9308338  33.7078653
  57.7818420  82.8811721  33.0428158  50.8227171  71.5109698  29.3851575
  51.1623243  72.0395619  28.6630183  51.2699291  71.8490104  30.1610142
  60.5599048  83.6820189  34.6135956  61.4845596  83.4763051  34.4760407
  60.3914352  83.4336591  35.5225297  53.5170612  69.8946749  38.8354643
  53.1767432  69.0954562  39.2375323  52.8109618  70.1948459  38.2631476
  54.1687083  66.9796061  37.2881966  54.9913153  66.5056539  37.1660856
  54.4125147  67.7586545  37.7880652  52.8095318  70.0084319  27.5844868
  53.5303680  70.3865572  27.0808585  52.1860622  70.7273196  27.6879846
  56.9526441  70.7129468  28.5203200  57.1690055  71.5954106  28.2192028
  56.4720508  70.3215682  27.7908842  51.6925662  73.6715182  35.0973945
  51.5470243  73.9855485  35.9898226  51.2150866  74.2900082  34.5444843
  53.5522045  70.6617730  35.1454834  53.5383614  69.7658823  34.8087132
  54.2694473  70.6688393  35.7793120  55.4048176  71.0955070  37.1907962
  55.1465954  72.0172140  37.1892292  54.8733216  70.6985504  37.8808426
  60.3494365  84.2005857  29.9698047  60.5231242  83.6352279  29.2171900
  60.8423256  85.0006752  29.7877537  46.1671324  76.2120526  38.0361606
  45.6224792  76.9880334  38.1681880  47.0450674  76.5591330  37.8780727
  52.9558941  69.5432110  30.4142404  53.0774852  68.6148756  30.6133292
  52.6660983  69.5570796  29.5020720  55.8250131  67.2287020  33.5509124
  55.8471828  67.2926353  32.5961104  56.2418190  66.3891529  33.7449630
  66.2033756  76.9642280  31.5888347  66.6464902  76.2149605  31.1907470
  65.3260266  76.9552416  31.2062079  61.3369537  83.5172621  27.0694945
  62.0320442  84.1379314  27.2882260  61.6792687  82.6667973  27.3447323
  46.9537346  75.3390422  40.9291763  46.2119082  75.4873058  41.5156393
  46.6330090  75.5998688  40.0658512  63.2360960  80.9672327  28.5982276
  63.7612284  81.3059600  27.8731596  63.1483313  80.0319342  28.4145411
  54.8981009  84.8806401  40.7272153  55.2068135  84.6355547  41.5994852
  55.6956491  85.0853039  40.2391023  54.9201621  87.0344310  32.9577529
  54.4806611  86.5420689  33.6510386  55.6709738  86.4917278  32.7169605
  47.3993960  83.2255851  32.9602157  48.2251980  82.9259623  32.5800801
  47.0488012  82.4563473  33.4091946  52.3675493  82.5782319  35.0299831
  51.7455502  81.9153024  34.7302059  53.0380360  82.6043451  34.3473479
  45.6002565  81.1442177  33.9191091  44.7634473  80.7164352  33.7375092
  45.5726210  81.3374621  34.8561882  52.4400021  71.0564107  44.6232337
  52.4888176  71.9326230  44.2410107  52.9822535  70.5141500  44.0503980
  62.9254866  81.6005231  43.9033474  62.1350410  81.5829369  43.3637973
  62.6888221  82.1393524  44.6582511  63.0452741  78.4497697  41.2166203
  63.0950746  78.2847704  42.1581725  62.9366665  77.5824956  40.8264083
  51.9289000  81.1286243  28.5058292  52.0777120  81.8121707  27.8524964
  52.7355443  81.1091333  29.0207747  60.3356504  74.4328625  42.5325509
  61.2366366  74.2935090  42.2409507  60.4104478  74.5983080  43.4723687
  54.6699309  71.8095480  41.3778696  53.8002618  72.1029046  41.1061284
  54.9058789  72.3935925  42.0985959  64.5470938  80.8694638  41.4608224
  64.2555746  81.2324619  42.2971685  63.9343069  80.1561647  41.2821556
  65.7466620  78.4347518  33.9810794  66.5813512  78.8737322  34.1448355
  65.8825749  77.9586171  33.1619040  62.7958126  75.9927253  39.9288282
  63.2712248  76.1854899  39.1207134  61.8723692  76.0486439  39.6831666
  49.6841633  77.1551420  29.5119360  49.4387675  76.2513750  29.7099571
  49.8537547  77.1568571  28.5698838  57.3738343  68.0275097  38.8944116
  57.8920287  68.7636124  38.5690605  57.0193476  68.3339090  39.7290875
  48.9537280  72.8879778  27.0105522  48.2606525  72.9624133  26.3545558
  48.7089032  72.1240121  27.5327039  55.4284405  83.6234373  25.9770039
  54.8558373  84.2424560  25.5240511  56.0017199  84.1733735  26.5109961
  58.6481665  83.9071523  27.1078621  59.5812338  83.8417085  27.3111497
  58.5604878  84.7427790  26.6493154  61.2769682  83.2237394  24.0682569
  61.1983313  82.8897257  24.9618327  62.0979349  83.7159161  24.0674041
  63.9747873  76.0899133  37.2758887  63.9424193  75.1515134  37.4618571
  64.5848497  76.1683170  36.5424712  55.8131204  74.9595186  23.3186091
  56.7590309  74.8301394  23.3874509  55.4345449  74.2209848  23.7955520
  69.7924423  77.1515140  36.4164924  70.5227811  76.8900428  36.9772628
  69.1831368  76.4143862  36.4566992  55.6969896  79.0112932  44.7786748
  56.6172906  79.1891531  44.9726795  55.6619480  78.0668977  44.6266448
  53.9974121  72.8845162  23.2540977  53.0905576  72.5878275  23.3303690
  54.2750102  72.5874980  22.3875263  44.9152061  74.2051526  33.7040023
  44.5954846  73.3516834  33.4114397  44.3685490  74.4200104  34.4597990
  48.6931969  76.9213967  37.4209530  48.9117979  77.8531074  37.4397563
  49.1057743  76.5621941  38.2064333  55.6136187  67.4282052  29.4085218
  54.8036915  67.0829137  29.7840464  56.3020604  67.1189596  29.9972830
  53.5659834  72.4947172  46.8112279  53.4656561  73.4441529  46.7424370
  53.3481376  72.1665411  45.9388349  52.7672906  69.7432097  23.3952956
  53.6292070  70.0686996  23.6548773  52.9523250  68.9563593  22.8826022
  44.7840321  77.8254437  35.6733145  44.0903793  77.4108390  35.1603099
  45.5313312  77.8674974  35.0766564  53.4291104  75.9244311  45.6277340
  52.9458186  76.7244671  45.8341229  53.5152043  75.9352256  44.6744784
  46.6977064  77.7572691  33.5499160  46.6747752  77.8560378  32.5981043
  47.0077701  78.6037842  33.8716326  49.3564442  79.8148846  37.6645774
  50.3107695  79.7832788  37.5975706  49.1576965  79.3539470  38.4796000
  49.9463824  78.3849962  40.2316572  50.7656713  78.8794041  40.2551409
  50.2200632  77.4681930  40.2034139  47.7114671  85.3568465  34.6815972
  47.5769139  84.5968866  34.1153970  47.2946733  86.0809365  34.2144761
  58.8473634  80.5405389  23.6892547  59.5509484  80.7455391  24.3050203
  58.1236282  81.1082151  23.9541631  59.6771444  76.2915250  29.8094817
  59.6206645  76.7483802  28.9702450  60.2299786  75.5305935  29.6317660
  50.8683797  86.2537782  34.8934414  50.7516181  87.1983215  34.7913105
  50.0476243  85.9511344  35.2820214  60.7560331  80.9787918  25.7391007
  61.5905935  80.5469117  25.5568482  60.5944674  80.8069932  26.6667902
  60.4106223  77.4820031  27.1047346  60.3555027  77.3164303  26.1635791
  59.7852279  78.1896064  27.2609536  45.1998738  72.7188096  40.9308769
  45.8457602  72.2087050  41.4195994  44.9915889  73.4556777  41.5052194
  57.7252130  79.7868943  46.4300909  58.5943290  79.9609596  46.0687544
  57.2458882  80.6063360  46.3076639  53.7202349  66.9828140  26.6832665
  53.7081019  67.9269980  26.8400936  54.6125771  66.7998286  26.3892126
  51.8938311  86.9066044  38.1090343  52.7965557  86.9389655  38.4256838
  51.6675681  85.9766495  38.1236679  53.6491913  85.6597031  34.7700422
  52.6987544  85.6598892  34.6564794  53.9524399  84.9129765  34.2536456
  49.5396229  69.8655713  45.0283783  50.4027691  69.5092518  45.2387107
  48.9661640  69.5269608  45.7159187  69.3844606  91.4957569  35.8346184
  70.0223016  91.3764317  35.1309524  69.2665449  92.4438413  35.8934136
  66.1934312  91.4484997  35.7707709  65.8552824  91.3326062  34.8828243
  67.0624081  91.0476162  35.7508715  62.0521128  93.3020474  31.7604600
  61.4885993  93.2110411  30.9920887  61.9373523  92.4820378  32.2407092
  66.6754095  92.6019849  41.7293914  66.6642736  92.2072647  40.8574418
  66.8374735  91.8685922  42.3227686  59.5985560  94.7971665  34.5988820
  60.3906852  94.4562490  34.1835119  59.8382210  94.9066640  35.5190973
  67.6320687  96.9691441  27.0719064  66.9808667  97.5545522  26.6853078
  68.4265050  97.4997636  27.1314102  61.5576314  94.0580579  27.4706199
  62.3307190  93.5109566  27.3319075  61.9101713  94.9224828  27.6820660
  63.3961357  95.3856961  40.6773098  63.1051223  96.2902592  40.5619764
  64.0318341  95.4273488  41.3917168  64.3217563  92.7633809  37.2674458
  64.9181136  92.5389832  36.5531421  64.3792535  92.0218555  37.8699906
  63.8942592  90.2173245  25.1024649  64.1468113  89.6954766  24.3408112
  62.9567151  90.0539390  25.2051332  68.9385875  89.2209023  32.9099392
  69.7248964  88.8028446  32.5589809  69.2024579  90.1255115  33.0781040
  69.1095952  94.6581873  27.6088049  68.4741785  94.7316500  28.3208953
  68.7793358  95.2475472  26.9307128  74.3394302  89.1584256  33.8132370
  75.0719474  88.5883473  34.0470200  73.5833658  88.7705857  34.2538876
  63.6138881  92.1201351  27.3049024  63.4975139  91.4446254  27.9730108
  63.7241140  91.6333725  26.4881177  65.9570422  91.5811498  31.0095713
  65.5928629  91.0542119  31.7208634  66.8137537  91.1909967  30.8362198
  71.8619722  82.8705830  38.2726979  71.5303047  83.7401241  38.0488194
  71.2665336  82.5542114  38.9521009  65.5975909  86.6101397  26.0057061
  65.7650311  87.4781634  26.3727532  65.4073078  86.7728679  25.0818351
  68.3551242  95.0718376  37.6722892  68.0551965  95.9743415  37.5638699
  68.0102301  94.8050560  38.5244045  61.8063723  91.5232173  33.7059596
  60.8814220  91.3908387  33.9137288  62.0548136  92.3026392  34.2029539
  71.7548385  87.5900917  35.3520329  70.8465263  87.5216325  35.0579090
  71.7035981  88.0672861  36.1802155  65.5765129  89.0659055  26.9903728
  65.4564755  89.5116106  27.8289209  64.8817718  89.4144373  26.4317266
  59.1672534  91.1665447  34.5403385  59.2964915  91.4199926  35.4542797
  58.4869986  91.7593155  34.2208040  63.3372021 101.8362697  30.6393859
  63.2596051 102.7870522  30.7182340  62.7333665 101.4908569  31.2968786
  65.8289251  89.0090562  43.2955226  65.0522585  89.5684482  43.2858091
  66.4679814  89.4947345  43.8170097  73.6210032  85.7917355  37.1298203
  72.9784412  86.0849888  36.4837998  73.1164960  85.6770275  37.9351400
  71.2750196  89.5380528  27.8184062  72.1868052  89.7707915  27.6431760
  70.7659843  90.1217572  27.2559141  64.0835624  91.8176015  42.8573193
  64.8250308  92.3561059  42.5808017  63.3772609  92.4442304  43.0144745
  69.5590963  93.9605156  41.4545355  69.9674319  93.5187566  40.7099987
  68.8368225  93.3857783  41.7079548  65.9122033  88.8977763  38.8278912
  66.7583228  89.3217176  38.9713561  65.8520671  88.2411387  39.5217475
  69.8819778  94.5206347  35.2097644  69.2528640  94.6852061  34.5073712
  69.4945440  94.9347956  35.9808608  73.7609010  95.4560784  32.5642008
  73.0760048  95.8359686  32.0139041  73.8452859  96.0656111  33.2973955
  69.0621479  86.5582131  40.4860085  68.8182410  87.3124192  39.9494361
  69.3381409  86.9367479  41.3207333  71.0159941  93.1020743  39.1637351
  71.2276837  93.7452503  38.4871732  70.9689690  92.2683060  38.6959281
  68.6186170  85.7138564  36.0673923  67.7570649  86.0119818  36.3590661
  68.6448605  85.9308963  35.1354956  65.4347740  94.2580755  32.4747729
  65.8986085  94.5368458  31.6852351  65.1704538  93.3564199  32.2920820
  62.3271821  93.8052236  35.4127492  62.8973178  94.2339505  34.7744977
  62.9179933  93.5234821  36.1111678  64.3716626  90.3803907  29.2837294
  65.0740669  90.8324951  29.7511220  64.0397254  89.7387726  29.9117187
  62.8196987  88.9715664  43.6588503  62.1895648  89.6531945  43.8923900
  62.7133075  88.8598745  42.7141642  58.1141960  88.6387460  34.5854428
  57.3241014  88.8944988  34.1094538  58.6053207  89.4535798  34.6906468
  72.1305769  95.9792699  37.3359708  72.9523213  95.5772886  37.0542390
  72.1268172  95.8760933  38.2875824  60.0656705  89.0032039  31.5437904
  59.2687868  89.1150733  32.0621400  59.8382297  89.3418691  30.6778795
  65.8962373  95.5276742  39.4920419  65.9606805  95.9897149  40.3278591
  65.1873297  94.8974107  39.6202729  56.3979663  88.8917950  37.0169418
  56.6487701  89.7764960  37.2826994  56.9339211  88.7122552  36.2444510
  80.2211762  92.3231447  33.6844680  79.4675471  91.7538845  33.5288684
  80.3559304  92.2894112  34.6315315  65.6110390  97.1944850  29.3599399
  65.4756065  98.0396385  29.7884247  66.1520203  97.3964127  28.5965333
  62.0977730  83.2736430  46.0213754  61.7044676  82.7202628  46.6961399
  62.9143870  83.5847008  46.4120272  59.0639788  94.7120288  29.9327324
  59.5764308  95.5063538  30.0832889  59.7162501  94.0146578  29.8660926
  60.8734672  97.8286044  32.0150077  61.0501301  98.7504009  31.8271061
  61.6691506  97.5144463  32.4444457  65.0145691  84.6894309  43.6134011
  65.7555404  85.2901462  43.5338473  65.2463614  83.9471946  43.0552054
  60.1587029  89.8750676  41.8912241  60.0440544  88.9735933  42.1919340
  59.3031547  90.1214373  41.5397057  67.2378867  97.8168416  43.4899741
  66.7942721  97.0304795  43.1720646  67.8996080  98.0047567  42.8243632
  61.9965988  99.3464218  38.0160420  62.5473413  99.2181281  37.2437414
  61.1577464  99.6459107  37.6655313  69.3360105  98.0971216  41.5181143
  69.3178580  98.9180097  41.0261412  70.2580025  97.9725291  41.7431284
  65.7933159  95.6115346  42.3604651  66.3261496  94.8503634  42.1303959
  65.2647240  95.3188997  43.1028805  68.9602854  80.7175412  37.8898293
  68.6167123  81.6077053  37.8137403  69.3281817  80.5277069  37.0267878
  57.0288705  93.0408942  30.7086895  57.8663927  93.4505950  30.4920603
  57.2066972  92.1008384  30.6787089  68.9253137  90.7084023  26.3970728
  68.4099760  91.4788627  26.6359115  68.6530445  90.0349159  27.0203789
  66.5100248  85.5533723  31.4555966  65.6541844  85.1640574  31.2761605
  66.9227199  85.6325684  30.5955752  68.0399394  83.0880067  35.8547526
  67.5364190  83.0510202  35.0415331  68.3330001  83.9972809  35.9144183
  64.2842280  83.1718796  34.8613708  65.1495277  82.9761605  34.5019597
  64.3519789  82.9429148  35.7883064  73.8987411  93.4616377  28.3323901
  73.1216854  93.1227537  27.8879063  74.5778892  93.4669000  27.6578866
  68.7139440  88.5811115  28.2230509  68.4089575  88.8957264  29.0740652
  69.6669882  88.6592535  28.2657842  67.1585872  94.7401338  29.8723463
  66.6307233  94.0054098  29.5596700  66.6573374  95.5176014  29.6263431
  72.1378718  92.9350359  34.9890509  71.4802392  93.6249620  35.0770638
  72.9419117  93.3246790  35.3324496  61.8904599  85.4021004  32.2330074
  62.4648351  85.1796186  31.5003267  62.4775582  85.4709699  32.9858676
  70.9484177  91.2894731  33.0394451  71.4616058  91.9224723  33.5416161
  71.5985400  90.6895927  32.6737811  62.2174186  87.4325465  26.2525960
  61.3811499  87.7700152  26.5735234  62.0778956  87.2974445  25.3153097
  64.1927267  82.2762253  30.9605144  63.5391679  81.9611270  30.3361759
  64.1507741  81.6537994  31.6864967  65.3038472  92.5581548  22.8758436
  64.3965534  92.3270802  23.0749585  65.8009504  91.7619168  23.0632418
  68.2106551 101.2679056  25.7955122  67.5368250 101.5710752  26.4040080
  68.5972373 102.0708136  25.4460579  67.4265007  88.7644187  35.2852792
  66.5087569  88.9859134  35.1274480  67.8425151  88.8390497  34.4264499
  68.2100055  90.1635602  30.4155472  68.9571874  90.6757000  30.1062594
  68.4791645  89.8419655  31.2759865  66.4826705  92.6594143  27.3982426
  65.5737925  92.3753176  27.4954896  66.5121789  93.0793222  26.5385733
  71.7145973  96.2700733  31.1673594  71.2608300  95.4291643  31.2238784
  71.0839939  96.9062131  31.5048374  70.6578892  87.1992719  32.3974261
  69.9201649  86.6870105  32.7284504  70.9105666  86.7593100  31.5857538
  70.1578912  98.1077229  32.1023412  70.4501886  98.6682286  31.3835777
  70.6677533  98.4005790  32.8576571  70.7590520  79.9768971  32.9916030
  71.0649396  79.1166334  32.7041945  71.4843124  80.5686591  32.7915024
  57.0514876  90.3799657  31.3797628  56.8539276  89.7869018  30.6548695
  56.4961540  90.0751868  32.0973567  65.0311599  90.2722764  33.4992221
  65.0860209  89.3196600  33.4234698  64.2202801  90.4282203  33.9833520
  66.1802793  94.2002887  24.7370505  65.7422223  93.4838746  24.2776142
  66.9213234  94.4279002  24.1755596  62.9703959  88.8899824  31.2582600
  62.1571825  89.1893994  31.6647792  63.4662953  88.4955512  31.9757083
  65.1212537  98.8857580  33.1916865  65.0788716  99.1118427  32.2625397
  66.0375236  98.6520955  33.3402666  68.5678171  89.3541648  40.0897494
  68.9227559  89.5813121  40.9491960  69.2150302  89.6860025  39.4674749
  74.2975908  92.4760084  30.7946823  74.1593807  92.6661680  29.8668012
  73.9412127  93.2379467  31.2514874  62.4618034  86.4618179  36.8743835
  63.1017413  86.3206938  36.1766799  61.6295565  86.1752692  36.4982437
  74.3245288  94.5436611  35.8058095  74.7581794  94.4511900  36.6541149
  75.0376868  94.5194111  35.1678111  63.2378338  95.7620609  32.9878828
  64.0318936  95.2670930  32.7861403  62.5270030  95.2338473  32.6246533
  68.0573182  98.1438705  37.3391195  68.1110205  98.7129641  38.1068911
  67.1887964  98.3140590  36.9745232  59.5461101  89.9063691  29.0638580
  58.6158690  89.8448147  29.2808543  59.6418573  89.3839644  28.2675222
  59.4646650  86.4318504  31.6516822  59.7253468  87.3463837  31.5425983
  60.2863823  85.9642947  31.8013435  60.9371576  87.8456261  38.8215647
  61.6094629  87.6373623  38.1728295  60.1101362  87.6478347  38.3820879
  75.1860837  94.5860312  38.3390980  75.3796727  95.4906122  38.5850255
  75.0861455  94.1267731  39.1729565  66.8397148  84.4718202  40.8381307
  66.1925063  85.1708152  40.7445784  67.6098163  84.9054346  41.2057556
  70.2475946  94.7367054  43.9131861  70.0961452  94.5077606  42.9961944
  70.2380625  95.6937656  43.9263206  67.0161282  92.3098967  38.8978127
  67.9453342  92.4610127  38.7247094  66.5952312  92.3982988  38.0426774
  65.8149614  96.3349631  36.6676665  65.6760700  95.9668416  37.5402603
  65.0264210  96.8497271  36.4960623  66.4097766 101.4358728  28.0102201
  66.5849522 100.9646771  28.8247824  65.7230554 102.0624494  28.2383462
  67.3654829  95.7131234  34.0565503  67.0304662  95.6732004  34.9523152
  66.8658775  95.0475950  33.5835913  61.3399073  91.1198864  39.5818084
  61.2018871  90.3879103  40.1829623  62.2503997  91.0307764  39.3002271
  70.3014021  93.0587269  24.3302562  69.6843191  92.3334097  24.2335615
  69.8330509  93.8196629  23.9869637  63.9681374  90.8318824  39.0701763
  64.6780992  90.1912016  39.0288382  63.9250682  91.0831718  39.9927944
  71.9568152  97.7686177  41.9908343  71.8980699  97.0845397  41.3238926
  72.3587671  98.5105167  41.5388969  62.6810308  87.8184041  40.8897403
  62.1447665  87.3674780  41.5418999  62.0927016  87.9529950  40.1467867
  60.9758851 104.5848091  34.7842061  61.2155449 105.2166615  35.4621080
  60.1328048 104.2336131  35.0707421  62.0912567  87.2772693  23.4523867
  61.2142033  87.1561494  23.0886113  62.5670320  86.4858771  23.2002755
  71.9585560  95.7325761  40.2222322  71.0712338  95.3951683  40.3448721
  72.5284111  95.0008792  40.4591088  53.6114707  92.0649853  33.5465374
  54.2985747  91.7511583  32.9586389  53.4562835  92.9691217  33.2732625
  58.4149429  86.9540049  37.9750397  58.3307618  86.3465719  37.2400807
  57.5932135  87.4449067  37.9759894  65.4886713 100.3927213  37.1883565
  65.4156885 101.1982185  37.7002870  65.0464106 100.5919179  36.3631587
  65.2776493  99.6298983  30.6986387  64.4944015 100.1720663  30.7924612
  65.9769238 100.1472963  31.0980628  68.5873143  85.4393613  33.3420592
  69.0841842  84.6863575  33.0221663  67.8160124  85.4757929  32.7763802
  76.4402900  91.1433978  34.9838884  76.4292776  92.0258694  34.6132817
  75.5720280  90.7905529  34.7893421  67.9485397 100.2914047  39.3441724
  68.6613369 100.9261512  39.2717626  67.4575425 100.3877913  38.5281726
  69.6702923  94.1965300  30.9159016  68.7359202  94.3166762  30.7463720
  69.8479592  93.2937767  30.6519026  65.1708112  87.5810996  33.0692277
  64.8005899  87.0282036  33.7573183  65.6667204  86.9769129  32.5167277
  73.0575475  90.0382619  31.4509050  73.5235927  90.8710611  31.3769353
  73.5082975  89.5727601  32.1554308  62.9997310  98.0408491  40.1647295
  63.7006770  98.6744974  40.3176689  62.5292425  98.3823222  39.4042934
  71.1251706  96.3826440  28.4495202  71.4011550  96.2683035  29.3589076
  70.2556205  95.9843925  28.4107375  71.0292138  82.4063206  35.4899951
  70.1155217  82.6367433  35.6582158  71.4585239  82.4901650  36.3413984
  70.7998596  90.5953098  37.9899845  70.1470046  90.8429006  37.3352298
  71.1778976  89.7817236  37.6562323  67.7605770 100.6312791  32.0928016
  67.9428164  99.8134447  32.5555768  68.5838756 100.8480484  31.6552906
  68.0947935  99.5580976  29.3543064  68.6235702  99.0473431  28.7413226
  68.3576155  99.2423507  30.2188597  66.8486169  91.3372909  44.4765882
  66.1726806  91.2367038  45.1468258  67.6713803  91.1812123  44.9401880
  58.5965028  97.5744846  37.0978398  59.1818465  96.8288534  37.2306302
  58.3989867  97.8848802  37.9815062  61.4503683 100.6096093  32.1140840
  60.7814059 101.0942221  31.6304880  61.3116553 100.8565314  33.0284219
  53.1882683  90.1450446  35.8182841  53.2266782  89.6114037  36.6119959
  52.6822976  89.6185651  35.1993818  65.5908952 102.6439837  38.7123498
  66.1427260 102.8071458  39.4772584  65.9315145 103.2344274  38.0403523
  60.5673445  84.9914986  39.3145383  60.6314772  85.8529817  38.9022781
  60.5040565  84.3788988  38.5817742  60.0425718  87.0638119  42.9618417
  60.6697757  86.6815196  43.5755942  59.1853637  86.8452321  43.3274110
  70.4419826  97.4701094  44.5672153  70.9859730  98.0831052  44.0727108
  69.8606671  98.0280673  45.0839166  56.8191261  88.8714548  28.8936772
  57.1144702  87.9625226  28.8403826  55.9179296  88.8502288  28.5717775
  68.7277339 100.5921812  35.6987181  68.6028479  99.7911552  35.1898126
  69.3856430 101.0868005  35.2101151  60.3485508  86.9470545  34.8764321
  59.6272093  87.5606512  34.7371794  61.1378763  87.4828309  34.7980967
  70.7912248  98.3930832  37.3266731  69.8442583  98.2736183  37.2545057
  71.1395021  97.5053330  37.4092992  63.1511821  84.2824971  41.1504973
  63.6746223  84.5287268  41.9131282  62.9324154  85.1145006  40.7308110
  58.5479102  86.5528646  29.0176097  58.2191808  85.6726025  28.8351203
  58.9018473  86.4976314  29.9052487  67.7958681  98.1883548  33.5271083
  67.6483643  97.2600256  33.7078653  68.6212174  98.2103639  33.0428158
  61.6620925  86.8401616  29.3851575  62.0016998  87.3687537  28.6630183
  62.1093046  87.1782022  30.1610142  71.3992803  99.0112107  34.6135956
  72.3239350  98.8054969  34.4760407  71.2308106  98.7628508  35.5225297
  64.3564366  85.2238666  38.8354643  64.0161186  84.4246479  39.2375323
  63.6503372  85.5240377  38.2631476  65.0080838  82.3087979  37.2881966
  65.8306907  81.8348457  37.1660856  65.2518901  83.0878462  37.7880652
  63.6489072  85.3376237  27.5844868  64.3697435  85.7157490  27.0808585
  63.0254377  86.0565114  27.6879846  67.7920195  86.0421386  28.5203200
  68.0083810  86.9246024  28.2192028  67.3114262  85.6507599  27.7908842
  62.5319417  89.0007099  35.0973945  62.3863997  89.3147402  35.9898226
  62.0544620  89.6192000  34.5444843  64.3915800  85.9909647  35.1454834
  64.3777368  85.0950741  34.8087132  65.1088228  85.9980311  35.7793120
  66.2441930  86.4246987  37.1907962  65.9859708  87.3464058  37.1892292
  65.7126971  86.0277422  37.8808426  71.1888119  99.5297775  29.9698047
  71.3624997  98.9644197  29.2171900  71.6817010 100.3298669  29.7877537
  57.0065079  91.5412444  38.0361606  56.4618547  92.3172252  38.1681880
  57.8844429  91.8883248  37.8780727  63.7952695  84.8724028  30.4142404
  63.9168607  83.9440674  30.6133292  63.5054738  84.8862714  29.5020720
  66.6643886  82.5578938  33.5509124  66.6865583  82.6218271  32.5961104
  67.0811945  81.7183447  33.7449630  77.0427510  92.2934198  31.5888347
  77.4858656  91.5441523  31.1907470  76.1654020  92.2844334  31.2062079
  72.1763291  98.8464539  27.0694945  72.8714196  99.4671232  27.2882260
  72.5186442  97.9959890  27.3447323  57.7931101  90.6682340  40.9291763
  57.0512837  90.8164975  41.5156393  57.4723845  90.9290606  40.0658512
  74.0754715  96.2964245  28.5982276  74.6006039  96.6351517  27.8731596
  73.9877067  95.3611260  28.4145411  65.7374763 100.2098318  40.7272153
  66.0461890  99.9647465  41.5994852  66.5350245 100.4144957  40.2391023
  65.7595375 102.3636228  32.9577529  65.3200366 101.8712607  33.6510386
  66.5103492 101.8209195  32.7169605  58.2387714  98.5547769  32.9602157
  59.0645734  98.2551541  32.5800801  57.8881766  97.7855391  33.4091946
  63.2069248  97.9074237  35.0299831  62.5849257  97.2444942  34.7302059
  63.8774114  97.9335369  34.3473479  56.4396319  96.4734095  33.9191091
  55.6028228  96.0456270  33.7375092  56.4119965  96.6666538  34.8561882
  63.2793775  86.3856025  44.6232337  63.3281930  87.2618148  44.2410107
  63.8216289  85.8433418  44.0503980  73.7648621  96.9297148  43.9033474
  72.9744164  96.9121287  43.3637973  73.5281975  97.4685442  44.6582511
  73.8846496  93.7789615  41.2166203  73.9344501  93.6139622  42.1581725
  73.7760419  92.9116874  40.8264083  62.7682754  96.4578160  28.5058292
  62.9170875  97.1413625  27.8524964  63.5749198  96.4383250  29.0207747
  71.1750258  89.7620543  42.5325509  72.0760121  89.6227007  42.2409507
  71.2498233  89.9274997  43.4723687  65.5093063  87.1387397  41.3778696
  64.6396373  87.4320963  41.1061284  65.7452544  87.7227842  42.0985959
  75.3864693  96.1986556  41.4608224  75.0949501  96.5616537  42.2971685
  74.7736824  95.4853564  41.2821556  76.5860375  93.7639436  33.9810794
  77.4207266  94.2029240  34.1448355  76.7219504  93.2878089  33.1619040
  73.6351881  91.3219171  39.9288282  74.1106002  91.5146817  39.1207134
  72.7117446  91.3778357  39.6831666  60.5235387  92.4843338  29.5119360
  60.2781429  91.5805668  29.7099571  60.6931302  92.4860488  28.5698838
  68.2132097  83.3567014  38.8944116  68.7314041  84.0928041  38.5690605
  67.8587230  83.6631008  39.7290875  59.7931035  88.2171695  27.0105522
  59.1000280  88.2916050  26.3545558  59.5482787  87.4532039  27.5327039
  68.4644691  79.7767297  34.4145013  68.7446445  79.1090486  35.0405439
  69.2495298  79.9696392  33.9019676  66.2678160  98.9526291  25.9770039
  65.6952127  99.5716478  25.5240511  66.8410954  99.5025652  26.5109961
  72.3353550  88.1984931  38.1616588  73.2870973  88.2983028  38.1828812
  72.1657000  87.4063199  38.6714672  70.3567929  85.2840514  38.3475989
  69.7617861  85.5645527  37.6522477  70.0717626  85.7734415  39.1192730
  69.4875420  99.2363441  27.1078621  70.4206093  99.1709003  27.3111497
  69.3998633 100.0719708  26.6493154  72.1163436  98.5529311  24.0682569
  72.0377068  98.2189175  24.9618327  72.9373103  99.0451079  24.0674041
  74.8141628  91.4191050  37.2758887  74.7817948  90.4807051  37.4618571
  75.4242251  91.4975087  36.5424712  66.6524958  90.2887103  23.3186091
  67.5984063  90.1593312  23.3874509  66.2739203  89.5501765  23.7955520
  74.9636116  88.2102094  37.3217171  74.4475165  87.4260551  37.1347099
  75.8476065  87.8820811  37.4863690  72.6246843  81.9543109  33.2812983
  72.4271664  81.6458198  34.1656315  73.2346549  82.6804748  33.4110913
  80.6318177  92.4807057  36.4164924  81.3621566  92.2192345  36.9772628
  80.0225123  91.7435779  36.4566992  78.7133475  90.6214920  37.0139375
  77.9866638  90.4870885  36.4055867  78.2980761  90.9291749  37.8196093
  66.5363651  94.3404850  44.7786748  67.4566660  94.5183449  44.9726795
  66.5013234  93.3960895  44.6266448  64.8367876  88.2137080  23.2540977
  63.9299331  87.9170193  23.3303690  65.1143857  87.9166898  22.3875263
  55.7545816  89.5343443  33.7040023  55.4348600  88.6808751  33.4114397
  55.2079244  89.7492021  34.4597990  59.5325724  92.2505884  37.4209530
  59.7511733  93.1822992  37.4397563  59.9451497  91.8913859  38.2064333
  66.4529941  82.7573970  29.4085218  65.6430670  82.4121055  29.7840464
  67.1414358  82.4481513  29.9972830  68.3820490  81.8352016  31.0309515
  68.9351528  82.2547470  31.6899538  68.6190576  80.9087764  31.0732471
  64.4053589  87.8239090  46.8112279  64.3050316  88.7733447  46.7424370
  64.1875131  87.4957329  45.9388349  63.6066660  85.0724015  23.3952956
  64.4685824  85.3978913  23.6548773  63.7917004  84.2855511  22.8826022
  55.6234076  93.1546355  35.6733145  54.9297547  92.7400308  35.1603099
  56.3707067  93.1966891  35.0766564  71.7599297  83.9452542  30.5388179
  71.1797966  84.6037346  30.1566231  71.4935229  83.1229886  30.1275596
  70.2102863  83.3457599  32.7409499  70.7102641  83.4574134  31.9323818
  70.8538471  83.0418652  33.3810308  64.2684859  91.2536229  45.6277340
  63.7851941  92.0536589  45.8341229  64.3545798  91.2644174  44.6744784
  57.5370819  93.0864609  33.5499160  57.5141507  93.1852296  32.5981043
  57.8471455  93.9329759  33.8716326  60.1958196  95.1440764  37.6645774
  61.1501450  95.1124706  37.5975706  59.9970720  94.6831387  38.4796000
  60.7857579  93.7141880  40.2316572  61.6050468  94.2085958  40.2551409
  61.0594386  92.7973848  40.2034139  70.5424175  86.1052632  29.5944527
  69.6550030  86.3902283  29.3764722  70.9578164  85.9446395  28.7471804
  73.8938711  86.1299153  33.3098866  74.6699101  86.6195605  33.5823483
  73.1686845  86.5557207  33.7670736  76.3311269  86.8426772  34.3672807
  76.9255760  86.6022508  33.6566115  76.4037853  86.1233903  34.9946343
  58.5508425 100.6860383  34.6815972  58.4162893  99.9260784  34.1153970
  58.1340487 101.4101283  34.2144761  69.6867388  95.8697307  23.6892547
  70.3903238  96.0747309  24.3050203  68.9630037  96.4374068  23.9541631
  70.5165198  91.6207168  29.8094817  70.4600400  92.0775719  28.9702450
  71.0693541  90.8597852  29.6317660  74.3270004  87.4096900  30.6344937
  74.0706939  87.0093535  31.4653144  73.7022872  88.1240694  30.5095076
  78.6382342  90.1492973  33.1416228  78.0781900  90.2186162  33.9147790
  78.0325846  89.9733958  32.4215724  61.7077551 101.5829700  34.8934414
  61.5909935 102.5275133  34.7913105  60.8869997 101.2803262  35.2820214
  71.5954086  96.3079836  25.7391007  72.4299690  95.8761034  25.5568482
  71.4338429  96.1361849  26.6667902  71.2499978  92.8111949  27.1047346
  71.1948782  92.6456221  26.1635791  70.6246033  93.5187982  27.2609536
  56.0392493  88.0480013  40.9308769  56.6851356  87.5378967  41.4195994
  55.8309644  88.7848695  41.5052194  68.5645885  95.1160861  46.4300909
  69.4337045  95.2901513  46.0687544  68.0852636  95.9355278  46.3076639
  64.5596103  82.3120058  26.6832665  64.5474773  83.2561898  26.8400936
  65.4519525  82.1290204  26.3892126  62.7332065 102.2357962  38.1090343
  63.6359312 102.2681572  38.4256838  62.5069435 101.3058413  38.1236679
  64.4885667 100.9888949  34.7700422  63.5381298 100.9890810  34.6564794
  64.7918153 100.2421683  34.2536456  68.3748223  78.9062835  30.9378602
  67.6080618  78.3521321  31.0835284  68.7858928  78.9784703  31.7992753
  60.3789984  85.1947631  45.0283783  61.2421445  84.8384435  45.2387107
  59.8055394  84.8561525  45.7159187  80.2238361 106.8249487  35.8346184
  80.8616771 106.7056234  35.1309524  80.1059204 107.7730331  35.8934136
  77.0328067 106.7776915  35.7707709  76.6946578 106.6617980  34.8828243
  77.9017835 106.3768080  35.7508715  72.8914883 108.6312391  31.7604600
  72.3279748 108.5402328  30.9920887  72.7767278 107.8112296  32.2407092
  77.5147850 107.9311767  41.7293914  77.5036491 107.5364565  40.8574418
  77.6768489 107.1977839  42.3227686  70.4379315 110.1263583  34.5988820
  71.2300607 109.7854408  34.1835119  70.6775965 110.2358558  35.5190973
  78.4714441 112.2983359  27.0719064  77.8202421 112.8837440  26.6853078
  79.2658804 112.8289554  27.1314102  72.3970069 109.3872496  27.4706199
  73.1700945 108.8401483  27.3319075  72.7495467 110.2516746  27.6820660
  74.2355111 110.7148879  40.6773098  73.9444977 111.6194509  40.5619764
  74.8712095 110.7565406  41.3917168  75.1611318 108.0925727  37.2674458
  75.7574890 107.8681749  36.5531421  75.2186289 107.3510473  37.8699906
  74.7336346 105.5465162  25.1024649  74.9861867 105.0246684  24.3408112
  73.7960905 105.3831308  25.2051332  79.7779629 104.5500941  32.9099392
  80.5642718 104.1320364  32.5589809  80.0418333 105.4547033  33.0781040
  79.9489707 109.9873791  27.6088049  79.3135539 110.0608418  28.3208953
  79.6187113 110.5767390  26.9307128  85.1788056 104.4876174  33.8132370
  85.9113228 103.9175391  34.0470200  84.4227412 104.0997774  34.2538876
  74.4532635 107.4493268  27.3049024  74.3368893 106.7738172  27.9730108
  74.5634895 106.9625642  26.4881177  76.7964176 106.9103415  31.0095713
  76.4322383 106.3834036  31.7208634  77.6531292 106.5201884  30.8362198
  82.7013477  98.1997748  38.2726979  82.3696801  99.0693159  38.0488194
  82.1059090  97.8834032  38.9521009  76.4369663 101.9393315  26.0057061
  76.6044065 102.8073552  26.3727532  76.2466832 102.1020597  25.0818351
  79.1944996 110.4010294  37.6722892  78.8945719 111.3035333  37.5638699
  78.8496056 110.1342477  38.5244045  72.6457478 106.8524091  33.7059596
  71.7207974 106.7200305  33.9137288  72.8941891 107.6318310  34.2029539
  82.5942140 102.9192834  35.3520329  81.6859017 102.8508243  35.0579090
  82.5429736 103.3964779  36.1802155  76.4158884 104.3950973  26.9903728
  76.2958509 104.8408023  27.8289209  75.7211472 104.7436290  26.4317266
  70.0066289 106.4957364  34.5403385  70.1358670 106.7491843  35.4542797
  69.3263740 107.0885072  34.2208040  74.1765776 117.1654614  30.6393859
  74.0989806 118.1162439  30.7182340  73.5727420 116.8200487  31.2968786
  76.6683006 104.3382480  43.2955226  75.8916340 104.8976400  43.2858091
  77.3073569 104.8239263  43.8170097  84.4603786 101.1209273  37.1298203
  83.8178167 101.4141806  36.4837998  83.9558715 101.0062193  37.9351400
  82.1143950 104.8672446  27.8184062  83.0261806 105.0999833  27.6431760
  81.6053597 105.4509490  27.2559141  74.9229378 107.1467933  42.8573193
  75.6644062 107.6852977  42.5808017  74.2166364 107.7734222  43.0144745
  80.3984718 109.2897074  41.4545355  80.8068074 108.8479484  40.7099987
  79.6761979 108.7149701  41.7079548  76.7515788 104.2269680  38.8278912
  77.5976983 104.6509094  38.9713561  76.6914425 103.5703305  39.5217475
  80.7213532 109.8498264  35.2097644  80.0922395 110.0143978  34.5073712
  80.3339194 110.2639874  35.9808608  84.6002764 110.7852702  32.5642008
  83.9153802 111.1651603  32.0139041  84.6846614 111.3948029  33.2973955
  79.9015233 101.8874049  40.4860085  79.6576165 102.6416109  39.9494361
  80.1775164 102.2659396  41.3207333  81.8553696 108.4312661  39.1637351
  82.0670591 109.0744421  38.4871732  81.8083444 107.5974978  38.6959281
  79.4579925 101.0430482  36.0673923  78.5964404 101.3411735  36.3590661
  79.4842359 101.2600881  35.1354956  76.2741494 109.5872672  32.4747729
  76.7379840 109.8660375  31.6852351  76.0098292 108.6856117  32.2920820
  73.1665575 109.1344154  35.4127492  73.7366932 109.5631422  34.7744977
  73.7573687 108.8526739  36.1111678  75.2110380 105.7095825  29.2837294
  75.9134424 106.1616868  29.7511220  74.8791009 105.0679644  29.9117187
  73.6590742 104.3007581  43.6588503  73.0289402 104.9823862  43.8923900
  73.5526830 104.1890663  42.7141642  68.9535714 103.9679377  34.5854428
  68.1634768 104.2236906  34.1094538  69.4446962 104.7827715  34.6906468
  82.9699524 111.3084617  37.3359708  83.7916968 110.9064804  37.0542390
  82.9661927 111.2052851  38.2875824  70.9050460 104.3323957  31.5437904
  70.1081623 104.4442651  32.0621400  70.6776052 104.6710609  30.6778795
  76.7356127 110.8568660  39.4920419  76.8000560 111.3189067  40.3278591
  76.0267051 110.2266025  39.6202729  67.2373417 104.2209868  37.0169418
  67.4881456 105.1056878  37.2826994  67.7732966 104.0414469  36.2444510
  91.0605517 107.6523365  33.6844680  90.3069225 107.0830763  33.5288684
  91.1953058 107.6186030  34.6315315  76.4504145 112.5236767  29.3599399
  76.3149820 113.3688303  29.7884247  76.9913957 112.7256045  28.5965333
  72.9371485  98.6028347  46.0213754  72.5438430  98.0494546  46.6961399
  73.7537625  98.9138926  46.4120272  69.9033542 110.0412205  29.9327324
  70.4158063 110.8355456  30.0832889  70.5556255 109.3438496  29.8660926
  71.7128427 113.1577962  32.0150077  71.8895055 114.0795926  31.8271061
  72.5085261 112.8436381  32.4444457  75.8539446 100.0186226  43.6134011
  76.5949159 100.6193379  43.5338473  76.0857368  99.2763864  43.0552054
  70.9980784 105.2042594  41.8912241  70.8834299 104.3027851  42.1919340
  70.1425301 105.4506290  41.5397057  78.0772621 113.1460334  43.4899741
  77.6336475 112.3596712  43.1720646  78.7389835 113.3339484  42.8243632
  72.8359742 114.6756135  38.0160420  73.3867168 114.5473199  37.2437414
  71.9971218 114.9751024  37.6655313  80.1753859 113.4263134  41.5181143
  80.1572335 114.2472015  41.0261412  81.0973779 113.3017209  41.7431284
  76.6326914 110.9407263  42.3604651  77.1655250 110.1795551  42.1303959
  76.1040995 110.6480915  43.1028805  79.7996608  96.0467329  37.8898293
  79.4560878  96.9368971  37.8137403  80.1675571  95.8568987  37.0267878
  67.8682459 108.3700860  30.7086895  68.7057681 108.7797868  30.4920603
  68.0460727 107.4300302  30.6787089  79.7646891 106.0375940  26.3970728
  79.2493515 106.8080545  26.6359115  79.4924200 105.3641076  27.0203789
  77.3494002 100.8825641  31.4555966  76.4935599 100.4932492  31.2761605
  77.7620954 100.9617602  30.5955752  78.8793149  98.4171984  35.8547526
  78.3757944  98.3802120  35.0415331  79.1723756  99.3264727  35.9144183
  75.1236035  98.5010714  34.8613708  75.9889032  98.3053523  34.5019597
  75.1913544  98.2721066  35.7883064  84.7381165 108.7908295  28.3323901
  83.9610608 108.4519454  27.8879063  85.4172646 108.7960918  27.6578866
  79.5533194 103.9103032  28.2230509  79.2483330 104.2249182  29.0740652
  80.5063636 103.9884452  28.2657842  77.9979626 110.0693256  29.8723463
  77.4700988 109.3346015  29.5596700  77.4967129 110.8467932  29.6263431
  82.9772472 108.2642276  34.9890509  82.3196147 108.9541538  35.0770638
  83.7812871 108.6538708  35.3324496  72.7298354 100.7312922  32.2330074
  73.3042106 100.5088104  31.5003267  73.3169336 100.8001617  32.9858676
  81.7877931 106.6186649  33.0394451  82.3009813 107.2516641  33.5416161
  82.4379155 106.0187844  32.6737811  73.0567941 102.7617383  26.2525960
  72.2205253 103.0992070  26.5735234  72.9172711 102.6266363  25.3153097
  75.0321022  97.6054171  30.9605144  74.3785434  97.2903188  30.3361759
  74.9901496  96.9829911  31.6864967  76.1432226 107.8873466  22.8758436
  75.2359288 107.6562719  23.0749585  76.6403258 107.0911085  23.0632418
  78.2658762 104.0936104  35.2852792  77.3481323 104.3151051  35.1274480
  78.6818906 104.1682415  34.4264499  79.0493810 105.4927520  30.4155472
  79.7965629 106.0048917  30.1062594  79.3185399 105.1711573  31.2759865
  77.3220460 107.9886061  27.3982426  76.4131679 107.7045094  27.4954896
  77.3515544 108.4085139  26.5385733  82.5539727 111.5992650  31.1673594
  82.1002054 110.7583560  31.2238784  81.9233694 112.2354049  31.5048374
  81.4972647 102.5284636  32.3974261  80.7595404 102.0162023  32.7284504
  81.7499420 102.0885018  31.5857538  80.9972666 113.4369147  32.1023412
  81.2895641 113.9974204  31.3835777  81.5071287 113.7297708  32.8576571
  81.5984274  95.3060888  32.9916030  81.9043151  94.4458252  32.7041945
  82.3236879  95.8978509  32.7915024  67.8908630 105.7091575  31.3797628
  67.6933030 105.1160936  30.6548695  67.3355294 105.4043785  32.0973567
  75.8705354 105.6014681  33.4992221  75.9253964 104.6488518  33.4234698
  75.0596556 105.7574121  33.9833520  77.0196548 109.5294805  24.7370505
  76.5815978 108.8130663  24.2776142  77.7606988 109.7570919  24.1755596
  73.8097714 104.2191741  31.2582600  72.9965579 104.5185912  31.6647792
  74.3056708 103.8247430  31.9757083  75.9606292 114.2149498  33.1916865
  75.9182470 114.4410344  32.2625397  76.8768991 113.9812873  33.3402666
  79.4071925 104.6833566  40.0897494  79.7621313 104.9105039  40.9491960
  80.0544057 105.0151942  39.4674749  85.1369662 107.8052002  30.7946823
  84.9987561 107.9953598  29.8668012  84.7805881 108.5671384  31.2514874
  73.3011789 101.7910097  36.8743835  73.9411168 101.6498856  36.1766799
  72.4689319 101.5044610  36.4982437  85.1639042 109.8728529  35.8058095
  85.5975549 109.7803818  36.6541149  85.8770623 109.8486029  35.1678111
  74.0772092 111.0912527  32.9878828  74.8712691 110.5962847  32.7861403
  73.3663785 110.5630390  32.6246533  78.8966937 113.4730623  37.3391195
  78.9503959 114.0421559  38.1068911  78.0281718 113.6432508  36.9745232
  70.3854856 105.2355609  29.0638580  69.4552444 105.1740064  29.2808543
  70.4812328 104.7131562  28.2675222  70.3040405 101.7610422  31.6516822
  70.5647222 102.6755755  31.5425983  71.1257577 101.2934864  31.8013435
  71.7765330 103.1748179  38.8215647  72.4488384 102.9665541  38.1728295
  70.9495117 102.9770265  38.3820879  86.0254592 109.9152229  38.3390980
  86.2190482 110.8198040  38.5850255  85.9255210 109.4559648  39.1729565
  77.6790902  99.8010120  40.8381307  77.0318817 100.5000069  40.7445784
  78.4491918 100.2346264  41.2057556  81.0869700 110.0658972  43.9131861
  80.9355207 109.8369524  42.9961944  81.0774380 111.0229573  43.9263206
  77.8555037 107.6390885  38.8978127  78.7847097 107.7902044  38.7247094
  77.4346067 107.7274906  38.0426774  76.6543368 111.6641549  36.6676665
  76.5154454 111.2960334  37.5402603  75.8657965 112.1789189  36.4960623
  77.2491520 116.7650646  28.0102201  77.4243276 116.2938689  28.8247824
  76.5624308 117.3916412  28.2383462  78.2048584 111.0423152  34.0565503
  77.8698416 111.0023922  34.9523152  77.7052529 110.3767868  33.5835913
  72.1792828 106.4490782  39.5818084  72.0412625 105.7171021  40.1829623
  73.0897751 106.3599682  39.3002271  81.1407775 108.3879186  24.3302562
  80.5236946 107.6626014  24.2335615  80.6724264 109.1488546  23.9869637
  74.8075128 106.1610741  39.0701763  75.5174747 105.5203933  39.0288382
  74.7644436 106.4123636  39.9927944  82.7961907 113.0978095  41.9908343
  82.7374453 112.4137315  41.3238926  83.1981425 113.8397085  41.5388969
  73.5204062 103.1475959  40.8897403  72.9841419 102.6966698  41.5418999
  72.9320771 103.2821868  40.1467867  71.8152606 119.9140008  34.7842061
  72.0549204 120.5458533  35.4621080  70.9721802 119.5628048  35.0707421
  72.9306321 102.6064610  23.4523867  72.0535787 102.4853411  23.0886113
  73.4064074 101.8150689  23.2002755  82.7979314 111.0617678  40.2222322
  81.9106093 110.7243600  40.3448721  83.3677865 110.3300710  40.4591088
  64.4508461 107.3941770  33.5465374  65.1379501 107.0803500  32.9586389
  64.2956590 108.2983135  33.2732625  69.2543183 102.2831967  37.9750397
  69.1701372 101.6757636  37.2400807  68.4325890 102.7740985  37.9759894
  76.3280468 115.7219131  37.1883565  76.2550639 116.5274102  37.7002870
  75.8857861 115.9211097  36.3631587  76.1170247 114.9590901  30.6986387
  75.3337769 115.5012581  30.7924612  76.8162992 115.4764880  31.0980628
  79.4266897 100.7685530  33.3420592  79.9235597 100.0155493  33.0221663
  78.6553879 100.8049847  32.7763802  87.2796655 106.4725896  34.9838884
  87.2686531 107.3550611  34.6132817  86.4114034 106.1197447  34.7893421
  78.7879151 115.6205965  39.3441724  79.5007123 116.2553430  39.2717626
  78.2969180 115.7169831  38.5281726  80.5096678 109.5257218  30.9159016
  79.5752957 109.6458680  30.7463720  80.6873346 108.6229684  30.6519026
  76.0101866 102.9102913  33.0692277  75.6399654 102.3573954  33.7573183
  76.5060959 102.3061047  32.5167277  83.8969229 105.3674537  31.4509050
  84.3629682 106.2002528  31.3769353  84.3476730 104.9019518  32.1554308
  73.8391065 113.3700408  40.1647295  74.5400524 114.0036891  40.3176689
  73.3686180 113.7115140  39.4042934  81.9645460 111.7118358  28.4495202
  82.2405304 111.5974953  29.3589076  81.0949959 111.3135843  28.4107375
  81.8685892  97.7355124  35.4899951  80.9548972  97.9659351  35.6582158
  82.2978994  97.8193568  36.3413984  81.6392351 105.9245016  37.9899845
  80.9863801 106.1720923  37.3352298  82.0172730 105.1109154  37.6562323
  78.5999524 115.9604709  32.0928016  78.7821919 115.1426365  32.5555768
  79.4232510 116.1772401  31.6552906  78.9341690 114.8872894  29.3543064
  79.4629456 114.3765349  28.7413226  79.1969910 114.5715424  30.2188597
  77.6879924 106.6664827  44.4765882  77.0120561 106.5658956  45.1468258
  78.5107557 106.5104041  44.9401880  69.4358783 112.9036763  37.0978398
  70.0212219 112.1580451  37.2306302  69.2383621 113.2140720  37.9815062
  72.2897438 115.9388011  32.1140840  71.6207813 116.4234138  31.6304880
  72.1510308 116.1857231  33.0284219  64.0276437 105.4742364  35.8182841
  64.0660537 104.9405954  36.6119959  63.5216730 104.9477569  35.1993818
  76.4302706 117.9731754  38.7123498  76.9821015 118.1363376  39.4772584
  76.7708900 118.5636192  38.0403523  71.4067200 100.3206904  39.3145383
  71.4708526 101.1821735  38.9022781  71.3434320  99.7080906  38.5817742
  70.8819472 102.3930037  42.9618417  71.5091511 102.0107114  43.5755942
  70.0247391 102.1744239  43.3274110  81.2813581 112.7993012  44.5672153
  81.8253485 113.4122970  44.0727108  80.7000426 113.3572590  45.0839166
  67.6585015 104.2006466  28.8936772  67.9538456 103.2917144  28.8403826
  66.7573051 104.1794205  28.5717775  79.5671094 115.9213730  35.6987181
  79.4422233 115.1203470  35.1898126  80.2250185 116.4159923  35.2101151
  71.1879262 102.2762462  34.8764321  70.4665848 102.8898430  34.7371794
  71.9772518 102.8120227  34.7980967  81.6306002 113.7222750  37.3266731
  80.6836338 113.6028101  37.2545057  81.9788775 112.8345248  37.4092992
  73.9905576  99.6116889  41.1504973  74.5139977  99.8579185  41.9131282
  73.7717909 100.4436924  40.7308110  69.3872857 101.8820563  29.0176097
  69.0585563 101.0017942  28.8351203  69.7412227 101.8268232  29.9052487
  78.6352435 113.5175466  33.5271083  78.4877398 112.5892174  33.7078653
  79.4605929 113.5395557  33.0428158  72.5014680 102.1693533  29.3851575
  72.8410752 102.6979454  28.6630183  72.9486800 102.5073939  30.1610142
  82.2386557 114.3404025  34.6135956  83.1633105 114.1346886  34.4760407
  82.0701861 114.0920426  35.5225297  75.1958121 100.5530584  38.8354643
  74.8554941  99.7538397  39.2375323  74.4897127 100.8532295  38.2631476
  75.8474592  97.6379896  37.2881966  76.6700662  97.1640375  37.1660856
  76.0912656  98.4170380  37.7880652  74.4882827 100.6668155  27.5844868
  75.2091189 101.0449408  27.0808585  73.8648131 101.3857032  27.6879846
  78.6313950 101.3713304  28.5203200  78.8477564 102.2537942  28.2192028
  78.1508017 100.9799517  27.7908842  73.3713171 104.3299017  35.0973945
  73.2257752 104.6439320  35.9898226  72.8938375 104.9483917  34.5444843
  75.2309554 101.3201565  35.1454834  75.2171123 100.4242658  34.8087132
  75.9481982 101.3272229  35.7793120  77.0835685 101.7538905  37.1907962
  76.8253463 102.6755976  37.1892292  76.5520725 101.3569340  37.8808426
  82.0281873 114.8589692  29.9698047  82.2018751 114.2936115  29.2171900
  82.5210765 115.6590587  29.7877537  67.8458833 106.8704361  38.0361606
  67.3012301 107.6464169  38.1681880  68.7238183 107.2175166  37.8780727
  74.6346450 100.2015945  30.4142404  74.7562361  99.2732591  30.6133292
  74.3448492 100.2154631  29.5020720  77.5037640  97.8870856  33.5509124
  77.5259337  97.9510189  32.5961104  77.9205699  97.0475364  33.7449630
  87.8821265 107.6226115  31.5888347  88.3252411 106.8733440  31.1907470
  87.0047775 107.6136252  31.2062079  83.0157046 114.1756457  27.0694945
  83.7107951 114.7963149  27.2882260  83.3580196 113.3251808  27.3447323
  68.6324855 105.9974258  40.9291763  67.8906591 106.1456893  41.5156393
  68.3117599 106.2582523  40.0658512  84.9148469 111.6256162  28.5982276
  85.4399793 111.9643435  27.8731596  84.8270822 110.6903178  28.4145411
  76.5768518 115.5390236  40.7272153  76.8855644 115.2939383  41.5994852
  77.3744000 115.7436874  40.2391023  76.5989130 117.6928146  32.9577529
  76.1594120 117.2004524  33.6510386  77.3497247 117.1501113  32.7169605
  69.0781469 113.8839686  32.9602157  69.9039489 113.5843458  32.5800801
  68.7275521 113.1147309  33.4091946  74.0463002 113.2366155  35.0299831
  73.4243011 112.5736860  34.7302059  74.7167869 113.2627286  34.3473479
  67.2790074 111.8026013  33.9191091  66.4421982 111.3748187  33.7375092
  67.2513719 111.9958456  34.8561882  74.1187529 101.7147943  44.6232337
  74.1675685 102.5910065  44.2410107  74.6610044 101.1725336  44.0503980
  84.6042375 112.2589066  43.9033474  83.8137919 112.2413205  43.3637973
  84.3675730 112.7977360  44.6582511  84.7240250 109.1081532  41.2166203
  84.7738255 108.9431540  42.1581725  84.6154174 108.2408791  40.8264083
  73.6076509 111.7870078  28.5058292  73.7564629 112.4705542  27.8524964
  74.4142952 111.7675168  29.0207747  82.0144013 105.0912460  42.5325509
  82.9153875 104.9518925  42.2409507  82.0891987 105.2566915  43.4723687
  76.3486818 102.4679315  41.3778696  75.4790127 102.7612881  41.1061284
  76.5846298 103.0519760  42.0985959  86.2258447 111.5278474  41.4608224
  85.9343255 111.8908454  42.2971685  85.6130578 110.8145482  41.2821556
  87.4254129 109.0931354  33.9810794  88.2601021 109.5321158  34.1448355
  87.5613258 108.6170007  33.1619040  84.4745635 106.6511088  39.9288282
  84.9499757 106.8438735  39.1207134  83.5511201 106.7070274  39.6831666
  71.3629142 107.8135256  29.5119360  71.1175184 106.9097586  29.7099571
  71.5325056 107.8152406  28.5698838  79.0525852  98.6858932  38.8944116
  79.5707796  99.4219959  38.5690605  78.6980985  98.9922925  39.7290875
  70.6324789 103.5463613  27.0105522  69.9394034 103.6207968  26.3545558
  70.3876541 102.7823957  27.5327039  79.3038446  95.1059214  34.4145013
  79.5840200  94.4382404  35.0405439  80.0889053  95.2988310  33.9019676
  77.1071914 114.2818208  25.9770039  76.5345882 114.9008396  25.5240511
  77.6804708 114.8317570  26.5109961  83.1747304 103.5276848  38.1616588
  84.1264727 103.6274946  38.1828812  83.0050755 102.7355117  38.6714672
  81.1961684 100.6132432  38.3475989  80.6011616 100.8937444  37.6522477
  80.9111380 101.1026333  39.1192730  80.3269174 114.5655359  27.1078621
  81.2599847 114.5000920  27.3111497  80.2392387 115.4011625  26.6493154
  85.6535382 106.7482968  37.2758887  85.6211702 105.8098969  37.4618571
  86.2636006 106.8267005  36.5424712  77.4918713 105.6179021  23.3186091
  78.4377818 105.4885229  23.3874509  77.1132958 104.8793683  23.7955520
  85.8029871 103.5394012  37.3217171  85.2868919 102.7552468  37.1347099
  86.6869819 103.2112728  37.4863690  83.4640597  97.2835027  33.2812983
  83.2665419  96.9750115  34.1656315  84.0740303  98.0096666  33.4110913
  91.4711932 107.8098975  36.4164924  92.2015320 107.5484263  36.9772628
  90.8618877 107.0727697  36.4566992  89.5527229 105.9506838  37.0139375
  88.8260393 105.8162803  36.4055867  89.1374516 106.2583666  37.8196093
  77.3757405 109.6696767  44.7786748  78.2960415 109.8475366  44.9726795
  77.3406989 108.7252813  44.6266448  75.6761630 103.5428998  23.2540977
  74.7693085 103.2462110  23.3303690  75.9537611 103.2458816  22.3875263
  66.5939570 104.8635361  33.7040023  66.2742355 104.0100669  33.4114397
  66.0472999 105.0783939  34.4597990  70.3719478 107.5797802  37.4209530
  70.5905488 108.5114910  37.4397563  70.7845252 107.2205776  38.2064333
  77.2923696  98.0865887  29.4085218  76.4824424  97.7412972  29.7840464
  77.9808113  97.7773431  29.9972830  79.2214244  97.1643934  31.0309515
  79.7745283  97.5839387  31.6899538  79.4584330  96.2379682  31.0732471
  75.2447343 103.1531008  46.8112279  75.1444070 104.1025365  46.7424370
  75.0268885 102.8249247  45.9388349  74.4460415 100.4015933  23.3952956
  75.3079579 100.7270831  23.6548773  74.6310759  99.6147429  22.8826022
  66.4627830 108.4838272  35.6733145  65.7691302 108.0692225  35.1603099
  67.2100821 108.5258809  35.0766564  82.5993051  99.2744459  30.5388179
  82.0191720  99.9329263  30.1566231  82.3328984  98.4521804  30.1275596
  81.0496618  98.6749517  32.7409499  81.5496396  98.7866051  31.9323818
  81.6932225  98.3710570  33.3810308  75.1078613 106.5828147  45.6277340
  74.6245695 107.3828507  45.8341229  75.1939552 106.5936091  44.6744784
  68.3764573 108.4156526  33.5499160  68.3535261 108.5144213  32.5981043
  68.6865209 109.2621677  33.8716326  71.0351951 110.4732681  37.6645774
  71.9895204 110.4416624  37.5975706  70.8364474 110.0123305  38.4796000
  71.6251333 109.0433797  40.2316572  72.4444222 109.5377876  40.2551409
  71.8988141 108.1265765  40.2034139  81.3817929 101.4344550  29.5944527
  80.4943784 101.7194200  29.3764722  81.7971918 101.2738313  28.7471804
  84.7332465 101.4591071  33.3098866  85.5092855 101.9487523  33.5823483
  84.0080600 101.8849125  33.7670736  87.1705024 102.1718690  34.3672807
  87.7649515 101.9314426  33.6566115  87.2431608 101.4525820  34.9946343
  69.3902180 116.0152301  34.6815972  69.2556648 115.2552702  34.1153970
  68.9734242 116.7393201  34.2144761  81.3558953 106.9499086  29.8094817
  81.2994154 107.4067637  28.9702450  81.9087295 106.1889770  29.6317660
  85.1663759 102.7388817  30.6344937  84.9100693 102.3385453  31.4653144
  84.5416627 103.4532611  30.5095076  89.4776097 105.4784891  33.1416228
  88.9175655 105.5478080  33.9147790  88.8719600 105.3025875  32.4215724
  72.5471306 116.9121618  34.8934414  72.4303690 117.8567050  34.7913105
  71.7263752 116.6095179  35.2820214  82.4347840 111.6371753  25.7391007
  83.2693444 111.2052952  25.5568482  82.2732183 111.4653767  26.6667902
  82.0893732 108.1403867  27.1047346  82.0342536 107.9748138  26.1635791
  81.4639788 108.8479900  27.2609536  66.8786247 103.3771931  40.9308769
  67.5245111 102.8670885  41.4195994  66.6703398 104.1140613  41.5052194
  79.4039639 110.4452779  46.4300909  80.2730799 110.6193431  46.0687544
  78.9246391 111.2647195  46.3076639  75.3989858  97.6411976  26.6832665
  75.3868528  98.5853816  26.8400936  76.2913280  97.4582121  26.3892126
  73.5725820 117.5649880  38.1090343  74.4753066 117.5973490  38.4256838
  73.3463190 116.6350331  38.1236679  75.3279422 116.3180866  34.7700422
  74.3775053 116.3182728  34.6564794  75.6311908 115.5713601  34.2536456
  79.2141977  94.2354752  30.9378602  78.4474373  93.6813239  31.0835284
  79.6252682  94.3076621  31.7992753  71.2183738 100.5239548  45.0283783
  72.0815200 100.1676353  45.2387107  70.6449149 100.1853443  45.7159187
  91.0632115 122.1541405  35.8346184  91.7010525 122.0348152  35.1309524
  90.9452958 123.1022249  35.8934136  87.8721821 122.1068833  35.7707709
  87.5340333 121.9909897  34.8828243  88.7411590 121.7059998  35.7508715
  88.3541604 123.2603684  41.7293914  88.3430245 122.8656483  40.8574418
  88.5162244 122.5269757  42.3227686  81.2773069 125.4555501  34.5988820
  82.0694361 125.1146325  34.1835119  81.5169719 125.5650476  35.5190973
  85.0748866 126.0440796  40.6773098  84.7838732 126.9486427  40.5619764
  85.7105850 126.0857324  41.3917168  86.0005072 123.4217645  37.2674458
  86.5968645 123.1973667  36.5531421  86.0580044 122.6802390  37.8699906
  93.5407231 113.5289666  38.2726979  93.2090556 114.3985077  38.0488194
  92.9452845 113.2125950  38.9521009  83.4851232 122.1816009  33.7059596
  82.5601729 122.0492223  33.9137288  83.7335645 122.9610228  34.2029539
  93.4335894 118.2484752  35.3520329  92.5252772 118.1800160  35.0579090
  93.3823490 118.7256697  36.1802155  80.8460043 121.8249282  34.5403385
  80.9752424 122.0783761  35.4542797  80.1657494 122.4176990  34.2208040
  87.5076760 119.6674397  43.2955226  86.7310094 120.2268318  43.2858091
  88.1467323 120.1531180  43.8170097  95.2997541 116.4501190  37.1298203
  94.6571921 116.7433723  36.4837998  94.7952469 116.3354111  37.9351400
  85.7623133 122.4759851  42.8573193  86.5037817 123.0144895  42.5808017
  85.0560118 123.1026140  43.0144745  91.2378472 124.6188991  41.4545355
  91.6461828 124.1771402  40.7099987  90.5155734 124.0441619  41.7079548
  87.5909542 119.5561598  38.8278912  88.4370737 119.9801012  38.9713561
  87.5308180 118.8995222  39.5217475  90.7408988 117.2165966  40.4860085
  90.4969919 117.9708027  39.9494361  91.0168918 117.5951314  41.3207333
  90.2973679 116.3722399  36.0673923  89.4358158 116.6703653  36.3590661
  90.3236114 116.5892798  35.1354956  84.0059330 124.4636072  35.4127492
  84.5760687 124.8923340  34.7744977  84.5967442 124.1818656  36.1111678
  84.4984496 119.6299499  43.6588503  83.8683157 120.3115780  43.8923900
  84.3920584 119.5182581  42.7141642  79.7929469 119.2971295  34.5854428
  79.0028523 119.5528824  34.1094538  80.2840716 120.1119633  34.6906468
  81.7444214 119.6615874  31.5437904  80.9475377 119.7734569  32.0621400
  81.5169806 120.0002527  30.6778795  87.5749882 126.1860578  39.4920419
  87.6394314 126.6480985  40.3278591  86.8660806 125.5557942  39.6202729
  78.0767172 119.5501786  37.0169418  78.3275210 120.4348795  37.2826994
  78.6126720 119.3706387  36.2444510  83.7765239 113.9320265  46.0213754
  83.3832185 113.3786463  46.6961399  84.5931379 114.2430843  46.4120272
  86.6933200 115.3478144  43.6134011  87.4342913 115.9485297  43.5338473
  86.9251123 114.6055782  43.0552054  81.8374538 120.5334511  41.8912241
  81.7228053 119.6319768  42.1919340  80.9819056 120.7798208  41.5397057
  83.6753497 130.0048053  38.0160420  84.2260922 129.8765116  37.2437414
  82.8364973 130.3042942  37.6655313  87.4720668 126.2699181  42.3604651
  88.0049005 125.5087469  42.1303959  86.9434749 125.9772833  43.1028805
  90.6390363 111.3759247  37.8898293  90.2954632 112.2660889  37.8137403
  91.0069326 111.1860905  37.0267878  88.1887757 116.2117559  31.4555966
  87.3329353 115.8224409  31.2761605  88.6014708 116.2909520  30.5955752
  89.7186903 113.7463902  35.8547526  89.2151699 113.7094037  35.0415331
  90.0117510 114.6556645  35.9144183  85.9629789 113.8302632  34.8613708
  86.8282786 113.6345440  34.5019597  86.0307298 113.6012984  35.7883064
  83.5692108 116.0604840  32.2330074  84.1435860 115.8380021  31.5003267
  84.1563091 116.1293534  32.9858676  85.8714776 112.9346089  30.9605144
  85.2179188 112.6195106  30.3361759  85.8295250 112.3121829  31.6864967
  89.1052516 119.4228022  35.2852792  88.1875078 119.6442969  35.1274480
  89.5212660 119.4974333  34.4264499  92.4378029 110.6352806  32.9916030
  92.7436905 109.7750170  32.7041945  93.1630633 111.2270426  32.7915024
  78.7302385 121.0383493  31.3797628  78.5326785 120.4452853  30.6548695
  78.1749049 120.7335703  32.0973567  86.7099108 120.9306599  33.4992221
  86.7647718 119.9780436  33.4234698  85.8990310 121.0866038  33.9833520
  84.6491468 119.5483659  31.2582600  83.8359334 119.8477829  31.6647792
  85.1450462 119.1539348  31.9757083  90.2465680 120.0125483  40.0897494
  90.6015068 120.2396957  40.9491960  90.8937811 120.3443860  39.4674749
  84.1405543 117.1202014  36.8743835  84.7804922 116.9790774  36.1766799
  83.3083074 116.8336528  36.4982437  81.1434159 117.0902339  31.6516822
  81.4040977 118.0047673  31.5425983  81.9651332 116.6226782  31.8013435
  82.6159085 118.5040097  38.8215647  83.2882138 118.2957459  38.1728295
  81.7888871 118.3062183  38.3820879  88.5184657 115.1302037  40.8381307
  87.8712572 115.8291987  40.7445784  89.2885672 115.5638181  41.2057556
  88.6948791 122.9682802  38.8978127  89.6240851 123.1193962  38.7247094
  88.2739821 123.0566823  38.0426774  87.4937123 126.9933467  36.6676665
  87.3548209 126.6252251  37.5402603  86.7051719 127.5081106  36.4960623
  83.0186582 121.7782700  39.5818084  82.8806380 121.0462938  40.1829623
  83.9291506 121.6891600  39.3002271  85.6468883 121.4902659  39.0701763
  86.3568501 120.8495851  39.0288382  85.6038191 121.7415554  39.9927944
  84.3597817 118.4767877  40.8897403  83.8235174 118.0258615  41.5418999
  83.7714525 118.6113786  40.1467867  75.2902216 122.7233688  33.5465374
  75.9773256 122.4095418  32.9586389  75.1350344 123.6275053  33.2732625
  80.0936938 117.6123884  37.9750397  80.0095127 117.0049554  37.2400807
  79.2719644 118.1032903  37.9759894  90.2660652 116.0977448  33.3420592
  90.7629351 115.3447410  33.0221663  89.4947633 116.1341765  32.7763802
  86.8495621 118.2394831  33.0692277  86.4793408 117.6865871  33.7573183
  87.3454713 117.6352964  32.5167277  84.6784819 128.6992326  40.1647295
  85.3794279 129.3328809  40.3176689  84.2079934 129.0407058  39.4042934
  92.7079647 113.0647041  35.4899951  91.7942726 113.2951268  35.6582158
  93.1372748 113.1485486  36.3413984  92.4786105 121.2536933  37.9899845
  91.8257555 121.5012841  37.3352298  92.8566485 120.4401072  37.6562323
  88.5273678 121.9956745  44.4765882  87.8514315 121.8950874  45.1468258
  89.3501312 121.8395958  44.9401880  80.2752537 128.2328681  37.0978398
  80.8605974 127.4872369  37.2306302  80.0777376 128.5432638  37.9815062
  74.8670192 120.8034281  35.8182841  74.9054291 120.2697872  36.6119959
  74.3610485 120.2769487  35.1993818  82.2460954 115.6498822  39.3145383
  82.3102281 116.5113653  38.9022781  82.1828074 115.0372823  38.5817742
  81.7213227 117.7221954  42.9618417  82.3485266 117.3399032  43.5755942
  80.8641146 117.5036156  43.3274110  78.4978769 119.5298383  28.8936772
  78.7932211 118.6209062  28.8403826  77.5966805 119.5086123  28.5717775
  82.0273016 117.6054380  34.8764321  81.3059602 118.2190348  34.7371794
  82.8166272 118.1412145  34.7980967  84.8299330 114.9408806  41.1504973
  85.3533732 115.1871103  41.9131282  84.6111663 115.7728841  40.7308110
  80.2266611 117.2112481  29.0176097  79.8979317 116.3309860  28.8351203
  80.5805982 117.1560150  29.9052487  86.0351875 115.8822502  38.8354643
  85.6948695 115.0830315  39.2375323  85.3290881 116.1824212  38.2631476
  86.6868347 112.9671814  37.2881966  87.5094416 112.4932292  37.1660856
  86.9306410 113.7462298  37.7880652  84.2106926 119.6590935  35.0973945
  84.0651506 119.9731238  35.9898226  83.7332129 120.2775835  34.5444843
  86.0703309 116.6493483  35.1454834  86.0564877 115.7534576  34.8087132
  86.7875737 116.6564146  35.7793120  87.9229439 117.0830823  37.1907962
  87.6647217 118.0047893  37.1892292  87.3914480 116.6861257  37.8808426
  78.6852588 122.1996279  38.0361606  78.1406056 122.9756087  38.1681880
  79.5631938 122.5467084  37.8780727  85.4740204 115.5307863  30.4142404
  85.5956116 114.6024509  30.6133292  85.1842247 115.5446549  29.5020720
  88.3431395 113.2162773  33.5509124  88.3653092 113.2802106  32.5961104
  88.7599454 112.3767282  33.7449630  79.4718610 121.3266175  40.9291763
  78.7300346 121.4748811  41.5156393  79.1511354 121.5874441  40.0658512
  78.1183828 127.1317930  33.9191091  77.2815737 126.7040105  33.7375092
  78.0907474 127.3250374  34.8561882  84.9581284 117.0439860  44.6232337
  85.0069439 117.9201983  44.2410107  85.5003798 116.5017253  44.0503980
  92.8537767 120.4204378  42.5325509  93.7547630 120.2810843  42.2409507
  92.9285742 120.5858833  43.4723687  87.1880572 117.7971233  41.3778696
  86.3183882 118.0904799  41.1061284  87.4240053 118.3811678  42.0985959
  89.8919606 114.0150850  38.8944116  90.4101550 114.7511877  38.5690605
  89.5374739 114.3214843  39.7290875  90.1432200 110.4351132  34.4145013
  90.4233954 109.7674321  35.0405439  90.9282807 110.6280228  33.9019676
  94.0141059 118.8568766  38.1616588  94.9658482 118.9566864  38.1828812
  93.8444509 118.0647035  38.6714672  92.0355438 115.9424349  38.3475989
  91.4405370 116.2229362  37.6522477  91.7505135 116.4318250  39.1192730
  96.6423625 118.8685929  37.3217171  96.1262674 118.0844386  37.1347099
  97.5263574 118.5404646  37.4863690  94.3034352 112.6126945  33.2812983
  94.1059173 112.3042033  34.1656315  94.9134058 113.3388584  33.4110913
  88.2151160 124.9988685  44.7786748  89.1354169 125.1767284  44.9726795
  88.1800743 124.0544730  44.6266448  77.4333325 120.1927279  33.7040023
  77.1136109 119.3392587  33.4114397  76.8866753 120.4075857  34.4597990
  81.2113233 122.9089720  37.4209530  81.4299242 123.8406827  37.4397563
  81.6239006 122.5497694  38.2064333  88.1317450 113.4157805  29.4085218
  87.3218179 113.0704890  29.7840464  88.8201867 113.1065349  29.9972830
  90.0607999 112.4935852  31.0309515  90.6139037 112.9131305  31.6899538
  90.2978085 111.5671600  31.0732471  86.0841098 118.4822925  46.8112279
  85.9837825 119.4317282  46.7424370  85.8662640 118.1541164  45.9388349
  77.3021585 123.8130190  35.6733145  76.6085056 123.3984143  35.1603099
  78.0494576 123.8550727  35.0766564  91.8890372 114.0041435  32.7409499
  92.3890150 114.1157969  31.9323818  92.5325980 113.7002487  33.3810308
  85.9472368 121.9120064  45.6277340  85.4639450 122.7120424  45.8341229
  86.0333307 121.9228009  44.6744784  79.2158327 123.7448444  33.5499160
  79.1929016 123.8436131  32.5981043  79.5258964 124.5913595  33.8716326
  81.8745705 125.8024599  37.6645774  82.8288959 125.7708541  37.5975706
  81.6758229 125.3415223  38.4796000  82.4645087 124.3725715  40.2316572
  83.2837976 124.8669794  40.2551409  82.7381895 123.4557683  40.2034139
  77.7180002 118.7063849  40.9308769  78.3638865 118.1962803  41.4195994
  77.5097153 119.4432530  41.5052194  90.0535732 109.5646670  30.9378602
  89.2868127 109.0105157  31.0835284  90.4646437 109.6368539  31.7992753
  82.0577493 115.8531466  45.0283783  82.9208954 115.4968271  45.2387107
  81.4842903 115.5145361  45.7159187  28.5993136  13.4580629  28.7153649
  28.5405682  12.7739849  28.0484232  29.0012654  14.1999619  28.2634275
  27.0844810  13.1595546  31.2917459  27.6284714  13.7725504  30.7972414
  26.5031654  13.7175124  31.8084472  30.4073604  12.6191600  30.6278781
  29.6169148  12.6015739  30.0883280  30.1706959  13.1579894  31.3827817
  32.0289676  11.8881008  28.1853531  31.7374484  12.2510989  29.0216992
  31.4161807  11.1748016  28.0066863  25.2070868  10.8055313  33.1546216
  26.0762028  10.9795965  32.7932851  24.7277620  11.6249730  33.0321945
  36.8663344  22.5143939  22.5591491  37.5041754  22.3950686  21.8554831
  36.7484187  23.4624783  22.6179443  33.6753050  22.4671367  22.4953015
  33.3371562  22.3512432  21.6073550  34.5442818  22.0662532  22.4754021
  34.1572833  23.6206219  28.4539221  34.1461474  23.2259017  27.5819724
  34.3193473  22.8872291  29.0472992  27.0804298  25.8158035  21.3234127
  27.8725590  25.4748860  20.9080426  27.3200948  25.9253010  22.2436280
  30.8780094  26.4043330  27.4018405  30.5869960  27.3088961  27.2865071
  31.5137079  26.4459858  28.1162474  31.8036301  23.7820179  23.9919764
  32.3999873  23.5576201  23.2776727  31.8611273  23.0404924  24.5945212
  41.8213040  20.1770626  20.5377677  42.5538212  19.6069843  20.7715507
  41.0652395  19.7892226  20.9784183  39.3438460  13.8892200  24.9972286
  39.0121785  14.7587611  24.7733501  38.7484073  13.5728484  25.6766316
  35.8369979  26.0904746  24.3968198  35.5370703  26.9929785  24.2884006
  35.4921039  25.8236929  25.2489351  39.2367123  18.6087286  22.0765636
  38.3284001  18.5402695  21.7824397  39.1854719  19.0859231  22.9047461
  30.8190759  32.8549066  17.3639166  30.7414789  33.8056891  17.4427647
  30.2152403  32.5094939  18.0214092  33.3107989  20.0276932  30.0200533
  32.5341323  20.5870852  30.0103398  33.9498552  20.5133715  30.5415403
  41.1028770  16.8103725  23.8543510  40.4603150  17.1036258  23.2083304
  40.5983698  16.6956645  24.6596706  31.5654361  22.8362385  29.5818500
  32.3069046  23.3747429  29.3053324  30.8591347  23.4628674  29.7390052
  37.0409701  24.9791526  28.1790662  37.4493057  24.5373936  27.4345294
  36.3186962  24.4044153  28.4324854  33.3940771  19.9164132  25.5524218
  34.2401966  20.3403546  25.6958867  33.3339409  19.2597757  26.2462782
  37.3638516  25.5392716  21.9342950  36.7347378  25.7038430  21.2319018
  36.9764178  25.9534326  22.7053914  41.2427748  26.4747154  19.2887314
  40.5578786  26.8546055  18.7384347  41.3271597  27.0842481  20.0219262
  36.5440216  17.5768501  27.2105392  36.3001148  18.3310561  26.6739668
  36.8200147  17.9553848  28.0452639  38.4978679  24.1207113  25.8882658
  38.7095574  24.7638873  25.2117039  38.4508427  23.2869430  25.4204588
  29.8090559  24.8238606  22.1372799  30.3791916  25.2525874  21.4990283
  30.3998670  24.5421190  22.8356984  30.3015725  19.9902033  30.3833810
  29.6714386  20.6718314  30.6169207  30.1951813  19.8785115  29.4386948
  39.6124507  26.9979068  24.0605015  40.4341951  26.5959256  23.7787697
  39.6086910  26.8947303  25.0121131  33.3781111  26.5463112  26.2165726
  33.4425543  27.0083519  27.0523897  32.6692034  25.9160477  26.3448035
  47.7030500  23.3417817  20.4089987  46.9494209  22.7725215  20.2533991
  47.8378041  23.3080481  21.3560621  29.5796468  14.2922799  32.7459061
  29.1863413  13.7388998  33.4206705  30.3962608  14.6033378  33.1365579
  28.3553410  28.8472414  18.7395384  28.5320039  29.7690378  18.5516368
  29.1510244  28.5330833  19.1689764  32.4964429  15.7080678  30.3379318
  33.2374142  16.3087831  30.2583780  32.7282352  14.9658316  29.7797360
  27.6405767  20.8937045  28.6157547  27.5259282  19.9922303  28.9164646
  26.7850285  21.1400742  28.2642364  34.7197605  28.8354786  30.2145048
  34.2761459  28.0491164  29.8965952  35.3814818  29.0233936  29.5488939
  29.4784726  30.3650587  24.7405726  30.0292151  30.2367651  23.9682720
  28.6396202  30.6645476  24.3900619  36.8178843  29.1157586  28.2426449
  36.7997318  29.9366467  27.7506718  37.7398763  28.9911661  28.4676590
  33.2751897  26.6301715  29.0849958  33.8080234  25.8690003  28.8549266
  32.7465978  26.3375367  29.8274112  39.6197456  23.9536728  21.7135816
  38.9621130  24.6435990  21.8015945  40.4237855  24.3433160  22.0569802
  38.4302914  22.3081101  19.7639758  38.9434796  22.9411093  20.2661467
  39.0804138  21.7082296  19.3983118  34.9083745  19.7830556  22.0098098
  33.9906307  20.0045503  21.8519786  35.3243889  19.8576867  21.1509806
  39.1964711  27.2887102  17.8918900  38.7427038  26.4478012  17.9484091
  38.5658677  27.9248501  18.2293680  37.6397650  29.1263599  18.8268718
  37.9320624  29.6868656  18.1081084  38.1496270  29.4192160  19.5821878
  32.6031275  29.9043950  19.9162172  32.5607454  30.1304796  18.9870704
  33.5193974  29.6707325  20.0647973  36.0496909  20.3728018  26.8142801
  36.4046296  20.5999491  27.6737267  36.6969040  20.7046394  26.1920056
  41.7794646  23.4946453  17.5192130  41.6412544  23.6848049  16.5913319
  41.4230865  24.2565836  17.9760181  41.8064025  25.5622980  22.5303401
  42.2400532  25.4698270  23.3786455  42.5195606  25.5380481  21.8923417
  35.5391920  29.1625075  24.0636502  35.5928942  29.7316011  24.8314218
  34.6706702  29.3326960  23.6990539  28.4190314  18.8642631  25.5460953
  29.0913367  18.6559993  24.8973602  27.5920100  18.6664717  25.1066186
  42.6679575  25.6046681  25.0636287  42.8615465  26.5092492  25.3095562
  42.5680193  25.1454100  25.8974872  34.3215886  15.4904572  27.5626614
  33.6743801  16.1894521  27.4691091  35.0916901  15.9240716  27.9302862
  37.7294684  25.7553424  30.6377167  37.5780190  25.5263976  29.7207251
  37.7199363  26.7124025  30.6508512  34.4980020  23.3285337  25.6223434
  35.4272080  23.4796496  25.4492401  34.0771050  23.4169357  24.7672080
  33.2968352  27.3536001  23.3921971  33.1579437  26.9854785  24.2647910
  32.5082948  27.8683640  23.2205929  33.8916504  32.4545098  14.7347508
  34.0668259  31.9833141  15.5493131  33.2049292  33.0810864  14.9628769
  34.8473567  26.7317604  20.7810809  34.5123399  26.6918374  21.6768459
  34.3477513  26.0662320  20.3081219  28.8217811  22.1385234  26.3063390
  28.6837609  21.4065473  26.9074929  29.7322734  22.0494134  26.0247578
  31.4500112  21.8505193  25.7947070  32.1599730  21.2098385  25.7533688
  31.4069420  22.1018088  26.7173251  39.4386890  28.7872546  28.7153649
  39.3799436  28.1031767  28.0484232  39.8406409  29.5291536  28.2634275
  30.1629045  18.8370411  27.6142710  29.6266403  18.3861149  28.2664306
  29.5745754  18.9716320  26.8713174  28.4577589  35.6034460  21.5087368
  28.6974187  36.2352984  22.1866387  27.6146785  35.2522500  21.7952727
  39.4404297  26.7512130  26.9467629  38.5531076  26.4138052  27.0694028
  40.0102849  26.0195162  27.1836394  32.9705451  31.4113583  23.9128872
  32.8975622  32.2168554  24.4248177  32.5282844  31.6105549  23.0876894
  32.7595230  30.6485353  17.4231694  31.9762752  31.1907033  17.5169918
  33.4587976  31.1659332  17.8225935  43.9221638  22.1620348  21.7084191
  43.9111514  23.0445063  21.3378124  43.0539017  21.8091899  21.5138728
  35.4304134  31.3100417  26.0687031  36.1432107  31.9447882  25.9962932
  34.9394163  31.4064283  25.2527033  30.4816048  29.0594860  26.8892602
  31.1825507  29.6931343  27.0421996  30.0111163  29.4009592  26.1288241
  38.2817334  21.6139468  24.7145152  37.6288784  21.8615375  24.0597605
  38.6597714  20.8003606  24.3807629  35.2424508  31.6499161  18.8173322
  35.4246902  30.8320817  19.2801075  36.0657494  31.8666853  18.3798212
  35.5766673  30.5767346  16.0788371  36.1054440  30.0659801  15.4658533
  35.8394893  30.2609876  16.9433904  34.3304907  22.3559279  31.2011189
  33.6545544  22.2553408  31.8713564  35.1532541  22.1998492  31.6647186
  26.0783766  28.5931215  23.8223704  26.6637203  27.8474903  23.9551608
  25.8808604  28.9035172  24.7060368  28.9322421  31.6282463  18.8386147
  28.2632796  32.1128590  18.3550187  28.7935291  31.8751683  19.7529525
  33.0727690  33.6626206  25.4368805  33.6245998  33.8257828  26.2017890
  33.4133883  34.2530644  24.7648830  27.5244456  18.0824489  29.6863724
  28.1516494  17.7001566  30.3001248  26.6672374  17.8638690  30.0519416
  37.9238564  28.4887464  31.2917459  38.4678468  29.1017422  30.7972414
  37.3425409  29.0467042  31.8084472  36.2096077  31.6108182  22.4232487
  36.0847217  30.8097922  21.9143433  36.8675168  32.1054375  21.9346457
  38.2730985  29.4117202  24.0512037  37.3261321  29.2922553  23.9790364
  38.6213759  28.5239700  24.1338299  30.6330559  15.3011341  27.8750279
  31.1564961  15.5473637  28.6376588  30.4142892  16.1331376  27.4553417
  35.2777419  29.2069918  20.2516389  35.1302381  28.2786625  20.4323960
  36.1030912  29.2290009  19.7673465  38.8811541  30.0298477  21.3381262
  39.8058088  29.8241338  21.2005713  38.7126844  29.7814878  22.2470604
  31.8383104  16.2425036  25.5599950  31.4979924  15.4432849  25.9620630
  31.1322110  16.5426747  24.9876783  33.7260668  17.4433357  23.9153268
  33.4678446  18.3650428  23.9137599  33.1945708  17.0463792  24.6053732
  38.6706857  30.5484144  16.6943354  38.8443734  29.9830567  15.9417206
  39.1635748  31.3485039  16.5122844  24.4883817  22.5598813  24.7606913
  23.9437285  23.3358621  24.8927187  25.3663166  22.9069618  24.6026034
  44.5246248  23.3120567  18.3133653  44.9677394  22.5627892  17.9152777
  43.6472758  23.3030703  17.9307385  39.6582029  29.8650909  13.7940252
  40.3532934  30.4857601  14.0127567  40.0005179  29.0146260  14.0692630
  25.2749838  21.6868710  27.6537069  24.5331574  21.8351345  28.2401700
  24.9542583  21.9476975  26.7903819  41.5573452  27.3150614  15.3227583
  42.0824776  27.6537887  14.5976903  41.4695805  26.3797629  15.1390717
  33.2193501  31.2284688  27.4517459  33.5280628  30.9833835  28.3240159
  34.0168983  31.4331326  26.9636330  33.2414113  33.3822597  19.6822836
  32.8019103  32.8898976  20.3755693  33.9922230  32.8395565  19.4414911
  25.7206452  29.5734138  19.6847464  26.5464472  29.2737910  19.3046108
  25.3700504  28.8041761  20.1337253  30.6887985  28.9260606  21.7545138
  30.0667995  28.2631312  21.4547365  31.3592852  28.9521738  21.0718785
  30.7612513  17.4042395  31.3477644  30.8100668  18.2804517  30.9655413
  31.3035027  16.8619788  30.7749287  41.2467358  27.9483518  30.6278781
  40.4562902  27.9307657  30.0883280  41.0100713  28.4871811  31.3827817
  41.3665234  24.7975984  27.9411509  41.4163238  24.6325992  28.8827032
  41.2579157  23.9303243  27.5509390  38.6568996  20.7806912  29.2570816
  39.5578859  20.6413377  28.9654814  38.7316970  20.9461367  30.1968993
  32.9911801  18.1573767  28.1024002  32.1215111  18.4507333  27.8306591
  33.2271282  18.7414212  28.8231266  42.8683430  27.2172926  28.1853531
  42.5768239  27.5802906  29.0216992  42.2555562  26.5039934  28.0066863
  44.0679113  24.7825805  20.7056101  44.9026004  25.2215609  20.8693661
  44.2038241  24.3064459  19.8864347  41.1170619  22.3405540  26.6533589
  41.5924740  22.5333187  25.8452440  40.1936184  22.3964726  26.4076972
  35.6950835  14.3753384  25.6189423  36.2132779  15.1114411  25.2935911
  35.3405968  14.6817377  26.4536182  39.8172288  19.2171300  24.8861894
  40.7689710  19.3169398  24.9074118  39.6475738  18.4249569  25.3959979
  37.8386667  16.3026884  25.0721295  37.2436599  16.5831896  24.3767784
  37.5536364  16.7920785  25.8438036  42.2960365  22.4377420  24.0004194
  42.2636685  21.4993421  24.1863878  42.9060989  22.5161457  23.2670019
  42.4454854  19.2288463  24.0462477  41.9293902  18.4446920  23.8592406
  43.3294802  18.9007180  24.2108997  48.1136915  23.4993427  23.1410231
  48.8440304  23.2378715  23.7017934  47.5043861  22.7622149  23.1812299
  46.1952212  21.6401289  23.7384682  45.4685376  21.5057254  23.1301174
  45.7799499  21.9478118  24.5441400  34.0182389  25.3591219  31.5032055
  34.9385398  25.5369818  31.6972102  33.9831972  24.4147265  31.3511754
  27.0144461  23.2692254  24.1454836  27.2330471  24.2009362  24.1642870
  27.4270235  22.9100228  24.9309640  31.8872327  18.8425460  33.5357585
  31.7869054  19.7919817  33.4669676  31.6693869  18.5143698  32.6633655
  31.7503597  22.2722598  32.3522647  31.2670678  23.0722959  32.5586536
  31.8364536  22.2830543  31.3990091  27.6776934  26.1627133  24.3891081
  28.6320188  26.1311075  24.3221012  27.4789458  25.7017757  25.2041306
  28.2676316  24.7328249  26.9561878  29.0869205  25.2272328  26.9796716
  28.5413124  23.8160217  26.9279446  43.8130007  17.8613142  21.0918114
  44.4074498  17.6208878  20.3811422  43.8856591  17.1420272  21.7191650
  26.0327163  31.7046753  21.4061278  25.8981631  30.9447153  20.8399276
  25.6159225  32.4287652  20.9390067  46.1201080  21.1679343  19.8661535
  45.5600638  21.2372532  20.6393097  45.5144583  20.9920327  19.1461031
  29.1896289  32.6016070  21.6179721  29.0728673  33.5461502  21.5158411
  28.3688735  32.2989631  22.0065520  23.5211231  19.0666383  27.6554075
  24.1670094  18.5565337  28.1441300  23.3128382  19.8035065  28.2297501
  36.0464623  26.1347231  33.1546216  36.9155782  26.3087883  32.7932851
  35.5671374  26.9541647  33.0321945  30.2150803  33.2544332  24.8335650
  31.1178050  33.2867942  25.1502144  29.9888173  32.3244782  24.8481985
  31.9704405  32.0075318  21.4945728  31.0200036  32.0077180  21.3810100
  32.2736891  31.2608053  20.9781763  27.8608722  16.2134000  31.7529090
  28.7240183  15.8570805  31.9632414  27.2874132  15.8747895  32.4404494
  47.7057098  37.8435856  22.5591491  48.3435508  37.7242604  21.8554831
  47.5877941  38.7916700  22.6179443  44.5146805  37.7963285  22.4953015
  44.1765316  37.6804349  21.6073550  45.3836573  37.3954450  22.4754021
  40.3733620  39.6498761  18.4849906  39.8098486  39.5588698  17.7166194
  40.2586015  38.8298665  18.9652399  44.9966588  38.9498136  28.4539221
  44.9855229  38.5550935  27.5819724  45.1587227  38.2164209  29.0472992
  37.9198052  41.1449953  21.3234127  38.7119344  40.8040777  20.9080426
  38.1594703  41.2544928  22.2436280  45.9533179  43.3169729  13.7964371
  45.3021159  43.9023809  13.4098385  46.7477542  43.8475924  13.8559409
  39.8788806  40.4058866  14.1951505  40.6519682  39.8587853  14.0564381
  40.2314205  41.2703115  14.4065967  41.7173849  41.7335248  27.4018405
  41.4263715  42.6380879  27.2865071  42.3530833  41.7751776  28.1162474
  42.6430056  39.1112097  23.9919764  43.2393628  38.8868119  23.2776727
  42.7005027  38.3696842  24.5945212  42.2155084  36.5651532  11.8269955
  42.4680605  36.0433053  11.0653418  41.2779643  36.4017677  11.9296639
  47.2598367  35.5687310  19.6344699  48.0461456  35.1506733  19.2835116
  47.5237071  36.4733402  19.8026347  47.4308444  41.0060161  14.3333355
  46.7954277  41.0794787  15.0454260  47.1005851  41.5953759  13.6552435
  52.6606794  35.5062544  20.5377677  53.3931966  34.9361760  20.7715507
  51.9046150  35.1184144  20.9784183  41.9351373  38.4679638  14.0294330
  41.8187631  37.7924541  14.6975415  42.0453633  37.9812012  13.2126483
  44.2782914  37.9289785  17.7341020  43.9141121  37.4020406  18.4453941
  45.1350030  37.5388254  17.5607505  50.1832214  29.2184118  24.9972286
  49.8515539  30.0879529  24.7733501  49.5877828  28.9020402  25.6766316
  43.9188401  32.9579685  12.7302368  44.0862803  33.8259921  13.0972839
  43.7285570  33.1206966  11.8063657  46.6763734  41.4196664  24.3968198
  46.3764457  42.3221702  24.2884006  46.3314793  41.1528847  25.2489351
  40.1276215  37.8710460  20.4304903  39.2026712  37.7386675  20.6382595
  40.3760629  38.6504680  20.9274845  50.0760878  33.9379204  22.0765636
  49.1677755  33.8694612  21.7824397  50.0248474  34.4151149  22.9047461
  43.8977622  35.4137342  13.7149035  43.7777247  35.8594393  14.5534515
  43.2030210  35.7622660  13.1562573  37.4885026  37.5143734  21.2648692
  37.6177408  37.7678213  22.1788104  36.8082478  38.1071442  20.9453347
  41.6584514  48.1840984  17.3639166  41.5808543  49.1348809  17.4427647
  41.0546157  47.8386856  18.0214092  44.1501744  35.3568849  30.0200533
  43.3735078  35.9162770  30.0103398  44.7892307  35.8425632  30.5415403
  51.9422524  32.1395642  23.8543510  51.2996904  32.4328175  23.2083304
  51.4377453  32.0248563  24.6596706  49.5962688  35.8858815  14.5429369
  50.5080544  36.1186202  14.3677066  49.0872335  36.4695860  13.9804448
  42.4048116  38.1654303  29.5818500  43.1462800  38.7039347  29.3053324
  41.6985101  38.7920591  29.7390052  47.8803455  40.3083443  28.1790662
  48.2886812  39.8665854  27.4345294  47.1580717  39.7336071  28.4324854
  44.2334526  35.2456050  25.5524218  45.0795721  35.6695464  25.6958867
  44.1733163  34.5889674  26.2462782  48.2032270  40.8684634  21.9342950
  47.5741133  41.0330348  21.2319018  47.8157932  41.2826243  22.7053914
  52.0821502  41.8039072  19.2887314  51.3972540  42.1837973  18.7384347
  52.1665351  42.4134398  20.0219262  47.3833971  32.9060418  27.2105392
  47.1394903  33.6602479  26.6739668  47.6593901  33.2845766  28.0452639
  49.3372434  39.4499031  25.8882658  49.5489329  40.0930791  25.2117039
  49.2902182  38.6161347  25.4204588  46.9398663  32.0616851  22.7919230
  46.0783142  32.3598105  23.0835967  46.9661097  32.2787250  21.8600262
  43.7560232  40.6059042  19.1993036  44.2198578  40.8846745  18.4097658
  43.4917030  39.7042486  19.0166126  40.6484313  40.1530523  22.1372799
  41.2185670  40.5817792  21.4990283  41.2392425  39.8713108  22.8356984
  42.6929118  36.7282194  16.0082601  43.3953161  37.1803238  16.4756527
  42.3609747  36.0866013  16.6362494  41.1409480  35.3193951  30.3833810
  40.5108140  36.0010232  30.6169207  41.0345567  35.2077033  29.4386948
  36.4354452  34.9865747  21.3099734  35.6453506  35.2423275  20.8339845
  36.9265699  35.8014085  21.4151775  50.4518262  42.3270986  24.0605015
  51.2735705  41.9251173  23.7787697  50.4480664  42.2239220  25.0121131
  38.3869197  35.3510326  18.2683211  37.5900361  35.4629020  18.7866707
  38.1594790  35.6896978  17.4024101  44.2174865  41.8755029  26.2165726
  44.2819298  42.3375437  27.0523897  43.5085789  41.2452394  26.3448035
  34.7192155  35.2396237  23.7414725  34.9700193  36.1243247  24.0072301
  35.2551703  35.0600839  22.9689817  58.5424255  38.6709735  20.4089987
  57.7887963  38.1017133  20.2533991  58.6771796  38.6372399  21.3560621
  43.9322883  43.5423137  16.0844706  43.7968557  44.3874673  16.5129554
  44.4732695  43.7442415  15.3210640  40.4190222  29.6214717  32.7459061
  40.0257168  29.0680915  33.4206705  41.2356363  29.9325295  33.1365579
  37.3852280  41.0598575  16.6572631  37.8976801  41.8541825  16.8078196
  38.0374993  40.3624865  16.5906232  39.1947165  44.1764331  18.7395384
  39.3713793  45.0982296  18.5516368  39.9903998  43.8622750  19.1689764
  43.3358183  31.0372596  30.3379318  44.0767897  31.6379749  30.2583780
  43.5676106  30.2950234  29.7797360  38.4799521  36.2228963  28.6157547
  38.3653036  35.3214220  28.9164646  37.6244039  36.4692660  28.2642364
  45.5591359  44.1646703  30.2145048  45.1155213  43.3783082  29.8965952
  46.2208573  44.3525854  29.5488939  40.3178480  45.6942505  24.7405726
  40.8685905  45.5659568  23.9682720  39.4789956  45.9937394  24.3900619
  47.6572597  44.4449503  28.2426449  47.6391072  45.2658384  27.7506718
  48.5792517  44.3203579  28.4676590  44.1145651  41.9593633  29.0849958
  44.6473988  41.1981921  28.8549266  43.5859732  41.6667285  29.8274112
  47.2815346  27.0653699  24.6143599  46.9379616  27.9555340  24.5382710
  47.6494309  26.8755356  23.7513184  35.3501197  39.3887229  17.4332201
  36.1876419  39.7984238  17.2165909  35.5279465  38.4486671  17.4032395
  47.2465629  37.0562310  13.1216034  46.7312252  37.8266915  13.3604422
  46.9742937  36.3827446  13.7449096  44.8312740  31.9012011  18.1801273
  43.9754336  31.5118861  18.0006912  45.2439692  31.9803971  17.3201058
  46.3611887  29.4358354  22.5792833  45.8576682  29.3988489  21.7660638
  46.6542494  30.3451097  22.6389489  42.6054773  29.5197084  21.5859014
  43.4707769  29.3239892  21.2264904  42.6732281  29.2907435  22.5128371
  52.2199903  39.8094665  15.0569208  51.4429346  39.4705824  14.6124370
  52.8991384  39.8147288  14.3824173  47.0351932  34.9289402  14.9475816
  46.7302068  35.2435551  15.7985959  47.9882374  35.0070822  14.9903149
  45.4798364  41.0879625  16.5968770  44.9519726  40.3532385  16.2842007
  44.9785867  41.8654302  16.3508738  50.4591210  39.2828646  21.7135816
  49.8014884  39.9727907  21.8015945  51.2631609  39.6725078  22.0569802
  40.2117092  31.7499292  18.9575381  40.7860843  31.5274473  18.2248574
  40.7988074  31.8187986  19.7103982  49.2696669  37.6373018  19.7639758
  49.7828551  38.2703010  20.2661467  49.9197893  37.0374214  19.3983118
  40.5386679  33.7803753  12.9771266  39.7023991  34.1178439  13.2980541
  40.3991448  33.6452732  12.0398403  42.5139759  28.6240540  17.6850451
  41.8604172  28.3089558  17.0607065  42.4720233  28.0016281  18.4110273
  43.6250964  38.9059836   9.6003743  42.7178026  38.6749089   9.7994892
  44.1221996  38.1097455   9.7877724  46.5319043  47.6157343  12.5200429
  45.8580742  47.9189040  13.1285387  46.9184865  48.4186423  12.1705886
  45.7477500  35.1122474  22.0098098  44.8300061  35.3337421  21.8519786
  46.1637643  35.1868785  21.1509806  46.5312547  36.5113890  17.1400778
  47.2784366  37.0235287  16.8307900  46.8004137  36.1897942  18.0005172
  44.8039198  39.0072430  14.1227733  43.8950417  38.7231463  14.2200202
  44.8334281  39.4271509  13.2631040  50.0358465  42.6179020  17.8918900
  49.5820792  41.7769930  17.9484091  49.4052432  43.2540418  18.2293680
  48.9791385  33.5471006  19.1219568  48.2414141  33.0348392  19.4529810
  49.2318158  33.1071388  18.3102845  48.4791404  44.4555517  18.8268718
  48.7714379  45.0160574  18.1081084  48.9890025  44.7484078  19.5821878
  49.0803012  26.3247258  19.7161337  49.3861889  25.4644621  19.4287252
  49.8055617  26.9164878  19.5160331  35.3727368  36.7277945  18.1042935
  35.1751768  36.1347305  17.3794001  34.8174032  36.4230155  18.8218874
  43.3524092  36.6201051  20.2237528  43.4072701  35.6674887  20.1480005
  42.5415294  36.7760490  20.7078826  44.5015285  40.5481174  11.4615811
  44.0634715  39.8317033  11.0021449  45.2425726  40.7757289  10.9000903
  41.2916452  35.2378111  17.9827907  40.4784317  35.5372281  18.3893099
  41.7875446  34.8433800  18.7002389  43.4425029  45.2335868  19.9162172
  43.4001208  45.4596714  18.9870704  44.3587728  44.9999242  20.0647973
  46.8890663  35.7019935  26.8142801  47.2440051  35.9291408  27.6737267
  47.5362794  36.0338312  26.1920056  52.6188400  38.8238371  17.5192130
  52.4806299  39.0139967  16.5913319  52.2624619  39.5857754  17.9760181
  40.7830526  32.8096466  23.5989142  41.4229906  32.6685225  22.9012105
  39.9508057  32.5230980  23.2227744  52.6457780  40.8914898  22.5303401
  53.0794286  40.7990187  23.3786455  53.3589360  40.8672399  21.8923417
  41.5590830  42.1098897  19.7124134  42.3531429  41.6149217  19.5106709
  40.8482523  41.5816760  19.3491840  46.3785675  44.4916992  24.0636502
  46.4322697  45.0607929  24.8314218  45.5100456  44.6618877  23.6990539
  37.8673594  36.2541978  15.7883887  36.9371182  36.1926434  16.0053849
  37.9631066  35.7317931  14.9920528  37.7859143  32.7796791  18.3762129
  38.0465960  33.6942125  18.2671289  38.6076315  32.3121234  18.5258742
  39.2584068  34.1934548  25.5460953  39.9307121  33.9851911  24.8973602
  38.4313855  33.9956634  25.1066186  53.5073329  40.9338599  25.0636287
  53.7009219  41.8384409  25.3095562  53.4073948  40.4746018  25.8974872
  45.1609640  30.8196489  27.5626614  44.5137555  31.5186439  27.4691091
  45.9310655  31.2532633  27.9302862  48.5688438  41.0845342  30.6377167
  48.4173944  40.8555893  29.7207251  48.5593118  42.0415943  30.6508512
  45.3373774  38.6577254  25.6223434  46.2665834  38.8088414  25.4492401
  44.9164804  38.7461275  24.7672080  44.1362106  42.6827919  23.3921971
  43.9973192  42.3146703  24.2647910  43.3476702  43.1975558  23.2205929
  44.7310258  47.7837015  14.7347508  44.9062014  47.3125058  15.5493131
  44.0443046  48.4102781  14.9628769  45.6867321  42.0609521  20.7810809
  45.3517154  42.0210291  21.6768459  45.1871267  41.3954237  20.3081219
  39.6611565  37.4677151  26.3063390  39.5231363  36.7357390  26.9074929
  40.5716489  37.3786052  26.0247578  48.6226513  39.4065556  11.0547869
  48.0055684  38.6812384  10.9580922  48.1543001  40.1674916  10.7114943
  42.2893866  37.1797111  25.7947070  42.9993485  36.5390303  25.7533688
  42.2463174  37.4310006  26.7173251  50.2780645  44.1164464  28.7153649
  50.2193191  43.4323684  28.0484232  50.6800163  44.8583454  28.2634275
  41.0022800  34.1662329  27.6142710  40.4660157  33.7153067  28.2664306
  40.4139508  34.3008237  26.8713174  39.2971343  50.9326378  21.5087368
  39.5367942  51.5644902  22.1866387  38.4540540  50.5814418  21.7952727
  50.2798052  42.0804048  26.9467629  49.3924831  41.7429970  27.0694028
  50.8496603  41.3487079  27.1836394  31.9327199  38.4128140  20.2710680
  32.6198239  38.0989870  19.6831696  31.7775328  39.3169504  19.9977932
  36.7361921  33.3018336  24.6995704  36.6520110  32.6944006  23.9646114
  35.9144628  33.7927355  24.7005200  43.8099205  46.7405500  23.9128872
  43.7369377  47.5460472  24.4248177  43.3676598  46.9397466  23.0876894
  43.5988985  45.9777270  17.4231694  42.8156507  46.5198951  17.5169918
  44.2981730  46.4951250  17.8225935  46.9085635  31.7871900  20.0665899
  47.4054335  31.0341862  19.7466969  46.1372617  31.8236217  19.5009108
  54.7615392  37.4912265  21.7084191  54.7505269  38.3736981  21.3378124
  53.8932772  37.1383816  21.5138728  46.2697889  46.6392334  26.0687031
  46.9825861  47.2739799  25.9962932  45.7787918  46.7356200  25.2527033
  47.9915416  40.5443587  17.6404322  47.0571695  40.6645050  17.4709027
  48.1692084  39.6416054  17.3764332  43.4920604  33.9289283  19.7937584
  43.1218391  33.3760323  20.4818489  43.9879696  33.3247416  19.2412584
  51.3787967  36.3860906  18.1754357  51.8448419  37.2188898  18.1014659
  51.8295468  35.9205888  18.8799615  41.3209802  44.3886778  26.8892602
  42.0219262  45.0223261  27.0421996  40.8504917  44.7301509  26.1288241
  49.4464198  42.7304728  15.1740509  49.7224042  42.6161322  16.0834383
  48.5768697  42.3322213  15.1352682  49.3504630  28.7541493  22.2145258
  48.4367710  28.9845720  22.3827465  49.7797731  28.8379937  23.0659290
  49.1211088  36.9431385  24.7145152  48.4682539  37.1907293  24.0597605
  49.4991468  36.1295524  24.3807629  46.0818262  46.9791079  18.8173322
  46.2640657  46.1612734  19.2801075  46.9051248  47.1958771  18.3798212
  46.4160428  45.9059264  16.0788371  46.9448194  45.3951718  15.4658533
  46.6788647  45.5901794  16.9433904  45.1698661  37.6851196  31.2011189
  44.4939298  37.5845326  31.8713564  45.9926295  37.5290410  31.6647186
  36.9177520  43.9223133  23.8223704  37.5030957  43.1766821  23.9551608
  36.7202359  44.2327090  24.7060368  39.7716176  46.9574380  18.8386147
  39.1026551  47.4420508  18.3550187  39.6329045  47.2043601  19.7529525
  31.5095175  36.4928733  22.5428147  31.5479275  35.9592324  23.3365266
  31.0035468  35.9663939  21.9239125  43.9121444  48.9918124  25.4368805
  44.4639752  49.1549745  26.2017890  44.2527638  49.5822562  24.7648830
  38.8885937  31.3393274  26.0390690  38.9527264  32.2008105  25.6268087
  38.8253058  30.7267275  25.3063048  38.3638210  33.4116406  29.6863724
  38.9910249  33.0293484  30.3001248  37.5066129  33.1930608  30.0519416
  48.7632319  43.8179381  31.2917459  49.3072223  44.4309340  30.7972414
  48.1819163  44.3758960  31.8084472  35.1403753  35.2192835  15.6182079
  35.4357194  34.3103514  15.5649133  34.2391789  35.1980575  15.2963081
  47.0489832  46.9400099  22.4232487  46.9240971  46.1389839  21.9143433
  47.7068923  47.4346293  21.9346457  38.6698000  33.2948832  21.6009627
  37.9484586  33.9084800  21.4617101  39.4591256  33.8306597  21.5226273
  49.1124740  44.7409119  24.0512037  48.1655075  44.6214471  23.9790364
  49.4607513  43.8531618  24.1338299  41.4724313  30.6303258  27.8750279
  41.9958715  30.8765555  28.6376588  41.2536647  31.4623293  27.4553417
  36.8691594  32.9006933  15.7421404  36.5404301  32.0204312  15.5596510
  37.2230965  32.8454602  16.6297793  46.1171173  44.5361836  20.2516389
  45.9696136  43.6078543  20.4323960  46.9424667  44.5581926  19.7673465
  39.9833418  33.1879903  16.1096882  40.3229490  33.7165824  15.3875490
  40.4305538  33.5260309  16.8855448  49.7205295  45.3590394  21.3381262
  50.6451843  45.1533256  21.2005713  49.5520598  45.1106796  22.2470604
  42.6776858  31.5716953  25.5599950  42.3373679  30.7724767  25.9620630
  41.9715865  31.8718664  24.9876783  43.3293330  28.6566266  24.0127273
  44.1519399  28.1826744  23.8906163  43.5731394  29.4356750  24.5125959
  41.9701565  31.6854524  14.3090174  42.6909927  32.0635777  13.8053891
  41.3466869  32.4043401  14.4125152  46.1132688  32.3899673  15.2448507
  46.3296302  33.2724311  14.9437335  45.6326755  31.9985887  14.5154149
  40.8531909  35.3485387  21.8219251  40.7076490  35.6625690  22.7143533
  40.3757113  35.9670287  21.2690150  42.7128292  32.3387935  21.8700141
  42.6989861  31.4429028  21.5332439  43.4300720  32.3458598  22.5038427
  44.5654423  32.7725275  23.9153268  44.3072200  33.6942345  23.9137599
  44.0339463  32.3755709  24.6053732  49.5100611  45.8776062  16.6943354
  49.6837489  45.3122484  15.9417206  50.0029503  46.6776957  16.5122844
  35.3277571  37.8890731  24.7606913  34.7831039  38.6650539  24.8927187
  36.2056921  38.2361535  24.6026034  42.1165188  31.2202315  17.1387711
  42.2381099  30.2918961  17.3378599  41.8267230  31.2341001  16.2266026
  44.9856378  28.9057225  20.2754431  45.0078075  28.9696558  19.3206410
  45.4024437  28.0661734  20.4694937  55.3640002  38.6412485  18.3133653
  55.8071148  37.8919810  17.9152777  54.4866513  38.6322621  17.9307385
  50.4975784  45.1942826  13.7940252  51.1926688  45.8149519  14.0127567
  50.8398934  44.3438177  14.0692630  36.1143593  37.0160627  27.6537069
  35.3725329  37.1643263  28.2401700  35.7936337  37.2768893  26.7903819
  52.3967207  42.6442532  15.3227583  52.9218531  42.9829805  14.5976903
  52.3089559  41.7089547  15.1390717  44.0587256  46.5576605  27.4517459
  44.3674382  46.3125752  28.3240159  44.8562738  46.7623244  26.9636330
  44.0807868  48.7114515  19.6822836  43.6412858  48.2190894  20.3755693
  44.8315985  48.1687483  19.4414911  36.5600207  44.9026056  19.6847464
  37.3858227  44.6029828  19.3046108  36.2094259  44.1333678  20.1337253
  41.5281740  44.2552524  21.7545138  40.9061749  43.5923229  21.4547365
  42.1986607  44.2813656  21.0718785  34.7608812  42.8212382  20.6436398
  33.9240720  42.3934557  20.4620399  34.7332457  43.0144826  21.5807189
  41.6006267  32.7334312  31.3477644  41.6494423  33.6096435  30.9655413
  42.1428781  32.1911705  30.7749287  52.0861113  43.2775435  30.6278781
  51.2956657  43.2599574  30.0883280  51.8494468  43.8163729  31.3827817
  52.2058988  40.1267902  27.9411509  52.2556993  39.9617909  28.8827032
  52.0972911  39.2595161  27.5509390  41.0895247  42.8056448  15.2303598
  41.2383367  43.4891912  14.5770271  41.8961690  42.7861538  15.7453054
  49.4962750  36.1098830  29.2570816  50.3972613  35.9705295  28.9654814
  49.5710725  36.2753285  30.1968993  43.8305556  33.4865685  28.1024002
  42.9608865  33.7799251  27.8306591  44.0665036  34.0706130  28.8231266
  53.7077185  42.5464843  28.1853531  53.4161993  42.9094824  29.0216992
  53.0949316  41.8331852  28.0066863  54.9072867  40.1117723  20.7056101
  55.7419759  40.5507527  20.8693661  55.0431996  39.6356376  19.8864347
  51.9564373  37.6697458  26.6533589  52.4318495  37.8625104  25.8452440
  51.0329938  37.7256644  26.4076972  38.8447880  38.8321625  16.2364667
  38.5993922  37.9283955  16.4344877  39.0143794  38.8338776  15.2944145
  46.5344590  29.7045302  25.6189423  47.0526533  30.4406328  25.2935911
  46.1799722  30.0109295  26.4536182  38.1143527  34.5649983  13.7350829
  37.4212772  34.6394338  13.0790864  37.8695279  33.8010326  14.2572345
  46.7857184  26.1245584  21.1390319  47.0658937  25.4568773  21.7650746
  47.5707791  26.3174680  20.6264983  44.5890652  45.3004578  12.7015346
  44.0164619  45.9194765  12.2485817  45.1623446  45.8503940  13.2355268
  50.6566042  34.5463218  24.8861894  51.6083465  34.6461316  24.9074118
  50.4869492  33.7541487  25.3959979  48.6780422  31.6318801  25.0721295
  48.0830354  31.9123814  24.3767784  48.3930118  32.1212702  25.8438036
  47.8087912  45.5841728  13.8323928  48.7418585  45.5187290  14.0356803
  47.7211125  46.4197995  13.3738461  50.4375929  44.9007598  10.7927875
  50.3589560  44.5667462  11.6863633  51.2585595  45.3929366  10.7919348
  53.1354120  37.7669338  24.0004194  53.1030440  36.8285338  24.1863878
  53.7454744  37.8453374  23.2670019  44.9737451  36.6365391  10.0431398
  45.9196555  36.5071599  10.1119816  44.5951696  35.8980053  10.5200826
  53.2848608  34.5580381  24.0462477  52.7687657  33.7738838  23.8592406
  54.1688557  34.2299098  24.2108997  50.9459335  28.3021397  20.0058290
  50.7484156  27.9936485  20.8901622  51.5559041  29.0283036  20.1356220
  58.9530670  38.8285345  23.1410231  59.6834058  38.5670633  23.7017934
  58.3437615  38.0914067  23.1812299  57.0345967  36.9693207  23.7384682
  56.3079130  36.8349172  23.1301174  56.6193254  37.2770036  24.5441400
  44.8576143  40.6883137  31.5032055  45.7779153  40.8661736  31.6972102
  44.8225726  39.7439182  31.3511754  34.0758308  35.8821731  20.4285330
  33.7561093  35.0287039  20.1359704  33.5291736  36.0970309  21.1843297
  37.8538216  38.5984171  24.1454836  38.0724226  39.5301279  24.1642870
  38.2663990  38.2392146  24.9309640  44.7742434  29.1052257  16.1330525
  43.9643162  28.7599342  16.5085771  45.4626851  28.7959801  16.7218136
  46.7032982  28.1830304  17.7554821  47.2564020  28.6025757  18.4144844
  46.9403068  27.2566052  17.7977777  42.7266081  34.1717377  33.5357585
  42.6262808  35.1211734  33.4669676  42.5087623  33.8435616  32.6633655
  33.9446568  39.5024642  22.3978451  33.2510040  39.0878595  21.8848406
  34.6919559  39.5445179  21.8011870  50.0811789  30.2930829  17.2633485
  49.5010458  30.9515633  16.8811538  49.8147722  29.4708173  16.8520903
  48.5315355  29.6935886  19.4654806  49.0315134  29.8052421  18.6569125
  49.1750963  29.3896939  20.1055614  42.5897351  37.6014516  32.3522647
  42.1064433  38.4014876  32.5586536  42.6758290  37.6122461  31.3990091
  35.8583311  39.4342896  20.2744466  35.8353999  39.5330583  19.3226349
  36.1683947  40.2808047  20.5961632  38.5170689  41.4919051  24.3891081
  39.4713942  41.4602993  24.3221012  38.3183212  41.0309675  25.2041306
  39.1070071  40.0620167  26.9561878  39.9262960  40.5564246  26.9796716
  39.3806878  39.1452135  26.9279446  48.8636667  32.4530919  16.3189834
  47.9762522  32.7380570  16.1010029  49.2790656  32.2924683  15.4717111
  52.2151203  32.4777440  20.0344173  52.9911593  32.9673893  20.3068790
  51.4899337  32.9035494  20.4916043  54.6523762  33.1905059  21.0918114
  55.2468253  32.9500795  20.3811422  54.7250345  32.4712190  21.7191650
  36.8720917  47.0338670  21.4061278  36.7375385  46.2739071  20.8399276
  36.4552980  47.7579570  20.9390067  48.0079880  42.2175594  10.4137854
  48.7115731  42.4225596  11.0295509  47.2842529  42.7852356  10.6786937
  48.8377691  37.9685455  16.5340124  48.7812892  38.4254007  15.6947756
  49.3906033  37.2076140  16.3562967  52.6482497  33.7575187  17.3590243
  52.3919431  33.3571823  18.1898451  52.0235365  34.4718981  17.2340383
  56.9594835  36.4971260  19.8661535  56.3994392  36.5664450  20.6393097
  56.3538338  36.3212245  19.1461031  40.0290043  47.9307987  21.6179721
  39.9122427  48.8753420  21.5158411  39.2082490  47.6281549  22.0065520
  49.9166578  42.6558123  12.4636314  50.7512182  42.2239321  12.2813789
  49.7550921  42.4840137  13.3913208  49.5712470  39.1590236  13.8292653
  49.5161274  38.9934508  12.8881097  48.9458525  39.8666269  13.9854843
  34.3604985  34.3958301  27.6554075  35.0063849  33.8857255  28.1441300
  34.1522136  35.1326982  28.2297501  46.8858377  41.4639148  33.1546216
  47.7549537  41.6379800  32.7932851  46.4065129  42.2833565  33.0321945
  42.8808596  28.6598345  13.4077971  42.8687265  29.6040185  13.5646242
  43.7732017  28.4768491  13.1137433  41.0544557  48.5836249  24.8335650
  41.9571804  48.6159859  25.1502144  40.8281928  47.6536700  24.8481985
  42.8098159  47.3367236  21.4945728  41.8593790  47.3369097  21.3810100
  43.1130646  46.5899970  20.9781763  46.6960715  25.2541122  17.6623908
  45.9293111  24.6999609  17.8080591  47.1071420  25.3262991  18.5238060
  38.7002476  31.5425918  31.7529090  39.5633938  31.1862723  31.9632414
  38.1267887  31.2039813  32.4404494  58.5450853  53.1727774  22.5591491
  59.1829263  53.0534521  21.8554831  58.4271696  54.1208618  22.6179443
  55.3540559  53.1255202  22.4953015  55.0159071  53.0096267  21.6073550
  56.2230327  52.7246367  22.4754021  51.2127375  54.9790679  18.4849906
  50.6492240  54.8880616  17.7166194  51.0979770  54.1590583  18.9652399
  48.7591807  56.4741870  21.3234127  49.5513099  56.1332695  20.9080426
  48.9988457  56.5836845  22.2436280  56.7926934  58.6461646  13.7964371
  56.1414913  59.2315727  13.4098385  57.5871296  59.1767841  13.8559409
  50.7182561  55.7350784  14.1951505  51.4913437  55.1879771  14.0564381
  51.0707960  56.5995033  14.4065967  53.4823810  54.4404014  23.9919764
  54.0787382  54.2160037  23.2776727  53.5398782  53.6988760  24.5945212
  53.0548839  51.8943450  11.8269955  53.3074359  51.3724971  11.0653418
  52.1173398  51.7309595  11.9296639  58.0992121  50.8979228  19.6344699
  58.8855211  50.4798651  19.2835116  58.3630826  51.8025320  19.8026347
  58.2702199  56.3352078  14.3333355  57.6348032  56.4086705  15.0454260
  57.9399605  56.9245677  13.6552435  63.5000549  50.8354461  20.5377677
  64.2325721  50.2653678  20.7715507  62.7439904  50.4476062  20.9784183
  52.7745127  53.7971556  14.0294330  52.6581385  53.1216459  14.6975415
  52.8847387  53.3103930  13.2126483  55.1176668  53.2581703  17.7341020
  54.7534876  52.7312324  18.4453941  55.9743784  52.8680172  17.5607505
  61.0225969  44.5476035  24.9972286  60.6909294  45.4171446  24.7733501
  60.4271582  44.2312319  25.6766316  54.7582155  48.2871602  12.7302368
  54.9256558  49.1551839  13.0972839  54.5679324  48.4498884  11.8063657
  57.5157488  56.7488581  24.3968198  57.2158212  57.6513620  24.2884006
  57.1708548  56.4820764  25.2489351  50.9669970  53.2002378  20.4304903
  50.0420466  53.0678592  20.6382595  51.2154383  53.9796597  20.9274845
  60.9154632  49.2671121  22.0765636  60.0071510  49.1986530  21.7824397
  60.8642228  49.7443066  22.9047461  54.7371376  50.7429260  13.7149035
  54.6171001  51.1886311  14.5534515  54.0423965  51.0914578  13.1562573
  48.3278781  52.8435652  21.2648692  48.4571162  53.0970131  22.1788104
  47.6476232  53.4363360  20.9453347  52.4978268  63.5132902  17.3639166
  52.4202298  64.4640727  17.4427647  51.8939912  63.1678774  18.0214092
  54.9895498  50.6860767  30.0200533  54.2128832  51.2454687  30.0103398
  55.6286061  51.1717550  30.5415403  62.7816279  47.4687560  23.8543510
  62.1390659  47.7620093  23.2083304  62.2771207  47.3540480  24.6596706
  60.4356442  51.2150733  14.5429369  61.3474298  51.4478120  14.3677066
  59.9266089  51.7987777  13.9804448  53.2441870  53.4946220  29.5818500
  53.9856555  54.0331264  29.3053324  52.5378856  54.1212509  29.7390052
  55.0728280  50.5747968  25.5524218  55.9189475  50.9987381  25.6958867
  55.0126918  49.9181592  26.2462782  59.0426025  56.1976552  21.9342950
  58.4134887  56.3622266  21.2319018  58.6551687  56.6118161  22.7053914
  62.9215257  57.1330989  19.2887314  62.2366295  57.5129891  18.7384347
  63.0059106  57.7426316  20.0219262  58.2227725  48.2352336  27.2105392
  57.9788657  48.9894397  26.6739668  58.4987656  48.6137684  28.0452639
  57.7792417  47.3908769  22.7919230  56.9176896  47.6890023  23.0835967
  57.8054852  47.6079168  21.8600262  54.5953986  55.9350960  19.1993036
  55.0592332  56.2138663  18.4097658  54.3310785  55.0334404  19.0166126
  51.4878068  55.4822441  22.1372799  52.0579425  55.9109710  21.4990283
  52.0786179  55.2005026  22.8356984  53.5322873  52.0574112  16.0082601
  54.2346916  52.5095156  16.4756527  53.2003501  51.4157931  16.6362494
  51.9803234  50.6485869  30.3833810  51.3501895  51.3302149  30.6169207
  51.8739322  50.5368950  29.4386948  47.2748207  50.3157665  21.3099734
  46.4847260  50.5715193  20.8339845  47.7659454  51.1306002  21.4151775
  61.2912016  57.6562904  24.0605015  62.1129460  57.2543091  23.7787697
  61.2874419  57.5531138  25.0121131  49.2262952  50.6802244  18.2683211
  48.4294115  50.7920938  18.7866707  48.9988544  51.0188896  17.4024101
  45.5585909  50.5688155  23.7414725  45.8093948  51.4535165  24.0072301
  46.0945458  50.3892757  22.9689817  69.3818009  54.0001652  20.4089987
  68.6281718  53.4309050  20.2533991  69.5165550  53.9664317  21.3560621
  54.7716637  58.8715055  16.0844706  54.6362312  59.7166590  16.5129554
  55.3126450  59.0734332  15.3210640  51.2583977  44.9506634  32.7459061
  50.8650922  44.3972833  33.4206705  52.0750117  45.2617213  33.1365579
  48.2246035  56.3890493  16.6572631  48.7370555  57.1833743  16.8078196
  48.8768747  55.6916783  16.5906232  50.0340919  59.5056249  18.7395384
  50.2107548  60.4274214  18.5516368  50.8297753  59.1914668  19.1689764
  54.1751938  46.3664514  30.3379318  54.9161651  46.9671667  30.2583780
  54.4069861  45.6242151  29.7797360  49.3193276  51.5520881  28.6157547
  49.2046791  50.6506138  28.9164646  48.4637794  51.7984578  28.2642364
  51.1572235  61.0234423  24.7405726  51.7079660  60.8951486  23.9682720
  50.3183711  61.3229312  24.3900619  58.1209101  42.3945616  24.6143599
  57.7773370  43.2847258  24.5382710  58.4888063  42.2047274  23.7513184
  46.1894951  54.7179147  17.4332201  47.0270173  55.1276155  17.2165909
  46.3673219  53.7778589  17.4032395  58.0859383  52.3854228  13.1216034
  57.5706007  53.1558832  13.3604422  57.8136692  51.7119364  13.7449096
  55.6706494  47.2303928  18.1801273  54.8148091  46.8410779  18.0006912
  56.0833446  47.3095889  17.3201058  57.2005641  44.7650272  22.5792833
  56.6970437  44.7280407  21.7660638  57.4936248  45.6743014  22.6389489
  53.4448527  44.8489001  21.5859014  54.3101524  44.6531810  21.2264904
  53.5126036  44.6199353  22.5128371  63.0593658  55.1386582  15.0569208
  62.2823100  54.7997742  14.6124370  63.7385139  55.1439205  14.3824173
  57.8745687  50.2581320  14.9475816  57.5695822  50.5727469  15.7985959
  58.8276129  50.3362740  14.9903149  56.3192118  56.4171543  16.5968770
  55.7913480  55.6824303  16.2842007  55.8179621  57.1946219  16.3508738
  61.2984964  54.6120563  21.7135816  60.6408639  55.3019825  21.8015945
  62.1025364  55.0016995  22.0569802  51.0510846  47.0791209  18.9575381
  51.6254598  46.8566391  18.2248574  51.6381829  47.1479904  19.7103982
  60.1090423  52.9664936  19.7639758  60.6222305  53.5994928  20.2661467
  60.7591647  52.3666132  19.3983118  51.3780433  49.1095670  12.9771266
  50.5417745  49.4470357  13.2980541  51.2385203  48.9744650  12.0398403
  53.3533514  43.9532458  17.6850451  52.6997926  43.6381475  17.0607065
  53.3113988  43.3308199  18.4110273  54.4644719  54.2351753   9.6003743
  53.5571780  54.0041007   9.7994892  54.9615751  53.4389373   9.7877724
  57.3712798  62.9449260  12.5200429  56.6974496  63.2480957  13.1285387
  57.7578620  63.7478341  12.1705886  56.5871254  50.4414392  22.0098098
  55.6693816  50.6629339  21.8519786  57.0031398  50.5160702  21.1509806
  57.3706302  51.8405807  17.1400778  58.1178121  52.3527205  16.8307900
  57.6397891  51.5189860  18.0005172  55.6432952  54.3364348  14.1227733
  54.7344171  54.0523381  14.2200202  55.6728036  54.7563427  13.2631040
  60.8752220  57.9470938  17.8918900  60.4214547  57.1061847  17.9484091
  60.2446186  58.5832336  18.2293680  59.8185139  48.8762924  19.1219568
  59.0807896  48.3640310  19.4529810  60.0711913  48.4363305  18.3102845
  59.3185159  59.7847434  18.8268718  59.6108133  60.3452491  18.1081084
  59.8283779  60.0775995  19.5821878  59.9196766  41.6539176  19.7161337
  60.2255643  40.7936539  19.4287252  60.6449371  42.2456796  19.5160331
  46.2121122  52.0569862  18.1042935  46.0145522  51.4639223  17.3794001
  45.6567786  51.7522072  18.8218874  54.1917846  51.9492969  20.2237528
  54.2466456  50.9966805  20.1480005  53.3809048  52.1052408  20.7078826
  55.3409040  55.8773092  11.4615811  54.9028470  55.1608951  11.0021449
  56.0819481  56.1049207  10.9000903  52.1310206  50.5670028  17.9827907
  51.3178072  50.8664199  18.3893099  52.6269200  50.1725717  18.7002389
  54.2818784  60.5627785  19.9162172  54.2394963  60.7888632  18.9870704
  55.1981483  60.3291160  20.0647973  57.7284418  51.0311853  26.8142801
  58.0833805  51.2583326  27.6737267  58.3756549  51.3630230  26.1920056
  63.4582155  54.1530289  17.5192130  63.3200053  54.3431885  16.5913319
  63.1018373  54.9149672  17.9760181  51.6224281  48.1388384  23.5989142
  52.2623660  47.9977143  22.9012105  50.7901811  47.8522897  23.2227744
  63.4851534  56.2206816  22.5303401  63.9188041  56.1282105  23.3786455
  64.1983115  56.1964316  21.8923417  52.3984585  57.4390814  19.7124134
  53.1925183  56.9441135  19.5106709  51.6876277  56.9108678  19.3491840
  57.2179429  59.8208910  24.0636502  57.2716451  60.3899846  24.8314218
  56.3494211  59.9910795  23.6990539  48.7067348  51.5833896  15.7883887
  47.7764936  51.5218352  16.0053849  48.8024820  51.0609849  14.9920528
  48.6252897  48.1088709  18.3762129  48.8859715  49.0234042  18.2671289
  49.4470070  47.6413152  18.5258742  50.0977823  49.5226466  25.5460953
  50.7700876  49.3143828  24.8973602  49.2707609  49.3248552  25.1066186
  56.0003395  46.1488407  27.5626614  55.3531310  46.8478357  27.4691091
  56.7704410  46.5824551  27.9302862  54.9755861  58.0119836  23.3921971
  54.8366946  57.6438621  24.2647910  54.1870457  58.5267476  23.2205929
  55.5704013  63.1128933  14.7347508  55.7455768  62.6416976  15.5493131
  54.8836801  63.7394699  14.9628769  56.5261076  57.3901439  20.7810809
  56.1910908  57.3502209  21.6768459  56.0265022  56.7246155  20.3081219
  50.5005320  52.7969069  26.3063390  50.3625118  52.0649308  26.9074929
  51.4110243  52.7077969  26.0247578  59.4620268  54.7357473  11.0547869
  58.8449438  54.0104302  10.9580922  58.9936756  55.4966834  10.7114943
  53.1287620  52.5089028  25.7947070  53.8387239  51.8682221  25.7533688
  53.0856929  52.7601923  26.7173251  51.8416554  49.4954246  27.6142710
  51.3053911  49.0444985  28.2664306  51.2533263  49.6300155  26.8713174
  50.1365098  66.2618296  21.5087368  50.3761696  66.8936820  22.1866387
  49.2934294  65.9106336  21.7952727  51.2518813  48.9542898  10.1769173
  50.3748280  48.8331699   9.8131420  51.7276566  48.1628976   9.9248062
  42.7720954  53.7420057  20.2710680  43.4591993  53.4281787  19.6831696
  42.6169082  54.6461422  19.9977932  47.5755676  48.6310254  24.6995704
  47.4913864  48.0235924  23.9646114  46.7538382  49.1219272  24.7005200
  54.6492960  62.0697418  23.9128872  54.5763131  62.8752390  24.4248177
  54.2070353  62.2689384  23.0876894  54.4382739  61.3069188  17.4231694
  53.6550261  61.8490868  17.5169918  55.1375485  61.8243168  17.8225935
  57.7479390  47.1163818  20.0665899  58.2448089  46.3633780  19.7466969
  56.9766371  47.1528134  19.5009108  65.6009147  52.8204183  21.7084191
  65.5899023  53.7028899  21.3378124  64.7326526  52.4675734  21.5138728
  57.1091643  61.9684252  26.0687031  57.8219616  62.6031717  25.9962932
  56.6181672  62.0648118  25.2527033  58.8309170  55.8735505  17.6404322
  57.8965449  55.9936967  17.4709027  59.0085839  54.9707972  17.3764332
  54.3314358  49.2581201  19.7937584  53.9612146  48.7052241  20.4818489
  54.8273451  48.6539334  19.2412584  62.2181722  51.7152824  18.1754357
  62.6842174  52.5480816  18.1014659  62.6689222  51.2497806  18.8799615
  52.1603557  59.7178696  26.8892602  52.8613016  60.3515179  27.0421996
  51.6898672  60.0593427  26.1288241  60.2857953  58.0596645  15.1740509
  60.5617797  57.9453240  16.0834383  59.4162451  57.6614130  15.1352682
  60.1898384  44.0833411  22.2145258  59.2761464  44.3137638  22.3827465
  60.6191486  44.1671855  23.0659290  59.9604843  52.2723303  24.7145152
  59.3076293  52.5199210  24.0597605  60.3385223  51.4587441  24.3807629
  56.9212017  62.3082996  18.8173322  57.1034411  61.4904652  19.2801075
  57.7445003  62.5250688  18.3798212  57.2554182  61.2351181  16.0788371
  57.7841949  60.7243636  15.4658533  57.5182402  60.9193712  16.9433904
  47.7571275  59.2515051  23.8223704  48.3424712  58.5058739  23.9551608
  47.5596113  59.5619007  24.7060368  50.6109930  62.2866298  18.8386147
  49.9420305  62.7712426  18.3550187  50.4722800  62.5335518  19.7529525
  42.3488930  51.8220651  22.5428147  42.3873029  51.2884242  23.3365266
  41.8429223  51.2955856  21.9239125  54.7515199  64.3210042  25.4368805
  55.3033507  64.4841663  26.2017890  55.0921392  64.9114479  24.7648830
  49.7279692  46.6685191  26.0390690  49.7921018  47.5300022  25.6268087
  49.6646812  46.0559193  25.3063048  49.2031965  48.7408324  29.6863724
  49.8304003  48.3585401  30.3001248  48.3459883  48.5222526  30.0519416
  45.9797507  50.5484753  15.6182079  46.2750948  49.6395431  15.5649133
  45.0785543  50.5272492  15.2963081  57.8883586  62.2692017  22.4232487
  57.7634725  61.4681757  21.9143433  58.5462677  62.7638210  21.9346457
  49.5091754  48.6240750  21.6009627  48.7878340  49.2376717  21.4617101
  50.2985010  49.1598514  21.5226273  59.9518494  60.0701037  24.0512037
  59.0048830  59.9506388  23.9790364  60.3001268  59.1823535  24.1338299
  52.3118068  45.9595176  27.8750279  52.8352470  46.2057473  28.6376588
  52.0930401  46.7915211  27.4553417  47.7085349  48.2298851  15.7421404
  47.3798055  47.3496230  15.5596510  48.0624720  48.1746519  16.6297793
  56.9564928  59.8653753  20.2516389  56.8089890  58.9370461  20.4323960
  57.7818421  59.8873844  19.7673465  50.8227172  48.5171820  16.1096882
  51.1623245  49.0457742  15.3875490  51.2699292  48.8552227  16.8855448
  60.5599050  60.6882312  21.3381262  61.4845597  60.4825173  21.2005713
  60.3914353  60.4398713  22.2470604  53.5170613  46.9008871  25.5599950
  53.1767433  46.1016684  25.9620630  52.8109619  47.2010582  24.9876783
  54.1687085  43.9858184  24.0127273  54.9913154  43.5118662  23.8906163
  54.4125148  44.7648667  24.5125959  52.8095319  47.0146442  14.3090174
  53.5303682  47.3927695  13.8053891  52.1860623  47.7335319  14.4125152
  56.9526442  47.7191591  15.2448507  57.1690056  48.6016229  14.9437335
  56.4720509  47.3277804  14.5154149  51.6925663  50.6777304  21.8219251
  51.5470244  50.9917607  22.7143533  51.2150867  51.2962205  21.2690150
  53.5522046  47.6679852  21.8700141  53.5383615  46.7720946  21.5332439
  54.2694474  47.6750516  22.5038427  55.4048177  48.1017192  23.9153268
  55.1465955  49.0234263  23.9137599  54.8733217  47.7047627  24.6053732
  60.3494366  61.2067980  16.6943354  60.5231243  60.6414402  15.9417206
  60.8423257  62.0068874  16.5122844  46.1671326  53.2182649  24.7606913
  45.6224794  53.9942457  24.8927187  47.0450675  53.5653453  24.6026034
  52.9558942  46.5494232  17.1387711  53.0774853  45.6210879  17.3378599
  52.6660985  46.5632918  16.2266026  55.8250133  44.2349143  20.2754431
  55.8471829  44.2988476  19.3206410  56.2418192  43.3953652  20.4694937
  66.2033757  53.9704402  18.3133653  66.6464903  53.2211728  17.9152777
  65.3260267  53.9614539  17.9307385  61.3369538  60.5234744  13.7940252
  62.0320443  61.1441437  14.0127567  61.6792688  59.6730095  14.0692630
  46.9537347  52.3452545  27.6537069  46.2119083  52.4935180  28.2401700
  46.6330092  52.6060810  26.7903819  63.2360961  57.9734449  15.3227583
  63.7612285  58.3121722  14.5976903  63.1483314  57.0381465  15.1390717
  54.8981010  61.8868523  27.4517459  55.2068137  61.6417670  28.3240159
  55.6956492  62.0915162  26.9636330  54.9201622  64.0406433  19.6822836
  54.4806612  63.5482811  20.3755693  55.6709739  63.4979400  19.4414911
  47.3993961  60.2317974  19.6847464  48.2251981  59.9321745  19.3046108
  47.0488013  59.4625596  20.1337253  52.3675494  59.5844442  21.7545138
  51.7455504  58.9215147  21.4547365  53.0380361  59.6105574  21.0718785
  45.6002566  58.1504300  20.6436398  44.7634474  57.7226474  20.4620399
  45.5726212  58.3436743  21.5807189  52.4400022  48.0626230  31.3477644
  52.4888177  48.9388353  30.9655413  52.9822536  47.5203623  30.7749287
  51.9289001  58.1348365  15.2303598  52.0777122  58.8183830  14.5770271
  52.7355445  58.1153455  15.7453054  54.6699310  48.8157602  28.1024002
  53.8002620  49.1091168  27.8306591  54.9058791  49.3998047  28.8231266
  65.7466622  55.4409641  20.7056101  66.5813513  55.8799445  20.8693661
  65.8825750  54.9648294  19.8864347  49.6841634  54.1613543  16.2364667
  49.4387676  53.2575873  16.4344877  49.8537549  54.1630693  15.2944145
  57.3738344  45.0337219  25.6189423  57.8920288  45.7698246  25.2935911
  57.0193477  45.3401212  26.4536182  48.9537282  49.8941900  13.7350829
  48.2606527  49.9686255  13.0790864  48.7089034  49.1302244  14.2572345
  57.6250938  41.4537502  21.1390319  57.9052692  40.7860691  21.7650746
  58.4101545  41.6466597  20.6264983  55.4284407  60.6296496  12.7015346
  54.8558374  61.2486683  12.2485817  56.0017200  61.1795857  13.2355268
  61.4959797  49.8755136  24.8861894  62.4477219  49.9753233  24.9074118
  61.3263247  49.0833404  25.3959979  59.5174176  46.9610719  25.0721295
  58.9224108  47.2415732  24.3767784  59.2323873  47.4504620  25.8438036
  58.6481666  60.9133646  13.8323928  59.5812340  60.8479207  14.0356803
  58.5604879  61.7489913  13.3738461  61.2769683  60.2299516  10.7927875
  61.1983315  59.8959380  11.6863633  62.0979350  60.7221284  10.7919348
  63.9747874  53.0961255  24.0004194  63.9424194  52.1577256  24.1863878
  64.5848498  53.1745292  23.2670019  55.8131205  51.9657308  10.0431398
  56.7590310  51.8363516  10.1119816  55.4345450  51.2271970  10.5200826
  64.1242363  49.8872299  24.0462477  63.6081411  49.1030755  23.8592406
  65.0082311  49.5591015  24.2108997  61.7853090  43.6313314  20.0058290
  61.5877911  43.3228403  20.8901622  62.3952795  44.3574953  20.1356220
  53.9974122  49.8907285   9.9786283  53.0905578  49.5940397  10.0548997
  54.2750103  49.5937103   9.1120570  44.9152063  51.2113648  20.4285330
  44.5954847  50.3578956  20.1359704  44.3685491  51.4262226  21.1843297
  48.6931970  53.9276089  24.1454836  48.9117980  54.8593197  24.1642870
  49.1057744  53.5684064  24.9309640  55.6136188  44.4344174  16.1330525
  54.8036916  44.0891259  16.5085771  56.3020605  44.1251718  16.7218136
  57.5426736  43.5122221  17.7554821  58.0957775  43.9317675  18.4144844
  57.7796823  42.5857969  17.7977777  53.5659836  49.5009295  33.5357585
  53.4656563  50.4503652  33.4669676  53.3481378  49.1727534  32.6633655
  52.7672907  46.7494220  10.1198262  53.6292071  47.0749118  10.3794080
  52.9523251  45.9625716   9.6071328  44.7840323  54.8316560  22.3978451
  44.0903794  54.4170512  21.8848406  45.5313314  54.8737096  21.8011870
  60.9205543  45.6222746  17.2633485  60.3404213  46.2807550  16.8811538
  60.6541476  44.8000091  16.8520903  59.3709110  45.0227804  19.4654806
  59.8708888  45.1344339  18.6569125  60.0144718  44.7188857  20.1055614
  53.4291106  52.9306434  32.3522647  52.9458187  53.7306794  32.5586536
  53.5152045  52.9414379  31.3990091  46.6977065  54.7634813  20.2744466
  46.6747753  54.8622501  19.3226349  47.0077702  55.6099964  20.5961632
  49.3564443  56.8210968  24.3891081  50.3107697  56.7894911  24.3221012
  49.1576967  56.3601592  25.2041306  49.9463825  55.3912085  26.9561878
  50.7656714  55.8856163  26.9796716  50.2200633  54.4744053  26.9279446
  59.7030421  47.7822837  16.3189834  58.8156277  48.0672487  16.1010029
  60.1184411  47.6216600  15.4717111  63.0544958  47.8069358  20.0344173
  63.8305348  48.2965810  20.3068790  62.3293092  48.2327412  20.4916043
  65.4917516  48.5196977  21.0918114  66.0862007  48.2792713  20.3811422
  65.5644100  47.8004108  21.7191650  47.7114672  62.3630588  21.4061278
  47.5769140  61.6030989  20.8399276  47.2946734  63.0871488  20.9390067
  58.8473635  57.5467511  10.4137854  59.5509485  57.7517514  11.0295509
  58.1236284  58.1144273  10.6786937  59.6771445  53.2977373  16.5340124
  59.6206647  53.7545924  15.6947756  60.2299788  52.5368057  16.3562967
  63.4876251  49.0867105  17.3590243  63.2313185  48.6863740  18.1898451
  62.8629119  49.8010899  17.2340383  67.7988589  51.8263178  19.8661535
  67.2388147  51.8956367  20.6393097  67.1932092  51.6504162  19.1461031
  50.8683798  63.2599905  21.6179721  50.7516182  64.2045337  21.5158411
  50.0476244  62.9573467  22.0065520  60.7560332  57.9850041  12.4636314
  61.5905936  57.5531239  12.2813789  60.5944675  57.8132054  13.3913208
  60.4106225  54.4882154  13.8292653  60.3555028  54.3226425  12.8881097
  59.7852280  55.1958187  13.9854843  45.1998740  49.7250218  27.6554075
  45.8457603  49.2149172  28.1441300  44.9915891  50.4618900  28.2297501
  53.7202350  43.9890263  13.4077971  53.7081020  44.9332103  13.5646242
  54.6125772  43.8060408  13.1137433  51.8938312  63.9128167  24.8335650
  52.7965559  63.9451777  25.1502144  51.6675682  62.9828618  24.8481985
  53.6491914  62.6659153  21.4945728  52.6987545  62.6661015  21.3810100
  53.9524400  61.9191888  20.9781763  57.5354469  40.5833040  17.6623908
  56.7686865  40.0291526  17.8080591  57.9465174  40.6554908  18.5238060
  49.5396231  46.8717835  31.7529090  50.4027692  46.5154640  31.9632414
  48.9661641  46.5331730  32.4404494  69.3844607  68.5019692  22.5591491
  70.0223017  68.3826439  21.8554831  69.2665450  69.4500536  22.6179443
  66.1934314  68.4547120  22.4953015  65.8552825  68.3388185  21.6073550
  67.0624082  68.0538285  22.4754021  62.0521129  70.3082596  18.4849906
  61.4885995  70.2172533  17.7166194  61.9373524  69.4882501  18.9652399
  59.5985561  71.8033788  21.3234127  60.3906853  71.4624613  20.9080426
  59.8382212  71.9128763  22.2436280  67.6320688  73.9753564  13.7964371
  66.9808668  74.5607644  13.4098385  68.4265051  74.5059759  13.8559409
  61.5576315  71.0642701  14.1951505  62.3307191  70.5171688  14.0564381
  61.9101714  71.9286950  14.4065967  64.3217565  69.7695932  23.9919764
  64.9181137  69.5451954  23.2776727  64.3792536  69.0280677  24.5945212
  63.8942593  67.2235367  11.8269955  64.1468114  66.7016889  11.0653418
  62.9567152  67.0601513  11.9296639  68.9385876  66.2271146  19.6344699
  69.7248965  65.8090569  19.2835116  69.2024580  67.1317238  19.8026347
  69.1095953  71.6643996  14.3333355  68.4741786  71.7378622  15.0454260
  68.7793360  72.2537595  13.6552435  74.3394303  66.1646379  20.5377677
  75.0719475  65.5945596  20.7715507  73.5833659  65.7767979  20.9784183
  63.6138882  69.1263473  14.0294330  63.4975140  68.4508377  14.6975415
  63.7241142  68.6395847  13.2126483  65.9570423  68.5873620  17.7341020
  65.5928630  68.0604241  18.4453941  66.8137539  68.1972089  17.5607505
  65.5975910  63.6163520  12.7302368  65.7650312  64.4843756  13.0972839
  65.4073079  63.7790802  11.8063657  68.3551243  72.0780499  24.3968198
  68.0551966  72.9805538  24.2884006  68.0102302  71.8112682  25.2489351
  71.7548387  64.5963039  22.0765636  70.8465264  64.5278448  21.7824397
  71.7035983  65.0734984  22.9047461  65.5765131  66.0721178  13.7149035
  65.4564756  66.5178228  14.5534515  64.8817719  66.4206495  13.1562573
  63.3372023  78.8424819  17.3639166  63.2596052  79.7932644  17.4427647
  62.7333666  78.4970692  18.0214092  73.6210033  62.7979478  23.8543510
  72.9784413  63.0912011  23.2083304  73.1164962  62.6832398  24.6596706
  71.2750197  66.5442651  14.5429369  72.1868053  66.7770037  14.3677066
  70.7659844  67.1279695  13.9804448  69.5590964  70.9667279  28.1790662
  69.9674320  70.5249689  27.4345294  68.8368226  70.3919906  28.4324854
  69.8819779  71.5268469  21.9342950  69.2528642  71.6914183  21.2319018
  69.4945441  71.9410079  22.7053914  73.7609011  72.4622907  19.2887314
  73.0760049  72.8421808  18.7384347  73.8452860  73.0718234  20.0219262
  71.0159943  70.1082866  25.8882658  71.2276838  70.7514626  25.2117039
  70.9689691  69.2745183  25.4204588  68.6186172  62.7200687  22.7919230
  67.7570651  63.0181940  23.0835967  68.6448606  62.9371086  21.8600262
  65.4347741  71.2642877  19.1993036  65.8986087  71.5430580  18.4097658
  65.1704539  70.3626322  19.0166126  62.3271822  70.8114359  22.1372799
  62.8973179  71.2401627  21.4990283  62.9179934  70.5296944  22.8356984
  64.3716627  67.3866030  16.0082601  65.0740670  67.8387073  16.4756527
  64.0397256  66.7449849  16.6362494  58.1141961  65.6449582  21.3099734
  57.3241015  65.9007111  20.8339845  58.6053208  66.4597920  21.4151775
  72.1305771  72.9854821  24.0605015  72.9523214  72.5835009  23.7787697
  72.1268173  72.8823056  25.0121131  60.0656706  66.0094162  18.2683211
  59.2687870  66.1212856  18.7866707  59.8382299  66.3480814  17.4024101
  56.3979664  65.8980073  23.7414725  56.6487702  66.7827083  24.0072301
  56.9339212  65.7184674  22.9689817  80.2211764  69.3293570  20.4089987
  79.4675472  68.7600968  20.2533991  80.3559305  69.2956234  21.3560621
  65.6110392  74.2006972  16.0844706  65.4756066  75.0458508  16.5129554
  66.1520204  74.4026250  15.3210640  59.0639789  71.7182410  16.6572631
  59.5764310  72.5125661  16.8078196  59.7162502  71.0208701  16.5906232
  60.8734674  74.8348167  18.7395384  61.0501302  75.7566131  18.5516368
  61.6691507  74.5206586  19.1689764  61.9965989  76.3526340  24.7405726
  62.5473414  76.2243404  23.9682720  61.1577465  76.6521229  24.3900619
  69.3360106  75.1033339  28.2426449  69.3178581  75.9242220  27.7506718
  70.2580026  74.9787414  28.4676590  57.0288706  70.0471065  17.4332201
  57.8663928  70.4568073  17.2165909  57.2066974  69.1070507  17.4032395
  68.9253138  67.7146145  13.1216034  68.4099761  68.4850750  13.3604422
  68.6530446  67.0411281  13.7449096  66.5100249  62.5595846  18.1801273
  65.6541845  62.1702696  18.0006912  66.9227201  62.6387807  17.3201058
  64.2842281  60.1780919  21.5859014  65.1495278  59.9823728  21.2264904
  64.3519790  59.9491271  22.5128371  73.8987412  70.4678500  15.0569208
  73.1216855  70.1289659  14.6124370  74.5778893  70.4731123  14.3824173
  68.7139441  65.5873237  14.9475816  68.4089577  65.9019387  15.7985959
  69.6669883  65.6654657  14.9903149  67.1585873  71.7463461  16.5968770
  66.6307235  71.0116220  16.2842007  66.6573376  72.5238137  16.3508738
  72.1378719  69.9412481  21.7135816  71.4802393  70.6311743  21.8015945
  72.9419118  70.3308913  22.0569802  61.8904601  62.4083127  18.9575381
  62.4648352  62.1858308  18.2248574  62.4775583  62.4771821  19.7103982
  70.9484178  68.2956854  19.7639758  71.4616060  68.9286846  20.2661467
  71.5985402  67.6958049  19.3983118  62.2174188  64.4387588  12.9771266
  61.3811500  64.7762275  13.2980541  62.0778957  64.3036568  12.0398403
  64.1927268  59.2824376  17.6850451  63.5391681  58.9673393  17.0607065
  64.1507742  58.6600116  18.4110273  65.3038473  69.5643671   9.6003743
  64.3965535  69.3332924   9.7994892  65.8009505  68.7681290   9.7877724
  68.2106552  78.2741178  12.5200429  67.5368251  78.5772875  13.1285387
  68.5972374  79.0770258  12.1705886  67.4265009  65.7706309  22.0098098
  66.5087570  65.9921256  21.8519786  67.8425152  65.8452620  21.1509806
  68.2100056  67.1697725  17.1400778  68.9571875  67.6819122  16.8307900
  68.4791646  66.8481778  18.0005172  66.4826707  69.6656266  14.1227733
  65.5737926  69.3815299  14.2200202  66.5121790  70.0855344  13.2631040
  71.7145974  73.2762855  17.8918900  71.2608301  72.4353765  17.9484091
  71.0839941  73.9124254  18.2293680  70.6578894  64.2054841  19.1219568
  69.9201650  63.6932228  19.4529810  70.9105667  63.7655223  18.3102845
  70.1578913  75.1139352  18.8268718  70.4501888  75.6744409  18.1081084
  70.6677534  75.4067913  19.5821878  70.7590521  56.9831093  19.7161337
  71.0649398  56.1228457  19.4287252  71.4843126  57.5748714  19.5160331
  57.0514877  67.3861780  18.1042935  56.8539277  66.7931141  17.3794001
  56.4961541  67.0813990  18.8218874  65.0311601  67.2784886  20.2237528
  65.0860210  66.3258723  20.1480005  64.2202803  67.4344325  20.7078826
  66.1802794  71.2065009  11.4615811  65.7422224  70.4900868  11.0021449
  66.9213235  71.4341124  10.9000903  62.9703961  65.8961946  17.9827907
  62.1571826  66.1956117  18.3893099  63.4662955  65.5017635  18.7002389
  65.1212538  75.8919703  19.9162172  65.0788717  76.1180549  18.9870704
  66.0375237  75.6583078  20.0647973  74.2975909  69.4822206  17.5192130
  74.1593808  69.6723802  16.5913319  73.9412128  70.2441589  17.9760181
  62.4618035  63.4680302  23.5989142  63.1017415  63.3269061  22.9012105
  61.6295566  63.1814815  23.2227744  74.3245289  71.5498734  22.5303401
  74.7581795  71.4574023  23.3786455  75.0376869  71.5256234  21.8923417
  63.2378339  72.7682732  19.7124134  64.0318938  72.2733052  19.5106709
  62.5270032  72.2400595  19.3491840  68.0573184  75.1500828  24.0636502
  68.1110206  75.7191764  24.8314218  67.1887965  75.3202713  23.6990539
  59.5461103  66.9125814  15.7883887  58.6158691  66.8510269  16.0053849
  59.6418575  66.3901767  14.9920528  59.4646652  63.4380627  18.3762129
  59.7253469  64.3525960  18.2671289  60.2863824  62.9705069  18.5258742
  75.1860838  71.5922434  25.0636287  75.3796728  72.4968245  25.3095562
  75.0861456  71.1329853  25.8974872  67.0161283  69.3161090  25.6223434
  67.9453343  69.4672249  25.4492401  66.5952313  69.4045110  24.7672080
  65.8149615  73.3411754  23.3921971  65.6760701  72.9730538  24.2647910
  65.0264211  73.8559393  23.2205929  66.4097767  78.4420851  14.7347508
  66.5849523  77.9708894  15.5493131  65.7230555  79.0686617  14.9628769
  67.3654830  72.7193357  20.7810809  67.0304663  72.6794127  21.6768459
  66.8658776  72.0538073  20.3081219  70.3014022  70.0649391  11.0547869
  69.6843193  69.3396219  10.9580922  69.8330510  70.8258751  10.7114943
  71.9568154  74.7748299  28.7153649  71.8980700  74.0907520  28.0484232
  72.3587672  75.5167289  28.2634275  60.9758852  81.5910213  21.5087368
  61.2155451  82.2228737  22.1866387  60.1328049  81.2398253  21.7952727
  62.0912568  64.2834815  10.1769173  61.2142034  64.1623616   9.8131420
  62.5670321  63.4920894   9.9248062  71.9585561  72.7387883  26.9467629
  71.0712340  72.4013805  27.0694028  72.5284112  72.0070915  27.1836394
  53.6114708  69.0711975  20.2710680  54.2985748  68.7573705  19.6831696
  53.4562837  69.9753340  19.9977932  65.4886714  77.3989336  23.9128872
  65.4156886  78.2044307  24.4248177  65.0464107  77.5981302  23.0876894
  65.2776494  76.6361106  17.4231694  64.4944016  77.1782786  17.5169918
  65.9769239  77.1535085  17.8225935  68.5873144  62.4455735  20.0665899
  69.0841844  61.6925698  19.7466969  67.8160126  62.4820052  19.5009108
  76.4402901  68.1496101  21.7084191  76.4292778  69.0320816  21.3378124
  75.5720281  67.7967652  21.5138728  67.9485398  77.2976170  26.0687031
  68.6613370  77.9323635  25.9962932  67.4575426  77.3940036  25.2527033
  69.6702925  71.2027422  17.6404322  68.7359203  71.3228885  17.4709027
  69.8479593  70.2999889  17.3764332  65.1708113  64.5873118  19.7937584
  64.8005900  64.0344159  20.4818489  65.6667205  63.9831252  19.2412584
  73.0575476  67.0444742  18.1754357  73.5235928  67.8772733  18.1014659
  73.5082977  66.5789723  18.8799615  62.9997311  75.0470613  26.8892602
  63.7006771  75.6807096  27.0421996  62.5292426  75.3885345  26.1288241
  71.1251707  73.3888563  15.1740509  71.4011551  73.2745158  16.0834383
  70.2556206  72.9906048  15.1352682  71.0292139  59.4125329  22.2145258
  70.1155219  59.6429556  22.3827465  71.4585240  59.4963773  23.0659290
  70.7998597  67.6015221  24.7145152  70.1470048  67.8491128  24.0597605
  71.1778977  66.7879359  24.3807629  67.7605771  77.6374914  18.8173322
  67.9428166  76.8196570  19.2801075  68.5838757  77.8542606  18.3798212
  68.0947937  76.5643099  16.0788371  68.6235703  76.0535554  15.4658533
  68.3576156  76.2485629  16.9433904  58.5965029  74.5806968  23.8223704
  59.1818466  73.8350656  23.9551608  58.3989868  74.8910925  24.7060368
  61.4503685  77.6158216  18.8386147  60.7814060  78.1004343  18.3550187
  61.3116554  77.8627436  19.7529525  53.1882684  67.1512569  22.5428147
  53.2266784  66.6176159  23.3365266  52.6822977  66.6247774  21.9239125
  65.5908953  79.6501959  25.4368805  66.1427261  79.8133581  26.2017890
  65.9315147  80.2406397  24.7648830  56.8191262  65.8776671  15.6182079
  57.1144703  64.9687349  15.5649133  55.9179298  65.8564410  15.2963081
  68.7277341  77.5983935  22.4232487  68.6028480  76.7973675  21.9143433
  69.3856432  78.0930128  21.9346457  60.3485509  63.9532667  21.6009627
  59.6272095  64.5668635  21.4617101  61.1378765  64.4890432  21.5226273
  70.7912249  75.3992955  24.0512037  69.8442584  75.2798306  23.9790364
  71.1395022  74.5115453  24.1338299  58.5479103  63.5590768  15.7421404
  58.2191809  62.6788147  15.5596510  58.9018474  63.5038437  16.6297793
  67.7958682  75.1945671  20.2516389  67.6483645  74.2662378  20.4323960
  68.6212176  75.2165762  19.7673465  61.6620926  63.8463738  16.1096882
  62.0016999  64.3749659  15.3875490  62.1093047  64.1844144  16.8855448
  71.3992804  76.0174230  21.3381262  72.3239352  75.8117091  21.2005713
  71.2308107  75.7690631  22.2470604  63.6489074  62.3438360  14.3090174
  64.3697436  62.7219612  13.8053891  63.0254378  63.0627237  14.4125152
  67.7920197  63.0483509  15.2448507  68.0083811  63.9308147  14.9437335
  67.3114264  62.6569722  14.5154149  64.3915801  62.9971770  21.8700141
  64.3777370  62.1012863  21.5332439  65.1088229  63.0042434  22.5038427
  66.2441932  63.4309110  23.9153268  65.9859709  64.3526181  23.9137599
  65.7126972  63.0339545  24.6053732  71.1888120  76.5359897  16.6943354
  71.3624998  75.9706320  15.9417206  71.6817011  77.3360792  16.5122844
  63.7952697  61.8786150  17.1387711  63.9168608  60.9502796  17.3378599
  63.5054739  61.8924836  16.2266026  66.6643887  59.5641061  20.2754431
  66.6865584  59.6280394  19.3206410  67.0811946  58.7245569  20.4694937
  77.0427511  69.2996320  18.3133653  77.4858657  68.5503645  17.9152777
  76.1654022  69.2906457  17.9307385  72.1763293  75.8526662  13.7940252
  72.8714197  76.4733354  14.0127567  72.5186443  75.0022013  14.0692630
  74.0754716  73.3026367  15.3227583  74.6006040  73.6413640  14.5976903
  73.9877068  72.3673382  15.1390717  65.7374765  77.2160441  27.4517459
  66.0461891  76.9709588  28.3240159  66.5350247  77.4207079  26.9636330
  65.7595377  79.3698350  19.6822836  65.3200367  78.8774729  20.3755693
  66.5103494  78.8271318  19.4414911  58.2387716  75.5609891  19.6847464
  59.0645736  75.2613663  19.3046108  57.8881768  74.7917514  20.1337253
  63.2069249  74.9136360  21.7545138  62.5849258  74.2507065  21.4547365
  63.8774116  74.9397491  21.0718785  56.4396321  73.4796218  20.6436398
  55.6028229  73.0518392  20.4620399  56.4119966  73.6728661  21.5807189
  73.8846497  70.7851737  27.9411509  73.9344502  70.6201745  28.8827032
  73.7760420  69.9178996  27.5509390  62.7682756  73.4640283  15.2303598
  62.9170876  74.1475747  14.5770271  63.5749199  73.4445373  15.7453054
  75.3864694  73.2048679  28.1853531  75.0949502  73.5678659  29.0216992
  74.7736825  72.4915687  28.0066863  76.5860376  70.7701558  20.7056101
  77.4207268  71.2091363  20.8693661  76.7219505  70.2940212  19.8864347
  73.6351882  68.3281293  26.6533589  74.1106004  68.5208940  25.8452440
  72.7117447  68.3840479  26.4076972  60.5235389  69.4905460  16.2364667
  60.2781431  68.5867790  16.4344877  60.6931303  69.4922611  15.2944145
  59.7931036  65.2233818  13.7350829  59.1000281  65.2978173  13.0790864
  59.5482788  64.4594162  14.2572345  68.4644693  56.7829419  21.1390319
  68.7446446  56.1152608  21.7650746  69.2495300  56.9758515  20.6264983
  66.2678161  75.9588413  12.7015346  65.6952128  76.5778600  12.2485817
  66.8410955  76.5087775  13.2355268  72.3353551  65.2047053  24.8861894
  73.2870974  65.3045151  24.9074118  72.1657001  64.4125322  25.3959979
  69.4875421  76.2425563  13.8323928  70.4206094  76.1771125  14.0356803
  69.3998634  77.0781830  13.3738461  72.1163438  75.5591434  10.7927875
  72.0377069  75.2251297  11.6863633  72.9373104  76.0513202  10.7919348
  74.8141629  68.4253173  24.0004194  74.7817949  67.4869174  24.1863878
  75.4242252  68.5037210  23.2670019  66.6524960  67.2949226  10.0431398
  67.5984064  67.1655434  10.1119816  66.2739205  66.5563888  10.5200826
  74.9636117  65.2164217  24.0462477  74.4475166  64.4322673  23.8592406
  75.8476066  64.8882933  24.2108997  72.6246844  58.9605232  20.0058290
  72.4271665  58.6520320  20.8901622  73.2346550  59.6866871  20.1356220
  80.6318179  69.4869180  23.1410231  81.3621567  69.2254468  23.7017934
  80.0225124  68.7497902  23.1812299  78.7133476  67.6277043  23.7384682
  77.9866639  67.4933007  23.1301174  78.2980763  67.9353871  24.5441400
  64.8367877  65.2199202   9.9786283  63.9299332  64.9232315  10.0548997
  65.1143858  64.9229021   9.1120570  55.7545817  66.5405566  20.4285330
  55.4348602  65.6870874  20.1359704  55.2079245  66.7554144  21.1843297
  66.4529943  59.7636092  16.1330525  65.6430671  59.4183177  16.5085771
  67.1414360  59.4543636  16.7218136  68.3820491  58.8414139  17.7554821
  68.9351529  59.2609592  18.4144844  68.6190577  57.9149887  17.7977777
  63.6066661  62.0786138  10.1198262  64.4685825  62.4041036  10.3794080
  63.7917006  61.2917634   9.6071328  55.6234077  70.1608477  22.3978451
  54.9297549  69.7462430  21.8848406  56.3707068  70.2029014  21.8011870
  71.7599298  60.9514664  17.2633485  71.1797967  61.6099468  16.8811538
  71.4935231  60.1292009  16.8520903  70.2102864  60.3519722  19.4654806
  70.7102643  60.4636256  18.6569125  70.8538472  60.0480775  20.1055614
  57.5370820  70.0926731  20.2744466  57.5141508  70.1914418  19.3226349
  57.8471456  70.9391882  20.5961632  60.1958198  72.1502886  24.3891081
  61.1501451  72.1186828  24.3221012  59.9970721  71.6893510  25.2041306
  70.5424176  63.1114755  16.3189834  69.6550031  63.3964405  16.1010029
  70.9578165  62.9508518  15.4717111  73.8938712  63.1361275  20.0344173
  74.6699102  63.6257728  20.3068790  73.1686846  63.5619330  20.4916043
  76.3311271  63.8488895  21.0918114  76.9255762  63.6084631  20.3811422
  76.4037854  63.1296025  21.7191650  58.5508426  77.6922506  21.4061278
  58.4162894  76.9322907  20.8399276  58.1340489  78.4163405  20.9390067
  69.6867389  72.8759429  10.4137854  70.3903240  73.0809432  11.0295509
  68.9630038  73.4436191  10.6786937  70.5165200  68.6269290  16.5340124
  70.4600401  69.0837842  15.6947756  71.0693542  67.8659975  16.3562967
  74.3270006  64.4159022  17.3590243  74.0706940  64.0155658  18.1898451
  73.7022874  65.1302816  17.2340383  78.6382343  67.1555096  19.8661535
  78.0781901  67.2248285  20.6393097  78.0325847  66.9796080  19.1461031
  61.7077552  78.5891823  21.6179721  61.5909936  79.5337255  21.5158411
  60.8869999  78.2865384  22.0065520  71.5954087  73.3141958  12.4636314
  72.4299691  72.8823157  12.2813789  71.4338430  73.1423972  13.3913208
  71.2499979  69.8174072  13.8292653  71.1948783  69.6518343  12.8881097
  70.6246034  70.5250105  13.9854843  64.5596104  59.3182181  13.4077971
  64.5474774  60.2624021  13.5646242  65.4519526  59.1352326  13.1137433
  62.7332066  79.2420085  24.8335650  63.6359313  79.2743695  25.1502144
  62.5069436  78.3120536  24.8481985  64.4885668  77.9951071  21.4945728
  63.5381299  77.9952933  21.3810100  64.7918155  77.2483806  20.9781763
  68.3748224  55.9124957  17.6623908  67.6080620  55.3583444  17.8080591
  68.7858929  55.9846826  18.5238060  80.2238362  83.8311609  22.5591491
  80.8616772  83.7118357  21.8554831  80.1059205  84.7792453  22.6179443
  77.0328068  83.7839038  22.4953015  76.6946580  83.6680102  21.6073550
  77.9017836  83.3830203  22.4754021  72.8914884  85.6374514  18.4849906
  72.3279749  85.5464451  17.7166194  72.7767279  84.8174418  18.9652399
  77.5147851  84.9373889  28.4539221  77.5036492  84.5426688  27.5819724
  77.6768491  84.2039962  29.0472992  70.4379316  87.1325706  21.3234127
  71.2300608  86.7916530  20.9080426  70.6775966  87.2420681  22.2436280
  78.4714443  89.3045482  13.7964371  77.8202422  89.8899562  13.4098385
  79.2658805  89.8351677  13.8559409  72.3970070  86.3934619  14.1951505
  73.1700946  85.8463606  14.0564381  72.7495469  87.2578868  14.4065967
  74.2355112  87.7211001  27.4018405  73.9444978  88.6256632  27.2865071
  74.8712097  87.7627529  28.1162474  75.1611319  85.0987850  23.9919764
  75.7574891  84.8743872  23.2776727  75.2186291  84.3572595  24.5945212
  74.7336348  82.5527285  11.8269955  74.9861868  82.0308806  11.0653418
  73.7960907  82.3893430  11.9296639  79.7779630  81.5563063  19.6344699
  80.5642720  81.1382487  19.2835116  80.0418335  82.4609156  19.8026347
  79.9489708  86.9935914  14.3333355  79.3135541  87.0670540  15.0454260
  79.6187114  87.5829512  13.6552435  85.1788058  81.4938297  20.5377677
  85.9113229  80.9237513  20.7715507  84.4227413  81.1059897  20.9784183
  74.4532636  84.4555391  14.0294330  74.3368894  83.7800294  14.6975415
  74.5634896  83.9687765  13.2126483  76.7964177  83.9165538  17.7341020
  76.4322385  83.3896159  18.4453941  77.6531293  83.5264007  17.5607505
  82.7013478  75.2059871  24.9972286  82.3696803  76.0755282  24.7733501
  82.1059091  74.8896155  25.6766316  76.4369664  78.9455438  12.7302368
  76.6044067  79.8135674  13.0972839  76.2466833  79.1082719  11.8063657
  79.1944997  87.4072417  24.3968198  78.8945721  88.3097455  24.2884006
  78.8496057  87.1404600  25.2489351  72.6457479  83.8586213  20.4304903
  71.7207975  83.7262428  20.6382595  72.8941892  84.6380433  20.9274845
  82.5942141  79.9254957  22.0765636  81.6859019  79.8570365  21.7824397
  82.5429737  80.4026902  22.9047461  76.4158885  81.4013095  13.7149035
  76.2958510  81.8470146  14.5534515  75.7211474  81.7498413  13.1562573
  70.0066290  83.5019487  21.2648692  70.1358671  83.7553966  22.1788104
  69.3263741  84.0947195  20.9453347  74.1765777  94.1716737  17.3639166
  74.0989807  95.1224562  17.4427647  73.5727421  93.8262609  18.0214092
  76.6683007  81.3444602  30.0200533  75.8916341  81.9038523  30.0103398
  77.3073570  81.8301385  30.5415403  84.4603788  78.1271395  23.8543510
  83.8178168  78.4203928  23.2083304  83.9558716  78.0124316  24.6596706
  82.1143951  81.8734568  14.5429369  83.0261807  82.1061955  14.3677066
  81.6053598  82.4571613  13.9804448  74.9229379  84.1530056  29.5818500
  75.6644064  84.6915100  29.3053324  74.2166365  84.7796345  29.7390052
  80.3984719  86.2959196  28.1790662  80.8068075  85.8541607  27.4345294
  79.6761980  85.7211824  28.4324854  76.7515789  81.2331803  25.5524218
  77.5976984  81.6571217  25.6958867  76.6914427  80.5765427  26.2462782
  80.7213534  86.8560387  21.9342950  80.0922396  87.0206101  21.2319018
  80.3339196  87.2701996  22.7053914  84.6002765  87.7914825  19.2887314
  83.9153804  88.1713726  18.7384347  84.6846615  88.4010151  20.0219262
  79.9015234  78.8936171  27.2105392  79.6576166  79.6478232  26.6739668
  80.1775165  79.2721519  28.0452639  81.8553697  85.4374784  25.8882658
  82.0670592  86.0806544  25.2117039  81.8083445  84.6037100  25.4204588
  79.4579926  78.0492604  22.7919230  78.5964405  78.3473858  23.0835967
  79.4842361  78.2663003  21.8600262  76.2741495  86.5934795  19.1993036
  76.7379841  86.8722498  18.4097658  76.0098294  85.6918240  19.0166126
  73.1665577  86.1406276  22.1372799  73.7366934  86.5693545  21.4990283
  73.7573688  85.8588861  22.8356984  75.2110382  82.7157947  16.0082601
  75.9134425  83.1678991  16.4756527  74.8791010  82.0741766  16.6362494
  73.6590743  81.3069704  30.3833810  73.0289404  81.9885985  30.6169207
  73.5526831  81.1952786  29.4386948  68.9535715  80.9741500  21.3099734
  68.1634769  81.2299029  20.8339845  69.4446963  81.7889838  21.4151775
  82.9699525  88.3146739  24.0605015  83.7916969  87.9126926  23.7787697
  82.9661928  88.2114973  25.0121131  70.9050461  81.3386079  18.2683211
  70.1081624  81.4504773  18.7866707  70.6776053  81.6772731  17.4024101
  76.7356128  87.8630782  26.2165726  76.8000561  88.3251190  27.0523897
  76.0267052  87.2328147  26.3448035  67.2373418  81.2271990  23.7414725
  67.4881457  82.1119000  24.0072301  67.7732967  81.0476592  22.9689817
  91.0605518  84.6585488  20.4089987  90.3069226  84.0892886  20.2533991
  91.1953059  84.6248152  21.3560621  76.4504146  89.5298890  16.0844706
  76.3149821  90.3750426  16.5129554  76.9913959  89.7318168  15.3210640
  69.9033544  87.0474328  16.6572631  70.4158064  87.8417578  16.8078196
  70.5556256  86.3500618  16.5906232  71.7128428  90.1640084  18.7395384
  71.8895057  91.0858049  18.5516368  72.5085262  89.8498503  19.1689764
  70.9980785  82.2104716  28.6157547  70.8834300  81.3089973  28.9164646
  70.1425303  82.4568413  28.2642364  78.0772623  90.1522456  30.2145048
  77.6336477  89.3658835  29.8965952  78.7389836  90.3401607  29.5488939
  72.8359744  91.6818258  24.7405726  73.3867169  91.5535321  23.9682720
  71.9971220  91.9813147  24.3900619  80.1753861  90.4325256  28.2426449
  80.1572336  91.2534137  27.7506718  81.0973781  90.3079332  28.4676590
  76.6326915  87.9469386  29.0849958  77.1655252  87.1857674  28.8549266
  76.1040996  87.6543038  29.8274112  79.7996610  73.0529452  24.6143599
  79.4560879  73.9431094  24.5382710  80.1675572  72.8631109  23.7513184
  67.8682460  85.3762982  17.4332201  68.7057682  85.7859991  17.2165909
  68.0460728  84.4362424  17.4032395  79.7646892  83.0438063  13.1216034
  79.2493516  83.8142668  13.3604422  79.4924201  82.3703199  13.7449096
  77.3494003  77.8887764  18.1801273  76.4935600  77.4994614  18.0006912
  77.7620955  77.9679725  17.3201058  78.8793150  75.4234107  22.5792833
  78.3757946  75.3864242  21.7660638  79.1723757  76.3326850  22.6389489
  75.1236036  75.5072837  21.5859014  75.9889033  75.3115645  21.2264904
  75.1913545  75.2783188  22.5128371  84.7381167  85.7970418  15.0569208
  83.9610609  85.4581577  14.6124370  85.4172648  85.8023041  14.3824173
  79.5533196  80.9165155  14.9475816  79.2483331  81.2311304  15.7985959
  80.5063638  80.9946575  14.9903149  77.9979627  87.0755378  16.5968770
  77.4700989  86.3408138  16.2842007  77.4967130  87.8530055  16.3508738
  82.9772473  85.2704399  21.7135816  82.3196148  85.9603660  21.8015945
  83.7812873  85.6600831  22.0569802  72.7298355  77.7375045  18.9575381
  73.3042107  77.5150226  18.2248574  73.3169338  77.8063739  19.7103982
  81.7877932  83.6248772  19.7639758  82.3009814  84.2578763  20.2661467
  82.4379156  83.0249967  19.3983118  73.0567942  79.7679506  12.9771266
  72.2205254  80.1054192  13.2980541  72.9172712  79.6328485  12.0398403
  75.0321023  74.6116294  17.6850451  74.3785435  74.2965311  17.0607065
  74.9901497  73.9892034  18.4110273  76.1432228  84.8935589   9.6003743
  75.2359289  84.6624842   9.7994892  76.6403260  84.0973208   9.7877724
  78.2658763  81.0998227  22.0098098  77.3481325  81.3213174  21.8519786
  78.6818907  81.1744538  21.1509806  79.0493811  82.4989643  17.1400778
  79.7965630  83.0111040  16.8307900  79.3185400  82.1773695  18.0005172
  77.3220461  84.9948183  14.1227733  76.4131680  84.7107216  14.2200202
  77.3515545  85.4147262  13.2631040  82.5539728  88.6054773  17.8918900
  82.1002056  87.7645683  17.9484091  81.9233695  89.2416171  18.2293680
  81.4972648  79.5346759  19.1219568  80.7595405  79.0224145  19.4529810
  81.7499422  79.0947141  18.3102845  80.9972668  90.4431270  18.8268718
  81.2895642  91.0036327  18.1081084  81.5071288  90.7359831  19.5821878
  81.5984275  72.3123011  19.7161337  81.9043152  71.4520374  19.4287252
  82.3236880  72.9040631  19.5160331  67.8908631  82.7153698  18.1042935
  67.6933031  82.1223058  17.3794001  67.3355295  82.4105908  18.8218874
  75.8705355  82.6076804  20.2237528  75.9253965  81.6550640  20.1480005
  75.0596557  82.7636243  20.7078826  77.0196549  86.5356927  11.4615811
  76.5815979  85.8192786  11.0021449  77.7606990  86.7633042  10.9000903
  73.8097715  81.2253864  17.9827907  72.9965581  81.5248034  18.3893099
  74.3056709  80.8309553  18.7002389  75.9606293  91.2211621  19.9162172
  75.9182472  91.4472467  18.9870704  76.8768992  90.9874995  20.0647973
  79.4071927  81.6895688  26.8142801  79.7621314  81.9167161  27.6737267
  80.0544058  82.0214065  26.1920056  85.1369664  84.8114124  17.5192130
  84.9987562  85.0015720  16.5913319  84.7805882  85.5733507  17.9760181
  73.3011790  78.7972219  23.5989142  73.9411169  78.6560978  22.9012105
  72.4689320  78.5106733  23.2227744  85.1639043  86.8790651  22.5303401
  85.5975550  86.7865940  23.3786455  85.8770624  86.8548152  21.8923417
  74.0772094  88.0974650  19.7124134  74.8712692  87.6024970  19.5106709
  73.3663786  87.5692513  19.3491840  78.8966938  90.4792745  24.0636502
  78.9503960  91.0483682  24.8314218  78.0281720  90.6494630  23.6990539
  70.3854857  82.2417731  15.7883887  69.4552445  82.1802187  16.0053849
  70.4812329  81.7193684  14.9920528  70.3040406  78.7672544  18.3762129
  70.5647224  79.6817878  18.2671289  71.1257579  78.2996987  18.5258742
  71.7765332  80.1810302  25.5460953  72.4488385  79.9727664  24.8973602
  70.9495118  79.9832387  25.1066186  86.0254593  86.9214352  25.0636287
  86.2190483  87.8260162  25.3095562  85.9255211  86.4621771  25.8974872
  77.6790904  76.8072242  27.5626614  77.0318819  77.5062192  27.4691091
  78.4491919  77.2408386  27.9302862  81.0869702  87.0721095  30.6377167
  80.9355208  86.8431646  29.7207251  81.0774381  88.0291696  30.6508512
  77.8555038  84.6453007  25.6223434  78.7847098  84.7964167  25.4492401
  77.4346068  84.7337028  24.7672080  76.6543370  88.6703672  23.3921971
  76.5154455  88.3022456  24.2647910  75.8657966  89.1851311  23.2205929
  77.2491522  93.7712768  14.7347508  77.4243277  93.3000811  15.5493131
  76.5624310  94.3978534  14.9628769  78.2048585  88.0485274  20.7810809
  77.8698417  88.0086044  21.6768459  77.7052531  87.3829990  20.3081219
  72.1792829  83.4552904  26.3063390  72.0412627  82.7233143  26.9074929
  73.0897752  83.3661805  26.0247578  81.1407776  85.3941309  11.0547869
  80.5236947  84.6688137  10.9580922  80.6724265  86.1550669  10.7114943
  74.8075129  83.1672864  25.7947070  75.5174748  82.5266056  25.7533688
  74.7644438  83.4185759  26.7173251  82.7961908  90.1040217  28.7153649
  82.7374454  89.4199437  28.0484232  83.1981427  90.8459207  28.2634275
  73.5204063  80.1538082  27.6142710  72.9841420  79.7028820  28.2664306
  72.9320772  80.2883991  26.8713174  71.8152607  96.9202131  21.5087368
  72.0549205  97.5520655  22.1866387  70.9721803  96.5690171  21.7952727
  72.9306322  79.6126733  10.1769173  72.0535789  79.4915534   9.8131420
  73.4064075  78.8212811   9.9248062  82.7979315  88.0679801  26.9467629
  81.9106094  87.7305723  27.0694028  83.3677866  87.3362832  27.1836394
  64.4508463  84.4003893  20.2710680  65.1379502  84.0865623  19.6831696
  64.2956591  85.3045257  19.9977932  69.2543185  79.2894089  24.6995704
  69.1701373  78.6819759  23.9646114  68.4325891  79.7803108  24.7005200
  76.3280469  92.7281253  23.9128872  76.2550640  93.5336225  24.4248177
  75.8857862  92.9273219  23.0876894  76.1170248  91.9653023  17.4231694
  75.3337770  92.5074704  17.5169918  76.8162994  92.4827003  17.8225935
  79.4266899  77.7747653  20.0665899  79.9235598  77.0217615  19.7466969
  78.6553880  77.8111970  19.5009108  87.2796656  83.4788018  21.7084191
  87.2686532  84.3612734  21.3378124  86.4114035  83.1259569  21.5138728
  78.7879152  92.6268087  26.0687031  79.5007125  93.2615552  25.9962932
  78.2969181  92.7231953  25.2527033  80.5096679  86.5319340  17.6404322
  79.5752958  86.6520803  17.4709027  80.6873348  85.6291807  17.3764332
  76.0101867  79.9165036  19.7937584  75.6399655  79.3636076  20.4818489
  76.5060960  79.3123169  19.2412584  83.8969231  82.3736659  18.1754357
  84.3629683  83.2064651  18.1014659  84.3476731  81.9081641  18.8799615
  73.8391066  90.3762531  26.8892602  74.5400525  91.0099014  27.0421996
  73.3686181  90.7177262  26.1288241  81.9645462  88.7180481  15.1740509
  82.2405306  88.6037075  16.0834383  81.0949960  88.3197966  15.1352682
  81.8685893  74.7417246  22.2145258  80.9548973  74.9721473  22.3827465
  82.2978995  74.8255690  23.0659290  81.6392352  82.9307138  24.7145152
  80.9863802  83.1783046  24.0597605  82.0172732  82.1171277  24.3807629
  78.5999526  92.9666832  18.8173322  78.7821920  92.1488487  19.2801075
  79.4232512  93.1834524  18.3798212  78.9341691  91.8935017  16.0788371
  79.4629458  91.3827471  15.4658533  79.1969911  91.5777547  16.9433904
  77.6879925  83.6726949  31.2011189  77.0120562  83.5721079  31.8713564
  78.5107559  83.5166163  31.6647186  69.4358784  89.9098886  23.8223704
  70.0212221  89.1642574  23.9551608  69.2383622  90.2202843  24.7060368
  72.2897439  92.9450133  18.8386147  71.6207814  93.4296261  18.3550187
  72.1510309  93.1919354  19.7529525  64.0276439  82.4804486  22.5428147
  64.0660538  81.9468077  23.3365266  63.5216731  81.9539692  21.9239125
  76.4302708  94.9793877  25.4368805  76.9821016  95.1425498  26.2017890
  76.7708901  95.5698315  24.7648830  71.4067201  77.3269027  26.0390690
  71.4708527  78.1883858  25.6268087  71.3434321  76.7143028  25.3063048
  70.8819473  79.3992159  29.6863724  71.5091512  79.0169237  30.3001248
  70.0247392  79.1806361  30.0519416  81.2813582  89.8055134  31.2917459
  81.8253486  90.4185093  30.7972414  80.7000427  90.3634713  31.8084472
  67.6585016  81.2068588  15.6182079  67.9538457  80.2979267  15.5649133
  66.7573052  81.1856328  15.2963081  79.5671095  92.9275852  22.4232487
  79.4422234  92.1265592  21.9143433  80.2250186  93.4222046  21.9346457
  71.1879263  79.2824585  21.6009627  70.4665849  79.8960553  21.4617101
  71.9772519  79.8182350  21.5226273  81.6306003  90.7284872  24.0512037
  80.6836339  90.6090224  23.9790364  81.9788777  89.8407371  24.1338299
  73.9905577  76.6179011  27.8750279  74.5139979  76.8641308  28.6376588
  73.7717910  77.4499046  27.4553417  69.3872858  78.8882686  15.7421404
  69.0585564  78.0080065  15.5596510  69.7412229  78.8330355  16.6297793
  78.6352437  90.5237589  20.2516389  78.4877399  89.5954296  20.4323960
  79.4605930  90.5457679  19.7673465  72.5014681  79.1755656  16.1096882
  72.8410753  79.7041577  15.3875490  72.9486801  79.5136062  16.8855448
  82.2386559  91.3466147  21.3381262  83.1633106  91.1409009  21.2005713
  82.0701862  91.0982549  22.2470604  75.1958122  77.5592707  25.5599950
  74.8554942  76.7600520  25.9620630  74.4897128  77.8594417  24.9876783
  75.8474594  74.6442019  24.0127273  76.6700663  74.1702497  23.8906163
  76.0912657  75.4232503  24.5125959  74.4882828  77.6730277  14.3090174
  75.2091191  78.0511530  13.8053891  73.8648132  78.3919154  14.4125152
  78.6313951  78.3775426  15.2448507  78.8477565  79.2600064  14.9437335
  78.1508018  77.9861640  14.5154149  73.3713172  81.3361140  21.8219251
  73.2257753  81.6501443  22.7143533  72.8938376  81.9546040  21.2690150
  75.2309555  78.3263688  21.8700141  75.2171124  77.4304781  21.5332439
  75.9481983  78.3334351  22.5038427  77.0835686  78.7601028  23.9153268
  76.8253464  79.6818098  23.9137599  76.5520726  78.3631462  24.6053732
  82.0281875  91.8651815  16.6943354  82.2018752  91.2998237  15.9417206
  82.5210766  92.6652710  16.5122844  67.8458835  83.8766484  24.7606913
  67.3012303  84.6526292  24.8927187  68.7238184  84.2237288  24.6026034
  74.6346451  77.2078068  17.1387711  74.7562362  76.2794714  17.3378599
  74.3448494  77.2216754  16.2266026  77.5037642  74.8932978  20.2754431
  77.5259338  74.9572311  19.3206410  77.9205701  74.0537487  20.4694937
  87.8821266  84.6288238  18.3133653  88.3252412  83.8795563  17.9152777
  87.0047776  84.6198374  17.9307385  83.0157047  91.1818579  13.7940252
  83.7107952  91.8025272  14.0127567  83.3580197  90.3313931  14.0692630
  68.6324856  83.0036380  27.6537069  67.8906592  83.1519016  28.2401700
  68.3117601  83.2644646  26.7903819  84.9148470  88.6318285  15.3227583
  85.4399794  88.9705558  14.5976903  84.8270823  87.6965300  15.1390717
  76.5768519  92.5452358  27.4517459  76.8855646  92.3001505  28.3240159
  77.3744001  92.7498997  26.9636330  76.5989131  94.6990268  19.6822836
  76.1594121  94.2066647  20.3755693  77.3497248  94.1563236  19.4414911
  69.0781470  90.8901809  19.6847464  69.9039490  90.5905581  19.3046108
  68.7275522  90.1209431  20.1337253  74.0463003  90.2428277  21.7545138
  73.4243013  89.5798982  21.4547365  74.7167870  90.2689409  21.0718785
  67.2790075  88.8088135  20.6436398  66.4421983  88.3810310  20.4620399
  67.2513721  89.0020579  21.5807189  84.6042376  89.2651188  30.6278781
  83.8137920  89.2475327  30.0883280  84.3675731  89.8039482  31.3827817
  84.7240251  86.1143655  27.9411509  84.7738256  85.9493662  28.8827032
  84.6154175  85.2470914  27.5509390  73.6076510  88.7932201  15.2303598
  73.7564631  89.4767665  14.5770271  74.4142954  88.7737291  15.7453054
  82.0144014  82.0974583  29.2570816  82.9153877  81.9581048  28.9654814
  82.0891988  82.2629038  30.1968993  76.3486819  79.4741438  28.1024002
  75.4790129  79.7675004  27.8306591  76.5846300  80.0581883  28.8231266
  86.2258448  88.5340596  28.1853531  85.9343257  88.8970577  29.0216992
  85.6130580  87.8207605  28.0066863  87.4254131  86.0993476  20.7056101
  88.2601022  86.5383280  20.8693661  87.5613259  85.6232129  19.8864347
  84.4745637  83.6573211  26.6533589  84.9499758  83.8500857  25.8452440
  83.5511202  83.7132397  26.4076972  71.3629143  84.8197378  16.2364667
  71.1175185  83.9159708  16.4344877  71.5325058  84.8214529  15.2944145
  79.0525853  75.6921055  25.6189423  79.5707797  76.4282081  25.2935911
  78.6980986  75.9985048  26.4536182  70.6324791  80.5525736  13.7350829
  69.9394036  80.6270091  13.0790864  70.3876543  79.7886079  14.2572345
  79.3038447  72.1121337  21.1390319  79.5840201  71.4444526  21.7650746
  80.0889054  72.3050433  20.6264983  77.1071916  91.2880331  12.7015346
  76.5345883  91.9070518  12.2485817  77.6804709  91.8379693  13.2355268
  83.1747306  80.5338971  24.8861894  84.1264728  80.6337069  24.9074118
  83.0050756  79.7417240  25.3959979  81.1961685  77.6194554  25.0721295
  80.6011617  77.8999567  24.3767784  80.9111382  78.1088455  25.8438036
  80.3269175  91.5717481  13.8323928  81.2599849  91.5063043  14.0356803
  80.2392388  92.4073748  13.3738461  85.6535383  83.7545091  24.0004194
  85.6211703  82.8161091  24.1863878  86.2636007  83.8329127  23.2670019
  77.4918714  82.6241144  10.0431398  78.4377819  82.4947352  10.1119816
  77.1132959  81.8855806  10.5200826  85.8029872  80.5456134  24.0462477
  85.2868920  79.7614591  23.8592406  86.6869820  80.2174851  24.2108997
  83.4640599  74.2897150  20.0058290  83.2665420  73.9812238  20.8901622
  84.0740304  75.0158789  20.1356220  91.4711933  84.8161098  23.1410231
  92.2015322  84.5546386  23.7017934  90.8618879  84.0789820  23.1812299
  89.5527230  82.9568960  23.7384682  88.8260394  82.8224925  23.1301174
  89.1374517  83.2645789  24.5441400  77.3757407  86.6758890  31.5032055
  78.2960416  86.8537489  31.6972102  77.3406990  85.7314935  31.3511754
  75.6761631  80.5491120   9.9786283  74.7693087  80.2524233  10.0548997
  75.9537612  80.2520938   9.1120570  66.5939572  81.8697484  20.4285330
  66.2742356  81.0162792  20.1359704  66.0473000  82.0846062  21.1843297
  70.3719479  84.5859925  24.1454836  70.5905489  85.5177032  24.1642870
  70.7845253  84.2267899  24.9309640  77.2923697  75.0928010  16.1330525
  76.4824425  74.7475095  16.5085771  77.9808114  74.7835554  16.7218136
  79.2214245  74.1706057  17.7554821  79.7745284  74.5901510  18.4144844
  79.4584332  73.2441805  17.7977777  74.4460416  77.4078055  10.1198262
  75.3079580  77.7332954  10.3794080  74.6310760  76.6209551   9.6071328
  66.4627832  85.4900395  22.3978451  65.7691303  85.0754348  21.8848406
  67.2100823  85.5320932  21.8011870  82.5993052  76.2806582  17.2633485
  82.0191721  76.9391386  16.8811538  82.3328985  75.4583926  16.8520903
  81.0496619  75.6811640  19.4654806  81.5496397  75.7928174  18.6569125
  81.6932227  75.3772692  20.1055614  75.1078615  83.5890269  32.3522647
  74.6245696  84.3890629  32.5586536  75.1939554  83.5998214  31.3990091
  68.3764574  85.4218649  20.2744466  68.3535262  85.5206336  19.3226349
  68.6865211  86.2683800  20.5961632  71.0351952  87.4794804  24.3891081
  71.9895206  87.4478746  24.3221012  70.8364476  87.0185428  25.2041306
  71.6251334  86.0495920  26.9561878  72.4444223  86.5439999  26.9796716
  71.8988142  85.1327888  26.9279446  81.3817930  78.4406672  16.3189834
  80.4943785  78.7256323  16.1010029  81.7971920  78.2800436  15.4717111
  84.7332467  78.4653193  20.0344173  85.5092857  78.9549646  20.3068790
  84.0080601  78.8911247  20.4916043  87.1705025  79.1780812  21.0918114
  87.7649516  78.9376548  20.3811422  87.2431609  78.4587943  21.7191650
  69.3902181  93.0214423  21.4061278  69.2556649  92.2614824  20.8399276
  68.9734243  93.7455323  20.9390067  81.3558954  83.9561208  16.5340124
  81.2994156  84.4129760  15.6947756  81.9087297  83.1951893  16.3562967
  85.1663760  79.7450940  17.3590243  84.9100694  79.3447576  18.1898451
  84.5416628  80.4594734  17.2340383  89.4776098  82.4847013  19.8661535
  88.9175656  82.5540203  20.6393097  88.8719601  82.3087998  19.1461031
  72.5471307  93.9183740  21.6179721  72.4303691  94.8629173  21.5158411
  71.7263753  93.6157302  22.0065520  82.4347841  88.6433876  12.4636314
  83.2693445  88.2115075  12.2813789  82.2732184  88.4715890  13.3913208
  82.0893734  85.1465989  13.8292653  82.0342537  84.9810261  12.8881097
  81.4639789  85.8542022  13.9854843  66.8786249  80.3834054  27.6554075
  67.5245112  79.8733008  28.1441300  66.6703400  81.1202735  28.2297501
  79.4039641  87.4514901  33.1546216  80.2730800  87.6255554  32.7932851
  78.9246392  88.2709318  33.0321945  75.3989859  74.6474098  13.4077971
  75.3868529  75.5915938  13.5646242  76.2913281  74.4644244  13.1137433
  73.5725821  94.5712002  24.8335650  74.4753068  94.6035612  25.1502144
  73.3463191  93.6412453  24.8481985  75.3279423  93.3242989  21.4945728
  74.3775054  93.3244850  21.3810100  75.6311909  92.5775723  20.9781763
  79.2141978  71.2416875  17.6623908  78.4474374  70.6875362  17.8080591
  79.6252683  71.3138744  18.5238060  91.0632116  99.1603527  22.5591491
  91.7010526  99.0410275  21.8554831  90.9452959 100.1084371  22.6179443
  87.8721823  99.1130955  22.4953015  87.5340334  98.9972020  21.6073550
  88.7411591  98.7122120  22.4754021  88.3541606 100.2665807  28.4539221
  88.3430246  99.8718605  27.5819724  88.5162245  99.5331880  29.0472992
  81.2773070 102.4617623  21.3234127  82.0694362 102.1208448  20.9080426
  81.5169720 102.5712598  22.2436280  85.0748867 103.0502919  27.4018405
  84.7838733 103.9548550  27.2865071  85.7105851 103.0919446  28.1162474
  86.0005074 100.4279767  23.9919764  86.5968646 100.2035790  23.2776727
  86.0580045  99.6864513  24.5945212  93.5407232  90.5351788  24.9972286
  93.2090557  91.4047199  24.7733501  92.9452846  90.2188072  25.6766316
  90.0338752 102.7364334  24.3968198  89.7339475 103.6389373  24.2884006
  89.6889811 102.4696518  25.2489351  83.4851233  99.1878131  20.4304903
  82.5601730  99.0554345  20.6382595  83.7335647  99.9672350  20.9274845
  93.4335896  95.2546875  22.0765636  92.5252773  95.1862283  21.7824397
  93.3823492  95.7318819  22.9047461  80.8460044  98.8311405  21.2648692
  80.9752426  99.0845884  22.1788104  80.1657496  99.4239113  20.9453347
  87.5076761  96.6736520  30.0200533  86.7310096  97.2330440  30.0103398
  88.1467325  97.1593303  30.5415403  95.2997542  93.4563313  23.8543510
  94.6571922  93.7495846  23.2083304  94.7952471  93.3416233  24.6596706
  85.7623134  99.4821973  29.5818500  86.5037818 100.0207017  29.3053324
  85.0560119 100.1088262  29.7390052  91.2378473 101.6251114  28.1790662
  91.6461829 101.1833524  27.4345294  90.5155735 101.0503741  28.4324854
  87.5909543  96.5623721  25.5524218  88.4370739  96.9863134  25.6958867
  87.5308181  95.9057345  26.2462782  90.7408989  94.2228089  27.2105392
  90.4969921  94.9770150  26.6739668  91.0168919  94.6013437  28.0452639
  92.6947452 100.7666701  25.8882658  92.9064347 101.4098461  25.2117039
  92.6477200  99.9329018  25.4204588  90.2973681  93.3784522  22.7919230
  89.4358160  93.6765776  23.0835967  90.3236115  93.5954921  21.8600262
  84.0059331 101.4698194  22.1372799  84.5760688 101.8985463  21.4990283
  84.5967443 101.1880779  22.8356984  84.4984498  96.6361622  30.3833810
  83.8683158  97.3177902  30.6169207  84.3920585  96.5244703  29.4386948
  79.7929470  96.3033418  21.3099734  79.0028524  96.5590946  20.8339845
  80.2840717  97.1181756  21.4151775  81.7444215  96.6677997  18.2683211
  80.9475379  96.7796691  18.7866707  81.5169808  97.0064649  17.4024101
  87.5749883 103.1922700  26.2165726  87.6394315 103.6543107  27.0523897
  86.8660807 102.5620065  26.3448035  78.0767173  96.5563908  23.7414725
  78.3275211  97.4410918  24.0072301  78.6126721  96.3768510  22.9689817
  83.7765240  90.9382387  32.7459061  83.3832186  90.3848586  33.4206705
  84.5931381  91.2492966  33.1365579  86.6933201  92.3540267  30.3379318
  87.4342915  92.9547420  30.2583780  86.9251124  91.6117904  29.7797360
  81.8374539  97.5396634  28.6157547  81.7228054  96.6381891  28.9164646
  80.9819057  97.7860331  28.2642364  88.9166377 105.4814374  30.2145048
  88.4730231 104.6950753  29.8965952  89.5783591 105.6693525  29.5488939
  83.6753498 107.0110176  24.7405726  84.2260923 106.8827239  23.9682720
  82.8364974 107.3105065  24.3900619  91.0147615 105.7617174  28.2426449
  90.9966090 106.5826055  27.7506718  91.9367535 105.6371249  28.4676590
  87.4720669 103.2761304  29.0849958  88.0049006 102.5149592  28.8549266
  86.9434750 102.9834955  29.8274112  90.6390364  88.3821369  24.6143599
  90.2954634  89.2723011  24.5382710  91.0069327  88.1923027  23.7513184
  88.1887758  93.2179681  18.1801273  87.3329354  92.8286532  18.0006912
  88.6014710  93.2971642  17.3201058  89.7186905  90.7526025  22.5792833
  89.2151700  90.7156160  21.7660638  90.0117511  91.6618767  22.6389489
  85.9629790  90.8364754  21.5859014  86.8282787  90.6407563  21.2264904
  86.0307299  90.6075106  22.5128371  83.5692110  93.0666962  18.9575381
  84.1435861  92.8442144  18.2248574  84.1563092  93.1355657  19.7103982
  85.8714777  89.9408211  17.6850451  85.2179190  89.6257228  17.0607065
  85.8295251  89.3183952  18.4110273  89.1052518  96.4290145  22.0098098
  88.1875079  96.6505092  21.8519786  89.5212661  96.5036455  21.1509806
  92.4378030  87.6414929  19.7161337  92.7436907  86.7812292  19.4287252
  93.1630635  88.2332549  19.5160331  78.7302386  98.0445615  18.1042935
  78.5326786  97.4514976  17.3794001  78.1749050  97.7397825  18.8218874
  86.7099110  97.9368722  20.2237528  86.7647719  96.9842558  20.1480005
  85.8990312  98.0928161  20.7078826  84.6491470  96.5545781  17.9827907
  83.8359335  96.8539952  18.3893099  85.1450464  96.1601470  18.7002389
  90.2465681  97.0187606  26.8142801  90.6015069  97.2459079  27.6737267
  90.8937812  97.3505983  26.1920056  84.1405544  94.1264137  23.5989142
  84.7804924  93.9852896  22.9012105  83.3083075  93.8398650  23.2227744
  81.1434161  94.0964462  18.3762129  81.4040978  95.0109795  18.2671289
  81.9651333  93.6288905  18.5258742  82.6159086  95.5102219  25.5460953
  83.2882139  95.3019581  24.8973602  81.7888873  95.3124305  25.1066186
  88.5184658  92.1364160  27.5626614  87.8712573  92.8354110  27.4691091
  89.2885673  92.5700304  27.9302862  91.9263456 102.4013012  30.6377167
  91.7748962 102.1723564  29.7207251  91.9168135 103.3583614  30.6508512
  88.6948792  99.9744925  25.6223434  89.6240852 100.1256085  25.4492401
  88.2739822 100.0628946  24.7672080  87.4937124 103.9995589  23.3921971
  87.3548210 103.6314374  24.2647910  86.7051720 104.5143229  23.2205929
  83.0186583  98.7844822  26.3063390  82.8806381  98.0525061  26.9074929
  83.9291507  98.6953722  26.0247578  85.6468884  98.4964781  25.7947070
  86.3568502  97.8557974  25.7533688  85.6038192  98.7477676  26.7173251
  93.6355663 105.4332135  28.7153649  93.5768209 104.7491355  28.0484232
  94.0375181 106.1751125  28.2634275  84.3597818  95.4829999  27.6142710
  83.8235175  95.0320738  28.2664306  83.7714526  95.6175908  26.8713174
  93.6373070 103.3971719  26.9467629  92.7499849 103.0597641  27.0694028
  94.2071621 102.6654750  27.1836394  75.2902217  99.7295810  20.2710680
  75.9773257  99.4157541  19.6831696  75.1350346 100.6337175  19.9977932
  80.0936939  94.6186007  24.6995704  80.0095128  94.0111677  23.9646114
  79.2719646  95.1095025  24.7005200  90.2660653  93.1039571  20.0665899
  90.7629353  92.3509533  19.7466969  89.4947635  93.1403887  19.5009108
  86.8495622  95.2456954  19.7937584  86.4793409  94.6927994  20.4818489
  87.3454714  94.6415087  19.2412584  84.6784820 105.7054449  26.8892602
  85.3794280 106.3390932  27.0421996  84.2079935 106.0469180  26.1288241
  92.7079648  90.0709164  22.2145258  91.7942728  90.3013391  22.3827465
  93.1372749  90.1547608  23.0659290  92.4786106  98.2599056  24.7145152
  91.8257557  98.5074963  24.0597605  92.8566486  97.4463194  24.3807629
  88.5273679  99.0018867  31.2011189  87.8514316  98.9012996  31.8713564
  89.3501313  98.8458081  31.6647186  80.2752538 105.2390804  23.8223704
  80.8605975 104.4934492  23.9551608  80.0777377 105.5494760  24.7060368
  74.8670193  97.8096404  22.5428147  74.9054293  97.2759995  23.3365266
  74.3610486  97.2831609  21.9239125  82.2460955  92.6560944  26.0390690
  82.3102282  93.5175775  25.6268087  82.1828076  92.0434946  25.3063048
  81.7213228  94.7284077  29.6863724  82.3485267  94.3461154  30.3001248
  80.8641147  94.5098279  30.0519416  92.1207337 105.1347052  31.2917459
  92.6647241 105.7477010  30.7972414  91.5394181 105.6926630  31.8084472
  78.4978771  96.5360506  15.6182079  78.7932212  95.6271184  15.5649133
  77.5966806  96.5148245  15.2963081  82.0273018  94.6116503  21.6009627
  81.3059603  95.2252470  21.4617101  82.8166273  95.1474267  21.5226273
  84.8299331  91.9470929  27.8750279  85.3533733  92.1933226  28.6376588
  84.6111665  92.7790964  27.4553417  80.2266612  94.2174604  15.7421404
  79.8979318  93.3371983  15.5596510  80.5805983  94.1622272  16.6297793
  86.0351876  92.8884624  25.5599950  85.6948697  92.0892437  25.9620630
  85.3290883  93.1886335  24.9876783  86.6868348  89.9733937  24.0127273
  87.5094417  89.4994415  23.8906163  86.9306412  90.7524420  24.5125959
  84.2106927  96.6653057  21.8219251  84.0651508  96.9793360  22.7143533
  83.7332131  97.2837958  21.2690150  86.0703310  93.6555605  21.8700141
  86.0564879  92.7596699  21.5332439  86.7875738  93.6626269  22.5038427
  87.9229440  94.0892945  23.9153268  87.6647218  95.0110016  23.9137599
  87.3914481  93.6923380  24.6053732  78.6852589  99.2058402  24.7606913
  78.1406057  99.9818210  24.8927187  79.5631939  99.5529206  24.6026034
  85.4740206  92.5369986  17.1387711  85.5956117  91.6086632  17.3378599
  85.1842248  92.5508671  16.2266026  88.3431396  90.2224896  20.2754431
  88.3653093  90.2864229  19.3206410  88.7599455  89.3829405  20.4694937
  79.4718611  98.3328298  27.6537069  78.7300347  98.4810933  28.2401700
  79.1511355  98.5936564  26.7903819  87.4162274 107.8744276  27.4517459
  87.7249400 107.6293423  28.3240159  88.2137756 108.0790915  26.9636330
  78.1183830 104.1380053  20.6436398  77.2815738 103.7102227  20.4620399
  78.0907475 104.3312496  21.5807189  84.9581285  94.0501983  31.3477644
  85.0069441  94.9264106  30.9655413  85.5003799  93.5079376  30.7749287
  95.4436131 104.5943106  30.6278781  94.6531675 104.5767245  30.0883280
  95.2069485 105.1331400  31.3827817  95.5634006 101.4435573  27.9411509
  95.6132011 101.2785580  28.8827032  95.4547929 100.5762832  27.5509390
  92.8537768  97.4266501  29.2570816  93.7547631  97.2872965  28.9654814
  92.9285743  97.5920955  30.1968993  87.1880574  94.8033355  28.1024002
  86.3183883  95.0966921  27.8306591  87.4240054  95.3873800  28.8231266
  97.0652203 103.8632514  28.1853531  96.7737011 104.2262495  29.0216992
  96.4524334 103.1499522  28.0066863  95.3139391  98.9865129  26.6533589
  95.7893513  99.1792775  25.8452440  94.3904956  99.0424314  26.4076972
  89.8919608  91.0212972  25.6189423  90.4101551  91.7573999  25.2935911
  89.5374740  91.3276966  26.4536182  90.1432202  87.4413255  21.1390319
  90.4233955  86.7736444  21.7650746  90.9282809  87.6342350  20.6264983
  94.0141060  95.8630889  24.8861894  94.9658483  95.9628986  24.9074118
  93.8444510  95.0709157  25.3959979  92.0355439  92.9486472  25.0721295
  91.4405372  93.2291485  24.3767784  91.7505136  93.4380373  25.8438036
  96.6423626  95.8748052  24.0462477  96.1262675  95.0906508  23.8592406
  97.5263575  95.5466768  24.2108997  94.3034353  89.6189067  20.0058290
  94.1059174  89.3104156  20.8901622  94.9134059  90.3450706  20.1356220
  88.2151161 102.0050808  31.5032055  89.1354171 102.1829407  31.6972102
  88.1800744 101.0606853  31.3511754  77.4333326  97.1989401  20.4285330
  77.1136111  96.3454709  20.1359704  76.8866754  97.4137979  21.1843297
  81.2113234  99.9151842  24.1454836  81.4299244 100.8468950  24.1642870
  81.6239008  99.5559817  24.9309640  88.1317452  90.4219928  16.1330525
  87.3218180  90.0767012  16.5085771  88.8201868  90.1127471  16.7218136
  90.0608000  89.4997974  17.7554821  90.6139038  89.9193428  18.4144844
  90.2978086  88.5733722  17.7977777  86.0841099  95.4885048  33.5357585
  85.9837826  96.4379405  33.4669676  85.8662641  95.1603287  32.6633655
  77.3021586 100.8192313  22.3978451  76.6085058 100.4046265  21.8848406
  78.0494577 100.8612849  21.8011870  91.8890373  91.0103557  19.4654806
  92.3890152  91.1220092  18.6569125  92.5325981  90.7064610  20.1055614
  85.9472369  98.9182187  32.3522647  85.4639451  99.7182547  32.5586536
  86.0333308  98.9290132  31.3990091  79.2158329 100.7510566  20.2744466
  79.1929017 100.8498254  19.3226349  79.5258965 101.5975717  20.5961632
  81.8745707 102.8086721  24.3891081  82.8288960 102.7770664  24.3221012
  81.6758230 102.3477345  25.2041306  82.4645089 101.3787838  26.9561878
  83.2837978 101.8731916  26.9796716  82.7381896 100.4619806  26.9279446
  77.7180003  95.7125971  27.6554075  78.3638867  95.2024925  28.1441300
  77.5097154  96.4494653  28.2297501  90.2433395 102.7806819  33.1546216
  91.1124555 102.9547471  32.7932851  89.7640147 103.6001236  33.0321945
  84.4119575 109.9003920  24.8335650  85.3146822 109.9327530  25.1502144
  84.1856945 108.9704371  24.8481985  90.0535733  86.5708793  17.6623908
  89.2868129  86.0167279  17.8080591  90.4646438  86.6430661  18.5238060
  82.0577494  92.8593588  31.7529090  82.9208956  92.5030393  31.9632414
  81.4842905  92.5207483  32.4404494  94.6158995 106.2674305  32.7459061
  94.2225940 105.7140504  33.4206705  95.4325135 106.5784884  33.1365579
  97.5326956 107.6832184  30.3379318  98.2736669 108.2839337  30.2583780
  97.7644879 106.9409822  29.7797360  92.5606982 110.0575995  29.6863724
  93.1879021 109.6753072  30.3001248  91.7034901 109.8390197  30.0519416
  95.7975040 109.3793901  31.3477644  95.8463195 110.2556023  30.9655413
  96.3397554 108.8371294  30.7749287  96.9234854 110.8176966  33.5357585
  96.8231580 111.7671323  33.4669676  96.7056396 110.4895205  32.6633655
  88.5573757 111.0417889  27.6554075  89.2032621 110.5316843  28.1441300
  88.3490909 111.7786571  28.2297501  92.8971248 108.1885506  31.7529090
  93.7602710 107.8322311  31.9632414  92.3236659 107.8499401  32.4404494
  50.2780646  21.1226587  15.4398956  50.2193192  20.4385807  14.7729539
  50.6800164  21.8645577  14.9879582  48.7632320  20.8241504  18.0162766
  49.3072224  21.4371462  17.5217721  48.1819165  21.3821082  18.5329779
  52.0861114  20.2837558  17.3524087  51.2956658  20.2661697  16.8128587
  51.8494469  20.8225852  18.1073124  53.7077186  19.5526966  14.9098837
  53.4161994  19.9156946  15.7462298  53.0949317  18.8393974  14.7312169
  46.8858378  18.4701271  19.8791523  47.7549538  18.6441923  19.5178157
  46.4065130  19.2895688  19.7567252  58.5450854  30.1789897   9.2836797
  59.1829264  30.0596644   8.5800137  58.4271697  31.1270741   9.3424749
  55.3540560  30.1317325   9.2198322  55.0159072  30.0158390   8.3318857
  56.2230329  29.7308490   9.1999328  55.8360343  31.2852177  15.1784527
  55.8248984  30.8904975  14.3065031  55.9980983  30.5518249  15.7718299
  48.7591808  33.4803993   8.0479433  49.5513100  33.1394817   7.6325733
  48.9988458  33.5898968   8.9681587  52.5567605  34.0689288  14.1263711
  52.2657471  34.9734919  14.0110378  53.1924589  34.1105816  14.8407781
  53.4823811  31.4466137  10.7165071  54.0787384  31.2222159  10.0022034
  53.5398783  30.7050882  11.3190519  63.5000550  27.8416584   7.2622984
  64.2325722  27.2715801   7.4960813  62.7439906  27.4538184   7.7029489
  61.0225970  21.5538158  11.7217592  60.6909295  22.4233569  11.4978807
  60.4271584  21.2374442  12.4011623  57.5157490  33.7550704  11.1213505
  57.2158213  34.6575743  11.0129312  57.1708549  33.4882887  11.9734658
  60.9154634  26.2733244   8.8010942  60.0071511  26.2048652   8.5069703
  60.8642229  26.7505189   9.6292768  52.4978270  40.5195024   4.0884473
  52.4202299  41.4702849   4.1672953  51.8939913  40.1740897   4.7459399
  54.9895499  27.6922890  16.7445840  54.2128833  28.2516810  16.7348704
  55.6286062  28.1779673  17.2660710  62.7816280  24.4749682  10.5788816
  62.1390660  24.7682216   9.9328611  62.2771208  24.3602603  11.3842013
  53.2441872  30.5008343  16.3063807  53.9856556  31.0393387  16.0298630
  52.5378857  31.1274632  16.4635358  58.7197211  32.6437483  14.9035968
  59.1280567  32.2019894  14.1590601  57.9974473  32.0690111  15.1570161
  55.0728281  27.5810090  12.2769525  55.9189476  28.0049504  12.4204174
  55.0126919  26.9243715  12.9708088  59.0426026  33.2038674   8.6588257
  58.4134888  33.3684388   7.9564325  58.6551688  33.6180284   9.4299221
  62.9215258  34.1393112   6.0132621  62.2366296  34.5192013   5.4629654
  63.0059107  34.7488439   6.7464569  58.2227727  25.2414459  13.9350699
  57.9788658  25.9956519  13.3984974  58.4987657  25.6199806  14.7697946
  60.1766189  31.7853071  12.6127964  60.3883085  32.4284831  11.9362345
  60.1295938  30.9515388  12.1449894  51.4878069  32.4884564   8.8618105
  52.0579426  32.9171832   8.2235590  52.0786181  32.2067148   9.5602291
  51.9803235  27.6547991  17.1079117  51.3501896  28.3364272  17.3414513
  51.8739323  27.5431073  16.1632255  61.2912017  34.6625026  10.7850322
  62.1129461  34.2605214  10.5033003  61.2874420  34.5593261  11.7366437
  55.0568621  34.2109070  12.9411032  55.1213053  34.6729477  13.7769204
  54.3479545  33.5806435  13.0693342  69.3818010  31.0063775   7.1335293
  68.6281719  30.4371173   6.9779298  69.5165552  30.9726439   8.0805928
  51.2583978  21.9568757  19.4704368  50.8650924  21.4034956  20.1452012
  52.0750118  22.2679336  19.8610885  50.0340921  36.5118372   5.4640691
  50.2107549  37.4336336   5.2761675  50.8297754  36.1976791   5.8935071
  54.1751939  23.3726636  17.0624624  54.9161652  23.9733789  16.9829087
  54.4069862  22.6304274  16.5042667  49.3193277  28.5583003  15.3402854
  49.2046792  27.6568261  15.6409953  48.4637795  28.8046700  14.9887670
  56.3985115  36.5000744  16.9390355  55.9548969  35.7137122  16.6211259
  57.0602328  36.6879894  16.2734245  51.1572236  38.0296545  11.4651033
  51.7079661  37.9013609  10.6928027  50.3183712  38.3291434  11.1145926
  58.4966353  36.7803544  14.9671756  58.4784828  37.6012425  14.4752025
  59.4186273  36.6557619  15.1921897  54.9539407  34.2947673  15.8095264
  55.4867744  33.5335961  15.5794572  54.4253488  34.0021325  16.5519419
  61.2984966  31.6182686   8.4381123  60.6408640  32.3081947   8.5261251
  62.1025365  32.0079118   8.7815109  60.1090425  29.9727059   6.4885064
  60.6222306  30.6057051   6.9906774  60.7591648  29.3728254   6.1228424
  56.5871255  27.4476514   8.7343405  55.6693817  27.6691461   8.5765093
  57.0031399  27.5222825   7.8755112  60.8752221  34.9533060   4.6164207
  60.4214548  34.1123970   4.6729397  60.2446187  35.5894459   4.9538987
  59.3185160  36.7909557   5.5514025  59.6108134  37.3514614   4.8326391
  59.8283781  37.0838118   6.3067184  54.2818785  37.5689908   6.6407478
  54.2394964  37.7950754   5.7116010  55.1981484  37.3353283   6.7893279
  57.7284419  28.0373976  13.5388107  58.0833807  28.2645449  14.3982573
  58.3756550  28.3692352  12.9165363  63.4582156  31.1592411   4.2437436
  63.3200055  31.3494007   3.3158626  63.1018375  31.9211794   4.7005488
  63.4851536  33.2268938   9.2548708  63.9188042  33.1344228  10.1031762
  64.1983116  33.2026439   8.6168724  57.2179430  36.8271033  10.7881809
  57.2716453  37.3961969  11.5559524  56.3494212  36.9972918  10.4235846
  50.0977824  26.5288589  12.2706260  50.7700877  26.3205951  11.6218909
  49.2707610  26.3310675  11.8311492  64.3467085  33.2692639  11.7881593
  64.5402975  34.1738450  12.0340868  64.2467703  32.8100058  12.6220178
  56.0003396  23.1550530  14.2871921  55.3531311  23.8540479  14.1936397
  56.7704411  23.5886674  14.6548169  59.4082194  33.4199382  17.3622474
  59.2567700  33.1909934  16.4452558  59.3986873  34.3769983  17.3753819
  56.1767530  30.9931295  12.3468740  57.1059590  31.1442454  12.1737708
  55.7558560  31.0815315  11.4917387  54.9755862  35.0181959  10.1167278
  54.8366948  34.6500743  10.9893216  54.1870458  35.5329598   9.9451236
  55.5704014  40.1191055   1.4592815  55.7455770  39.6479099   2.2738437
  54.8836802  40.7456822   1.6874075  56.5261077  34.3963562   7.5056116
  56.1910910  34.3564332   8.4013766  56.0265023  33.7308278   7.0326526
  50.5005321  29.8031192  13.0308697  50.3625119  29.0711431  13.6320236
  51.4110245  29.7140092  12.7492885  53.1287622  29.5151151  12.5192377
  53.8387240  28.8744343  12.4778995  53.0856930  29.7664046  13.4418557
  61.1174400  36.4518504  15.4398956  61.0586947  35.7677725  14.7729539
  61.5193919  37.1937494  14.9879582  51.8416556  26.5016369  14.3388016
  51.3053913  26.0507107  14.9909612  51.2533264  26.6362278  13.5958480
  50.1365099  43.2680418   8.2332675  50.3761697  43.8998942   8.9111693
  49.2934296  42.9168458   8.5198034  61.1191808  34.4158088  13.6712936
  60.2318586  34.0784010  13.7939334  61.6890359  33.6841120  13.9081701
  54.6492961  39.0759541  10.6374179  54.5763133  39.8814512  11.1493483
  54.2070354  39.2751506   9.8122200  54.4382741  38.3131311   4.1477000
  53.6550263  38.8552991   4.2415225  55.1375486  38.8305290   4.5471241
  65.6009148  29.8266306   8.4329497  65.5899024  30.7091021   8.0623430
  64.7326528  29.4737857   8.2384034  57.1091645  38.9746375  12.7932337
  57.8219617  39.6093840  12.7208239  56.6181673  39.0710241  11.9772339
  52.1603558  36.7240818  13.6137908  52.8613018  37.3577301  13.7667302
  51.6898673  37.0655550  12.8533547  59.9604844  29.2785426  11.4390459
  59.3076294  29.5261333  10.7842911  60.3385224  28.4649564  11.1052936
  56.9212018  39.3145119   5.5418629  57.1034413  38.4966775   6.0046381
  57.7445004  39.5312811   5.1043519  57.2554183  38.2413304   2.8033677
  57.7841950  37.7305759   2.1903839  57.5182403  37.9255834   3.6679210
  56.0092417  30.0205237  17.9256496  55.3333054  29.9199366  18.5958871
  56.8320051  29.8644450  18.3892493  47.7571276  36.2577173  10.5469011
  48.3424713  35.5120861  10.6796915  47.5596115  36.5681130  11.4305675
  50.6109931  39.2928421   5.5631453  49.9420307  39.7774548   5.0795493
  50.4722801  39.5397641   6.4774832  54.7515200  41.3272164  12.1614112
  55.3033508  41.4903786  12.9263197  55.0921393  41.9176602  11.4894137
  49.2031966  25.7470446  16.4109031  49.8304005  25.3647524  17.0246555
  48.3459885  25.5284648  16.7764723  59.6026074  36.1533422  18.0162766
  60.1465978  36.7663380  17.5217721  59.0212919  36.7113000  18.5329779
  57.8883587  39.2754140   9.1477794  57.7634727  38.4743879   8.6388739
  58.5462678  39.7700333   8.6591764  59.9518496  37.0763160  10.7757344
  59.0048831  36.9568511  10.7035671  60.3001269  36.1885658  10.8583605
  52.3118069  22.9657299  14.5995586  52.8352471  23.2119595  15.3621895
  52.0930402  23.7977333  14.1798723  56.9564929  36.8715876   6.9761696
  56.8089891  35.9432583   7.1569266  57.7818422  36.8935967   6.4918771
  60.5599051  37.6944435   8.0626569  61.4845598  37.4887296   7.9251020
  60.3914354  37.4460836   8.9715910  53.5170614  23.9070994  12.2845256
  53.1767434  23.1078807  12.6865936  52.8109620  24.2072705  11.7122090
  55.4048178  25.1079315  10.6398575  55.1465956  26.0296386  10.6382905
  54.8733219  24.7109750  11.3299039  60.3494367  38.2130102   3.4188660
  60.5231245  37.6476525   2.6662513  60.8423258  39.0130997   3.2368150
  46.1671327  30.2244771  11.4852219  45.6224795  31.0004579  11.6172493
  47.0450677  30.5715576  11.3271341  66.2033758  30.9766525   5.0378960
  66.6464904  30.2273850   4.6398083  65.3260268  30.9676661   4.6552692
  61.3369540  37.5296867   0.5185559  62.0320444  38.1503559   0.7372873
  61.6792690  36.6792218   0.7937937  46.9537349  29.3514667  14.3782376
  46.2119085  29.4997303  14.9647006  46.6330093  29.6122933  13.5149125
  63.2360963  34.9796572   2.0472889  63.7612287  35.3183845   1.3222209
  63.1483315  34.0443587   1.8636024  54.8981011  38.8930646  14.1762766
  55.2068138  38.6479792  15.0485466  55.6956493  39.0977284  13.6881636
  54.9201623  41.0468555   6.4068143  54.4806614  40.5544934   7.1000999
  55.6709740  40.5041523   6.1660218  47.3993962  37.2380096   6.4092771
  48.2251982  36.9383868   6.0291414  47.0488014  36.4687719   6.8582559
  52.3675496  36.5906564   8.4790444  51.7455505  35.9277269   8.1792672
  53.0380362  36.6167696   7.7964092  52.4400023  25.0688352  18.0722950
  52.4888178  25.9450475  17.6900720  52.9822537  24.5265746  17.4994593
  62.9254869  35.6129476  17.3524087  62.1350412  35.5953615  16.8128587
  62.6888223  36.1517769  18.1073124  63.0452744  32.4621942  14.6656816
  63.0950749  32.2971950  15.6072339  62.9366667  31.5949201  14.2754697
  60.3356506  28.4452870  15.9816123  61.2366369  28.3059335  15.6900120
  60.4104481  28.6107325  16.9214300  54.6699311  25.8219725  14.8269309
  53.8002621  26.1153291  14.5551897  54.9058792  26.4060170  15.5476573
  64.5470941  34.8818884  14.9098837  64.2555749  35.2448864  15.7462298
  63.9343072  34.1685892  14.7312169  65.7466623  32.4471763   7.4301408
  66.5813514  32.8861567   7.5938968  65.8825752  31.9710417   6.6109653
  62.7958129  30.0051498  13.3778895  63.2712250  30.1979145  12.5697747
  61.8723694  30.0610684  13.1322279  57.3738345  22.0399342  12.3434729
  57.8920289  22.7760369  12.0181218  57.0193478  22.3463335  13.1781488
  61.4959798  26.8817258  11.6107201  62.4477221  26.9815356  11.6319425
  61.3263248  26.0895527  12.1205285  59.5174177  23.9672842  11.7966602
  58.9224109  24.2477854  11.1013091  59.2323874  24.4566742  12.5683343
  63.9747876  30.1023378  10.7249501  63.9424196  29.1639379  10.9109184
  64.5848499  30.1807415   9.9915326  64.1242364  26.8934421  10.7707784
  63.6081413  26.1092878  10.5837713  65.0082313  26.5653138  10.9354303
  69.7924425  31.1639385   9.8655537  70.5227814  30.9024673  10.4263241
  69.1831371  30.4268107   9.9057605  67.8739723  29.3047247  10.4629989
  67.1472886  29.1703212   9.8546480  67.4587009  29.6124076  11.2686707
  55.6969899  33.0237177  18.2277362  56.6172908  33.2015776  18.4217408
  55.6619482  32.0793222  18.0757061  48.6931972  30.9338212  10.8700143
  48.9117981  31.8655320  10.8888177  49.1057745  30.5746186  11.6554947
  53.5659837  26.5071418  20.2602892  53.4656564  27.4565774  20.1914983
  53.3481379  26.1789656  19.3878962  53.4291107  29.9368556  19.0767953
  52.9458189  30.7368916  19.2831842  53.5152046  29.9476501  18.1235397
  49.3564444  33.8273091  11.1136387  50.3107698  33.7957033  11.0466319
  49.1576968  33.3663715  11.9286613  49.9463827  32.3974207  13.6807185
  50.7656716  32.8918286  13.7042022  50.2200634  31.4806175  13.6524752
  65.4917517  25.5259100   7.8163420  66.0862008  25.2854836   7.1056728
  65.5644101  24.8066230   8.4436957  47.7114673  39.3692711   8.1306585
  47.5769141  38.6093111   7.5644583  47.2946735  40.0933610   7.6635374
  67.7988590  28.8325300   6.5906841  67.2388148  28.9018490   7.3638404
  67.1932094  28.6566285   5.8706338  50.8683799  40.2662028   8.3425028
  50.7516183  41.2107460   8.2403718  50.0476245  39.9635589   8.7310827
  45.1998741  26.7312341  14.3799382  45.8457604  26.2211295  14.8686607
  44.9915892  27.4681023  14.9542807  57.7252133  33.7993188  19.8791523
  58.5943293  33.9733841  19.5178157  57.2458884  34.6187605  19.7567252
  51.8938313  40.9190289  11.5580956  52.7965560  40.9513900  11.8747451
  51.6675683  39.9890740  11.5727292  53.6491915  39.6721276   8.2191035
  52.6987546  39.6723138   8.1055407  53.9524401  38.9254011   7.7027069
  49.5396232  23.8779958  18.4774396  50.4027693  23.5216763  18.6877721
  48.9661642  23.5393853  19.1649800  69.3844609  45.5081814   9.2836797
  70.0223019  45.3888562   8.5800137  69.2665452  46.4562658   9.3424749
  66.1934315  45.4609243   9.2198322  65.8552827  45.3450307   8.3318857
  67.0624083  45.0600408   9.1999328  62.0521131  47.3144719   5.2095213
  61.4885996  47.2234656   4.4411501  61.9373526  46.4944623   5.6897705
  66.6754098  46.6144094  15.1784527  66.6642739  46.2196893  14.3065031
  66.8374737  45.8810167  15.7718299  59.5985563  48.8095911   8.0479433
  60.3906855  48.4686735   7.6325733  59.8382213  48.9190886   8.9681587
  67.6320689  50.9815687   0.5209678  66.9808669  51.5669767   0.1343692
  68.4265052  51.5121882   0.5804715  61.5576317  48.0704824   0.9196812
  62.3307193  47.5233811   0.7809688  61.9101715  48.9349073   1.1311273
  63.3961359  49.3981206  14.1263711  63.1051225  50.3026837  14.0110378
  64.0318343  49.4397734  14.8407781  64.3217566  46.7758055  10.7165071
  64.9181138  46.5514077  10.0022034  64.3792538  46.0342800  11.3190519
  63.8942594  44.2297490  -1.4484738  64.1468115  43.7079011  -2.2101275
  62.9567153  44.0663635  -1.3458054  68.9385877  43.2333268   6.3590005
  69.7248966  42.8152691   6.0080422  69.2024582  44.1379360   6.5271654
  69.1095955  48.6706119   1.0578662  68.4741788  48.7440745   1.7699567
  68.7793361  49.2599717   0.3797741  74.3394304  43.1708501   7.2622984
  75.0719476  42.6007718   7.4960813  73.5833660  42.7830102   7.7029489
  63.6138883  46.1325596   0.7539637  63.4975141  45.4570499   1.4220721
  63.7241143  45.6457970  -0.0628210  65.9570424  45.5935743   4.4586326
  65.5928631  45.0666364   5.1699248  66.8137540  45.2034212   4.2852812
  71.8619725  36.8830076  11.7217592  71.5303049  37.7525487  11.4978807
  71.2665338  36.5666360  12.4011623  65.5975911  40.6225643  -0.5452325
  65.7650313  41.4905879  -0.1781854  65.4073080  40.7852924  -1.4691036
  68.3551244  49.0842622  11.1213505  68.0551967  49.9867660  11.0129312
  68.0102304  48.8174805  11.9734658  61.8063726  45.5356418   7.1550209
  60.8814222  45.4032633   7.3627901  62.0548139  46.3150638   7.6520152
  71.7548388  41.6025162   8.8010942  70.8465265  41.5340570   8.5069703
  71.7035984  42.0797107   9.6292768  65.5765132  43.0783300   0.4394342
  65.4564757  43.5240351   1.2779822  64.8817720  43.4268618  -0.1192120
  59.1672537  45.1789692   7.9893999  59.2964918  45.4324171   8.9033410
  58.4869988  45.7717400   7.6698654  63.3372024  55.8486942   4.0884473
  63.2596054  56.7994767   4.1672953  62.7333668  55.5032814   4.7459399
  65.8289254  43.0214807  16.7445840  65.0522588  43.5808727  16.7348704
  66.4679817  43.5071590  17.2660710  73.6210034  39.8041600  10.5788816
  72.9784415  40.0974133   9.9328611  73.1164963  39.6894520  11.3842013
  71.2750198  43.5504773   1.2674676  72.1868054  43.7832160   1.0922373
  70.7659845  44.1341818   0.7049754  64.0835626  45.8300261  16.3063807
  64.8250310  46.3685305  16.0298630  63.3772612  46.4566549  16.4635358
  69.5590966  47.9729401  14.9035968  69.9674322  47.5311812  14.1590601
  68.8368227  47.3982029  15.1570161  65.9122036  42.9102008  12.2769525
  66.7583231  43.3341421  12.4204174  65.8520673  42.2535632  12.9708088
  69.8819780  48.5330592   8.6588257  69.2528643  48.6976306   7.9564325
  69.4945442  48.9472201   9.4299221  73.7609012  49.4685030   6.0132621
  73.0760050  49.8483931   5.4629654  73.8452862  50.0780356   6.7464569
  69.0621481  40.5706376  13.9350699  68.8182413  41.3248437  13.3984974
  69.3381412  40.9491724  14.7697946  71.0159944  47.1144989  12.6127964
  71.2276839  47.7576749  11.9362345  70.9689692  46.2807305  12.1449894
  68.6186173  39.7262809   9.5164536  67.7570652  40.0244063   9.8081274
  68.6448607  39.9433208   8.5845569  65.4347742  48.2705000   5.9238342
  65.8986088  48.5492703   5.1342965  65.1704540  47.3688444   5.7411433
  62.3271823  47.8176481   8.8618105  62.8973180  48.2463750   8.2235590
  62.9179935  47.5359066   9.5602291  64.3716628  44.3928152   2.7327907
  65.0740672  44.8449196   3.2001834  64.0397257  43.7511971   3.3607800
  62.8196990  42.9839909  17.1079117  62.1895650  43.6656190  17.3414513
  62.7133078  42.8722990  16.1632255  58.1141962  42.6511705   8.0345041
  57.3241016  42.9069233   7.5585151  58.6053210  43.4660043   8.1397081
  72.1305772  49.9916944  10.7850322  72.9523216  49.5897131  10.5033003
  72.1268175  49.8885178  11.7366437  60.0656708  43.0156284   4.9928518
  59.2687871  43.1274978   5.5112013  59.8382300  43.3542936   4.1269408
  65.8962375  49.5400987  12.9411032  65.9606808  50.0021395  13.7769204
  65.1873299  48.9098352  13.0693342  56.3979665  42.9042195  10.4660032
  56.6487704  43.7889205  10.7317608  56.9339214  42.7246797   9.6935123
  80.2211765  46.3355693   7.1335293  79.4675473  45.7663091   6.9779298
  80.3559306  46.3018357   8.0805928  65.6110393  51.2069095   2.8090012
  65.4756068  52.0520631   3.2374860  66.1520205  51.4088373   2.0455946
  62.0977733  37.2860675  19.4704368  61.7044678  36.7326873  20.1452012
  62.9143873  37.5971253  19.8610885  59.0639790  48.7244533   3.3817938
  59.5764311  49.5187783   3.5323502  59.7162503  48.0270823   3.3151539
  60.8734675  51.8410289   5.4640691  61.0501303  52.7628254   5.2761675
  61.6691509  51.5268708   5.8935071  65.0145694  38.7018554  17.0624624
  65.7555407  39.3025707  16.9829087  65.2463616  37.9596192  16.5042667
  60.1587032  43.8874921  15.3402854  60.0440547  42.9860178  15.6409953
  59.3031549  44.1338618  14.9887670  67.2378869  51.8292661  16.9390355
  66.7942723  51.0429040  16.6211259  67.8996083  52.0171812  16.2734245
  61.9965990  53.3588463  11.4651033  62.5473416  53.2305526  10.6928027
  61.1577466  53.6583352  11.1145926  69.3360107  52.1095461  14.9671756
  69.3178583  52.9304342  14.4752025  70.2580027  51.9849537  15.1921897
  65.7933162  49.6239591  15.8095264  66.3261498  48.8627879  15.5794572
  65.2647243  49.3313243  16.5519419  68.9602856  34.7299657  11.3388906
  68.6167126  35.6201298  11.2628017  69.3281819  34.5401314  10.4758491
  57.0288707  47.0533187   4.1577508  57.8663929  47.4630196   3.9411216
  57.2066975  46.1132629   4.1277702  68.9253139  44.7208268  -0.1538659
  68.4099763  45.4912872   0.0849728  68.6530448  44.0473404   0.4694403
  66.5100250  39.5657969   4.9046579  65.6541847  39.1764819   4.7252218
  66.9227202  39.6449929   4.0446365  68.0399397  37.1004312   9.3038139
  67.5364192  37.0634447   8.4905944  68.3330004  38.0097055   9.3634796
  64.2842283  37.1843042   8.3104321  65.1495280  36.9885850   7.9510210
  64.3519792  36.9553393   9.2373678  73.8987413  47.4740622   1.7814515
  73.1216856  47.1351782   1.3369677  74.5778894  47.4793246   1.1069480
  68.7139442  42.5935360   1.6721122  68.4089578  42.9081509   2.5231265
  69.6669885  42.6716780   1.7148455  67.1585874  48.7525583   3.3214076
  66.6307236  48.0178343   3.0087314  66.6573377  49.5300260   3.0754045
  72.1378720  46.9474604   8.4381123  71.4802395  47.6373865   8.5261251
  72.9419119  47.3371036   8.7815109  61.8904602  39.4145250   5.6820688
  62.4648354  39.1920431   4.9493881  62.4775584  39.4833944   6.4349289
  70.9484179  45.3018976   6.4885064  71.4616061  45.9348968   6.9906774
  71.5985403  44.7020172   6.1228424  62.2174189  41.4449711  -0.2983427
  61.3811501  41.7824397   0.0225848  62.0778959  41.3098690  -1.2356290
  64.1927270  36.2886498   4.4095757  63.5391682  35.9735516   3.7852372
  64.1507744  35.6662239   5.1355580  65.3038474  46.5705794  -3.6750951
  64.3965536  46.3395047  -3.4759802  65.8009506  45.7743413  -3.4876969
  68.2106553  55.2803301  -0.7554265  67.5368252  55.5834997  -0.1469307
  68.5972375  56.0832381  -1.1048808  67.4265010  42.7768432   8.7343405
  66.5087571  42.9983379   8.5765093  67.8425154  42.8514742   7.8755112
  68.2100058  44.1759848   3.8646085  68.9571877  44.6881245   3.5553207
  68.4791647  43.8543900   4.7250479  66.4826708  46.6718388   0.8473039
  65.5737927  46.3877421   0.9445509  66.5121792  47.0917467  -0.0123654
  71.7145975  50.2824978   4.6164207  71.2608302  49.4415888   4.6729397
  71.0839942  50.9186376   4.9538987  70.6578895  41.2116964   5.8464874
  69.9201652  40.6994350   6.1775117  70.9105668  40.7717346   5.0348151
  70.1578915  52.1201475   5.5514025  70.4501889  52.6806532   4.8326391
  70.6677535  52.4130036   6.3067184  70.7590522  33.9893216   6.4406644
  71.0649399  33.1290579   6.1532559  71.4843127  34.5810836   6.2405638
  57.0514878  44.3923903   4.8288242  56.8539278  43.7993263   4.1039308
  56.4961542  44.0876113   5.5464180  65.0311602  44.2847009   6.9482835
  65.0860212  43.3320845   6.8725311  64.2202804  44.4406448   7.4324133
  66.1802796  48.2127132  -1.8138882  65.7422226  47.4962991  -2.2733245
  66.9213237  48.4403247  -2.3753791  62.9703962  42.9024069   4.7073214
  62.1571827  43.2018239   5.1138406  63.4662956  42.5079758   5.4247696
  65.1212540  52.8981826   6.6407478  65.0788718  53.1242672   5.7116010
  66.0375239  52.6645200   6.7893279  68.5678173  43.3665893  13.5388107
  68.9227561  43.5937366  14.3982573  69.2150305  43.6984270  12.9165363
  74.2975910  46.4884329   4.2437436  74.1593809  46.6785925   3.3158626
  73.9412129  47.2503712   4.7005488  62.4618037  40.4742424  10.3234449
  63.1017416  40.3331183   9.6257412  61.6295567  40.1876938   9.9473051
  74.3245290  48.5560856   9.2548708  74.7581797  48.4636145  10.1031762
  75.0376871  48.5318357   8.6168724  63.2378340  49.7744855   6.4369441
  64.0318939  49.2795175   6.2352016  62.5270033  49.2462718   6.0737147
  68.0573185  52.1562950  10.7881809  68.1110207  52.7253887  11.5559524
  67.1887966  52.3264835  10.4235846  59.5461104  43.9187936   2.5129194
  58.6158692  43.8572392   2.7299156  59.6418576  43.3963889   1.7165835
  59.4646653  40.4442749   5.1007435  59.7253470  41.3588082   4.9916596
  60.2863825  39.9767192   5.2504048  60.9371578  41.8580506  12.2706260
  61.6094632  41.6497869  11.6218909  60.1101365  41.6602592  11.8311492
  75.1860840  48.5984557  11.7881593  75.3796730  49.5030367  12.0340868
  75.0861458  48.1391976  12.6220178  66.8397150  38.4842447  14.2871921
  66.1925065  39.1832397  14.1936397  67.6098166  38.9178591  14.6548169
  70.2475948  48.7491300  17.3622474  70.0961455  48.5201851  16.4452558
  70.2380628  49.7061901  17.3753819  67.0161285  46.3223212  12.3468740
  67.9453345  46.4734372  12.1737708  66.5952315  46.4107233  11.4917387
  65.8149616  50.3473877  10.1167278  65.6760702  49.9792661  10.9893216
  65.0264213  50.8621516   9.9451236  66.4097768  55.4482973   1.4592815
  66.5849524  54.9771016   2.2738437  65.7230556  56.0748739   1.6874075
  67.3654832  49.7255479   7.5056116  67.0304664  49.6856249   8.4013766
  66.8658777  49.0600195   7.0326526  61.3399076  45.1323109  13.0308697
  61.2018874  44.4003348  13.6320236  62.2503999  45.0432009  12.7492885
  70.3014023  47.0711514  -2.2206824  69.6843194  46.3458342  -2.3173772
  69.8330512  47.8320874  -2.5639750  63.9681376  44.8443069  12.5192377
  64.6780995  44.2036261  12.4778995  63.9250684  45.0955964  13.4418557
  71.9568155  51.7810422  15.4398956  71.8980701  51.0969642  14.7729539
  72.3587673  52.5229412  14.9879582  62.6810310  41.8308287  14.3388016
  62.1447667  41.3799025  14.9909612  62.0927019  41.9654195  13.5958480
  60.9758854  58.5972336   8.2332675  61.2155452  59.2290860   8.9111693
  60.1328050  58.2460376   8.5198034  71.9585562  49.7450006  13.6712936
  71.0712341  49.4075928  13.7939334  72.5284113  49.0133037  13.9081701
  53.6114709  46.0774098   6.9955987  54.2985749  45.7635828   6.4077002
  53.4562838  46.9815462   6.7223238  58.4149431  40.9664294  11.4241011
  58.3307620  40.3589964  10.6891421  57.5932138  41.4573313  11.4250507
  65.4886716  54.4051458  10.6374179  65.4156887  55.2106430  11.1493483
  65.0464109  54.6043424   9.8122200  65.2776495  53.6423228   4.1477000
  64.4944017  54.1844909   4.2415225  65.9769240  54.1597208   4.5471241
  68.5873145  39.4517858   6.7911206  69.0841845  38.6987820   6.4712276
  67.8160127  39.4882174   6.2254415  76.4402903  45.1558223   8.4329497
  76.4292779  46.0382939   8.0623430  75.5720282  44.8029774   8.2384034
  67.9485399  54.3038292  12.7932337  68.6613371  54.9385757  12.7208239
  67.4575428  54.4002158  11.9772339  69.6702926  48.2089545   4.3649629
  68.7359205  48.3291008   4.1954333  69.8479594  47.3062012   4.1009639
  65.1708114  41.5935241   6.5182890  64.8005902  41.0406281   7.2063796
  65.6667207  40.9893374   5.9657890  73.0575477  44.0506864   4.8999663
  73.5235930  44.8834856   4.8259966  73.5082978  43.5851846   5.6044922
  62.9997313  52.0532736  13.6137908  63.7006772  52.6869219  13.7667302
  62.5292428  52.3947467  12.8533547  71.1251708  50.3950686   1.8985815
  71.4011552  50.2807280   2.8079689  70.2556207  49.9968170   1.8597988
  71.0292140  36.4187451   8.9390565  70.1155220  36.6491678   9.1072771
  71.4585242  36.5025895   9.7904597  70.7998599  44.6077343  11.4390459
  70.1470049  44.8553251  10.7842911  71.1778979  43.7941481  11.1052936
  67.7605772  54.6437036   5.5418629  67.9428167  53.8258692   6.0046381
  68.5838758  54.8604729   5.1043519  68.0947938  53.5705222   2.8033677
  68.6235704  53.0597676   2.1903839  68.3576158  53.2547752   3.6679210
  66.8486172  45.3497154  17.9256496  66.1726809  45.2491284  18.5958871
  67.6713806  45.1936368  18.3892493  58.5965031  51.5869091  10.5469011
  59.1818468  50.8412779  10.6796915  58.3989869  51.8973048  11.4305675
  61.4503686  54.6220338   5.5631453  60.7814061  55.1066466   5.0795493
  61.3116556  54.8689559   6.4774832  53.1882685  44.1574691   9.2673454
  53.2266785  43.6238282  10.0610572  52.6822978  43.6309897   8.6484431
  65.5908955  56.6564082  12.1614112  66.1427263  56.8195703  12.9263197
  65.9315148  57.2468520  11.4894137  60.5673448  39.0039232  12.7635996
  60.6314774  39.8654063  12.3513394  60.5040568  38.3913233  12.0308355
  60.0425720  41.0762364  16.4109031  60.6697759  40.6939441  17.0246555
  59.1853639  40.8576566  16.7764723  70.4419829  51.4825339  18.0162766
  70.9859733  52.0955298  17.5217721  69.8606674  52.0404918  18.5329779
  56.8191263  42.8838793   2.3427385  57.1144704  41.9749472   2.2894439
  55.9179299  42.8626533   2.0208388  68.7277342  54.6046057   9.1477794
  68.6028481  53.8035797   8.6388739  69.3856433  55.0992251   8.6591764
  60.3485510  40.9594790   8.3254934  59.6272096  41.5730758   8.1862407
  61.1378766  41.4952555   8.2471580  70.7912250  52.4055077  10.7757344
  69.8442586  52.2860429  10.7035671  71.1395023  51.5177575  10.8583605
  63.1511824  38.2949216  14.5995586  63.6746225  38.5411513  15.3621895
  62.9324157  39.1269251  14.1798723  58.5479105  40.5652891   2.4666711
  58.2191811  39.6850270   2.2841817  58.9018475  40.5100560   3.3543100
  67.7958683  52.2007794   6.9761696  67.6483646  51.2724501   7.1569266
  68.6212177  52.2227884   6.4918771  61.6620928  40.8525861   2.8342188
  62.0017000  41.3811782   2.1120797  62.1093048  41.1906267   3.6100755
  71.3992805  53.0236352   8.0626569  72.3239353  52.8179214   7.9251020
  71.2308109  52.7752754   8.9715910  64.3564369  39.2362911  12.2845256
  64.0161189  38.4370724  12.6865936  63.6503375  39.5364622  11.7122090
  65.0080840  36.3212224  10.7372579  65.8306910  35.8472702  10.6151470
  65.2518904  37.1002708  11.2371266  63.6489075  39.3500482   1.0335481
  64.3697437  39.7281735   0.5299198  63.0254379  40.0689359   1.1370459
  67.7920198  40.0545631   1.9693813  68.0083812  40.9370269   1.6682642
  67.3114265  39.6631845   1.2399455  62.5319419  43.0131344   8.5464558
  62.3864000  43.3271648   9.4388839  62.0544623  43.6316245   7.9935457
  64.3915802  40.0033892   8.5945448  64.3777371  39.1074986   8.2577745
  65.1088230  40.0104556   9.2283734  66.2441933  40.4371233  10.6398575
  65.9859711  41.3588303  10.6382905  65.7126973  40.0401667  11.3299039
  71.1888122  53.5422020   3.4188660  71.3624999  52.9768442   2.6662513
  71.6817013  54.3422915   3.2368150  57.0065081  45.5536689  11.4852219
  56.4618549  46.3296497  11.6172493  57.8844431  45.9007493  11.3271341
  63.7952698  38.8848273   3.8633018  63.9168609  37.9564919   4.0623905
  63.5054740  38.8986959   2.9511333  66.6643888  36.5703183   6.9999738
  66.6865585  36.6342516   6.0451717  67.0811947  35.7307692   7.1940244
  77.0427513  46.3058443   5.0378960  77.4858659  45.5565768   4.6398083
  76.1654023  46.2968579   4.6552692  72.1763294  52.8588784   0.5185559
  72.8714199  53.4795477   0.7372873  72.5186444  52.0084135   0.7937937
  57.7931103  44.6806585  14.3782376  57.0512839  44.8289221  14.9647006
  57.4723847  44.9414851  13.5149125  74.0754717  50.3088490   2.0472889
  74.6006041  50.6475763   1.3222209  73.9877070  49.3735505   1.8636024
  65.7374766  54.2222563  14.1762766  66.0461892  53.9771710  15.0485466
  66.5350248  54.4269202  13.6881636  65.7595378  56.3760473   6.4068143
  65.3200368  55.8836852   7.1000999  66.5103495  55.8333441   6.1660218
  58.2387717  52.5672014   6.4092771  59.0645737  52.2675786   6.0291414
  57.8881769  51.7979636   6.8582559  63.2069250  51.9198482   8.4790444
  62.5849259  51.2569187   8.1792672  63.8774117  51.9459614   7.7964092
  56.4396322  50.4858340   7.3681704  55.6028230  50.0580515   7.1865705
  56.4119967  50.6790784   8.3052495  63.2793778  40.3980270  18.0722950
  63.3281933  41.2742393  17.6900720  63.8216292  39.8557663  17.4994593
  73.7648623  50.9421393  17.3524087  72.9744167  50.9245532  16.8128587
  73.5281978  51.4809687  18.1073124  73.8846498  47.7913860  14.6656816
  73.9344503  47.6263867  15.6072339  73.7760422  46.9241119  14.2754697
  62.7682757  50.4702405   1.9548905  62.9170877  51.1537870   1.3015578
  63.5749200  50.4507496   2.4698361  71.1750261  43.7744788  15.9816123
  72.0760123  43.6351253  15.6900120  71.2498235  43.9399243  16.9214300
  65.5093066  41.1511643  14.8269309  64.6396375  41.4445209  14.5551897
  65.7452546  41.7352088  15.5476573  75.3864695  50.2110801  14.9098837
  75.0949503  50.5740782  15.7462298  74.7736826  49.4977810  14.7312169
  76.5860377  47.7763681   7.4301408  77.4207269  48.2153485   7.5938968
  76.7219506  47.3002334   6.6109653  73.6351883  45.3343416  13.3778895
  74.1106005  45.5271062  12.5697747  72.7117449  45.3902602  13.1322279
  60.5235390  46.4967583   2.9609974  60.2781432  45.5929913   3.1590184
  60.6931304  46.4984734   2.0189452  68.2132100  37.3691259  12.3434729
  68.7314044  38.1052286  12.0181218  67.8587233  37.6755253  13.1781488
  59.7931037  42.2295941   0.4596135  59.1000282  42.3040296  -0.1963829
  59.5482789  41.4656284   0.9817652  68.4644694  33.7891542   7.8635626
  68.7446448  33.1214731   8.4896052  69.2495301  33.9820638   7.3510290
  66.2678162  52.9650536  -0.5739348  65.6952130  53.5840723  -1.0268876
  66.8410956  53.5149898  -0.0399426  72.3353552  42.2109176  11.6107201
  73.2870975  42.3107274  11.6319425  72.1657003  41.4187445  12.1205285
  70.3567932  39.2964759  11.7966602  69.7617864  39.5769772  11.1013091
  70.0717628  39.7858660  12.5683343  69.4875422  53.2487686   0.5569234
  70.4206095  53.1833248   0.7602110  69.3998635  54.0843953   0.0983767
  72.1163439  52.5653556  -2.4826818  72.0377070  52.2313420  -1.5891060
  72.9373106  53.0575324  -2.4835346  74.8141630  45.4315296  10.7249501
  74.7817950  44.4931296  10.9109184  75.4242254  45.5099332   9.9915326
  66.6524961  44.3011349  -3.2323295  67.5984066  44.1717557  -3.1634877
  66.2739206  43.5626011  -2.7553867  74.9636119  42.2226339  10.7707784
  74.4475167  41.4384796  10.5837713  75.8476067  41.8945056  10.9354303
  72.6246845  35.9667355   6.7303597  72.4271667  35.6582443   7.6146928
  73.2346551  36.6928994   6.8601526  80.6318180  46.4931303   9.8655537
  81.3621568  46.2316591  10.4263241  80.0225125  45.7560024   9.9057605
  78.7133477  44.6339165  10.4629989  77.9866641  44.4995130   9.8546480
  78.2980764  44.9415994  11.2686707  66.5363653  48.3529095  18.2277362
  67.4566663  48.5307694  18.4217408  66.5013237  47.4085140  18.0757061
  55.7545818  43.5467688   7.1530636  55.4348603  42.6932997   6.8605010
  55.2079247  43.7616267   7.9088604  59.5325726  46.2630129  10.8700143
  59.7511736  47.1947237  10.8888177  59.9451500  45.9038104  11.6554947
  66.4529944  36.7698215   2.8575831  65.6430672  36.4245300   3.2331077
  67.1414361  36.4605758   3.4463443  68.3820492  35.8476262   4.4800128
  68.9351531  36.2671715   5.1390151  68.6190578  34.9212010   4.5223084
  64.4053591  41.8363335  20.2602892  64.3050318  42.7857692  20.1914983
  64.1875133  41.5081574  19.3878962  55.6234078  47.1670600   9.1223758
  54.9297550  46.7524553   8.6093712  56.3707069  47.2091136   8.5257177
  71.7599299  37.9576787   3.9878792  71.1797968  38.6161591   3.6056845
  71.4935232  37.1354131   3.5766210  70.2102866  37.3581844   6.1900112
  70.7102644  37.4698379   5.3814431  70.8538474  37.0542897   6.8300921
  64.2684861  45.2660474  19.0767953  63.7851943  46.0660834  19.2831842
  64.3545800  45.2768419  18.1235397  57.5370821  47.0988854   6.9989773
  57.5141509  47.1976541   6.0471656  57.8471458  47.9454005   7.3206939
  60.1958199  49.1565009  11.1136387  61.1501452  49.1248951  11.0466319
  59.9970722  48.6955632  11.9286613  60.7857581  47.7266125  13.6807185
  61.6050470  48.2210203  13.7042022  61.0594389  46.8098093  13.6524752
  70.5424177  40.1176877   3.0435140  69.6550032  40.4026528   2.8255335
  70.9578166  39.9570640   2.1962417  73.8938713  40.1423398   6.7589480
  74.6699103  40.6319851   7.0314096  73.1686848  40.5681452   7.2161349
  76.3311272  40.8551017   7.8163420  76.9255763  40.6146753   7.1056728
  76.4037856  40.1358148   8.4436957  58.5508428  54.6984628   8.1306585
  58.4162896  53.9385029   7.5644583  58.1340490  55.4225528   7.6635374
  69.6867391  49.8821552  -2.8616840  70.3903241  50.0871554  -2.2459184
  68.9630039  50.4498314  -2.5967756  70.5165201  45.6331413   3.2585431
  70.4600402  46.0899964   2.4193063  71.0693543  44.8722098   3.0808273
  74.3270007  41.4221145   4.0835550  74.0706941  41.0217781   4.9143758
  73.7022875  42.1364939   3.9585689  78.6382345  44.1617218   6.5906841
  78.0781903  44.2310407   7.3638404  78.0325848  43.9858203   5.8706338
  61.7077554  55.5953945   8.3425028  61.5909938  56.5399378   8.2403718
  60.8870000  55.2927507   8.7310827  71.5954088  50.3204081  -0.8118380
  72.4299692  49.8885279  -0.9940905  71.4338431  50.1486095   0.1158515
  71.2499980  46.8236194   0.5537960  71.1948784  46.6580466  -0.3873596
  70.6246036  47.5312227   0.7100149  56.0392495  42.0604259  14.3799382
  56.6851359  41.5503213  14.8686607  55.8309646  42.7972940  14.9542807
  68.5645887  49.1285106  19.8791523  69.4337047  49.3025758  19.5178157
  68.0852639  49.9479523  19.7567252  64.5596106  36.3244303   0.1323278
  64.5474776  37.2686143   0.2891549  65.4519528  36.1414449  -0.1617261
  62.7332068  56.2482207  11.5580956  63.6359314  56.2805817  11.8747451
  62.5069438  55.3182658  11.5727292  64.4885670  55.0013194   8.2191035
  63.5381301  55.0015055   8.1055407  64.7918156  54.2545928   7.7027069
  68.3748225  32.9187080   4.3869215  67.6080621  32.3645567   4.5325897
  68.7858930  32.9908949   5.2483367  60.3789986  39.2071876  18.4774396
  61.2421448  38.8508681  18.6877721  59.8055397  38.8685771  19.1649800
  80.2238363  60.8373732   9.2836797  80.8616773  60.7180479   8.5800137
  80.1059206  61.7854576   9.3424749  77.0328069  60.7901160   9.2198322
  76.6946581  60.6742225   8.3318857  77.9017838  60.3892325   9.1999328
  72.8914885  62.6436637   5.2095213  72.3279750  62.5526574   4.4411501
  72.7767280  61.8236541   5.6897705  77.5147852  61.9436012  15.1784527
  77.5036493  61.5488810  14.3065031  77.6768492  61.2102085  15.7718299
  70.4379317  64.1387828   8.0479433  71.2300609  63.7978653   7.6325733
  70.6775967  64.2482803   8.9681587  78.4714444  66.3107604   0.5209678
  77.8202424  66.8961685   0.1343692  79.2658807  66.8413799   0.5804715
  72.3970071  63.3996741   0.9196812  73.1700947  62.8525729   0.7809688
  72.7495470  64.2640991   1.1311273  74.2355114  64.7273124  14.1263711
  73.9444980  65.6318755  14.0110378  74.8712098  64.7689651  14.8407781
  75.1611320  62.1049972  10.7165071  75.7574893  61.8805995  10.0022034
  75.2186292  61.3634718  11.3190519  74.7336349  59.5589408  -1.4484738
  74.9861870  59.0370929  -2.2101275  73.7960908  59.3955553  -1.3458054
  79.7779632  58.5625186   6.3590005  80.5642721  58.1444609   6.0080422
  80.0418336  59.4671278   6.5271654  79.9489709  63.9998036   1.0578662
  79.3135542  64.0732663   1.7699567  79.6187115  64.5891635   0.3797741
  85.1788059  58.5000419   7.2622984  85.9113231  57.9299636   7.4960813
  84.4227415  58.1122020   7.7029489  74.4532638  61.4617514   0.7539637
  74.3368896  60.7862417   1.4220721  74.5634897  60.9749887  -0.0628210
  76.7964179  60.9227661   4.4586326  76.4322386  60.3958282   5.1699248
  77.6531294  60.5326130   4.2852812  82.7013479  52.2121993  11.7217592
  82.3696804  53.0817404  11.4978807  82.1059093  51.8958277  12.4011623
  76.4369666  55.9517560  -0.5452325  76.6044068  56.8197797  -0.1781854
  76.2466835  56.1144842  -1.4691036  79.1944999  64.4134539  11.1213505
  78.8945722  65.3159578  11.0129312  78.8496058  64.1466722  11.9734658
  72.6457480  60.8648336   7.1550209  71.7207977  60.7324550   7.3627901
  72.8941893  61.6442555   7.6520152  82.5942142  56.9317079   8.8010942
  81.6859020  56.8632488   8.5069703  82.5429738  57.4089024   9.6292768
  76.4158886  58.4075218   0.4394342  76.2958512  58.8532269   1.2779822
  75.7211475  58.7560536  -0.1192120  70.0066291  60.5081610   7.9893999
  70.1358672  60.7616089   8.9033410  69.3263743  61.1009318   7.6698654
  74.1765778  71.1778860   4.0884473  74.0989808  72.1286685   4.1672953
  73.5727422  70.8324732   4.7459399  76.6683008  58.3506725  16.7445840
  75.8916342  58.9100645  16.7348704  77.3073571  58.8363508  17.2660710
  84.4603789  55.1333518  10.5788816  83.8178169  55.4266051   9.9328611
  83.9558717  55.0186438  11.3842013  82.1143953  58.8796691   1.2674676
  83.0261809  59.1124078   1.0922373  81.6053600  59.4633735   0.7049754
  74.9229381  61.1592178  16.3063807  75.6644065  61.6977222  16.0298630
  74.2166366  61.7858467  16.4635358  80.3984720  63.3021319  14.9035968
  80.8068076  62.8603729  14.1590601  79.6761982  62.7273946  15.1570161
  76.7515790  58.2393926  12.2769525  77.5976985  58.6633339  12.4204174
  76.6914428  57.5827550  12.9708088  80.7213535  63.8622509   8.6588257
  80.0922397  64.0268224   7.9564325  80.3339197  64.2764119   9.4299221
  84.6002767  64.7976947   6.0132621  83.9153805  65.1775849   5.4629654
  84.6846616  65.4072274   6.7464569  79.9015236  55.8998294  13.9350699
  79.6576167  56.6540354  13.3984974  80.1775166  56.2783642  14.7697946
  81.8553698  62.4436906  12.6127964  82.0670594  63.0868666  11.9362345
  81.8083447  61.6099223  12.1449894  79.4579927  55.0554727   9.5164536
  78.5964406  55.3535981   9.8081274  79.4842362  55.2725126   8.5845569
  76.2741497  63.5996918   5.9238342  76.7379842  63.8784621   5.1342965
  76.0098295  62.6980362   5.7411433  73.1665578  63.1468399   8.8618105
  73.7366935  63.5755667   8.2235590  73.7573690  62.8650984   9.5602291
  75.2110383  59.7220070   2.7327907  75.9134426  60.1741114   3.2001834
  74.8791011  59.0803889   3.3607800  73.6590744  58.3131827  17.1079117
  73.0289405  58.9948107  17.3414513  73.5526832  58.2014908  16.1632255
  68.9535717  57.9803623   8.0345041  68.1634771  58.2361151   7.5585151
  69.4446964  58.7951960   8.1397081  82.9699526  65.3208862  10.7850322
  83.7916970  64.9189049  10.5033003  82.9661929  65.2177096  11.7366437
  70.9050462  58.3448202   4.9928518  70.1081625  58.4566896   5.5112013
  70.6776054  58.6834854   4.1269408  76.7356130  64.8692905  12.9411032
  76.8000562  65.3313312  13.7769204  76.0267054  64.2390270  13.0693342
  67.2373420  58.2334113  10.4660032  67.4881458  59.1181123  10.7317608
  67.7732968  58.0538715   9.6935123  91.0605519  61.6647610   7.1335293
  90.3069228  61.0955008   6.9779298  91.1953061  61.6310275   8.0805928
  76.4504147  66.5361013   2.8090012  76.3149822  67.3812548   3.2374860
  76.9913960  66.7380290   2.0455946  72.9371487  52.6152592  19.4704368
  72.5438433  52.0618791  20.1452012  73.7537627  52.9263171  19.8610885
  69.9033545  64.0536451   3.3817938  70.4158065  64.8479701   3.5323502
  70.5556258  63.3562741   3.3151539  71.7128430  67.1702207   5.4640691
  71.8895058  68.0920172   5.2761675  72.5085263  66.8560626   5.8935071
  75.8539448  54.0310471  17.0624624  76.5949161  54.6317625  16.9829087
  76.0857371  53.2888109  16.5042667  70.9980786  59.2166839  15.3402854
  70.8834301  58.3152096  15.6409953  70.1425304  59.4630536  14.9887670
  78.0772624  67.1584579  16.9390355  77.6336478  66.3720958  16.6211259
  78.7389837  67.3463730  16.2734245  72.8359745  68.6880381  11.4651033
  73.3867170  68.5597444  10.6928027  71.9971221  68.9875270  11.1145926
  80.1753862  67.4387379  14.9671756  80.1572337  68.2596260  14.4752025
  81.0973782  67.3141454  15.1921897  76.6326916  64.9531508  15.8095264
  77.1655253  64.1919797  15.5794572  76.1040997  64.6605160  16.5519419
  79.7996611  50.0591574  11.3388906  79.4560880  50.9493216  11.2628017
  80.1675574  49.8693232  10.4758491  67.8682462  62.3825105   4.1577508
  68.7057684  62.7922113   3.9411216  68.0460729  61.4424547   4.1277702
  79.7646894  60.0500186  -0.1538659  79.2493517  60.8204790   0.0849728
  79.4924202  59.3765322   0.4694403  77.3494005  54.8949886   4.9046579
  76.4935601  54.5056737   4.7252218  77.7620956  54.9741847   4.0446365
  78.8793151  52.4296230   9.3038139  78.3757947  52.3926365   8.4905944
  79.1723758  53.3388972   9.3634796  75.1236037  52.5134959   8.3104321
  75.9889034  52.3177768   7.9510210  75.1913546  52.2845311   9.2373678
  84.7381168  62.8032540   1.7814515  83.9610611  62.4643700   1.3369677
  85.4172649  62.8085163   1.1069480  79.5533197  57.9227278   1.6721122
  79.2483332  58.2373427   2.5231265  80.5063639  58.0008698   1.7148455
  77.9979629  64.0817501   3.3214076  77.4700990  63.3470261   3.0087314
  77.4967131  64.8592177   3.0754045  82.9772475  62.2766521   8.4381123
  82.3196149  62.9665783   8.5261251  83.7812874  62.6662953   8.7815109
  72.7298356  54.7437167   5.6820688  73.3042108  54.5212349   4.9493881
  73.3169339  54.8125862   6.4349289  81.7877934  60.6310894   6.4885064
  82.3009815  61.2640886   6.9906774  82.4379157  60.0312090   6.1228424
  73.0567943  56.7741628  -0.2983427  72.2205256  57.1116315   0.0225848
  72.9172713  56.6390608  -1.2356290  75.0321024  51.6178416   4.4095757
  74.3785436  51.3027433   3.7852372  74.9901498  50.9954157   5.1355580
  76.1432229  61.8997711  -3.6750951  75.2359291  61.6686965  -3.4759802
  76.6403261  61.1035330  -3.4876969  78.2658764  58.1060350   8.7343405
  77.3481326  58.3275297   8.5765093  78.6818908  58.1806660   7.8755112
  79.0493812  59.5051765   3.8646085  79.7965631  60.0173163   3.5553207
  79.3185402  59.1835818   4.7250479  77.3220462  62.0010306   0.8473039
  76.4131682  61.7169339   0.9445509  77.3515546  62.4209385  -0.0123654
  82.5539730  65.6116896   4.6164207  82.1002057  64.7707805   4.6729397
  81.9233696  66.2478294   4.9538987  81.4972649  56.5408882   5.8464874
  80.7595406  56.0286268   6.1775117  81.7499423  56.1009263   5.0348151
  80.9972669  67.4493392   5.5514025  81.2895643  68.0098449   4.8326391
  81.5071290  67.7421953   6.3067184  81.5984277  49.3185134   6.4406644
  81.9043153  48.4582497   6.1532559  82.3236881  49.9102754   6.2405638
  67.8908633  59.7215820   4.8288242  67.6933033  59.1285181   4.1039308
  67.3355297  59.4168030   5.5464180  75.8705356  59.6138927   6.9482835
  75.9253966  58.6612763   6.8725311  75.0596558  59.7698366   7.4324133
  77.0196550  63.5419050  -1.8138882  76.5815980  62.8254909  -2.2733245
  77.7606991  63.7695165  -2.3753791  73.8097716  58.2315986   4.7073214
  72.9965582  58.5310157   5.1138406  74.3056710  57.8371675   5.4247696
  75.9606294  68.2273743   6.6407478  75.9182473  68.4534590   5.7116010
  76.8768993  67.9937118   6.7893279  79.4071928  58.6957811  13.5388107
  79.7621316  58.9229284  14.3982573  80.0544059  59.0276188  12.9165363
  85.1369665  61.8176247   4.2437436  84.9987564  62.0077843   3.3158626
  84.7805884  62.5795630   4.7005488  73.3011791  55.8034342  10.3234449
  73.9411170  55.6623101   9.6257412  72.4689322  55.5168855   9.9473051
  85.1639045  63.8852774   9.2548708  85.5975551  63.7928063  10.1031762
  85.8770625  63.8610274   8.6168724  74.0772095  65.1036772   6.4369441
  74.8712693  64.6087092   6.2352016  73.3663787  64.5754635   6.0737147
  78.8966939  67.4854868  10.7881809  78.9503962  68.0545804  11.5559524
  78.0281721  67.6556753  10.4235846  70.3854858  59.2479854   2.5129194
  69.4552447  59.1864310   2.7299156  70.4812330  58.7255807   1.7165835
  70.3040407  55.7734667   5.1007435  70.5647225  56.6880000   4.9916596
  71.1257580  55.3059109   5.2504048  71.7765333  57.1872424  12.2706260
  72.4488386  56.9789786  11.6218909  70.9495119  56.9894510  11.8311492
  86.0254594  63.9276474  11.7881593  86.2190484  64.8322285  12.0340868
  85.9255212  63.4683894  12.6220178  77.6790905  53.8134365  14.2871921
  77.0318820  54.5124315  14.1936397  78.4491920  54.2470509  14.6548169
  81.0869703  64.0783217  17.3622474  80.9355209  63.8493769  16.4452558
  81.0774382  65.0353819  17.3753819  77.8555039  61.6515130  12.3468740
  78.7847099  61.8026290  12.1737708  77.4346069  61.7399151  11.4917387
  76.6543371  65.6765794  10.1167278  76.5154457  65.3084579  10.9893216
  75.8657967  66.1913434   9.9451236  77.2491523  70.7774891   1.4592815
  77.4243279  70.3062934   2.2738437  76.5624311  71.4040657   1.6874075
  78.2048586  65.0547397   7.5056116  77.8698419  65.0148167   8.4013766
  77.7052532  64.3892113   7.0326526  72.1792830  60.4615027  13.0308697
  72.0412628  59.7295266  13.6320236  73.0897754  60.3723927  12.7492885
  81.1407778  62.4003431  -2.2206824  80.5236948  61.6750260  -2.3173772
  80.6724266  63.1612792  -2.5639750  74.8075131  60.1734986  12.5192377
  75.5174749  59.5328179  12.4778995  74.7644439  60.4247881  13.4418557
  82.7961909  67.1102340  15.4398956  82.7374456  66.4261560  14.7729539
  83.1981428  67.8521330  14.9879582  73.5204065  57.1600204  14.3388016
  72.9841422  56.7090943  14.9909612  72.9320773  57.2946113  13.5958480
  71.8152608  73.9264254   8.2332675  72.0549206  74.5582778   8.9111693
  70.9721805  73.5752294   8.5198034  72.9306324  56.6188856  -3.0985520
  72.0535790  56.4977656  -3.4623274  73.4064077  55.8274934  -3.3506632
  82.7979317  65.0741924  13.6712936  81.9106095  64.7367845  13.7939334
  83.3677868  64.3424955  13.9081701  64.4508464  61.4066015   6.9955987
  65.1379504  61.0927745   6.4077002  64.2956592  62.3107380   6.7223238
  69.2543186  56.2956212  11.4241011  69.1701375  55.6881882  10.6891421
  68.4325892  56.7865230  11.4250507  76.3280470  69.7343376  10.6374179
  76.2550642  70.5398348  11.1493483  75.8857863  69.9335342   9.8122200
  76.1170250  68.9715146   4.1477000  75.3337772  69.5136826   4.2415225
  76.8162995  69.4889126   4.5471241  79.4266900  54.7809776   6.7911206
  79.9235599  54.0279738   6.4712276  78.6553881  54.8174092   6.2254415
  87.2796657  60.4850141   8.4329497  87.2686533  61.3674856   8.0623430
  86.4114037  60.1321692   8.2384034  78.7879154  69.6330210  12.7932337
  79.5007126  70.2677675  12.7208239  78.2969182  69.7294076  11.9772339
  80.5096680  63.5381463   4.3649629  79.5752959  63.6582925   4.1954333
  80.6873349  62.6353930   4.1009639  76.0101869  56.9227159   6.5182890
  75.6399656  56.3698199   7.2063796  76.5060961  56.3185292   5.9657890
  83.8969232  59.3798782   4.8999663  84.3629684  60.2126774   4.8259966
  84.3476732  58.9143764   5.6044922  73.8391067  67.3824654  13.6137908
  74.5400527  68.0161136  13.7667302  73.3686182  67.7239385  12.8533547
  81.9645463  65.7242603   1.8985815  82.2405307  65.6099198   2.8079689
  81.0949962  65.3260088   1.8597988  81.8685895  51.7479369   8.9390565
  80.9548974  51.9783596   9.1072771  82.2978996  51.8317813   9.7904597
  81.6392353  59.9369261  11.4390459  80.9863803  60.1845168  10.7842911
  82.0172733  59.1233399  11.1052936  78.5999527  69.9728954   5.5418629
  78.7821922  69.1550610   6.0046381  79.4232513  70.1896646   5.1043519
  78.9341692  68.8997139   2.8033677  79.4629459  68.3889594   2.1903839
  79.1969912  68.5839669   3.6679210  77.6879926  60.6789072  17.9256496
  77.0120563  60.5783201  18.5958871  78.5107560  60.5228286  18.3892493
  69.4358785  66.9161009  10.5469011  70.0212222  66.1704696  10.6796915
  69.2383624  67.2264965  11.4305675  72.2897440  69.9512256   5.5631453
  71.6207816  70.4358384   5.0795493  72.1510310  70.1981476   6.4774832
  64.0276440  59.4866609   9.2673454  64.0660539  58.9530199  10.0610572
  63.5216733  58.9601814   8.6484431  76.4302709  71.9855999  12.1614112
  76.9821017  72.1487621  12.9263197  76.7708902  72.5760437  11.4894137
  71.4067202  54.3331149  12.7635996  71.4708529  55.1945980  12.3513394
  71.3434322  53.7205151  12.0308355  70.8819475  56.4054282  16.4109031
  71.5091514  56.0231359  17.0246555  70.0247394  56.1868484  16.7764723
  81.2813583  66.8117257  18.0162766  81.8253487  67.4247215  17.5217721
  80.7000428  67.3696835  18.5329779  67.6585018  58.2130711   2.3427385
  67.9538459  57.3041389   2.2894439  66.7573053  58.1918450   2.0208388
  79.5671096  69.9337975   9.1477794  79.4422236  69.1327715   8.6388739
  80.2250187  70.4284168   8.6591764  71.1879265  56.2886707   8.3254934
  70.4665850  56.9022675   8.1862407  71.9772520  56.8244472   8.2471580
  81.6306005  67.7346995  10.7757344  80.6836340  67.6152346  10.7035671
  81.9788778  66.8469493  10.8583605  73.9905578  53.6241134  14.5995586
  74.5139980  53.8703431  15.3621895  73.7717911  54.4561169  14.1798723
  69.3872859  55.8944809   2.4666711  69.0585565  55.0142188   2.2841817
  69.7412230  55.8392477   3.3543100  78.6352438  67.5299711   6.9761696
  78.4877400  66.6016419   7.1569266  79.4605931  67.5519802   6.4918771
  72.5014682  56.1817778   2.8342188  72.8410755  56.7103700   2.1120797
  72.9486803  56.5198185   3.6100755  82.2386560  68.3528270   8.0626569
  83.1633107  68.1471131   7.9251020  82.0701863  68.1044671   8.9715910
  75.1958123  54.5654829  12.2845256  74.8554943  53.7662642  12.6865936
  74.4897129  54.8656540  11.7122090  75.8474595  51.6504142  10.7372579
  76.6700664  51.1764620  10.6151470  76.0912658  52.4294625  11.2371266
  74.4882829  54.6792400   1.0335481  75.2091192  55.0573653   0.5299198
  73.8648134  55.3981277   1.1370459  78.6313952  55.3837549   1.9693813
  78.8477567  56.2662187   1.6682642  78.1508019  54.9923762   1.2399455
  73.3713174  58.3423262   8.5464558  73.2257754  58.6563565   9.4388839
  72.8938377  58.9608163   7.9935457  75.2309557  55.3325810   8.5945448
  75.2171125  54.4366903   8.2577745  75.9481985  55.3396474   9.2283734
  77.0835687  55.7663150  10.6398575  76.8253465  56.6880221  10.6382905
  76.5520728  55.3693585  11.3299039  82.0281876  68.8713937   3.4188660
  82.2018754  68.3060360   2.6662513  82.5210767  69.6714832   3.2368150
  67.8458836  60.8828607  11.4852219  67.3012304  61.6588415  11.6172493
  68.7238186  61.2299411  11.3271341  74.6346452  54.2140190   3.8633018
  74.7562364  53.2856837   4.0623905  74.3448495  54.2278876   2.9511333
  77.5037643  51.8995101   6.9999738  77.5259340  51.9634434   6.0451717
  77.9205702  51.0599610   7.1940244  87.8821267  61.6350360   5.0378960
  88.3252413  60.8857686   4.6398083  87.0047777  61.6260497   4.6552692
  83.0157048  68.1880702   0.5185559  83.7107953  68.8087395   0.7372873
  83.3580199  67.3376053   0.7937937  68.6324858  60.0098503  14.3782376
  67.8906594  60.1581138  14.9647006  68.3117602  60.2706768  13.5149125
  84.9148472  65.6380407   2.0472889  85.4399796  65.9767680   1.3222209
  84.8270824  64.7027423   1.8636024  76.5768520  69.5514481  14.1762766
  76.8855647  69.3063628  15.0485466  77.3744002  69.7561120  13.6881636
  76.5989132  71.7052391   6.4068143  76.1594123  71.2128769   7.1000999
  77.3497249  71.1625358   6.1660218  69.0781471  67.8963932   6.4092771
  69.9039491  67.5967703   6.0291414  68.7275523  67.1271554   6.8582559
  74.0463005  67.2490400   8.4790444  73.4243014  66.5861105   8.1792672
  74.7167871  67.2751532   7.7964092  67.2790076  65.8150258   7.3681704
  66.4421985  65.3872432   7.1865705  67.2513722  66.0082701   8.3052495
  74.1187532  55.7272188  18.0722950  74.1675687  56.6034311  17.6900720
  74.6610046  55.1849581  17.4994593  84.6042378  66.2713311  17.3524087
  83.8137921  66.2537450  16.8128587  84.3675732  66.8101605  18.1073124
  84.7240253  63.1205777  14.6656816  84.7738258  62.9555785  15.6072339
  84.6154176  62.2533036  14.2754697  73.6076511  65.7994323   1.9548905
  73.7564632  66.4829788   1.3015578  74.4142955  65.7799413   2.4698361
  82.0144015  59.1036705  15.9816123  82.9153878  58.9643170  15.6900120
  82.0891990  59.2691160  16.9214300  76.3486820  56.4803560  14.8269309
  75.4790130  56.7737126  14.5551897  76.5846301  57.0644005  15.5476573
  86.2258450  65.5402719  14.9098837  85.9343258  65.9032699  15.7462298
  85.6130581  64.8269727  14.7312169  87.4254132  63.1055599   7.4301408
  88.2601023  63.5445403   7.5938968  87.5613261  62.6294252   6.6109653
  84.4745638  60.6635334  13.3778895  84.9499759  60.8562980  12.5697747
  83.5511203  60.7194519  13.1322279  71.3629144  61.8259501   2.9609974
  71.1175186  60.9221831   3.1590184  71.5325059  61.8276651   2.0189452
  79.0525854  52.6983177  12.3434729  79.5707798  53.4344204  12.0181218
  78.6980987  53.0047170  13.1781488  70.6324792  57.5587858   0.4596135
  69.9394037  57.6332213  -0.1963829  70.3876544  56.7948202   0.9817652
  79.3038448  49.1183460   7.8635626  79.5840202  48.4506649   8.4896052
  80.0889055  49.3112555   7.3510290  77.1071917  68.2942454  -0.5739348
  76.5345884  68.9132641  -1.0268876  77.6804711  68.8441815  -0.0399426
  83.1747307  57.5401094  11.6107201  84.1264730  57.6399191  11.6319425
  83.0050757  56.7479362  12.1205285  81.1961686  54.6256677  11.7966602
  80.6011618  54.9061690  11.1013091  80.9111383  55.1150578  12.5683343
  80.3269177  68.5779604   0.5569234  81.2599850  68.5125165   0.7602110
  80.2392390  69.4135871   0.0983767  85.6535385  60.7607213  10.7249501
  85.6211705  59.8223214  10.9109184  86.2636008  60.8391250   9.9915326
  77.4918715  59.6303266  -3.2323295  78.4377820  59.5009474  -3.1634877
  77.1132960  58.8917928  -2.7553867  85.8029873  57.5518257  10.7707784
  85.2868922  56.7676713  10.5837713  86.6869822  57.2236973  10.9354303
  83.4640600  51.2959272   6.7303597  83.2665421  50.9874361   7.6146928
  84.0740306  52.0220911   6.8601526  91.4711934  61.8223220   9.8655537
  92.2015323  61.5608508  10.4263241  90.8618880  61.0851942   9.9057605
  89.5527232  59.9631083  10.4629989  88.8260395  59.8287048   9.8546480
  89.1374518  60.2707911  11.2686707  77.3757408  63.6821012  18.2277362
  78.2960417  63.8599611  18.4217408  77.3406991  62.7377058  18.0757061
  75.6761633  57.5553243  -3.2968410  74.7693088  57.2586355  -3.2205696
  75.9537614  57.2583061  -4.1634124  66.5939573  58.8759606   7.1530636
  66.2742357  58.0224914   6.8605010  66.0473001  59.0908184   7.9088604
  70.3719481  61.5922047  10.8700143  70.5905490  62.5239155  10.8888177
  70.7845254  61.2330022  11.6554947  77.2923698  52.0990132   2.8575831
  76.4824427  51.7537217   3.2331077  77.9808115  51.7897676   3.4463443
  79.2214247  51.1768179   4.4800128  79.7745285  51.5963633   5.1390151
  79.4584333  50.2503927   4.5223084  75.2447346  57.1655253  20.2602892
  75.1444073  58.1149610  20.1914983  75.0268888  56.8373492  19.3878962
  74.4460417  54.4140178  -3.1556431  75.3079581  54.7395076  -2.8960614
  74.6310761  53.6271674  -3.6683365  66.4627833  62.4962518   9.1223758
  65.7691304  62.0816470   8.6093712  67.2100824  62.5383054   8.5257177
  82.5993054  53.2868704   3.9878792  82.0191723  53.9453508   3.6056845
  82.3328986  52.4646049   3.5766210  81.0496620  52.6873762   6.1900112
  81.5496398  52.7990297   5.3814431  81.6932228  52.3834815   6.8300921
  75.1078616  60.5952392  19.0767953  74.6245698  61.3952752  19.2831842
  75.1939555  60.6060337  18.1235397  68.3764576  62.4280771   6.9989773
  68.3535264  62.5268459   6.0471656  68.6865212  63.2745922   7.3206939
  71.0351953  64.4856926  11.1136387  71.9895207  64.4540869  11.0466319
  70.8364477  64.0247550  11.9286613  71.6251336  63.0558042  13.6807185
  72.4444225  63.5502121  13.7042022  71.8988143  62.1390011  13.6524752
  81.3817932  55.4468795   3.0435140  80.4943787  55.7318445   2.8255335
  81.7971921  55.2862558   2.1962417  84.7332468  55.4715316   6.7589480
  85.5092858  55.9611768   7.0314096  84.0080602  55.8973370   7.2161349
  87.1705026  56.1842935   7.8163420  87.7649517  55.9438671   7.1056728
  87.2431610  55.4650066   8.4436957  69.3902182  70.0276546   8.1306585
  69.2556650  69.2676947   7.5644583  68.9734244  70.7517446   7.6635374
  81.3558955  60.9623331   3.2585431  81.2994157  61.4191882   2.4193063
  81.9087298  60.2014015   3.0808273  85.1663761  56.7513063   4.0835550
  84.9100696  56.3509698   4.9143758  84.5416629  57.4656857   3.9585689
  89.4776099  59.4909136   6.5906841  88.9175657  59.5602325   7.3638404
  88.8719603  59.3150120   5.8706338  72.5471308  70.9245863   8.3425028
  72.4303692  71.8691295   8.2403718  71.7263754  70.6219424   8.7310827
  82.4347843  65.6495999  -0.8118380  83.2693447  65.2177197  -0.9940905
  82.2732186  65.4778012   0.1158515  82.0893735  62.1528112   0.5537960
  82.0342539  61.9872383  -0.3873596  81.4639790  62.8604145   0.7100149
  66.8786250  57.3896176  14.3799382  67.5245113  56.8795130  14.8686607
  66.6703401  58.1264858  14.9542807  79.4039642  64.4577024  19.8791523
  80.2730802  64.6317676  19.5178157  78.9246393  65.2771441  19.7567252
  75.3989860  51.6536221   0.1323278  75.3868530  52.5978061   0.2891549
  76.2913282  51.4706366  -0.1617261  73.5725822  71.5774125  11.5580956
  74.4753069  71.6097735  11.8747451  73.3463192  70.6474576  11.5727292
  75.3279424  70.3305111   8.2191035  74.3775055  70.3306973   8.1055407
  75.6311910  69.5837846   7.7027069  79.2141980  48.2478998   4.3869215
  78.4474376  47.6937484   4.5325897  79.6252685  48.3200866   5.2483367
  71.2183741  54.5363793  18.4774396  72.0815202  54.1800598  18.6877721
  70.6449151  54.1977688  19.1649800  91.0632118  76.1665650   9.2836797
  91.7010528  76.0472397   8.5800137  90.9452961  77.1146494   9.3424749
  87.8721824  76.1193078   9.2198322  87.5340335  76.0034143   8.3318857
  88.7411592  75.7184243   9.1999328  88.3541607  77.2727930  15.1784527
  88.3430248  76.8780728  14.3065031  88.5162246  76.5394002  15.7718299
  81.2773072  79.4679746   8.0479433  82.0694364  79.1270571   7.6325733
  81.5169722  79.5774721   8.9681587  85.0748868  80.0565041  14.1263711
  84.7838734  80.9610672  14.0110378  85.7105852  80.0981569  14.8407781
  86.0005075  77.4341890  10.7165071  86.5968647  77.2097912  10.0022034
  86.0580046  76.6926635  11.3190519  93.5407234  67.5413911  11.7217592
  93.2090558  68.4109322  11.4978807  92.9452847  67.2250195  12.4011623
  90.0338753  79.7426457  11.1213505  89.7339476  80.6451496  11.0129312
  89.6889813  79.4758640  11.9734658  83.4851235  76.1940254   7.1550209
  82.5601731  76.0616468   7.3627901  83.7335648  76.9734473   7.6520152
  93.4335897  72.2608997   8.8010942  92.5252774  72.1924406   8.5069703
  93.3823493  72.7380942   9.6292768  80.8460046  75.8373527   7.9893999
  80.9752427  76.0908006   8.9033410  80.1657497  76.4301235   7.6698654
  87.5076763  73.6798643  16.7445840  86.7310097  74.2392563  16.7348704
  88.1467326  74.1655426  17.2660710  95.2997543  70.4625435  10.5788816
  94.6571924  70.7557969   9.9328611  94.7952472  70.3478356  11.3842013
  85.7623135  76.4884096  16.3063807  86.5037819  77.0269140  16.0298630
  85.0560121  77.1150385  16.4635358  91.2378475  78.6313237  14.9035968
  91.6461831  78.1895647  14.1590601  90.5155736  78.0565864  15.1570161
  87.5909545  73.5685843  12.2769525  88.4370740  73.9925257  12.4204174
  87.5308182  72.9119468  12.9708088  90.7408990  71.2290212  13.9350699
  90.4969922  71.9832272  13.3984974  91.0168921  71.6075559  14.7697946
  92.6947453  77.7728824  12.6127964  92.9064348  78.4160584  11.9362345
  92.6477201  76.9391141  12.1449894  90.2973682  70.3846645   9.5164536
  89.4358161  70.6827898   9.8081274  90.3236116  70.6017044   8.5845569
  84.0059332  78.4760317   8.8618105  84.5760689  78.9047585   8.2235590
  84.5967444  78.1942901   9.5602291  84.4984499  73.6423744  17.1079117
  83.8683159  74.3240025  17.3414513  84.3920587  73.5306826  16.1632255
  79.7929471  73.3095540   8.0345041  79.0028525  73.5653069   7.5585151
  80.2840719  74.1243878   8.1397081  81.7444217  73.6740120   4.9928518
  80.9475380  73.7858814   5.5112013  81.5169809  74.0126772   4.1269408
  87.5749884  80.1984823  12.9411032  87.6394317  80.6605230  13.7769204
  86.8660808  79.5682188  13.0693342  78.0767174  73.5626031  10.4660032
  78.3275213  74.4473041  10.7317608  78.6126723  73.3830632   9.6935123
  83.7765242  67.9444510  19.4704368  83.3832187  67.3910709  20.1452012
  84.5931382  68.2555089  19.8610885  86.6933203  69.3602389  17.0624624
  87.4342916  69.9609542  16.9829087  86.9251125  68.6180027  16.5042667
  81.8374541  74.5458756  15.3402854  81.7228056  73.6444014  15.6409953
  80.9819058  74.7922453  14.9887670  88.9166378  82.4876497  16.9390355
  88.4730232  81.7012875  16.6211259  89.5783592  82.6755647  16.2734245
  83.6753499  84.0172298  11.4651033  84.2260925  83.8889362  10.6928027
  82.8364975  84.3167187  11.1145926  91.0147616  82.7679297  14.9671756
  90.9966092  83.5888178  14.4752025  91.9367536  82.6433372  15.1921897
  87.4720671  80.2823426  15.8095264  88.0049007  79.5211714  15.5794572
  86.9434752  79.9897078  16.5519419  90.6390365  65.3883492  11.3388906
  90.2954635  66.2785134  11.2628017  91.0069328  65.1985150  10.4758491
  88.1887759  70.2241804   4.9046579  87.3329356  69.8348654   4.7252218
  88.6014711  70.3033765   4.0446365  89.7186906  67.7588147   9.3038139
  89.2151701  67.7218282   8.4905944  90.0117513  68.6680890   9.3634796
  85.9629792  67.8426877   8.3104321  86.8282789  67.6469686   7.9510210
  86.0307301  67.6137229   9.2373678  83.5692111  70.0729085   5.6820688
  84.1435863  69.8504266   4.9493881  84.1563093  70.1417779   6.4349289
  85.8714779  66.9470334   4.4095757  85.2179191  66.6319351   3.7852372
  85.8295253  66.3246074   5.1355580  89.1052519  73.4352267   8.7343405
  88.1875080  73.6567214   8.5765093  89.5212663  73.5098578   7.8755112
  92.4378031  64.6477051   6.4406644  92.7436908  63.7874415   6.1532559
  93.1630636  65.2394671   6.2405638  78.7302387  75.0507738   4.8288242
  78.5326787  74.4577099   4.1039308  78.1749051  74.7459948   5.5464180
  86.7099111  74.9430844   6.9482835  86.7647721  73.9904681   6.8725311
  85.8990313  75.0990283   7.4324133  84.6491471  73.5607904   4.7073214
  83.8359336  73.8602075   5.1138406  85.1450465  73.1663593   5.4247696
  90.2465682  74.0249729  13.5388107  90.6015070  74.2521202  14.3982573
  90.8937814  74.3568105  12.9165363  84.1405546  71.1326260  10.3234449
  84.7804925  70.9915019   9.6257412  83.3083076  70.8460773   9.9473051
  81.1434162  71.1026585   5.1007435  81.4040979  72.0171918   4.9916596
  81.9651334  70.6351027   5.2504048  82.6159087  72.5164342  12.2706260
  83.2882141  72.3081704  11.6218909  81.7888874  72.3186428  11.8311492
  88.5184659  69.1426283  14.2871921  87.8712574  69.8416232  14.1936397
  89.2885675  69.5762427  14.6548169  91.9263457  79.4075135  17.3622474
  91.7748964  79.1785687  16.4452558  91.9168137  80.3645736  17.3753819
  88.6948794  76.9807048  12.3468740  89.6240854  77.1318207  12.1737708
  88.2739824  77.0691068  11.4917387  87.4937125  81.0057712  10.1167278
  87.3548211  80.6376496  10.9893216  86.7051722  81.5205351   9.9451236
  83.0186585  75.7906945  13.0308697  82.8806382  75.0587184  13.6320236
  83.9291508  75.7015845  12.7492885  85.6468885  75.5026904  12.5192377
  86.3568504  74.8620096  12.4778995  85.6038193  75.7539799  13.4418557
  93.6355664  82.4394257  15.4398956  93.5768210  81.7553478  14.7729539
  94.0375182  83.1813247  14.9879582  84.3597819  72.4892122  14.3388016
  83.8235176  72.0382860  14.9909612  83.7714528  72.6238031  13.5958480
  93.6373071  80.4033841  13.6712936  92.7499850  80.0659763  13.7939334
  94.2071622  79.6716873  13.9081701  75.2902218  76.7357933   6.9955987
  75.9773258  76.4219663   6.4077002  75.1350347  77.6399298   6.7223238
  80.0936940  71.6248130  11.4241011  80.0095129  71.0173799  10.6891421
  79.2719647  72.1157148  11.4250507  90.2660654  70.1101693   6.7911206
  90.7629354  69.3571656   6.4712276  89.4947636  70.1466010   6.2254415
  86.8495623  72.2519076   6.5182890  86.4793411  71.6990117   7.2063796
  87.3454716  71.6477210   5.9657890  84.6784822  82.7116571  13.6137908
  85.3794281  83.3453054  13.7667302  84.2079937  83.0531303  12.8533547
  92.7079649  67.0771287   8.9390565  91.7942729  67.3075514   9.1072771
  93.1372751  67.1609731   9.7904597  92.4786108  75.2661179  11.4390459
  91.8257558  75.5137086  10.7842911  92.8566487  74.4525317  11.1052936
  88.5273681  76.0080990  17.9256496  87.8514318  75.9075119  18.5958871
  89.3501314  75.8520203  18.3892493  80.2752540  82.2452926  10.5469011
  80.8605976  81.4996614  10.6796915  80.0777378  82.5556883  11.4305675
  74.8670194  74.8158526   9.2673454  74.9054294  74.2822117  10.0610572
  74.3610487  74.2893732   8.6484431  82.2460957  69.6623067  12.7635996
  82.3102283  70.5237898  12.3513394  82.1828077  69.0497069  12.0308355
  81.7213229  71.7346199  16.4109031  82.3485268  71.3523277  17.0246555
  80.8641148  71.5160401  16.7764723  92.1207338  82.1409175  18.0162766
  92.6647242  82.7539133  17.5217721  91.5394183  82.6988753  18.5329779
  78.4978772  73.5422629   2.3427385  78.7932213  72.6333307   2.2894439
  77.5966808  73.5210368   2.0208388  82.0273019  71.6178625   8.3254934
  81.3059605  72.2314593   8.1862407  82.8166275  72.1536390   8.2471580
  84.8299333  68.9533052  14.5995586  85.3533734  69.1995348  15.3621895
  84.6111666  69.7853086  14.1798723  80.2266614  71.2236726   2.4666711
  79.8979320  70.3434105   2.2841817  80.5805984  71.1684395   3.3543100
  86.0351878  69.8946747  12.2845256  85.6948698  69.0954560  12.6865936
  85.3290884  70.1948458  11.7122090  86.6868349  66.9796059  10.7372579
  87.5094419  66.5056537  10.6151470  86.9306413  67.7586543  11.2371266
  84.2106928  73.6715180   8.5464558  84.0651509  73.9855483   9.4388839
  83.7332132  74.2900080   7.9935457  86.0703311  70.6617728   8.5945448
  86.0564880  69.7658821   8.2577745  86.7875739  70.6688392   9.2283734
  87.9229442  71.0955068  10.6398575  87.6647220  72.0172139  10.6382905
  87.3914482  70.6985503  11.3299039  78.6852590  76.2120524  11.4852219
  78.1406058  76.9880332  11.6172493  79.5631940  76.5591329  11.3271341
  85.4740207  69.5432108   3.8633018  85.5956118  68.6148754   4.0623905
  85.1842249  69.5570794   2.9511333  88.3431397  67.2287019   6.9999738
  88.3653094  67.2926352   6.0451717  88.7599456  66.3891527   7.1940244
  79.4718612  75.3390421  14.3782376  78.7300348  75.4873056  14.9647006
  79.1511356  75.5998686  13.5149125  87.4162275  84.8806399  14.1762766
  87.7249401  84.6355546  15.0485466  88.2137757  85.0853037  13.6881636
  78.1183831  81.1442176   7.3681704  77.2815739  80.7164350   7.1865705
  78.0907476  81.3374619   8.3052495  84.9581287  71.0564105  18.0722950
  85.0069442  71.9326228  17.6900720  85.5003801  70.5141499  17.4994593
  95.4436132  81.6005229  17.3524087  94.6531676  81.5829368  16.8128587
  95.2069487  82.1393522  18.1073124  95.5634007  78.4497695  14.6656816
  95.6132012  78.2847703  15.6072339  95.4547931  77.5824954  14.2754697
  92.8537770  74.4328623  15.9816123  93.7547632  74.2935088  15.6900120
  92.9285744  74.5983078  16.9214300  87.1880575  71.8095478  14.8269309
  86.3183884  72.1029044  14.5551897  87.4240055  72.3935923  15.5476573
  97.0652204  80.8694637  14.9098837  96.7737012  81.2324617  15.7462298
  96.4524335  80.1561645  14.7312169  95.3139392  75.9927251  13.3778895
  95.7893514  76.1854898  12.5697747  94.3904958  76.0486437  13.1322279
  89.8919609  68.0275095  12.3434729  90.4101553  68.7636122  12.0181218
  89.5374742  68.3339088  13.1781488  90.1432203  64.4475377   7.8635626
  90.4233957  63.7798566   8.4896052  90.9282810  64.6404473   7.3510290
  94.0141061  72.8693011  11.6107201  94.9658484  72.9691109  11.6319425
  93.8444512  72.0771280  12.1205285  92.0355441  69.9548595  11.7966602
  91.4405373  70.2353607  11.1013091  91.7505137  70.4442495  12.5683343
  96.6423628  72.8810174  10.7707784  96.1262676  72.0968631  10.5837713
  97.5263576  72.5528891  10.9354303  94.3034354  66.6251190   6.7303597
  94.1059176  66.3166278   7.6146928  94.9134060  67.3512829   6.8601526
  88.2151162  79.0112930  18.2277362  89.1354172  79.1891529  18.4217408
  88.1800746  78.0668975  18.0757061  77.4333327  74.2051524   7.1530636
  77.1136112  73.3516832   6.8605010  76.8866756  74.4200102   7.9088604
  81.2113235  76.9213965  10.8700143  81.4299245  77.8531073  10.8888177
  81.6239009  76.5621939  11.6554947  88.1317453  67.4282050   2.8575831
  87.3218181  67.0829135   3.2331077  88.8201870  67.1189594   3.4463443
  90.0608001  66.5060097   4.4800128  90.6139040  66.9255550   5.1390151
  90.2978087  65.5795845   4.5223084  86.0841100  72.4947171  20.2602892
  85.9837827  73.4441528  20.1914983  85.8662642  72.1665409  19.3878962
  77.3021587  77.8254435   9.1223758  76.6085059  77.4108388   8.6093712
  78.0494578  77.8674972   8.5257177  91.8890375  68.0165680   6.1900112
  92.3890153  68.1282214   5.3814431  92.5325982  67.7126733   6.8300921
  85.9472370  75.9244309  19.0767953  85.4639452  76.7244670  19.2831842
  86.0333309  75.9352254  18.1235397  79.2158330  77.7572689   6.9989773
  79.1929018  77.8560376   6.0471656  79.5258966  78.6037840   7.3206939
  81.8745708  79.8148844  11.1136387  82.8288961  79.7832786  11.0466319
  81.6758231  79.3539468  11.9286613  82.4645090  78.3849960  13.6807185
  83.2837979  78.8794039  13.7042022  82.7381898  77.4681928  13.6524752
  77.7180004  72.7188094  14.3799382  78.3638868  72.2087048  14.8686607
  77.5097155  73.4556776  14.9542807  90.2433396  79.7868941  19.8791523
  91.1124556  79.9609594  19.5178157  89.7640148  80.6063358  19.7567252
  84.4119577  86.9066042  11.5580956  85.3146823  86.9389653  11.8747451
  84.1856947  85.9766493  11.5727292  90.0535734  63.5770915   4.3869215
  89.2868130  63.0229402   4.5325897  90.4646439  63.6492784   5.2483367
  82.0577495  69.8655711  18.4774396  82.9208957  69.5092516  18.6877721
  81.4842906  69.5269606  19.1649800  94.6158996  83.2736428  19.4704368
  94.2225942  82.7202626  20.1452012  95.4325136  83.5847006  19.8610885
  97.5326957  84.6894307  17.0624624  98.2736670  85.2901460  16.9829087
  97.7644880  83.9471945  16.5042667  92.5606984  87.0638117  16.4109031
  93.1879023  86.6815194  17.0246555  91.7034903  86.8452319  16.7764723
  95.7975041  86.3856023  18.0722950  95.8463196  87.2618146  17.6900720
  96.3397555  85.8433416  17.4994593  96.9234855  87.8239088  20.2602892
  96.8231582  88.7733445  20.1914983  96.7056397  87.4957327  19.3878962
  88.5573759  88.0480012  14.3799382  89.2032622  87.5378966  14.8686607
  88.3490910  88.7848693  14.9542807  92.8971250  85.1947629  18.4774396
  93.7602711  84.8384434  18.6877721  92.3236660  84.8561524  19.1649800
  71.9568156  28.7872545   2.1644263  71.8980702  28.1031765   1.4974846
  72.3587675  29.5291535   1.7124888  70.4419830  28.4887462   4.7408073
  70.9859734  29.1017420   4.2463028  69.8606675  29.0467040   5.2575086
  73.7648624  27.9483516   4.0769394  72.9744168  27.9307655   3.5373893
  73.5281979  28.4871810   4.8318431  75.3864696  27.2172924   1.6344144
  75.0949505  27.5802904   2.4707605  74.7736828  26.5039932   1.4557476
  68.5645889  26.1347229   6.6036829  69.4337048  26.3087881   6.2423464
  68.0852640  26.9541646   6.4812558  80.2238364  37.8435855  -3.9917896
  80.8616774  37.7242602  -4.6954556  80.1059207  38.7916699  -3.9329944
  77.0328071  37.7963283  -4.0556371  76.6946582  37.6804347  -4.9435837
  77.9017839  37.3954448  -4.0755365  77.5147854  38.9498135   1.9029834
  77.5036494  38.5550933   1.0310338  77.6768493  38.2164207   2.4963605
  70.4379318  41.1449951  -5.2275260  71.2300610  40.8040775  -5.6428961
  70.6775969  41.2544926  -4.3073107  74.2355115  41.7335246   0.8509018
  73.9444981  42.6380877   0.7355684  74.8712099  41.7751774   1.5653088
  75.1611322  39.1112095  -2.5589622  75.7574894  38.8868117  -3.2732659
  75.2186293  38.3696840  -1.9564174  82.7013480  29.2184116  -1.5537101
  82.3696805  30.0879527  -1.7775886  82.1059094  28.9020400  -0.8743071
  79.1945000  41.4196662  -2.1541188  78.8945723  42.3221701  -2.2625381
  78.8496059  41.1528845  -1.3020035  82.5942144  33.9379202  -4.4743751
  81.6859021  33.8694610  -4.7684990  82.5429740  34.4151147  -3.6461925
  74.1765780  48.1840982  -9.1870221  74.0989809  49.1348807  -9.1081740
  73.5727423  47.8386855  -8.5295294  76.6683010  35.3568848   3.4691146
  75.8916344  35.9162768   3.4594011  77.3073573  35.8425631   3.9906016
  74.9229382  38.1654301   3.0309113  75.6644066  38.7039345   2.7543937
  74.2166367  38.7920590   3.1880665  80.3984721  40.3083441   1.6281275
  80.8068077  39.8665852   0.8835907  79.6761983  39.7336069   1.8815468
  76.7515792  35.2456048  -0.9985168  77.5976987  35.6695462  -0.8550519
  76.6914429  34.5889673  -0.3046605  80.7213536  40.8684632  -4.6166436
  80.0922399  41.0330346  -5.3190368  80.3339198  41.2826242  -3.8455472
  84.6002768  41.8039070  -7.2622073  83.9153806  42.1837971  -7.8125039
  84.6846617  42.4134397  -6.5290125  79.9015237  32.9060417   0.6596005
  79.6576169  33.6602477   0.1230281  80.1775167  33.2845764   1.4943252
  81.8553700  39.4499029  -0.6626729  82.0670595  40.0930789  -1.3392348
  81.8083448  38.6161345  -1.1304799  73.1665579  40.1530522  -4.4136588
  73.7366936  40.5817790  -5.0519103  73.7573691  39.8713106  -3.7152402
  73.6590746  35.3193949   3.8324423  73.0289406  36.0010230   4.0659820
  73.5526833  35.2077031   2.8877562  82.9699528  42.3270984  -2.4904372
  83.7916971  41.9251172  -2.7721690  82.9661930  42.2239219  -1.5388256
  76.7356131  41.8755028  -0.3343661  76.8000564  42.3375435   0.5014511
  76.0267055  41.2452393  -0.2061351  72.9371488  29.6214715   6.1949674
  72.5438434  29.0680914   6.8697319  73.7537629  29.9325293   6.5856192
  71.7128431  44.1764329  -7.8114003  71.8895059  45.0982294  -7.9993019
  72.5085264  43.8622749  -7.3819623  75.8539449  31.0372594   3.7869931
  76.5949163  31.6379747   3.7074393  76.0857372  30.2950232   3.2287973
  70.9980787  36.2228961   2.0648161  70.8834302  35.3214219   2.3655260
  70.1425305  36.4692658   1.7132977  78.0772625  44.1646702   3.6635661
  77.6336479  43.3783080   3.3456566  78.7389839  44.3525852   2.9979552
  72.8359746  45.6942503  -1.8103660  73.3867171  45.5659567  -2.5826666
  71.9971222  45.9937392  -2.1608767  80.1753863  44.4449502   1.6917062
  80.1572338  45.2658383   1.1997332  81.0973783  44.3203577   1.9167204
  76.6326917  41.9593631   2.5340571  77.1655254  41.1981919   2.3039879
  76.1040998  41.6667283   3.2764725  82.9772476  39.2828644  -4.8373571
  82.3196150  39.9727905  -4.7493442  83.7812875  39.6725076  -4.4939584
  78.2658766  35.1122472  -4.5411289  77.3481327  35.3337419  -4.6989600
  78.6818909  35.1868783  -5.3999581  82.5539731  42.6179018  -8.6590486
  82.1002058  41.7769928  -8.6025296  81.9233698  43.2540417  -8.3215706
  80.9972670  44.4555515  -7.7240668  81.2895645  45.0160572  -8.4428303
  81.5071291  44.7484076  -6.9687509  75.9606295  45.2335866  -6.6347215
  75.9182474  45.4596712  -7.5638683  76.8768994  44.9999241  -6.4861414
  79.4071929  35.7019933   0.2633414  79.7621317  35.9291407   1.1227880
  80.0544060  36.0338310  -0.3589331  85.1639046  40.8914896  -4.0205985
  85.5975552  40.7990185  -3.1722931  85.8770626  40.8672397  -4.6585969
  78.8966941  44.4916990  -2.4872885  78.9503963  45.0607927  -1.7195169
  78.0281722  44.6618876  -2.8518848  71.7765334  34.1934547  -1.0048434
  72.4488387  33.9851909  -1.6535785  70.9495121  33.9956633  -1.4443201
  86.0254595  40.9338597  -1.4873100  86.2190485  41.8384408  -1.2413825
  85.9255214  40.4746016  -0.6534515  77.6790906  30.8196488   1.0117227
  77.0318821  31.5186437   0.9181704  78.4491921  31.2532632   1.3793476
  81.0869704  41.0845340   4.0867781  80.9355210  40.8555891   3.1697864
  81.0774383  42.0415941   4.0999126  77.8555040  38.6577253  -0.9285953
  78.7847100  38.8088412  -1.1016986  77.4346070  38.7461273  -1.7837306
  76.6543372  42.6827917  -3.1587415  76.5154458  42.3146701  -2.2861477
  75.8657968  43.1975556  -3.3303457  77.2491524  47.7837013 -11.8161879
  77.4243280  47.3125057 -11.0016256  76.5624312  48.4102780 -11.5880618
  78.2048587  42.0609520  -5.7698578  77.8698420  42.0210290  -4.8740928
  77.7052533  41.3954236  -6.2428167  72.1792831  37.4677150  -0.2445996
  72.0412629  36.7357388   0.3565543  73.0897755  37.3786050  -0.5261809
  74.8075132  37.1797109  -0.7562317  75.5174751  36.5390301  -0.7975698
  74.7644440  37.4310004   0.1663864  82.7961911  44.1164462   2.1644263
  82.7374457  43.4323682   1.4974846  83.1981429  44.8583452   1.7124888
  73.5204066  34.1662327   1.0633323  72.9841423  33.7153065   1.7154919
  72.9320774  34.3008236   0.3203787  71.8152609  50.9326376  -5.0422019
  72.0549208  51.5644900  -4.3643000  70.9721806  50.5814416  -4.7556659
  82.7979318  42.0804046   0.3958242  81.9106097  41.7429968   0.5184641
  83.3677869  41.3487077   0.6327008  76.3280471  46.7405499  -2.6380515
  76.2550643  47.5460470  -2.1261210  75.8857864  46.9397464  -3.4632493
  76.1170251  45.9777269  -9.1277693  75.3337773  46.5198949  -9.0339469
  76.8162996  46.4951248  -8.7283452  78.7879155  46.6392333  -0.4822356
  79.5007127  47.2739797  -0.5546454  78.2969183  46.7356199  -1.2982354
  73.8391068  44.3886776   0.3383215  74.5400528  45.0223259   0.4912609
  73.3686183  44.7301508  -0.4221146  81.6392354  36.9431384  -1.8364235
  80.9863805  37.1907291  -2.4911782  82.0172734  36.1295522  -2.1701757
  78.5999528  46.9791077  -7.7336064  78.7821923  46.1612733  -7.2708312
  79.4232514  47.1958769  -8.1711174  78.9341694  45.9059262 -10.4721016
  79.4629460  45.3951716 -11.0850854  79.1969913  45.5901792  -9.6075483
  77.6879927  37.6851195   4.6501802  77.0120564  37.5845324   5.3204178
  78.5107561  37.5290408   5.1137800  69.4358786  43.9223131  -2.7285682
  70.0212223  43.1766819  -2.5957778  69.2383625  44.2327088  -1.8449019
  72.2897442  46.9574379  -7.7123240  71.6207817  47.4420506  -8.1959200
  72.1510311  47.2043599  -6.7979862  76.4302710  48.9918122  -1.1140582
  76.9821018  49.1549744  -0.3491496  76.7708904  49.5822560  -1.7860557
  70.8819476  33.4116404   3.1354337  71.5091515  33.0293482   3.7491862
  70.0247395  33.1930606   3.5010030  81.2813585  43.8179380   4.7408073
  81.8253489  44.4309338   4.2463028  80.7000429  44.3758958   5.2575086
  79.5671098  46.9400098  -4.1276900  79.4422237  46.1389837  -4.6365954
  80.2250189  47.4346291  -4.6162930  81.6306006  44.7409118  -2.4997349
  80.6836341  44.6214469  -2.5719023  81.9788779  43.8531616  -2.4171088
  73.9905579  30.6303257   1.3240892  74.5139981  30.8765553   2.0867202
  73.7717913  31.4623291   0.9044030  78.6352439  44.5361834  -6.2992997
  78.4877402  43.6078541  -6.1185427  79.4605933  44.5581925  -6.7835922
  82.2386561  45.3590393  -5.2128124  83.1633109  45.1533254  -5.3503673
  82.0701864  45.1106794  -4.3038783  75.1958124  31.5716952  -0.9909437
  74.8554945  30.7724765  -0.5888757  74.4897131  31.8718663  -1.5632604
  77.0835689  32.7725273  -2.6356118  76.8253466  33.6942344  -2.6371788
  76.5520729  32.3755707  -1.9455654  82.0281877  45.8776060  -9.8566033
  82.2018755  45.3122483 -10.6092181  82.5210768  46.6776955 -10.0386543
  67.8458837  37.8890729  -1.7902474  67.3012305  38.6650537  -1.6582200
  68.7238187  38.2361534  -1.9483353  68.6324859  37.0160625   1.1027683
  67.8906595  37.1643261   1.6892313  68.3117603  37.2768891   0.2394432
  76.5768522  46.5576604   0.9008073  76.8855648  46.3125750   1.7730772
  77.3744004  46.7623242   0.4126943  76.5989134  48.7114513  -6.8686551
  76.1594124  48.2190892  -6.1753694  77.3497251  48.1687481  -7.1094476
  69.0781473  44.9026054  -6.8661923  69.9039493  44.6029826  -7.2463279
  68.7275525  44.1333677  -6.4172134  74.0463006  44.2552522  -4.7964249
  73.4243015  43.5923227  -5.0962021  74.7167873  44.2813654  -5.4790601
  74.1187533  32.7334310   4.7968257  74.1675689  33.6096433   4.4146027
  74.6610047  32.1911703   4.2239900  84.6042379  43.2775434   4.0769394
  83.8137923  43.2599573   3.5373893  84.3675734  43.8163727   4.8318431
  84.7240254  40.1267900   1.3902123  84.7738259  39.9617907   2.3317645
  84.6154177  39.2595159   1.0000003  82.0144016  36.1098828   2.7061429
  82.9153879  35.9705293   2.4145427  82.0891991  36.2753283   3.6459607
  76.3486822  33.4865683   1.5514616  75.4790131  33.7799249   1.2797204
  76.5846302  34.0706128   2.2721879  86.2258451  42.5464842   1.6344144
  85.9343259  42.9094822   2.4707605  85.6130582  41.8331850   1.4557476
  84.4745639  37.6697456   0.1024202  84.9499761  37.8625102  -0.7056947
  83.5511204  37.7256642  -0.1432414  79.0525856  29.7045300  -0.9319964
  79.5707799  30.4406327  -1.2573475  78.6980988  30.0109293  -0.0973205
  83.1747308  34.5463216  -1.6647492  84.1264731  34.6461314  -1.6435268
  83.0050758  33.7541485  -1.1549408  81.1961688  31.6318799  -1.4788091
  80.6011620  31.9123812  -2.1741603  80.9111384  32.1212700  -0.7071350
  85.6535386  37.7669336  -2.5505193  85.6211706  36.8285337  -2.3645509
  86.2636009  37.8453373  -3.2839368  77.3757409  40.6883135   4.9522668
  78.2960419  40.8661734   5.1462715  77.3406992  39.7439180   4.8002368
  70.3719482  38.5984170  -2.4054551  70.5905492  39.5301278  -2.3866517
  70.7845256  38.2392144  -1.6199747  75.2447347  34.1717375   6.9848198
  75.1444074  35.1211732   6.9160290  75.0268889  33.8435614   6.1124269
  75.1078617  37.6014514   5.8013260  74.6245699  38.4014874   6.0077149
  75.1939556  37.6122459   4.8480704  71.0351955  41.4919049  -2.1618306
  71.9895208  41.4602991  -2.2288375  70.8364478  41.0309673  -1.3468080
  71.6251337  40.0620165   0.4052492  72.4444226  40.5564244   0.4287329
  71.8988144  39.1452133   0.3770059  69.3902183  47.0338669  -5.1448108
  69.2556651  46.2739069  -5.7110110  68.9734246  47.7579568  -5.6119319
  72.5471309  47.9307986  -4.9329666  72.4303693  48.8753418  -5.0350975
  71.7263756  47.6281547  -4.5443866  66.8786251  34.3958299   1.1044689
  67.5245115  33.8857253   1.5931914  66.6703402  35.1326981   1.6788114
  79.4039643  41.4639146   6.6036829  80.2730803  41.6379799   6.2423464
  78.9246395  42.2833563   6.4812558  73.5725823  48.5836247  -1.7173737
  74.4753070  48.6159858  -1.4007242  73.3463194  47.6536698  -1.7027401
  75.3279425  47.3367234  -5.0563659  74.3775056  47.3369096  -5.1699286
  75.6311912  46.5899969  -5.5727624  71.2183742  31.5425916   5.2019703
  72.0815204  31.1862721   5.4123027  70.6449153  31.2039811   5.8895107
  91.0632119  53.1727772  -3.9917896  91.7010529  53.0534520  -4.6954556
  90.9452962  54.1208616  -3.9329944  87.8721825  53.1255200  -4.0556371
  87.5340337  53.0096265  -4.9435837  88.7411593  52.7246366  -4.0755365
  88.3541608  54.2790052   1.9029834  88.3430249  53.8842850   1.0310338
  88.5162248  53.5456125   2.4963605  81.2773073  56.4741868  -5.2275260
  82.0694365  56.1332693  -5.6428961  81.5169723  56.5836844  -4.3073107
  85.0748869  57.0627164   0.8509018  84.7838735  57.9672795   0.7355684
  85.7105854  57.1043692   1.5653088  86.0005076  54.4404013  -2.5589622
  86.5968648  54.2160035  -3.2732659  86.0580048  53.6988758  -1.9564174
  93.5407235  44.5476034  -1.5537101  93.2090560  45.4171444  -1.7775886
  92.9452848  44.2312318  -0.8743071  90.0338754  56.7488580  -2.1541188
  89.7339478  57.6513618  -2.2625381  89.6889814  56.4820763  -1.3020035
  83.4851236  53.2002376  -6.1204484  82.5601732  53.0678590  -5.9126792
  83.7335649  53.9796596  -5.6234541  93.4335898  49.2671120  -4.4743751
  92.5252776  49.1986528  -4.7684990  93.3823494  49.7443065  -3.6461925
  80.8460047  52.8435650  -5.2860695  80.9752428  53.0970129  -4.3721283
  80.1657498  53.4363358  -5.6056040  87.5076764  50.6860765   3.4691146
  86.7310098  51.2454685   3.4594011  88.1467327  51.1717548   3.9906016
  85.7623136  53.4946219   3.0309113  86.5037821  54.0331263   2.7543937
  85.0560122  54.1212507   3.1880665  91.2378476  55.6375359   1.6281275
  91.6461832  55.1957770   0.8835907  90.5155737  55.0627987   1.8815468
  87.5909546  50.5747966  -0.9985168  88.4370741  50.9987379  -0.8550519
  87.5308184  49.9181590  -0.3046605  90.7408991  48.2352334   0.6596005
  90.4969923  48.9894395   0.1230281  91.0168922  48.6137682   1.4943252
  92.6947454  54.7790947  -0.6626729  92.9064349  55.4222706  -1.3392348
  92.6477202  53.9453263  -1.1304799  90.2973683  47.3908767  -3.7590157
  89.4358162  47.6890021  -3.4673419  90.3236118  47.6079166  -4.6909124
  84.0059334  55.4822439  -4.4136588  84.5760691  55.9109708  -5.0519103
  84.5967445  55.2005024  -3.7152402  84.4984500  50.6485867   3.8324423
  83.8683161  51.3302148   4.0659820  84.3920588  50.5368948   2.8877562
  79.7929472  50.3157663  -5.2409653  79.0028526  50.5715191  -5.7169542
  80.2840720  51.1306001  -5.1357612  81.7444218  50.6802242  -8.2826176
  80.9475381  50.7920936  -7.7642680  81.5169810  51.0188894  -9.1485285
  87.5749885  57.2046945  -0.3343661  87.6394318  57.6667353   0.5014511
  86.8660809  56.5744310  -0.2061351  78.0767175  50.5688153  -2.8094662
  78.3275214  51.4535163  -2.5437086  78.6126724  50.3892755  -3.5819570
  83.7765243  44.9506633   6.1949674  83.3832188  44.3972831   6.8697319
  84.5931383  45.2617211   6.5856192  86.6933204  46.3664512   3.7869931
  87.4342917  46.9671665   3.7074393  86.9251127  45.6242150   3.2287973
  81.8374542  51.5520879   2.0648161  81.7228057  50.6506136   2.3655260
  80.9819060  51.7984576   1.7132977  88.9166380  59.4938619   3.6635661
  88.4730234  58.7074998   3.3456566  89.5783593  59.6817770   2.9979552
  83.6753501  61.0234421  -1.8103660  84.2260926  60.8951484  -2.5826666
  82.8364977  61.3229310  -2.1608767  91.0147618  59.7741419   1.6917062
  90.9966093  60.5950300   1.1997332  91.9367538  59.6495494   1.9167204
  87.4720672  57.2885549   2.5340571  88.0049009  56.5273837   2.3039879
  86.9434753  56.9959201   3.2764725  89.7186907  44.7650270  -3.9716554
  89.2151703  44.7280405  -4.7848749  90.0117514  45.6743013  -3.9119897
  85.9629793  44.8489000  -4.9650372  86.8282790  44.6531808  -5.3244483
  86.0307302  44.6199351  -4.0381016  83.5692112  47.0791207  -7.5934006
  84.1435864  46.8566389  -8.3260813  84.1563095  47.1479902  -6.8405404
  89.1052520  50.4414390  -4.5411289  88.1875082  50.6629337  -4.6989600
  89.5212664  50.5160700  -5.3999581  78.7302388  52.0569860  -8.4466452
  78.5326788  51.4639221  -9.1715385  78.1749052  51.7522071  -7.7290513
  86.7099112  51.9492967  -6.3271859  86.7647722  50.9966803  -6.4029382
  85.8990314  52.1052406  -5.8430560  84.6491472  50.5670027  -8.5681480
  83.8359338  50.8664197  -8.1616288  85.1450466  50.1725715  -7.8506998
  90.2465684  51.0311851   0.2633414  90.6015071  51.2583324   1.1227880
  90.8937815  51.3630228  -0.3589331  84.1405547  48.1388382  -2.9520245
  84.7804926  47.9977141  -3.6497282  83.3083077  47.8522896  -3.3281643
  81.1434163  48.1088707  -8.1747258  81.4040981  49.0234040  -8.2838098
  81.9651336  47.6413150  -8.0250645  82.6159089  49.5226464  -1.0048434
  83.2882142  49.3143826  -1.6535785  81.7888875  49.3248550  -1.4443201
  88.5184661  46.1488405   1.0117227  87.8712576  46.8478355   0.9181704
  89.2885676  46.5824549   1.3793476  91.9263459  56.4137257   4.0867781
  91.7748965  56.1847809   3.1697864  91.9168138  57.3707859   4.0999126
  88.6948795  53.9869170  -0.9285953  89.6240855  54.1380330  -1.1016986
  88.2739825  54.0753191  -1.7837306  87.4937127  58.0119835  -3.1587415
  87.3548212  57.6438619  -2.2861477  86.7051723  58.5267474  -3.3303457
  83.0186586  52.7969067  -0.2445996  82.8806384  52.0649306   0.3565543
  83.9291509  52.7077967  -0.5261809  85.6468886  52.5089027  -0.7562317
  86.3568505  51.8682219  -0.7975698  85.6038195  52.7601922   0.1663864
  93.6355665  59.4456380   2.1644263  93.5768211  58.7615600   1.4974846
  94.0375184  60.1875370   1.7124888  84.3597820  49.4954245   1.0633323
  83.8235177  49.0444983   1.7154919  83.7714529  49.6300153   0.3203787
  93.6373072  57.4095964   0.3958242  92.7499851  57.0721886   0.5184641
  94.2071623  56.6778995   0.6327008  75.2902220  53.7420056  -6.2798706
  75.9773259  53.4281786  -6.8677691  75.1350348  54.6461420  -6.5531455
  80.0936942  48.6310252  -1.8513683  80.0095130  48.0235922  -2.5863273
  79.2719648  49.1219271  -1.8504186  86.8495624  49.2581199  -6.7571803
  86.4793412  48.7052239  -6.0690897  87.3454717  48.6539332  -7.3096803
  84.6784823  59.7178694   0.3383215  85.3794282  60.3515177   0.4912609
  84.2079938  60.0593425  -0.4221146  92.4786109  52.2723301  -1.8364235
  91.8257559  52.5199209  -2.4911782  92.8566489  51.4587439  -2.1701757
  88.5273682  53.0143112   4.6501802  87.8514319  52.9137242   5.3204178
  89.3501316  52.8582326   5.1137800  80.2752541  59.2515049  -2.7285682
  80.8605978  58.5058737  -2.5957778  80.0777379  59.5619006  -1.8449019
  74.8670196  51.8220649  -4.0081239  74.9054295  51.2884240  -3.2144121
  74.3610488  51.2955855  -4.6270262  82.2460958  46.6685190  -0.5118697
  82.3102284  47.5300020  -0.9241299  82.1828078  46.0559191  -1.2446338
  81.7213230  48.7408322   3.1354337  82.3485269  48.3585399   3.7491862
  80.8641149  48.5222524   3.5010030  92.1207339  59.1471297   4.7408073
  92.6647243  59.7601256   4.2463028  91.5394184  59.7050876   5.2575086
  78.4978773  50.5484751 -10.9327308  78.7932214  49.6395430 -10.9860254
  77.5966809  50.5272491 -11.2546306  82.0273020  48.6240748  -4.9499759
  81.3059606  49.2376715  -5.0892286  82.8166276  49.1598513  -5.0283113
  84.8299334  45.9595174   1.3240892  85.3533736  46.2057471   2.0867202
  84.6111667  46.7915209   0.9044030  80.2266615  48.2298849 -10.8087983
  79.8979321  47.3496228 -10.9912877  80.5805986  48.1746518  -9.9211594
  86.0351879  46.9008869  -0.9909437  85.6948699  46.1016682  -0.5888757
  85.3290885  47.2010580  -1.5632604  86.6868351  43.9858182  -2.5382114
  87.5094420  43.5118660  -2.6603224  86.9306414  44.7648666  -2.0383428
  84.2106929  50.6777302  -4.7290135  84.0651510  50.9917606  -3.8365854
  83.7332133  51.2962203  -5.2819237  86.0703312  47.6679850  -4.6809246
  86.0564881  46.7720944  -5.0176948  86.7875740  47.6750514  -4.0470960
  87.9229443  48.1017191  -2.6356118  87.6647221  49.0234261  -2.6371788
  87.3914483  47.7047625  -1.9455654  78.6852592  53.2182647  -1.7902474
  78.1406060  53.9942455  -1.6582200  79.5631941  53.5653451  -1.9483353
  79.4718613  52.3452543   1.1027683  78.7300349  52.4935178   1.6892313
  79.1511358  52.6060809   0.2394432  87.4162276  61.8868521   0.9008073
  87.7249403  61.6417668   1.7730772  88.2137758  62.0915160   0.4126943
  78.1183832  58.1504298  -5.9072989  77.2815740  57.7226473  -6.0888988
  78.0907478  58.3436742  -4.9702198  84.9581288  48.0626228   4.7968257
  85.0069443  48.9388351   4.4146027  85.5003802  47.5203621   4.2239900
  95.4436133  58.6067351   4.0769394  94.6531677  58.5891490   3.5373893
  95.2069488  59.1455645   4.8318431  95.5634008  55.4559818   1.3902123
  95.6132013  55.2909825   2.3317645  95.4547932  54.5887077   1.0000003
  92.8537771  51.4390746   2.7061429  93.7547634  51.2997211   2.4145427
  92.9285745  51.6045201   3.6459607  87.1880576  48.8157600   1.5514616
  86.3183886  49.1091167   1.2797204  87.4240057  49.3998045   2.2721879
  97.0652205  57.8756759   1.6344144  96.7737014  58.2386740   2.4707605
  96.4524337  57.1623768   1.4557476  95.3139394  52.9989374   0.1024202
  95.7893515  53.1917020  -0.7056947  94.3904959  53.0548560  -0.1432414
  89.8919610  45.0337217  -0.9319964  90.4101554  45.7698244  -1.2573475
  89.5374743  45.3401211  -0.0973205  94.0141063  49.8755134  -1.6647492
  94.9658485  49.9753232  -1.6435268  93.8444513  49.0833402  -1.1549408
  92.0355442  46.9610717  -1.4788091  91.4405374  47.2415730  -2.1741603
  91.7505139  47.4504618  -0.7071350  88.2151164  56.0175053   4.9522668
  89.1354173  56.1953652   5.1462715  88.1800747  55.0731098   4.8002368
  77.4333329  51.2113646  -6.1224057  77.1136113  50.3578955  -6.4149683
  76.8866757  51.4262225  -5.3666090  81.2113236  53.9276087  -2.4054551
  81.4299246  54.8593195  -2.3866517  81.6239010  53.5684062  -1.6199747
  86.0841102  49.5009293   6.9848198  85.9837828  50.4503650   6.9160290
  85.8662644  49.1727532   6.1124269  77.3021589  54.8316558  -4.1530935
  76.6085060  54.4170511  -4.6660981  78.0494580  54.8737094  -4.7497517
  85.9472372  52.9306432   5.8013260  85.4639453  53.7306792   6.0077149
  86.0333311  52.9414377   4.8480704  79.2158331  54.7634812  -6.2764921
  79.1929019  54.8622499  -7.2283037  79.5258968  55.6099962  -5.9547754
  81.8745709  56.8210967  -2.1618306  82.8288963  56.7894909  -2.2288375
  81.6758233  56.3601590  -1.3468080  82.4645091  55.3912083   0.4052492
  83.2837980  55.8856161   0.4287329  82.7381899  54.4744051   0.3770059
  77.7180006  49.7250217   1.1044689  78.3638869  49.2149171   1.5931914
  77.5097157  50.4618898   1.6788114  90.2433398  56.7931064   6.6036829
  91.1124557  56.9671716   6.2423464  89.7640149  57.6125481   6.4812558
  84.4119578  63.9128165  -1.7173737  85.3146825  63.9451775  -1.4007242
  84.1856948  62.9828616  -1.7027401  82.0577497  46.8717834   5.2019703
  82.9208958  46.5154639   5.4123027  81.4842907  46.5331729   5.8895107
  94.6158997  60.2798550   6.1949674  94.2225943  59.7264749   6.8697319
  95.4325138  60.5909129   6.5856192  97.5326958  61.6956429   3.7869931
  98.2736672  62.2963583   3.7074393  97.7644881  60.9534067   3.2287973
  92.5606985  64.0700240   3.1354337  93.1879024  63.6877317   3.7491862
  91.7034904  63.8514442   3.5010030  95.7975042  63.3918146   4.7968257
  95.8463198  64.2680269   4.4146027  96.3397556  62.8495539   4.2239900
  96.9234856  64.8301211   6.9848198  96.8231583  65.7795568   6.9160290
  96.7056398  64.5019450   6.1124269  88.5573760  65.0542134   1.1044689
  89.2032624  64.5441088   1.5931914  88.3490911  65.7910816   1.6788114
  92.8971251  62.2009751   5.2019703  93.7602713  61.8446556   5.4123027
  92.3236662  61.8623646   5.8895107   4.3455477  99.9877409  73.5108757
   3.5919186  99.4184807  73.3552761   4.4803018  99.9540073  74.4579392
   0.7104090 101.4285397  73.8074871   1.5450981 101.8675201  73.9712432
   0.8463218 100.9524051  72.9883117   4.7561892 100.1453019  76.2429001
   5.4865281  99.8838307  76.8036705   4.1468838  99.4081741  76.2831069
   2.8377189  98.2860881  76.8403452   2.1110353  98.1516846  76.2319944
   2.4224476  98.5937710  77.6460170   0.4554984  94.5072734  74.1936884
   1.0499475  94.2668470  73.4830192   0.5281568  93.7879864  74.8210420
   2.7626057  97.8138934  72.9680305   2.2025615  97.8832124  73.7411867
   2.1569560  97.6379919  72.2479801   3.9240323 103.7113291  77.7162370
   3.5804593 104.6014932  77.6401480   4.2919286 103.5214948  76.8531955
   5.7227989 102.9706850  72.8180107   6.0286866 102.1104213  72.5306022
   6.4480594 103.5624470  72.6179101   3.4282161 102.7705176  74.2409090
   3.7083915 102.1028365  74.8669516   4.2132768 102.9634272  73.7283753
   7.5884312 104.9480989  73.1077060   7.3909133 104.6396077  73.9920392
   8.1984018 105.6742628  73.2374990   3.3385692 101.9000714  70.7642679
   2.5718088 101.3459201  70.9099361   3.7496397 101.9722583  71.6256830
   4.3455478  76.9939531  60.2354064   3.5919187  76.4246930  60.0798068
   4.4803020  76.9602196  61.1824698   0.7104091  78.4347520  60.5320178
   1.5450982  78.8737324  60.6957738   0.8463220  77.9586173  59.7128424
   4.7561893  77.1515141  62.9674308   5.4865282  76.8900430  63.5282011
   4.1468839  76.4143863  63.0076376   2.8377191  75.2923004  63.5648759
   2.1110354  75.1578969  62.9565251   2.4224477  75.5999833  64.3705477
   0.4554986  71.5134856  60.9182191   1.0499476  71.2730592  60.2075499
   0.5281569  70.7941987  61.5455727   2.7626058  74.8201057  59.6925612
   2.2025616  74.8894246  60.4657174   2.1569562  74.6442042  58.9725108
   4.3482077  91.4957571  62.3855568   4.9860487  91.3764318  61.6818908
   4.2302920  92.4438415  62.4443520   1.1571783  91.4484999  62.3217092
   0.8190295  91.3326064  61.4337627   2.0261551  91.0476164  62.3018098
   1.6391566  92.6019851  68.2803298   1.6280207  92.2072649  67.4083801
   1.8012205  91.8685923  68.8737069   2.5958157  96.9691443  53.6228448
   1.9446137  97.5545524  53.2362462   3.3902520  97.4997638  53.6823486
   3.9023345  89.2209025  59.4608776   4.6886434  88.8028448  59.1099193
   4.1662050  90.1255117  59.6290424   4.0733423  94.6581875  54.1597432
   3.4379256  94.7316502  54.8718337   3.7430829  95.2475474  53.4816512
   9.3031772  89.1584258  60.3641754  10.0356944  88.5883475  60.5979584
   8.5471128  88.7705858  60.8048260   0.9207892  91.5811500  57.5605097
   0.5566099  91.0542121  58.2718018   1.7775008  91.1909969  57.3871582
   6.8257193  82.8705832  64.8236363   6.4940517  83.7401243  64.5997578
   6.2302806  82.5542116  65.5030393   3.3188712  95.0718378  64.2232275
   3.0189435  95.9743417  64.1148083   2.9739772  94.8050561  65.0753428
   6.7185856  87.5900918  61.9029713   5.8102733  87.5216327  61.6088474
   6.6673452  88.0672863  62.7311538   8.5847502  85.7917357  63.6807587
   7.9421883  86.0849890  63.0347381   8.0802431  85.6770277  64.4860783
   6.2387666  89.5380530  54.3693446   7.1505522  89.7707917  54.1941143
   5.7297313  90.1217574  53.8068525   4.5228434  93.9605158  68.0054739
   4.9311790  93.5187568  67.2609371   3.8005695  93.3857785  68.2588931
   0.8759504  88.8977765  65.3788295   1.7220699  89.3217178  65.5222944
   0.8158141  88.2411389  66.0726859   4.8457248  94.5206348  61.7607027
   4.2166111  94.6852062  61.0583095   4.4582910  94.9347958  62.5317991
   8.7246480  95.4560786  59.1151391   8.0397518  95.8359688  58.5648424
   8.8090330  96.0656113  59.8483339   4.0258949  86.5582133  67.0369469
   3.7819881  87.3124193  66.5003745   4.3018880  86.9367480  67.8716716
   5.9797412  93.1020745  65.7146735   6.1914307  93.7452505  65.0381116
   5.9327160  92.2683062  65.2468665   3.5823641  85.7138566  62.6183307
   2.7208120  86.0119819  62.9100044   3.6086076  85.9308965  61.6864339
   7.0943240  95.9792701  63.8869092   7.9160684  95.5772888  63.6051774
   7.0905643  95.8760935  64.8385208  15.1849233  92.3231449  60.2354064
  14.4312941  91.7538847  60.0798068  15.3196774  92.2894114  61.1824698
   0.5747861  97.1944851  55.9108783   0.4393536  98.0396387  56.3393631
   1.1157673  97.3964129  55.1474717   2.2016337  97.8168418  70.0409125
   1.7580192  97.0304797  69.7230029   2.8633551  98.0047568  69.3753016
   4.2997575  98.0971218  68.0690526   4.2816051  98.9180099  67.5770795
   5.2217495  97.9725293  68.2940667   3.9240325  80.7175413  64.4407676
   3.5804594  81.6077055  64.3646787   4.2919287  80.5277071  63.5777261
   3.8890607  90.7084024  52.9480111   3.3737231  91.4788629  53.1868499
   3.6167916  90.0349161  53.5713173   1.4737718  85.5533725  58.0065350
   0.6179315  85.1640576  57.8270989   1.8864670  85.6325686  57.1465135
   3.0036865  83.0880068  62.4056910   2.5001660  83.0510204  61.5924715
   3.2967472  83.9972811  62.4653566   8.8624881  93.4616379  54.8833285
   8.0854324  93.1227539  54.4388447   9.5416362  93.4669002  54.2088250
   3.6776910  88.5811117  54.7739893   3.3727046  88.8957266  55.6250036
   4.6307353  88.6592536  54.8167226   2.1223342  94.7401340  56.4232847
   1.5944704  94.0054099  56.1106084   1.6210845  95.5176016  56.1772815
   7.1016188  92.9350360  61.5399893   6.4439863  93.6249622  61.6280022
   7.9056587  93.3246792  61.8833879   5.9121647  91.2894733  59.5903835
   6.4253529  91.9224725  60.0925544   6.5622871  90.6895929  59.2247195
   3.1744021 101.2679057  52.3464506   2.5005720 101.5710754  52.9549464
   3.5609843 102.0708138  51.9969963   2.3902478  88.7644189  61.8362175
   1.4725039  88.9859136  61.6783863   2.8062622  88.8390499  60.9773883
   3.1737526  90.1635604  56.9664855   3.9209345  90.6757001  56.6571977
   3.4429115  89.8419657  57.8269249   1.4464176  92.6594145  53.9491810
   0.5375395  92.3753178  54.0464279   1.4759260  93.0793224  53.0895117
   6.6783443  96.2700734  57.7182977   6.2245770  95.4291644  57.7748168
   6.0477410  96.9062133  58.0557757   5.6216363  87.1992721  58.9483645
   4.8839120  86.6870107  59.2793887   5.8743136  86.7593102  58.1366922
   5.1216383  98.1077231  58.6532795   5.4139357  98.6682288  57.9345161
   5.6315003  98.4005792  59.4085955   5.7227990  79.9768973  59.5425414
   6.0286867  79.1166336  59.2551329   6.4480595  80.5686593  59.3424408
   1.1440264  94.2002889  51.2879888   0.7059694  93.4838748  50.8285526
   1.8850705  94.4279003  50.7264980   3.5315642  89.3541650  66.6406878
   3.8865029  89.5813123  67.5001344   4.1787773  89.6860027  66.0184133
   9.2613378  92.4760086  57.3456207   9.1231277  92.6661682  56.4177396
   8.9049597  93.2379469  57.8024258   9.2882758  94.5436613  62.3567478
   9.7219265  94.4511902  63.2050532  10.0014339  94.5194113  61.7187494
   3.0210653  98.1438707  63.8900579   3.0747675  98.7129643  64.6578295
   2.1525434  98.3140592  63.5254616  10.1498308  94.5860313  64.8900364
  10.3434198  95.4906124  65.1359639  10.0498926  94.1267732  65.7238949
   1.8034618  84.4718204  67.3890691   1.1562533  85.1708154  67.2955168
   2.5735634  84.9054348  67.7566939   5.2113416  94.7367056  70.4641244
   5.0598923  94.5077608  69.5471328   5.2018096  95.6937658  70.4772589
   1.9798753  92.3098969  65.4487511   2.9090813  92.4610128  65.2756478
   1.5589783  92.3982990  64.5936157   1.3735236 101.4358730  54.5611585
   1.5486992 100.9646773  55.3757208   0.6868024 102.0624496  54.7892846
   2.3292300  95.7131236  60.6074886   1.9942132  95.6732006  61.5032536
   1.8296245  95.0475952  60.1345296   5.2651491  93.0587270  50.8811946
   4.6480662  92.3334098  50.7844999   4.7967980  93.8196631  50.5379020
   6.9205623  97.7686179  68.5417726   6.8618169  97.0845399  67.8748309
   7.3225141  98.5105169  68.0898352   6.9223030  95.7325763  66.7731706
   6.0349809  95.3951684  66.8958105   7.4921581  95.0008794  67.0100471
   3.5510613  85.4393614  59.8929976   4.0479313  84.6863577  59.5731046
   2.7797595  85.4757931  59.3273185  11.4040371  91.1433980  61.5348268
  11.3930247  92.0258695  61.1642201  10.5357750  90.7905531  61.3402805
   2.9122867 100.2914049  65.8951108   3.6250839 100.9261514  65.8227009
   2.4212896 100.3877915  65.0791110   4.6340394  94.1965302  57.4668399
   3.6996673  94.3166764  57.2973104   4.8117062  93.2937768  57.2028409
   8.0212945  90.0382621  58.0018434   8.4873398  90.8710613  57.9278736
   8.4720446  89.5727602  58.7063692   6.0889176  96.3826442  55.0004586
   6.3649020  96.2683037  55.9098460   5.2193675  95.9843927  54.9616759
   5.9929608  82.4063208  62.0409335   5.0792688  82.6367435  62.2091542
   6.4222710  82.4901652  62.8923367   5.7636067  90.5953100  64.5409229
   5.1107517  90.8429007  63.8861682   6.1416447  89.7817238  64.2071706
   2.7243241 100.6312793  58.6437399   2.9065635  99.8134449  59.1065152
   3.5476227 100.8480485  58.2062289   3.0585406  99.5580978  55.9052448
   3.5873172  99.0473433  55.2922610   3.3213626  99.2423508  56.7697981
   1.8123640  91.3372911  71.0275266   1.1364277  91.2367040  71.6977641
   2.6351274  91.1812125  71.4911263   0.5546423 102.6439838  65.2632882
   1.1064731 102.8071460  66.0281967   0.8952616 103.2344276  64.5912907
   5.4057297  97.4701096  71.1181536   5.9497201  98.0831054  70.6236491
   4.8244142  98.0280674  71.6348549   3.6914810 100.5921814  62.2496564
   3.5665949  99.7911554  61.7407510   4.3493901 101.0868007  61.7610534
   5.7549718  98.3930834  63.8776114   4.8080054  98.2736185  63.8054441
   6.1032491  97.5053332  63.9602376   2.7596151  98.1883550  60.0780467
   2.6121114  97.2600258  60.2588037   3.5849645  98.2103641  59.5937542
   6.3630273  99.0112109  61.1645339   7.2876821  98.8054970  61.0269790
   6.1945577  98.7628510  62.0734681   2.7557666  86.0421388  55.0712584
   2.9721280  86.9246026  54.7701412   2.2751733  85.6507601  54.3418226
   1.2079401  86.4246989  63.7417345   0.9497179  87.3464060  63.7401676
   0.6764441  86.0277424  64.4317809   6.1525590  99.5297776  56.5207431
   6.3262467  98.9644199  55.7681283   6.6454481 100.3298671  56.3386921
   1.6281356  82.5578940  60.1018508   1.6503053  82.6218273  59.1470487
   2.0449415  81.7183448  60.2959014  12.0064981  92.2934199  58.1397730
  12.4496127  91.5441525  57.7416854  11.1291491  92.2844336  57.7571462
   7.1400762  98.8464541  53.6204329   7.8351667  99.4671233  53.8391644
   7.4823912  97.9959892  53.8956707   9.0392185  96.2964246  55.1491660
   9.5643509  96.6351519  54.4240980   8.9514538  95.3611262  54.9654794
   0.7012234 100.2098320  67.2781536   1.0099360  99.9647467  68.1504236
   1.4987716 100.4144958  66.7900407   8.7286091  96.9297150  70.4542858
   7.9381635  96.9121289  69.9147357   8.4919446  97.4685444  71.2091894
   8.8483966  93.7789616  67.7675586   8.8981971  93.6139624  68.7091109
   8.7397890  92.9116875  67.3773467   6.1387729  89.7620544  69.0834893
   7.0397591  89.6227009  68.7918891   6.2135703  89.9274999  70.0233070
  10.3502163  96.1986558  68.0117608  10.0586971  96.5616538  68.8481069
   9.7374294  95.4853566  67.8330940  11.5497845  93.7639438  60.5320178
  12.3844737  94.2029242  60.6957738  11.6856974  93.2878091  59.7128424
   8.5989351  91.3219172  66.4797666   9.0743473  91.5146819  65.6716517
   7.6754917  91.3778358  66.2341049   3.1769568  83.3567016  65.4453500
   3.6951512  84.0928043  65.1199988   2.8224701  83.6631009  66.2800259
   3.4282162  79.7767299  60.9654396   3.7083916  79.1090488  61.5914823
   4.2132769  79.9696394  60.4529060   1.2315630  98.9526292  52.5279423
   0.6589598  99.5716480  52.0749894   1.8048424  99.5025654  53.0619345
   7.2991020  88.1984933  64.7125971   8.2508443  88.2983030  64.7338195
   7.1294471  87.4063201  65.2224056   5.3205400  85.2840516  64.8985372
   4.7255332  85.5645529  64.2031861   5.0355097  85.7734417  65.6702113
   4.4512890  99.2363443  53.6588005   5.3843563  99.1709004  53.8620880
   4.3636103 100.0719709  53.2002538   7.0800907  98.5529313  50.6191952
   7.0014538  98.2189177  51.5127710   7.9010574  99.0451081  50.6183425
   9.7779098  91.4191052  63.8268271   9.7455418  90.4807053  64.0127955
  10.3879722  91.4975089  63.0934096   1.6162429  90.2887105  49.8695475
   2.5621534  90.1593313  49.9383893   1.2376674  89.5501767  50.3464903
   9.9273587  88.2102096  63.8726554   9.4112635  87.4260552  63.6856483
  10.8113535  87.8820812  64.0373074   7.5884314  81.9543111  59.8322367
   7.3909135  81.6458199  60.7165699   8.1984019  82.6804750  59.9620297
  15.5955648  92.4807059  62.9674308  16.3259036  92.2192347  63.5282011
  14.9862593  91.7435781  63.0076376  13.6770945  90.6214922  63.5648759
  12.9504109  90.4870887  62.9565251  13.2618232  90.9291750  64.3705477
   1.5001122  94.3404851  71.3296132   2.4204131  94.5183450  71.5236179
   1.4650705  93.3960897  71.1775831   1.4167412  82.7573971  55.9594602
   0.6068140  82.4121056  56.3349848   2.1051829  82.4481515  56.5482213
   3.3457960  81.8352018  57.5818898   3.8988999  82.2547472  58.2408921
   3.5828047  80.9087766  57.6241854   6.7236767  83.9452543  57.0897563
   6.1435436  84.6037347  56.7075615   6.4572700  83.1229888  56.6784980
   5.1740334  83.3457601  59.2918883   5.6740112  83.4574136  58.4833202
   5.8175942  83.0418654  59.9319691   5.5061645  86.1052634  56.1453911
   4.6187500  86.3902284  55.9274106   5.9215634  85.9446397  55.2981188
   8.8576181  86.1299155  59.8608250   9.6336572  86.6195607  60.1332867
   8.1324316  86.5557209  60.3180120  11.2948740  86.8426774  60.9182191
  11.8893231  86.6022510  60.2075499  11.3675324  86.1233904  61.5455727
   4.6504859  95.8697308  50.2401931   5.3540709  96.0747311  50.8559586
   3.9267507  96.4374070  50.5051014   5.4802669  91.6207170  56.3604201
   5.4237870  92.0775721  55.5211833   6.0331011  90.8597854  56.1827044
   9.2907475  87.4096901  57.1854320   9.0344409  87.0093537  58.0162528
   8.6660343  88.1240695  57.0604460  13.6019813  90.1492975  59.6925612
  13.0419371  90.2186164  60.4657174  12.9963316  89.9733959  58.9725108
   6.5591556  96.3079838  52.2900391   7.3937160  95.8761036  52.1077866
   6.3975899  96.1361851  53.2177285   6.2137448  92.8111951  53.6556730
   6.1586252  92.6456222  52.7145174   5.5883504  93.5187984  53.8118920
   3.5283355  95.1160863  72.9810293   4.3974515  95.2901515  72.6196928
   3.0490107  95.9355280  72.8586022   3.3385693  78.9062837  57.4887985
   2.5718089  78.3521323  57.6344668   3.7496398  78.9784705  58.3502137
  15.1875831 106.8249489  62.3855568  15.8254241 106.7056236  61.6818908
  15.0696674 107.7730333  62.4443520  11.9965538 106.7776917  62.3217092
  11.6584049 106.6617981  61.4337627  12.8655306 106.3768082  62.3018098
  12.4785320 107.9311768  68.2803298  12.4673961 107.5364567  67.4083801
  12.6405960 107.1977841  68.8737069   9.6973817 105.5465164  51.6534032
   9.9499338 105.0246685  50.8917495   8.7598376 105.3831310  51.7560716
  14.7417100 104.5500943  59.4608776  15.5280189 104.1320366  59.1099193
  15.0055804 105.4547035  59.6290424  20.1425527 104.4876176  60.3641754
  20.8750699 103.9175393  60.5979584  19.3864883 104.0997776  60.8048260
  11.7601647 106.9103417  57.5605097  11.3959854 106.3834038  58.2718018
  12.6168762 106.5201886  57.3871582  17.6650947  98.1997750  64.8236363
  17.3334272  99.0693161  64.5997578  17.0696561  97.8834034  65.5030393
  11.4007134 101.9393317  52.5566445  11.5681536 102.8073553  52.9236916
  11.2104303 102.1020599  51.6327734  17.5579611 102.9192836  61.9029713
  16.6496488 102.8508244  61.6088474  17.5067206 103.3964781  62.7311538
  11.3796354 104.3950974  53.5413112  11.2595980 104.8408025  54.3798592
  10.6848943 104.7436292  52.9826650  11.6320476 104.3382482  69.8464610
  10.8553810 104.8976402  69.8367475  12.2711039 104.8239265  70.3679480
  19.4241257 101.1209274  63.6807587  18.7815637 101.4141808  63.0347381
  18.9196185 101.0062195  64.4860783  17.0781421 104.8672448  54.3693446
  17.9899277 105.0999834  54.1941143  16.5691068 105.4509492  53.8068525
  11.7153258 104.2269682  65.3788295  12.5614453 104.6509096  65.5222944
  11.6551896 103.5703307  66.0726859  14.8652704 101.8874051  67.0369469
  14.6213635 102.6416111  66.5003745  15.1412634 102.2659398  67.8716716
  16.8191166 108.4312663  65.7146735  17.0308062 109.0744423  65.0381116
  16.7720915 107.5974979  65.2468665  14.4217395 101.0430484  62.6183307
  13.5601874 101.3411737  62.9100044  14.4479830 101.2600882  61.6864339
  10.1747851 105.7095827  55.8346678  10.8771894 106.1616870  56.3020604
   9.8428479 105.0679645  56.4626571   8.6228212 104.3007583  70.2097887
   7.9926873 104.9823864  70.4433284   8.5164300 104.1890665  69.2651025
   3.9173185 103.9679379  61.1363811   3.1272239 104.2236908  60.6603922
   4.4084432 104.7827717  61.2415852   5.8687930 104.3323958  58.0947288
   5.0719093 104.4442653  58.6130784   5.6413522 104.6710611  57.2288178
  26.0242987 107.6523367  60.2354064  25.2706696 107.0830765  60.0798068
  26.1590529 107.6186031  61.1824698   7.9008955  98.6028349  72.5723138
   7.5075901  98.0494548  73.2470782   8.7175095  98.9138927  72.9629656
  10.8176916 100.0186228  70.1643395  11.5586629 100.6193381  70.0847857
  11.0494839  99.2763866  69.6061437  14.7634079  96.0467331  64.4407676
  14.4198348  96.9368973  64.3646787  15.1313042  95.8568989  63.5777261
  14.7284362 106.0375942  52.9480111  14.2130985 106.8080547  53.1868499
  14.4561670 105.3641078  53.5713173  12.3131473 100.8825643  58.0065350
  11.4573069 100.4932493  57.8270989  12.7258425 100.9617604  57.1465135
  13.8430619  98.4171986  62.4056910  13.3395415  98.3802121  61.5924715
  14.1361226  99.3264729  62.4653566  10.0873505  98.5010716  61.4123091
  10.9526502  98.3053525  61.0528981  10.1551014  98.2721068  62.3392448
  19.7018636 108.7908297  54.8833285  18.9248079 108.4519456  54.4388447
  20.3810117 108.7960920  54.2088250  14.5170665 103.9103034  54.7739893
  14.2120800 104.2249183  55.6250036  15.4701107 103.9884454  54.8167226
  17.9409943 108.2642278  61.5399893  17.2833617 108.9541539  61.6280022
  18.7450342 108.6538710  61.8833879   7.6935824 100.7312924  58.7839458
   8.2679576 100.5088105  58.0512651   8.2806807 100.8001618  59.5368059
  16.7515402 106.6186651  59.5903835  17.2647283 107.2516643  60.0925544
  17.4016625 106.0187846  59.2247195   8.0205411 102.7617385  52.8035343
   7.1842724 103.0992071  53.1244618   7.8810181 102.6266365  51.8662480
   9.9958492  97.6054173  57.5114528   9.3422904  97.2903190  56.8871142
   9.9538966  96.9829913  58.2374350  13.2296232 104.0936106  61.8362175
  12.3118794 104.3151053  61.6783863  13.6456376 104.1682417  60.9773883
  14.0131280 105.4927522  56.9664855  14.7603099 106.0048919  56.6571977
  14.2822870 105.1711575  57.8269249  16.4610117 102.5284638  58.9483645
  15.7232874 102.0162024  59.2793887  16.7136891 102.0885020  58.1366922
  16.5621745  95.3060890  59.5425414  16.8680621  94.4458254  59.2551329
  17.2874349  95.8978510  59.3424408  10.8342824 105.6014683  60.0501605
  10.8891434 104.6488520  59.9744082  10.0234026 105.7574122  60.5342903
   8.7735184 104.2191743  57.8091984   7.9603050 104.5185914  58.2157176
   9.2694179 103.8247432  58.5266466  14.3709396 104.6833567  66.6406878
  14.7258784 104.9105041  67.5001344  15.0181527 105.0151944  66.0184133
  20.1007133 107.8052003  57.3456207  19.9625032 107.9953599  56.4177396
  19.7443352 108.5671386  57.8024258   8.2649259 101.7910099  63.4253219
   8.9048638 101.6498858  62.7276182   7.4326790 101.5044612  63.0491821
  20.1276513 109.8728530  62.3567478  20.5613019 109.7803819  63.2050532
  20.8408093 109.8486031  61.7187494   5.3492326 105.2355611  55.6147964
   4.4189915 105.1740066  55.8317926   5.4449798 104.7131563  54.8184605
   5.2677875 101.7610424  58.2026206   5.5284693 102.6755757  58.0935366
   6.0895048 101.2934866  58.3522819   6.7402801 103.1748181  65.3725030
   7.4125854 102.9665543  64.7237679   5.9132587 102.9770267  64.9330263
  20.9892062 109.9152231  64.8900364  21.1827952 110.8198042  65.1359639
  20.8892680 109.4559650  65.7238949  12.6428373  99.8010122  67.3890691
  11.9956288 100.5000071  67.2955168  13.4129388 100.2346266  67.7566939
  12.8192507 107.6390887  65.4487511  13.7484567 107.7902046  65.2756478
  12.3983537 107.7274907  64.5936157  16.1045246 108.3879188  50.8811946
  15.4874416 107.6626016  50.7844999  15.6361734 109.1488548  50.5379020
   9.7712599 106.1610743  65.6211147  10.4812217 105.5203935  65.5797765
   9.7281907 106.4123638  66.5437328   8.4841533 103.1475961  67.4406787
   7.9478890 102.6966699  68.0928383   7.8958241 103.2821870  66.6977251
   7.8943792 102.6064612  50.0033250   7.0173258 102.4853413  49.6395497
   8.3701545 101.8150691  49.7512139   4.2180654 102.2831969  64.5259781
   4.1338843 101.6757638  63.7910191   3.3963360 102.7740987  64.5269277
  14.3904368 100.7685532  59.8929976  14.8873067 100.0155494  59.5731046
  13.6191349 100.8049849  59.3273185  22.2434125 106.4725898  61.5348268
  22.2324001 107.3550613  61.1642201  21.3751505 106.1197448  61.3402805
  10.9739337 102.9102915  59.6201661  10.6037124 102.3573955  60.3082566
  11.4698429 102.3061049  59.0676661  18.8606700 105.3674539  58.0018434
  19.3267152 106.2002530  57.9278736  19.3114200 104.9019520  58.7063692
  16.8323363  97.7355126  62.0409335  15.9186442  97.9659352  62.2091542
  17.2616464  97.8193570  62.8923367  16.6029821 105.9245018  64.5409229
  15.9501271 106.1720925  63.8861682  16.9810201 105.1109156  64.2071706
  12.6517394 106.6664829  71.0275266  11.9758031 106.5658958  71.6977641
  13.4745028 106.5104042  71.4911263   6.3704670 100.3206906  65.8654767
   6.4345997 101.1821737  65.4532164   6.3071790  99.7080908  65.1327125
   5.8456943 102.3930038  69.5127801   6.4728982 102.0107116  70.1265325
   4.9884862 102.1744240  69.8783493   2.6222486 104.2006468  55.4446156
   2.9175927 103.2917146  55.3913210   1.7210521 104.1794207  55.1227158
   6.1516733 102.2762464  61.4273704   5.4303318 102.8898432  61.2881178
   6.9409988 102.8120229  61.3490350   8.9543046  99.6116891  67.7014356
   9.4777448  99.8579187  68.4640665   8.7355379 100.4436925  67.2817494
   4.3510327 101.8820565  55.5685481   4.0223033 101.0017944  55.3860587
   4.7049698 101.8268234  56.4561870   7.4652150 102.1693535  55.9360959
   7.8048223 102.6979456  55.2139567   7.9124271 102.5073941  56.7119525
  10.1595591 100.5530586  65.3864027   9.8192411  99.7538399  65.7884707
   9.4534597 100.8532297  64.8140860  10.8112063  97.6379898  63.8391350
  11.6338132  97.1640376  63.7170240  11.0550126  98.4170382  64.3390036
   9.4520297 100.6668157  54.1354251  10.1728660 101.0449409  53.6317968
   8.8285602 101.3857033  54.2389229  13.5951420 101.3713306  55.0712584
  13.8115035 102.2537943  54.7701412  13.1145487 100.9799519  54.3418226
   8.3350642 104.3299019  61.6483328   8.1895222 104.6439322  62.5407610
   7.8575845 104.9483919  61.0954227  10.1947025 101.3201567  61.6964218
  10.1808593 100.4242660  61.3596516  10.9119453 101.3272230  62.3302504
  12.0473155 101.7538907  63.7417345  11.7890933 102.6755978  63.7401676
  11.5158196 101.3569341  64.4317809   9.5983920 100.2015947  56.9651788
   9.7199832  99.2732593  57.1642676   9.3085963 100.2154633  56.0530103
  12.4675111  97.8870857  60.1018508  12.4896808  97.9510191  59.1470487
  12.8843170  97.0475366  60.2959014  22.8458735 107.6226117  58.1397730
  23.2889881 106.8733442  57.7416854  21.9685245 107.6136253  57.7571462
   9.0825000 101.7147944  71.1741721   9.1313156 102.5910067  70.7919490
   9.6247514 101.1725337  70.6013364  19.6877721 109.1081534  67.7675586
  19.7375726 108.9431541  68.7091109  19.5791644 108.2408793  67.3773467
  16.9781483 105.0912462  69.0834893  17.8791346 104.9518927  68.7918891
  17.0529458 105.2566917  70.0233070  11.3124288 102.4679317  67.9288079
  10.4427598 102.7612883  67.6570668  11.5483769 103.0519762  68.6495343
  22.3891600 109.0931355  60.5320178  23.2238491 109.5321159  60.6957738
  22.5250729 108.6170009  59.7128424  19.4383106 106.6511090  66.4797666
  19.9137227 106.8438736  65.6716517  18.5148671 106.7070276  66.2341049
  14.0163322  98.6858934  65.4453500  14.5345266  99.4219961  65.1199988
  13.6618455  98.9922927  66.2800259   5.5962260 103.5463615  53.5614906
   4.9031505 103.6207970  52.9054942   5.3514012 102.7823959  54.0836422
  14.2675916  95.1059216  60.9654396  14.5477670  94.4382405  61.5914823
  15.0526523  95.2988312  60.4529060  18.1384775 103.5276850  64.7125971
  19.0902198 103.6274948  64.7338195  17.9688225 102.7355119  65.2224056
  16.1599154 100.6132433  64.8985372  15.5649086 100.8937446  64.2031861
  15.8748851 101.1026334  65.6702113  20.6172853 106.7482970  63.8268271
  20.5849173 105.8098971  64.0127955  21.2273476 106.8267007  63.0934096
  12.4556183 105.6179023  49.8695475  13.4015288 105.4885231  49.9383893
  12.0770428 104.8793685  50.3464903  20.7667341 103.5394013  63.8726554
  20.2506390 102.7552470  63.6856483  21.6507290 103.2112730  64.0373074
  18.4278068  97.2835029  59.8322367  18.2302889  96.9750117  60.7165699
  19.0377774  98.0096668  59.9620297  26.4349402 107.8098977  62.9674308
  27.1652791 107.5484265  63.5282011  25.8256348 107.0727699  63.0076376
  24.5164700 105.9506839  63.5648759  23.7897863 105.8162804  62.9565251
  24.1011986 106.2583668  64.3705477  10.6399101 103.5428999  49.8050360
   9.7330556 103.2462112  49.8813074  10.9175082 103.2458817  48.9384647
  12.2561166  98.0865889  55.9594602  11.4461895  97.7412974  56.3349848
  12.9445583  97.7773433  56.5482213  14.1851715  97.1643936  57.5818898
  14.7382753  97.5839389  58.2408921  14.4221801  96.2379684  57.6241854
  10.2084814 103.1531009  73.3621662  10.1081541 104.1025366  73.2933753
   9.9906356 102.8249248  72.4897732   9.4097885 100.4015935  49.9462340
  10.2717049 100.7270833  50.2058157   9.5948229  99.6147430  49.4335405
  17.5630522  99.2744461  57.0897563  16.9829191  99.9329265  56.7075615
  17.2966454  98.4521806  56.6784980  16.0134088  98.6749519  59.2918883
  16.5133866  98.7866053  58.4833202  16.6569696  98.3710572  59.9319691
  16.3455400 101.4344551  56.1453911  15.4581255 101.7194202  55.9274106
  16.7609389 101.2738315  55.2981188  19.6969936 101.4591072  59.8608250
  20.4730326 101.9487525  60.1332867  18.9718070 101.8849127  60.3180120
  22.1342495 102.1718692  60.9182191  22.7286985 101.9314428  60.2075499
  22.2069078 101.4525822  61.5455727  16.3196423 106.9499087  56.3604201
  16.2631625 107.4067639  55.5211833  16.8724766 106.1889772  56.1827044
  20.1301229 102.7388819  57.1854320  19.8738164 102.3385455  58.0162528
  19.5054097 103.4532613  57.0604460  24.4413567 105.4784892  59.6925612
  23.8813125 105.5478082  60.4657174  23.8357071 105.3025877  58.9725108
  17.0531203 108.1403869  53.6556730  16.9980007 107.9748140  52.7145174
  16.4277258 108.8479901  53.8118920   1.8423718 103.3771933  67.4818152
   2.4882581 102.8670887  67.9705377   1.6340869 104.1140615  68.0561578
  10.3627328  97.6411978  53.2342049  10.3505998  98.5853817  53.3910319
  11.2550750  97.4582123  52.9401510  14.1779448  94.2354754  57.4887985
  13.4111844  93.6813241  57.6344668  14.5890153  94.3076623  58.3502137
   6.1821209 100.5239550  71.5793167   7.0452670 100.1676355  71.7896491
   5.6086619 100.1853445  72.2668571  25.6027833 111.3759249  64.4407676
  25.2592103 112.2660890  64.3646787  25.9706796 111.1860906  63.5777261
  27.4015499 110.6352808  59.5425414  27.7074376 109.7750171  59.2551329
  28.1268104 111.2270428  59.3424408  25.1069671 110.4351134  60.9654396
  25.3871425 109.7674323  61.5914823  25.8920278 110.6280230  60.4529060
  29.2671823 112.6126947  59.8322367  29.0696644 112.3042035  60.7165699
  29.8771528 113.3388586  59.9620297  25.0173202 109.5646672  57.4887985
  24.2505598 109.0105159  57.6344668  25.4283907 109.6368541  58.3502137
   4.3455480  54.0001654  46.9599370   3.5919188  53.4309052  46.8043375
   4.4803021  53.9664319  47.9070005   0.7104092  55.4409643  47.2565485
   1.5450984  55.8799447  47.4203045   0.8463221  54.9648296  46.4373730
   4.7561895  54.1577264  49.6919614   5.4865283  53.8962552  50.2527318
   4.1468840  53.4205986  49.7321682   2.8377192  52.2985127  50.2894066
   2.1110355  52.1641092  49.6810557   2.4224479  52.6061955  51.0950784
   0.4554987  48.5196979  47.6427497   1.0499478  48.2792715  46.9320805
   0.5281570  47.8004109  48.2701034   2.7626060  51.8263180  46.4170918
   2.2025618  51.8956369  47.1902481   2.1569563  51.6504164  45.6970415
   4.3482078  68.5019694  49.1100874   4.9860488  68.3826441  48.4064214
   4.2302921  69.4500538  49.1688826   1.1571784  68.4547122  49.0462399
   0.8190296  68.3388186  48.1582934   2.0261552  68.0538287  49.0263405
   1.6391567  69.6081973  55.0048604   1.6280208  69.2134772  54.1329108
   1.8012207  68.8748046  55.5982376   2.5958159  73.9753566  40.3473755
   1.9446138  74.5607646  39.9607769   3.3902521  74.5059761  40.4068792
   3.9023346  66.2271147  46.1854082   4.6886436  65.8090571  45.8344499
   4.1662051  67.1317240  46.3535731   4.0733424  71.6643998  40.8842739
   3.4379257  71.7378624  41.5963644   3.7430830  72.2537597  40.2061818
   9.3031774  66.1646381  47.0887061  10.0356946  65.5945597  47.3224890
   8.5471129  65.7767981  47.5293566   0.9207893  68.5873622  44.2850403
   0.5566101  68.0604243  44.9963325   1.7775009  68.1972091  44.1116889
   6.8257194  59.8767955  51.5481669   6.4940519  60.7463366  51.3242884
   6.2302807  59.5604239  52.2275700   3.3188713  72.0780501  50.9477582
   3.0189437  72.9805540  50.8393389   2.9739773  71.8112684  51.7998735
   6.7185857  64.5963041  48.6275019   5.8102735  64.5278449  48.3333780
   6.6673453  65.0734986  49.4556845   8.5847504  62.7979479  50.4052893
   7.9421884  63.0912012  49.7592688   8.0802432  62.6832400  51.2106090
   6.2387667  66.5442653  41.0938753   7.1505523  66.7770039  40.9186450
   5.7297314  67.1279697  40.5313831   4.5228435  70.9667280  54.7300045
   4.9311791  70.5249691  53.9854678   3.8005697  70.3919908  54.9834238
   0.8759505  65.9039887  52.1033602   1.7220700  66.3279301  52.2468251
   0.8158143  65.2473511  52.7972165   4.8457250  71.5268471  48.4852334
   4.2166112  71.6914185  47.7828402   4.4582912  71.9410081  49.2563298
   8.7246482  72.4622909  45.8396698   8.0397520  72.8421810  45.2893731
   8.8090331  73.0718235  46.5728646   4.0258950  63.5644255  53.7614776
   3.7819882  64.3186316  53.2249051   4.3018881  63.9429603  54.5962023
   5.9797413  70.1082868  52.4392041   6.1914308  70.7514628  51.7626422
   5.9327161  69.2745184  51.9713971   3.5823642  62.7200688  49.3428613
   2.7208121  63.0181942  49.6345351   3.6086077  62.9371087  48.4109646
   7.0943241  72.9854823  50.6114399   7.9160685  72.5835011  50.3297080
   7.0905644  72.8823057  51.5630514  15.1849234  69.3293572  46.9599370
  14.4312943  68.7600970  46.8043375  15.3196775  69.2956236  47.9070005
   0.5747862  74.2006974  42.6354089   0.4393537  75.0458510  43.0638937
   1.1157675  74.4026252  41.8720023   2.2016339  74.8230541  56.7654432
   1.7580193  74.0366919  56.4475336   2.8633552  75.0109691  56.0998322
   4.2997577  75.1033340  54.7935833   4.2816052  75.9242222  54.3016102
   5.2217497  74.9787416  55.0185974   3.9240326  57.7237536  51.1652983
   3.5804595  58.6139178  51.0892094   4.2919288  57.5339194  50.3022568
   3.8890608  67.7146147  39.6725418   3.3737232  68.4850752  39.9113805
   3.6167917  67.0411283  40.2958480   1.4737720  62.5595848  44.7310656
   0.6179316  62.1702698  44.5516295   1.8864671  62.6387809  43.8710442
   3.0036866  60.0942191  49.1302216   2.5001662  60.0572326  48.3170021
   3.2967473  61.0034934  49.1898873   8.8624883  70.4678502  41.6078592
   8.0854325  70.1289661  41.1633754   9.5416364  70.4731125  40.9333557
   3.6776912  65.5873239  41.4985199   3.3727047  65.9019388  42.3495342
   4.6307354  65.6654659  41.5412532   2.1223344  71.7463462  43.1478153
   1.5944705  71.0116222  42.8351391   1.6210846  72.5238139  42.9018122
   7.1016190  69.9412483  48.2645200   6.4439864  70.6311744  48.3525328
   7.9056589  70.3308915  48.6079186   5.9121648  68.2956856  46.3149141
   6.4253530  68.9286847  46.8170851   6.5622872  67.6958051  45.9492501
   3.1744023  78.2741180  39.0709812   2.5005721  78.5772877  39.6794770
   3.5609845  79.0770260  38.7215269   2.3902479  65.7706311  48.5607482
   1.4725041  65.9921258  48.4029170   2.8062623  65.8452622  47.7019189
   3.1737527  67.1697727  43.6910162   3.9209346  67.6819124  43.3817284
   3.4429116  66.8481780  44.5514556   1.4464177  69.6656268  40.6737116
   0.5375396  69.3815300  40.7709586   1.4759261  70.0855346  39.8140423
   6.6783445  73.2762857  44.4428284   6.2245772  72.4353767  44.4993474
   6.0477411  73.9124255  44.7803064   5.6216364  64.2054843  45.6728951
   4.8839121  63.6932229  46.0039194   5.8743138  63.7655225  44.8612228
   5.1216384  75.1139354  45.3778102   5.4139358  75.6744411  44.6590468
   5.6315004  75.4067915  46.1331261   5.7227991  56.9831095  46.2670721
   6.0286868  56.1228459  45.9796636   6.4480596  57.5748715  46.0669715
   1.1440265  71.2065011  38.0125195   0.7059695  70.4900870  37.5530832
   1.8850706  71.4341126  37.4510286   3.5315643  66.3603772  53.3652184
   3.8865030  66.5875246  54.2246650   4.1787774  66.6922149  52.7429440
   9.2613380  69.4822208  44.0701513   9.1231278  69.6723804  43.1422703
   8.9049599  70.2441591  44.5269565   9.2882759  71.5498735  49.0812785
   9.7219266  71.4574024  49.9295839  10.0014340  71.5256236  48.4432801
   3.0210654  75.1500829  50.6145886   3.0747677  75.7191766  51.3823602
   2.1525436  75.3202714  50.2499923  10.1498309  71.5922436  51.6145670
  10.3434199  72.4968246  51.8604945  10.0498927  71.1329855  52.4484255
   1.8034620  61.4780327  54.1135998   1.1562535  62.1770276  54.0200474
   2.5735635  61.9116470  54.4812246   5.2113418  71.7429179  57.1886551
   5.0598924  71.5139730  56.2716635   5.2018097  72.6999780  57.2017896
   1.9798754  69.3161091  52.1732817   2.9090814  69.4672251  52.0001785
   1.5589784  69.4045112  51.3181464   1.3735238  78.4420852  41.2856892
   1.5486993  77.9708896  42.1002514   0.6868026  79.0686619  41.5138152
   2.3292301  72.7193359  47.3320193   1.9942134  72.6794129  48.2277843
   1.8296247  72.0538074  46.8590603   5.2651493  70.0649393  37.6057253
   4.6480663  69.3396221  37.5090305   4.7967981  70.8258753  37.2624327
   6.9205624  74.7748301  55.2663033   6.8618170  74.0907521  54.5993616
   7.3225143  75.5167291  54.8143659   6.9223031  72.7387885  53.4977013
   6.0349810  72.4013807  53.6203411   7.4921583  72.0070916  53.7345778
   3.5510615  62.4455737  46.6175283   4.0479314  61.6925699  46.2976353
   2.7797596  62.4820054  46.0518492  11.4040372  68.1496103  48.2593574
  11.3930248  69.0320818  47.8887507  10.5357751  67.7967653  48.0648111
   2.9122868  77.2976172  52.6196414   3.6250841  77.9323636  52.5472316
   2.4212897  77.3940038  51.8036416   4.6340395  71.2027424  44.1913706
   3.6996674  71.3228887  44.0218410   4.8117064  70.2999891  43.9273716
   8.0212947  67.0444744  44.7263740   8.4873399  67.8772735  44.6524043
   8.4720447  66.5789725  45.4308999   6.0889178  73.3888565  41.7249892
   6.3649022  73.2745159  42.6343766   5.2193676  72.9906050  41.6862065
   5.9929609  59.4125331  48.7654642   5.0792689  59.6429557  48.9336848
   6.4222711  59.4963775  49.6168674   5.7636068  67.6015222  51.2654536
   5.1107518  67.8491130  50.6106988   6.1416448  66.7879361  50.9317013
   2.7243242  77.6374916  45.3682706   2.9065636  76.8196572  45.8310458
   3.5476228  77.8542608  44.9307596   3.0585407  76.5643101  42.6297754
   3.5873174  76.0535555  42.0167916   3.3213627  76.2485631  43.4943287
   1.8123641  68.3435034  57.7520573   1.1364278  68.2429163  58.4222948
   2.6351275  68.1874247  58.2156570   0.5546424  79.6501961  51.9878189
   1.1064732  79.8133582  52.7527274   0.8952617  80.2406399  51.3158214
   5.4057298  74.4763218  57.8426843   5.9497202  75.0893177  57.3481798
   4.8244143  75.0342797  58.3593856   3.6914811  77.5983937  48.9741871
   3.5665951  76.7973676  48.4652816   4.3493902  78.0930130  48.4855841
   5.7549719  75.3992957  50.6021421   4.8080055  75.2798308  50.5299748
   6.1032493  74.5115455  50.6847682   2.7596153  75.1945673  46.8025773
   2.6121115  74.2662380  46.9833343   3.5849646  75.2165764  46.3182848
   6.3630275  76.0174232  47.8890646   7.2876822  75.8117093  47.7515097
   6.1945578  75.7690633  48.7979987   2.7557667  63.0483510  41.7957890
   2.9721281  63.9308148  41.4946719   2.2751734  62.6569724  41.0663532
   1.2079402  63.4309112  50.4662652   0.9497180  64.3526183  50.4646982
   0.6764442  63.0339546  51.1563116   6.1525591  76.5359899  43.2452737
   6.3262468  75.9706321  42.4926590   6.6454482  77.3360794  43.0632227
   1.6281358  59.5641062  46.8263815   1.6503054  59.6280395  45.8715794
   2.0449417  58.7245571  47.0204321  12.0064982  69.2996322  44.8643037
  12.4496128  68.5503647  44.4662160  11.1291492  69.2906458  44.4816769
   7.1400763  75.8526663  40.3449636   7.8351668  76.4733356  40.5636950
   7.4823913  75.0022015  40.6202014   9.0392186  73.3026369  41.8736966
   9.5643510  73.6413642  41.1486286   8.9514539  72.3673384  41.6900101
   0.7012235  77.2160443  54.0026843   1.0099362  76.9709589  54.8749543
   1.4987717  77.4207081  53.5145713   8.7286092  73.9359273  57.1788164
   7.9381636  73.9183411  56.6392664   8.4919447  74.4747566  57.9337201
   8.8483968  70.7851739  54.4920893   8.8981972  70.6201746  55.4336416
   8.7397891  69.9178998  54.1018774   6.1387730  66.7682667  55.8080200
   7.0397593  66.6289132  55.5164197   6.2135704  66.9337122  56.7478377
  10.3502164  73.2048680  54.7362914  10.0586973  73.5678661  55.5726375
   9.7374296  72.4915689  54.5576247  11.5497847  70.7701560  47.2565485
  12.3844738  71.2091364  47.4203045  11.6856975  70.2940213  46.4373730
   8.5989353  68.3281295  53.2042972   9.0743474  68.5208941  52.3961824
   7.6754918  68.3840481  52.9586356   3.1769569  60.3629139  52.1698806
   3.6951513  61.0990166  51.8445295   2.8224702  60.6693132  53.0045565
   3.4282163  56.7829421  47.6899703   3.7083917  56.1152610  48.3160129
   4.2132770  56.9758517  47.1774367   1.2315632  75.9588415  39.2524729
   0.6589599  76.5778602  38.7995201   1.8048425  76.5087777  39.7864651
   7.2991022  65.2047055  51.4371278   8.2508444  65.3045153  51.4583502
   7.1294472  64.4125324  51.9469362   5.3205401  62.2902638  51.6230679
   4.7255333  62.5707651  50.9277168   5.0355098  62.7796539  52.3947420
   4.4512892  76.2425565  40.3833311   5.3843565  76.1771127  40.5866187
   4.3636104  77.0781832  39.9247844   7.0800908  75.5591436  37.3437259
   7.0014540  75.2251299  38.2373017   7.9010575  76.0513203  37.3428731
   9.7779099  68.4253175  50.5513578   9.7455419  67.4869176  50.7373261
  10.3879723  68.5037212  49.8179403   1.6162430  67.2949228  36.5940782
   2.5621535  67.1655436  36.6629200   1.2376675  66.5563890  37.0710210
   9.9273588  65.2164218  50.5971861   9.4112637  64.4322675  50.4101790
  10.8113536  64.8882935  50.7618380   7.5884315  58.9605234  46.5567674
   7.3909136  58.6520322  47.4411005   8.1984020  59.6866873  46.6865603
  15.5955649  69.4869182  49.6919614  16.3259038  69.2254470  50.2527318
  14.9862595  68.7497904  49.7321682  13.6770946  67.6277044  50.2894066
  12.9504110  67.4933009  49.6810557  13.2618233  67.9353873  51.0950784
   1.5001123  71.3466974  58.0541439   2.4204132  71.5245573  58.2481485
   1.4650706  70.4023019  57.9021138   1.4167413  59.7636094  42.6839908
   0.6068141  59.4183179  43.0595154   2.1051830  59.4543638  43.2727520
   3.3457961  58.8414141  44.3064205   3.8989000  59.2609594  44.9654228
   3.5828048  57.9149889  44.3487161   6.7236768  60.9514666  43.8142869
   6.1435438  61.6099470  43.4320922   6.4572701  60.1292010  43.4030287
   5.1740335  60.3519724  46.0164189   5.6740113  60.4636258  45.2078508
   5.8175943  60.0480776  46.6564998   5.5061647  63.1114756  42.8699217
   4.6187502  63.3964407  42.6519412   5.9215636  62.9508520  42.0226494
   8.8576183  63.1361277  46.5853557   9.6336573  63.6257730  46.8578173
   8.1324317  63.5619331  47.0425426  11.2948741  63.8488896  47.6427497
  11.8893232  63.6084632  46.9320805  11.3675325  63.1296027  48.2701034
   4.6504860  72.8759431  36.9647237   5.3540710  73.0809433  37.5804893
   3.9267509  73.4436193  37.2296321   5.4802670  68.6269292  43.0849508
   5.4237872  69.0837844  42.2457140   6.0331013  67.8659977  42.9072350
   9.2907476  64.4159024  43.9099627   9.0344410  64.0155660  44.7407835
   8.6660344  65.1302818  43.7849766  13.6019814  67.1555097  46.4170918
  13.0419372  67.2248287  47.1902481  12.9963317  66.9796082  45.6970415
   6.5591557  73.3141960  39.0145697   7.3937161  72.8823159  38.8323172
   6.3975900  73.1423974  39.9422592   6.2137450  69.8174073  40.3802037
   6.1586253  69.6518345  39.4390481   5.5883505  70.5250106  40.5364226
   3.5283357  72.1222985  59.7055600   4.3974516  72.2963638  59.3442234
   3.0490108  72.9417402  59.5831329   3.3385694  55.9124959  44.2133292
   2.5718090  55.3583446  44.3589974   3.7496399  55.9846828  45.0747444
  15.1875832  83.8311611  49.1100874  15.8254242  83.7118359  48.4064214
  15.0696675  84.7792455  49.1688826  11.9965539  83.7839039  49.0462399
  11.6584050  83.6680104  48.1582934  12.8655307  83.3830204  49.0263405
   7.8552354  85.6374516  45.0359290   7.2917220  85.5464453  44.2675578
   7.7404749  84.8174420  45.5161782  12.4785322  84.9373891  55.0048604
  12.4673963  84.5426689  54.1329108  12.6405961  84.2039964  55.5982376
   5.4016786  87.1325707  47.8743510   6.1938078  86.7916532  47.4589810
   5.6413437  87.2420682  48.7945664  13.4351913  89.3045483  40.3473755
  12.7839893  89.8899564  39.9607769  14.2296276  89.8351678  40.4068792
   7.3607540  86.3934621  40.7460889   8.1338416  85.8463608  40.6073765
   7.7132939  87.2578870  40.9575350   9.1992583  87.7211003  53.9527788
   8.9082449  88.6256634  53.8374455   9.8349567  87.7627531  54.6671858
  10.1248790  85.0987851  50.5429148  10.7212362  84.8743874  49.8286111
  10.1823761  84.3572597  51.1454596   9.6973818  82.5527287  38.3779339
   9.9499339  82.0308808  37.6162802   8.7598377  82.3893432  38.4806023
  14.7417101  81.5563065  46.1854082  15.5280190  81.1382488  45.8344499
  15.0055805  82.4609157  46.3535731  14.9127178  86.9935915  40.8842739
  14.2773011  87.0670542  41.5963644  14.5824585  87.5829514  40.2061818
  20.1425528  81.4938298  47.0887061  20.8750700  80.9237515  47.3224890
  19.3864884  81.1059899  47.5293566   9.4170107  84.4555393  40.5803714
   9.3006365  83.7800296  41.2484798   9.5272367  83.9687767  39.7635867
  11.7601648  83.9165540  44.2850403  11.3959855  83.3896161  44.9963325
  12.6168764  83.5264009  44.1116889  17.6650948  75.2059872  51.5481669
  17.3334273  76.0755283  51.3242884  17.0696562  74.8896156  52.2275700
  11.4007135  78.9455440  39.2811752  11.5681537  79.8135676  39.6482223
  11.2104304  79.1082721  38.3573041  14.1582468  87.4072418  50.9477582
  13.8583191  88.3097457  50.8393389  13.8133527  87.1404602  51.7998735
   7.6094949  83.8586215  46.9814286   6.6845446  83.7262429  47.1891978
   7.8579363  84.6380434  47.4784229  17.5579612  79.9254959  48.6275019
  16.6496489  79.8570367  48.3333780  17.5067208  80.4026904  49.4556845
  11.3796356  81.4013097  40.2658419  11.2595981  81.8470148  41.1043899
  10.6848944  81.7498415  39.7071957   4.9703760  83.5019489  47.8158076
   5.0996142  83.7553968  48.7297487   4.2901212  84.0947197  47.4962731
   9.1403248  94.1716739  43.9148550   9.0627277  95.1224564  43.9937030
   8.5364891  93.8262611  44.5723476  11.6320478  81.3444604  56.5709917
  10.8553812  81.9038524  56.5612781  12.2711041  81.8301387  57.0924787
  19.4241258  78.1271397  50.4052893  18.7815638  78.4203930  49.7592688
  18.9196187  78.0124317  51.2106090  17.0781422  81.8734570  41.0938753
  17.9899278  82.1061957  40.9186450  16.5691069  82.4571614  40.5313831
   9.8866850  84.1530058  56.1327884  10.6281534  84.6915102  55.8562707
   9.1803835  84.7796346  56.2899435  15.3622189  86.2959198  54.7300045
  15.7705546  85.8541609  53.9854678  14.6399451  85.7211826  54.9834238
  11.7153260  81.2331805  52.1033602  12.5614455  81.6571218  52.2468251
  11.6551897  80.5765429  52.7972165  15.6851004  86.8560389  48.4852334
  15.0559867  87.0206103  47.7828402  15.2976666  87.2701998  49.2563298
  19.5640236  87.7914826  45.8396698  18.8791274  88.1713728  45.2893731
  19.6484085  88.4010153  46.5728646  14.8652705  78.8936173  53.7614776
  14.6213637  79.6478234  53.2249051  15.1412635  79.2721521  54.5962023
  16.8191168  85.4374786  52.4392041  17.0308063  86.0806545  51.7626422
  16.7720916  84.6037102  51.9713971  14.4217397  78.0492606  49.3428613
  13.5601876  78.3473860  49.6345351  14.4479831  78.2663005  48.4109646
  11.2378966  86.5934797  45.7502419  11.7017312  86.8722500  44.9607042
  10.9735764  85.6918241  45.5675510   8.1303047  86.1406278  48.6882182
   8.7004404  86.5693547  48.0499667   8.7211159  85.8588863  49.3866368
  10.1747852  82.7157949  42.5591984  10.8771895  83.1678993  43.0265911
   9.8428481  82.0741768  43.1871877   8.6228214  81.3069706  56.9343194
   7.9926874  81.9885987  57.1678590   8.5164301  81.1952787  55.9896332
   3.9173186  80.9741502  47.8609118   3.1272240  81.2299030  47.3849228
   4.4084433  81.7889840  47.9661158  17.9336996  88.3146741  50.6114399
  18.7554439  87.9126928  50.3297080  17.9299398  88.2114975  51.5630514
   5.8687931  81.3386081  44.8192595   5.0719095  81.4504775  45.3376090
   5.6413524  81.6772733  43.9533485  11.6993599  87.8630784  52.7675109
  11.7638032  88.3251191  53.6033281  10.9904523  87.2328149  52.8957419
   2.2010889  81.2271992  50.2924109   2.4518927  82.1119002  50.5581685
   2.7370437  81.0476594  49.5199200  26.0242989  84.6585489  46.9599370
  25.2706697  84.0892887  46.8043375  26.1590530  84.6248154  47.9070005
  11.4141617  89.5298892  42.6354089  11.2787291  90.3750427  43.0638937
  11.9551429  89.7318169  41.8720023   7.9008956  75.6090472  59.2968445
   7.5075902  75.0556670  59.9716089   8.7175097  75.9201050  59.6874962
   4.8671014  87.0474330  43.2082015   5.3795535  87.8417580  43.3587579
   5.5193727  86.3500620  43.1415616   6.6765899  90.1640086  45.2904768
   6.8532527  91.0858051  45.1025752   7.4722732  89.8498505  45.7199148
  10.8176917  77.0248351  56.8888701  11.5586631  77.6255504  56.8093164
  11.0494840  76.2825988  56.3306744   5.9618255  82.2104718  55.1666931
   5.8471770  81.3089975  55.4674030   5.1062773  82.4568415  54.8151747
  13.0410093  90.1522458  56.7654432  12.5973947  89.3658837  56.4475336
  13.7027307  90.3401609  56.0998322   7.7997214  91.6818260  51.2915110
   8.3504639  91.5535323  50.5192104   6.9608690  91.9813149  50.9410003
  15.1391331  90.4325258  54.7935833  15.1209806  91.2534139  54.3016102
  16.0611251  90.3079333  55.0185974  11.5964385  87.9469388  55.6359341
  12.1292722  87.1857676  55.4058649  11.0678466  87.6543039  56.3783496
  14.7634080  73.0529454  51.1652983  14.4198350  73.9431095  51.0892094
  15.1313043  72.8631111  50.3022568   2.8319931  85.3762984  43.9841585
   3.6695153  85.7859992  43.7675293   3.0098199  84.4362426  43.9541779
  14.7284363  83.0438065  39.6725418  14.2130986  83.8142669  39.9113805
  14.4561671  82.3703201  40.2958480  12.3131474  77.8887765  44.7310656
  11.4573070  77.4994616  44.5516295  12.7258426  77.9679726  43.8710442
  13.8430621  75.4234109  49.1302216  13.3395416  75.3864244  48.3170021
  14.1361228  76.3326851  49.1898873  10.0873507  75.5072838  48.1368398
  10.9526503  75.3115647  47.7774287  10.1551015  75.2783190  49.0637755
  19.7018637  85.7970419  41.6078592  18.9248080  85.4581579  41.1633754
  20.3810118  85.8023043  40.9333557  14.5170666  80.9165157  41.4985199
  14.2120802  81.2311306  42.3495342  15.4701108  80.9946577  41.5412532
  12.9617098  87.0755380  43.1478153  12.4338460  86.3408140  42.8351391
  12.4604601  87.8530056  42.9018122  17.9409944  85.2704401  48.2645200
  17.2833618  85.9603662  48.3525328  18.7450343  85.6600833  48.6079186
   7.6935826  77.7375046  45.5084765   8.2679578  77.5150228  44.7757958
   8.2806808  77.8063741  46.2613366  16.7515403  83.6248773  46.3149141
  17.2647285  84.2578765  46.8170851  17.4016627  83.0249969  45.9492501
   8.0205413  79.7679507  39.5280650   7.1842725  80.1054194  39.8489925
   7.8810182  79.6328487  38.5907787   9.9958493  74.6116295  44.2359834
   9.3422906  74.2965312  43.6116449   9.9538967  73.9892036  44.9619657
  11.1069698  84.8935590  36.1513126  10.1996760  84.6624844  36.3504275
  11.6040730  84.0973210  36.3387108  14.0137777  93.6033098  39.0709812
  13.3399476  93.9064794  39.6794770  14.4003599  94.4062178  38.7215269
  13.2296234  81.0998229  48.5607482  12.3118795  81.3213176  48.4029170
  13.6456377  81.1744539  47.7019189  14.0131281  82.4989645  43.6910162
  14.7603100  83.0111042  43.3817284  14.2822871  82.1773697  44.5514556
  12.2857932  84.9948185  40.6737116  11.3769151  84.7107218  40.7709586
  12.3153015  85.4147264  39.8140423  17.5177199  88.6054775  44.4428284
  17.0639526  87.7645685  44.4993474  16.8871166  89.2416173  44.7803064
  16.4610119  79.5346761  45.6728951  15.7232875  79.0224147  46.0039194
  16.7136892  79.0947142  44.8612228  15.9610138  90.4431271  45.3778102
  16.2533113  91.0036329  44.6590468  16.4708759  90.7359832  46.1331261
  16.5621746  72.3123013  46.2670721  16.8680623  71.4520376  45.9796636
  17.2874351  72.9040633  46.0669715   2.8546102  82.7153699  44.6552319
   2.6570502  82.1223060  43.9303385   2.2992766  82.4105910  45.3728257
  10.8342826  82.6076806  46.7746912  10.8891435  81.6550642  46.6989388
  10.0234028  82.7636245  47.2588210  11.9834019  86.5356929  38.0125195
  11.5453449  85.8192788  37.5530832  12.7244460  86.7633044  37.4510286
   8.7735186  81.2253866  44.5337291   7.9603051  81.5248036  44.9402483
   9.2694180  80.8309554  45.2511773  10.9243763  91.2211623  46.4671555
  10.8819942  91.4472469  45.5380087  11.8406462  90.9874997  46.6157356
  14.3709397  81.6895690  53.3652184  14.7258785  81.9167163  54.2246650
  15.0181528  82.0214067  52.7429440  20.1007134  84.8114126  44.0701513
  19.9625033  85.0015722  43.1422703  19.7443353  85.5733509  44.5269565
   8.2649260  78.7972221  50.1498526   8.9048640  78.6560980  49.4521489
   7.4326791  78.5106735  49.7737128  20.1276514  86.8790653  49.0812785
  20.5613020  86.7865942  49.9295839  20.8408095  86.8548153  48.4432801
   9.0409564  88.0974652  46.2633518   9.8350163  87.6024972  46.0616093
   8.3301257  87.5692515  45.9001224  13.8604409  90.4792747  50.6145886
  13.9141431  91.0483683  51.3823602  12.9919190  90.6494632  50.2499923
   5.3492328  82.2417733  42.3393271   4.4189916  82.1802189  42.5563233
   5.4449800  81.7193686  41.5429912   5.2677877  78.7672546  44.9271512
   5.5284694  79.6817879  44.8180673   6.0895049  78.2996989  45.0768125
   6.7402802  80.1810303  52.0970337   7.4125856  79.9727665  51.4482986
   5.9132589  79.9832389  51.6575569  20.9892063  86.9214354  51.6145670
  21.1827953  87.8260164  51.8604945  20.8892682  86.4621773  52.4484255
  12.6428374  76.8072244  54.1135998  11.9956289  77.5062194  54.0200474
  13.4129390  77.2408388  54.4812246  16.0507172  87.0721096  57.1886551
  15.8992678  86.8431648  56.2716635  16.0411852  88.0291698  57.2017896
  12.8192508  84.6453009  52.1732817  13.7484568  84.7964169  52.0001785
  12.3983538  84.7337030  51.3181464  11.6180840  88.6703674  49.9431355
  11.4791926  88.3022458  50.8157293  10.8295436  89.1851313  49.7715313
  12.2128992  93.7712770  41.2856892  12.3880748  93.3000813  42.1002514
  11.5261780  94.3978536  41.5138152  13.1686055  88.0485276  47.3320193
  12.8335888  88.0086046  48.2277843  12.6690001  87.3829992  46.8590603
   7.1430299  83.4552906  52.8572774   7.0050097  82.7233145  53.4584313
   8.0535223  83.3661806  52.5756962  16.1045247  85.3941311  37.6057253
  15.4874418  84.6688139  37.5090305  15.6361735  86.1550671  37.2624327
   9.7712600  83.1672866  52.3456454  10.4812219  82.5266058  52.3043072
   9.7281908  83.4185760  53.2682634  17.7599379  90.1040219  55.2663033
  17.7011925  89.4199439  54.5993616  18.1618897  90.8459209  54.8143659
   8.4841534  80.1538083  54.1652093   7.9478891  79.7028822  54.8173689
   7.8958242  80.2883992  53.4222557   6.7790077  96.9202133  48.0596752
   7.0186676  97.5520657  48.7375770   5.9359274  96.5690173  48.3462111
   7.8943793  79.6126735  36.7278557   7.0173259  79.4915536  36.3640803
   8.3701546  78.8212813  36.4757445  17.7616786  88.0679803  53.4977013
  16.8743565  87.7305725  53.6203411  18.3315337  87.3362834  53.7345778
   4.2180655  79.2894091  51.2505088   4.1338844  78.6819761  50.5155498
   3.3963362  79.7803109  51.2514584  11.2917939  92.7281255  50.4638256
  11.2188111  93.5336227  50.9757560  10.8495332  92.9273221  49.6386277
  11.0807719  91.9653025  43.9741077  10.2975241  92.5074705  44.0679302
  11.7800464  92.4827005  44.3735318  14.3904369  77.7747655  46.6175283
  14.8873069  77.0217617  46.2976353  13.6191351  77.8111971  46.0518492
  22.2434126  83.4788020  48.2593574  22.2324003  84.3612736  47.8887507
  21.3751506  83.1259571  48.0648111  13.7516623  92.6268089  52.6196414
  14.4644595  93.2615554  52.5472316  13.2606652  92.7231955  51.8036416
  15.4734150  86.5319342  44.1913706  14.5390429  86.6520804  44.0218410
  15.6510818  85.6291809  43.9273716  10.9739338  79.9165038  46.3446967
  10.6037125  79.3636078  47.0327873  11.4698430  79.3123171  45.7921967
  18.8606701  82.3736661  44.7263740  19.3267153  83.2064653  44.6524043
  19.3114202  81.9081643  45.4308999   8.8028536  90.3762533  53.4401985
   9.5037996  91.0099016  53.5931379   8.3323651  90.7177264  52.6797625
  16.9282932  88.7180482  41.7249892  17.2042776  88.6037077  42.6343766
  16.0587431  88.3197967  41.6862065  16.8323364  74.7417248  48.7654642
  15.9186444  74.9721475  48.9336848  17.2616465  74.8255692  49.6168674
  16.6029822  82.9307140  51.2654536  15.9501273  83.1783048  50.6106988
  16.9810202  82.1171278  50.9317013  13.5636996  92.9666833  45.3682706
  13.7459391  92.1488489  45.8310458  14.3869982  93.1834526  44.9307596
  13.8979162  91.8935018  42.6297754  14.4266928  91.3827473  42.0167916
  14.1607381  91.5777549  43.4943287  12.6517395  83.6726951  57.7520573
  11.9758032  83.5721081  58.4222948  13.4745029  83.5166165  58.2156570
   4.3996254  89.9098888  50.3733088   4.9849691  89.1642576  50.5060992
   4.2021093  90.2202844  51.2569752   7.2534910  92.9450135  45.3895530
   6.5845285  93.4296263  44.9059570   7.1147779  93.1919356  46.3038909
  11.3940178  94.9793879  51.9878189  11.9458486  95.1425500  52.7527274
  11.7346372  95.5698316  51.3158214   6.3704672  77.3269028  52.5900073
   6.4345998  78.1883859  52.1777471   6.3071792  76.7143030  51.8572432
   5.8456944  79.3992161  56.2373108   6.4728983  79.0169238  56.8510632
   4.9884863  79.1806363  56.6028800  16.2451053  89.8055136  57.8426843
  16.7890957  90.4185094  57.3481798  15.6637897  90.3634715  58.3593856
   2.6222487  81.2068590  42.1691462   2.9175928  80.2979269  42.1158516
   1.7210523  81.1856330  41.8472465  14.5308566  92.9275854  48.9741871
  14.4059705  92.1265594  48.4652816  15.1887657  93.4222048  48.4855841
   6.1516734  79.2824587  48.1519011   5.4303320  79.8960554  48.0126484
   6.9409990  79.8182352  48.0735657  16.5943474  90.7284874  50.6021421
  15.6473809  90.6090225  50.5299748  16.9426247  89.8407372  50.6847682
   8.9543047  76.6179013  54.4259663   9.4777449  76.8641310  55.1885972
   8.7355381  77.4499048  54.0062800   4.3510328  78.8882688  42.2930788
   4.0223035  78.0080067  42.1105894   4.7049699  78.8330356  43.1807177
  13.5989907  90.5237590  46.8025773  13.4514870  89.5954298  46.9833343
  14.4243401  90.5457681  46.3182848   7.4652152  79.1755658  42.6606265
   7.8048224  79.7041579  41.9384874   7.9124272  79.5136064  43.4364832
  17.2024029  91.3466149  47.8890646  18.1270577  91.1409011  47.7515097
  17.0339332  91.0982550  48.7979987  10.1595592  77.5592708  52.1109333
   9.8192413  76.7600521  52.5130013   9.4534599  77.8594419  51.5386167
  10.8112064  74.6442021  50.5636656  11.6338133  74.1702499  50.4415547
  11.0550128  75.4232504  51.0635343   9.4520299  77.6730279  40.8599558
  10.1728661  78.0511532  40.3563275   8.8285603  78.3919156  40.9634536
  13.5951422  78.3775428  41.7957890  13.8115036  79.2600066  41.4946719
  13.1145489  77.9861642  41.0663532   8.3350643  81.3361141  48.3728635
   8.1895224  81.6501444  49.2652916   7.8575847  81.9546042  47.8199534
  10.1947026  78.3263689  48.4209525  10.1808595  77.4304783  48.0841822
  10.9119454  78.3334353  49.0547811  12.0473157  78.7601030  50.4662652
  11.7890934  79.6818100  50.4646982  11.5158197  78.3631464  51.1563116
  16.9919345  91.8651817  43.2452737  17.1656223  91.2998239  42.4926590
  17.4848237  92.6652712  43.0632227   2.8096305  83.8766486  51.3116296
   2.2649773  84.6526294  51.4436570   3.6875655  84.2237290  51.1535418
   9.5983922  77.2078070  43.6897095   9.7199833  76.2794716  43.8887982
   9.3085964  77.2216756  42.7775410  12.4675112  74.8932980  46.8263815
  12.4896809  74.9572313  45.8715794  12.8843171  74.0537489  47.0204321
  22.8458736  84.6288240  44.8643037  23.2889882  83.8795565  44.4662160
  21.9685247  84.6198376  44.4816769  17.9794518  91.1818581  40.3449636
  18.6745422  91.8025274  40.5636950  18.3217668  90.3313932  40.6202014
   3.5962327  83.0036382  54.2046453   2.8544063  83.1519017  54.7911083
   3.2755071  83.2644648  53.3413202  19.8785941  88.6318287  41.8736966
  20.4037265  88.9705559  41.1486286  19.7908293  87.6965302  41.6900101
  11.5405990  92.5452360  54.0026843  11.8493116  92.3001507  54.8749543
  12.3381472  92.7498999  53.5145713  11.5626602  94.6990270  46.2332220
  11.1231592  94.2066649  46.9265076  12.3134719  94.1563238  45.9924295
   4.0418941  90.8901811  46.2356848   4.8676961  90.5905583  45.8555491
   3.6912993  90.1209433  46.6846636   9.0100474  90.2428279  48.3054521
   8.3880483  89.5798984  48.0056749   9.6805341  90.2689411  47.6228169
   2.2427546  88.8088137  47.1945781   1.4059454  88.3810312  47.0129783
   2.2151191  89.0020581  48.1316572   9.0825001  78.7210067  57.8987027
   9.1313157  79.5972190  57.5164797   9.6247515  78.1787460  57.3258670
  19.5679847  89.2651190  57.1788164  18.7775391  89.2475329  56.6392664
  19.3313202  89.8039484  57.9337201  19.6877722  86.1143657  54.4920893
  19.7375727  85.9493664  55.4336416  19.5791645  85.2470916  54.1018774
   8.5713981  88.7932202  41.7812982   8.7202101  89.4767667  41.1279655
   9.3780424  88.7737292  42.2962438  16.9781484  82.0974585  55.8080200
  17.8791347  81.9581049  55.5164197  17.0529459  82.2629039  56.7478377
  11.3124290  79.4741439  54.6533386  10.4427599  79.7675005  54.3815974
  11.5483770  80.0581884  55.3740650  21.1895919  88.5340598  54.7362914
  20.8980727  88.8970579  55.5726375  20.5768050  87.8207606  54.5576247
  22.3891601  86.0993478  47.2565485  23.2238493  86.5383282  47.4203045
  22.5250730  85.6232131  46.4373730  19.4383107  83.6573213  53.2042972
  19.9137229  83.8500859  52.3961824  18.5148672  83.7132399  52.9586356
   6.3266614  84.8197380  42.7874051   6.0812656  83.9159710  42.9854261
   6.4962528  84.8214530  41.8453529  14.0163324  75.6921056  52.1698806
  14.5345267  76.4282083  51.8445295  13.6618456  75.9985050  53.0045565
   5.5962261  80.5525738  40.2860212   4.9031506  80.6270093  39.6300248
   5.3514013  79.7886081  40.8081729  14.2675918  72.1121339  47.6899703
  14.5477672  71.4444528  48.3160129  15.0526525  72.3050434  47.1774367
  12.0709386  91.2880333  39.2524729  11.4983353  91.9070520  38.7995201
  12.6442180  91.8379694  39.7864651  18.1384776  80.5338973  51.4371278
  19.0902199  80.6337071  51.4583502  17.9688227  79.7417241  51.9469362
  16.1599156  77.6194556  51.6230679  15.5649088  77.8999569  50.9277168
  15.8748852  78.1088457  52.3947420  15.2906646  91.5717483  40.3833311
  16.2237319  91.5063045  40.5866187  15.2029859  92.4073750  39.9247844
  17.9194663  90.8883353  37.3437259  17.8408294  90.5543217  38.2373017
  18.7404329  91.3805121  37.3428731  20.6172854  83.7545093  50.5513578
  20.5849174  82.8161093  50.7373261  21.2273478  83.8329129  49.8179403
  12.4556185  82.6241146  36.5940782  13.4015289  82.4947354  36.6629200
  12.0770430  81.8855807  37.0710210  20.7667342  80.5456136  50.5971861
  20.2506391  79.7614593  50.4101790  21.6507291  80.2174853  50.7618380
  18.4278069  74.2897152  46.5567674  18.2302890  73.9812240  47.4411005
  19.0377775  75.0158790  46.6865603  26.4349404  84.8161099  49.6919614
  27.1652792  84.5546388  50.2527318  25.8256349  84.0789821  49.7321682
  24.5164701  82.9568962  50.2894066  23.7897864  82.8224927  49.6810557
  24.1011988  83.2645791  51.0950784  12.3394877  86.6758892  58.0541439
  13.2597887  86.8537491  58.2481485  12.3044460  85.7314937  57.9021138
  10.6399102  80.5491122  36.5295667   9.7330557  80.2524235  36.6058381
  10.9175083  80.2520940  35.6629953   1.5577042  81.8697485  46.9794713
   1.2379827  81.0162793  46.6869087   1.0110470  82.0846063  47.7352681
   5.3356950  84.5859926  50.6964220   5.5542960  85.5177034  50.7152254
   5.7482724  84.2267901  51.4819024  12.2561168  75.0928012  42.6839908
  11.4461896  74.7475097  43.0595154  12.9445585  74.7835555  43.2727520
  14.1851716  74.1706058  44.3064205  14.7382755  74.5901512  44.9654228
  14.4221802  73.2441807  44.3487161  10.2084815  80.1593132  60.0866969
  10.1081542  81.1087489  60.0179060   9.9906357  79.8311371  59.2143039
   9.4097887  77.4078057  36.6707646  10.2717051  77.7332955  36.9303463
   9.5948231  76.6209553  36.1580712   1.4265302  85.4900397  48.9487835
   0.7328774  85.0754350  48.4357789   2.1738293  85.5320933  48.3521254
  17.5630523  76.2806584  43.8142869  16.9829192  76.9391388  43.4320922
  17.2966456  75.4583928  43.4030287  16.0134089  75.6811641  46.0164189
  16.5133868  75.7928176  45.2078508  16.6569697  75.3772694  46.6564998
  10.0716085  83.5890271  58.9032030   9.5883167  84.3890631  59.1095919
  10.1577024  83.5998216  57.9499474   3.3402045  85.4218651  46.8253850
   3.3172733  85.5206338  45.8735733   3.6502681  86.2683801  47.1471016
   5.9989423  87.4794806  50.9400464   6.9532676  87.4478748  50.8730396
   5.8001946  87.0185429  51.7550690   6.5888805  86.0495922  53.5071262
   7.4081694  86.5440000  53.5306099   6.8625613  85.1327890  53.4788829
  16.3455401  78.4406674  42.8699217  15.4581256  78.7256325  42.6519412
  16.7609390  78.2800437  42.0226494  19.6969937  78.4653195  46.5853557
  20.4730327  78.9549647  46.8578173  18.9718071  78.8911249  47.0425426
  22.1342496  79.1780814  47.6427497  22.7286987  78.9376550  46.9320805
  22.2069079  78.4587945  48.2701034   4.3539651  93.0214425  47.9570662
   4.2194119  92.2614826  47.3908660   3.9371714  93.7455325  47.4899451
  15.4898614  88.2051349  36.9647237  16.1934465  88.4101351  37.5804893
  14.7661263  88.7728111  37.2296321  16.3196425  83.9561210  43.0849508
  16.2631626  84.4129761  42.2457140  16.8724767  83.1951894  42.9072350
  20.1301231  79.7450942  43.9099627  19.8738165  79.3447577  44.7407835
  19.5054099  80.4594736  43.7849766  24.4413569  82.4847015  46.4170918
  23.8813126  82.5540204  47.1902481  23.8357072  82.3088000  45.6970415
   7.5108777  93.9183742  48.1689105   7.3941161  94.8629175  48.0667795
   6.6901224  93.6157304  48.5574904  17.3985312  88.6433878  39.0145697
  18.2330916  88.2115076  38.8323172  17.2369655  88.4715892  39.9422592
  17.0531204  85.1465991  40.3802037  16.9980008  84.9810263  39.4390481
  16.4277259  85.8542024  40.5364226   1.8423719  80.3834056  54.2063459
   2.4882583  79.8733009  54.6950684   1.6340870  81.1202737  54.7806884
  14.3677111  87.4514903  59.7055600  15.2368271  87.6255555  59.3442234
  13.8883863  88.2709320  59.5831329  10.3627330  74.6474100  39.9587355
  10.3505999  75.5915940  40.1155626  11.2550751  74.4644246  39.6646816
   8.5363291  94.5712004  51.3845033   9.4390538  94.6035614  51.7011528
   8.3100662  93.6412455  51.3991369  10.2916893  93.3242991  48.0455112
   9.3412524  93.3244852  47.9319484  10.5949380  92.5775725  47.5291146
  14.1779449  71.2416877  44.2133292  13.4111845  70.6875363  44.3589974
  14.5890154  71.3138746  45.0747444   6.1821210  77.5301673  58.3038473
   7.0452672  77.1738477  58.5141798   5.6086621  77.1915567  58.9913877
  26.0269587  99.1603529  49.1100874  26.6647997  99.0410276  48.4064214
  25.9090430 100.1084373  49.1688826  22.8359293  99.1130957  49.0462399
  22.4977805  98.9972022  48.1582934  23.7049061  98.7122122  49.0263405
  18.6946109 100.9666433  45.0359290  18.1310974 100.8756370  44.2675578
  18.5798504 100.1466338  45.5161782  23.3179076 100.2665809  55.0048604
  23.3067717  99.8718607  54.1329108  23.4799716  99.5331881  55.5982376
  16.2410541 102.4617625  47.8743510  17.0331833 102.1208450  47.4589810
  16.4807191 102.5712600  48.7945664  24.2745668 104.6337401  40.3473755
  23.6233647 105.2191482  39.9607769  25.0690030 105.1643596  40.4068792
  18.2001295 101.7226538  40.7460889  18.9732171 101.1755525  40.6073765
  18.5526694 102.5870788  40.9575350  20.0386337 103.0502921  53.9527788
  19.7476203 103.9548551  53.8374455  20.6743322 103.0919448  54.6671858
  20.9642544 100.4279769  50.5429148  21.5606116 100.2035791  49.8286111
  21.0217516  99.6864515  51.1454596  20.5367573  97.8819204  38.3779339
  20.7893093  97.3600726  37.6162802  19.5992132  97.7185350  38.4806023
  25.5810855  96.8854983  46.1854082  26.3673945  96.4674406  45.8344499
  25.8449560  97.7901075  46.3535731  25.7520933 102.3227833  40.8842739
  25.1166766 102.3962460  41.5963644  25.4218339 102.9121432  40.2061818
  30.9819283  96.8230216  47.0887061  31.7144455  96.2529433  47.3224890
  30.2258638  96.4351816  47.5293566  20.2563861  99.7847310  40.5803714
  20.1400119  99.1092214  41.2484798  20.3666121  99.2979684  39.7635867
  22.5995402  99.2457457  44.2850403  22.2353610  98.7188078  44.9963325
  23.4562518  98.8555927  44.1116889  28.5044703  90.5351790  51.5481669
  28.1728028  91.4047201  51.3242884  27.9090316  90.2188074  52.2275700
  22.2400889  94.2747357  39.2811752  22.4075292  95.1427594  39.6482223
  22.0498058  94.4374639  38.3573041  24.9976222 102.7364336  50.9477582
  24.6976946 103.6389375  50.8393389  24.6527282 102.4696519  51.7998735
  18.4488704  99.1878133  46.9814286  17.5239200  99.0554347  47.1891978
  18.6973117  99.9672352  47.4784229  28.3973366  95.2546876  48.6275019
  27.4890244  95.1862285  48.3333780  28.3460962  95.7318821  49.4556845
  22.2190110  96.7305015  40.2658419  22.0989735  97.1762065  41.1043899
  21.5242699  97.0790332  39.7071957  15.8097515  98.8311406  47.8158076
  15.9389896  99.0845885  48.7297487  15.1294966  99.4239114  47.4962731
  19.9797002 109.5008656  43.9148550  19.9021032 110.4516482  43.9937030
  19.3758646 109.1554529  44.5723476  22.4714232  96.6736522  56.5709917
  21.6947566  97.2330442  56.5612781  23.1104795  97.1593305  57.0924787
  30.2635013  93.4563315  50.4052893  29.6209393  93.7495848  49.7592688
  29.7589941  93.3416235  51.2106090  27.9175176  97.2026488  41.0938753
  28.8293032  97.4353875  40.9186450  27.4084823  97.7863532  40.5313831
  20.7260604  99.4821975  56.1327884  21.4675289 100.0207019  55.8562707
  20.0197590 100.1088264  56.2899435  26.2015944 101.6251116  54.7300045
  26.6099300 101.1833526  53.9854678  25.4793205 101.0503743  54.9834238
  22.5547014  96.5623722  52.1033602  23.4008209  96.9863136  52.2468251
  22.4945652  95.9057347  52.7972165  26.5244759 102.1852306  48.4852334
  25.8953621 102.3498020  47.7828402  26.1370421 102.5993916  49.2563298
  30.4033991 103.1206744  45.8396698  29.7185029 103.5005646  45.2893731
  30.4877840 103.7302071  46.5728646  25.7046459  94.2228091  53.7614776
  25.4607391  94.9770151  53.2249051  25.9806390  94.6013438  54.5962023
  27.6584922 100.7666703  52.4392041  27.8701817 101.4098463  51.7626422
  27.6114670  99.9329020  51.9713971  25.2611151  93.3784524  49.3428613
  24.3995630  93.6765777  49.6345351  25.2873586  93.5954923  48.4109646
  22.0772721 101.9226714  45.7502419  22.5411066 102.2014417  44.9607042
  21.8129519 101.0210159  45.5675510  18.9696802 101.4698196  48.6882182
  19.5398159 101.8985464  48.0499667  19.5604913 101.1880781  49.3866368
  21.0141607  98.0449867  42.5591984  21.7165650  98.4970910  43.0265911
  20.6822235  97.4033686  43.1871877  19.4621968  96.6361623  56.9343194
  18.8320629  97.3177904  57.1678590  19.3558056  96.5244705  55.9896332
  14.7566941  96.3033419  47.8609118  13.9665995  96.5590948  47.3849228
  15.2478188  97.1181757  47.9661158  28.7730750 103.6438659  50.6114399
  29.5948194 103.2418846  50.3297080  28.7693153 103.5406893  51.5630514
  16.7081686  96.6677999  44.8192595  15.9112849  96.7796693  45.3376090
  16.4807278  97.0064651  43.9533485  22.5387354 103.1922702  52.7675109
  22.6031786 103.6543109  53.6033281  21.8298277 102.5620067  52.8957419
  13.0404644  96.5563910  50.2924109  13.2912682  97.4410920  50.5581685
  13.5764192  96.3768511  49.5199200  36.8636743  99.9877407  46.9599370
  36.1100452  99.4184805  46.8043375  36.9984284  99.9540072  47.9070005
  22.2535371 104.8590809  42.6354089  22.1181046 105.7042345  43.0638937
  22.7945184 105.0610087  41.8720023  18.7402711  90.9382389  59.2968445
  18.3469656  90.3848588  59.9716089  19.5568851  91.2492968  59.6874962
  15.7064769 102.3766247  43.2082015  16.2189289 103.1709498  43.3587579
  16.3587481 101.6792538  43.1415616  17.5159653 105.4932004  45.2904768
  17.6926282 106.4149968  45.1025752  18.3116487 105.1790423  45.7199148
  21.6570672  92.3540268  56.8888701  22.3980385  92.9547421  56.8093164
  21.8888595  91.6117906  56.3306744  16.8012010  97.5396636  55.1666931
  16.6865525  96.6381893  55.4674030  15.9456528  97.7860332  54.8151747
  23.8803848 105.4814376  56.7654432  23.4367702 104.6950754  56.4475336
  24.5421061 105.6693526  56.0998322  18.6390969 107.0110177  51.2915110
  19.1898394 106.8827241  50.5192104  17.8002445 107.3105067  50.9410003
  25.9785086 105.7617176  54.7935833  25.9603561 106.5826057  54.3016102
  26.9005006 105.6371251  55.0185974  22.4358140 103.2761305  55.6359341
  22.9686477 102.5149593  55.4058649  21.9072221 102.9834957  56.3783496
  25.6027835  88.3821371  51.1652983  25.2592104  89.2723013  51.0892094
  25.9706797  88.1923029  50.3022568  13.6713685 100.7054902  43.9841585
  14.5088907 101.1151910  43.7675293  13.8491953  99.7654344  43.9541779
  25.5678117  98.3729982  39.6725418  25.0524741  99.1434587  39.9113805
  25.2955426  97.6995119  40.2958480  23.1525229  93.2179683  44.7310656
  22.2966825  92.8286534  44.5516295  23.5652180  93.2971644  43.8710442
  24.6824375  90.7526026  49.1302216  24.1789171  90.7156162  48.3170021
  24.9754982  91.6618769  49.1898873  20.9267261  90.8364756  48.1368398
  21.7920258  90.6407565  47.7774287  20.9944770  90.6075108  49.0637755
  30.5412392 101.1262337  41.6078592  29.7641834 100.7873497  41.1633754
  31.2203873 101.1314960  40.9333557  25.3564421  96.2457074  41.4985199
  25.0514556  96.5603224  42.3495342  26.3094863  96.3238494  41.5412532
  23.8010852 102.4047298  43.1478153  23.2732214 101.6700057  42.8351391
  23.2998355 103.1821974  42.9018122  28.7803699 100.5996318  48.2645200
  28.1227373 101.2895580  48.3525328  29.5844098 100.9892750  48.6079186
  18.5329580  93.0666964  45.5084765  19.1073332  92.8442146  44.7757958
  19.1200563  93.1355659  46.2613366  27.5909157  98.9540691  46.3149141
  28.1041039  99.5870683  46.8170851  28.2410381  98.3541886  45.9492501
  18.8599167  95.0971425  39.5280650  18.0236479  95.4346112  39.8489925
  18.7203937  94.9620405  38.5907787  20.8352248  89.9408213  44.2359834
  20.1816660  89.6257230  43.6116449  20.7932722  89.3183953  44.9619657
  21.9463453 100.2227508  36.1513126  21.0390514  99.9916762  36.3504275
  22.4434485  99.4265127  36.3387108  24.8531532 108.9325015  39.0709812
  24.1793230 109.2356712  39.6794770  25.2397354 109.7354096  38.7215269
  24.0689988  96.4290147  48.5607482  23.1512550  96.6505094  48.4029170
  24.4850132  96.5036457  47.7019189  24.8525036  97.8281562  43.6910162
  25.5996855  98.3402959  43.3817284  25.1216625  97.5065615  44.5514556
  23.1251686 100.3240103  40.6737116  22.2162905 100.0399136  40.7709586
  23.1546770 100.7439181  39.8140423  28.3570954 103.9346692  44.4428284
  27.9033281 103.0937602  44.4993474  27.7264920 104.5708091  44.7803064
  27.3003873  94.8638678  45.6728951  26.5626630  94.3516065  46.0039194
  27.5530647  94.4239060  44.8612228  26.8003893 105.7723189  45.3778102
  27.0926867 106.3328246  44.6590468  27.3102513 106.0651750  46.1331261
  27.4015500  87.6414930  46.2670721  27.7074377  86.7812294  45.9796636
  28.1268105  88.2332551  46.0669715  13.6939856  98.0445617  44.6552319
  13.4964256  97.4514978  43.9303385  13.1386520  97.7397827  45.3728257
  21.6736580  97.9368724  46.7746912  21.7285190  96.9842560  46.6989388
  20.8627782  98.0928163  47.2588210  22.8227774 101.8648847  38.0125195
  22.3847204 101.1484706  37.5530832  23.5638215 102.0924961  37.4510286
  19.6128940  96.5545783  44.5337291  18.7996806  96.8539954  44.9402483
  20.1087934  96.1601472  45.2511773  21.7637518 106.5503540  46.4671555
  21.7213697 106.7764387  45.5380087  22.6800217 106.3166915  46.6157356
  25.2103152  97.0187608  53.3652184  25.5652539  97.2459081  54.2246650
  25.8575283  97.3505985  52.7429440  30.9400889 100.1406044  44.0701513
  30.8018787 100.3307640  43.1422703  30.5837108 100.9025426  44.5269565
  19.1043015  94.1264139  50.1498526  19.7442394  93.9852898  49.4521489
  18.2720545  93.8398652  49.7737128  30.9670268 102.2082571  49.0812785
  31.4006775 102.1157860  49.9295839  31.6801849 102.1840071  48.4432801
  19.8803319 103.4266569  46.2633518  20.6743917 102.9316889  46.0616093
  19.1695011 102.8984432  45.9001224  24.6998163 105.8084665  50.6145886
  24.7535185 106.3775601  51.3823602  23.8312945 105.9786550  50.2499923
  16.1886082  97.5709651  42.3393271  15.2583670  97.5094106  42.5563233
  16.2843554  97.0485604  41.5429912  16.1071631  94.0964464  44.9271512
  16.3678449  95.0109797  44.8180673  16.9288804  93.6288906  45.0768125
  17.5796557  95.5102221  52.0970337  18.2519610  95.3019583  51.4482986
  16.7526343  95.3124307  51.6575569  31.8285818 102.2506271  51.6145670
  32.0221708 103.1552082  51.8604945  31.7286436 101.7913690  52.4484255
  23.4822129  92.1364162  54.1135998  22.8350044  92.8354112  54.0200474
  24.2523144  92.5700306  54.4812246  26.8900927 102.4013014  57.1886551
  26.7386433 102.1723566  56.2716635  26.8805606 103.3583615  57.2017896
  23.6586263  99.9744927  52.1732817  24.5878323 100.1256086  52.0001785
  23.2377293 100.0628948  51.3181464  22.4574595 103.9995591  49.9431355
  22.3185680 103.6314376  50.8157293  21.6689191 104.5143231  49.7715313
  23.0522747 109.1004688  41.2856892  23.2274502 108.6292731  42.1002514
  22.3655535 109.7270454  41.5138152  24.0079810 103.3777194  47.3320193
  23.6729642 103.3377964  48.2277843  23.5083756 102.7121910  46.8590603
  17.9824054  98.7844824  52.8572774  17.8443852  98.0525063  53.4584313
  18.8928977  98.6953724  52.5756962  26.9439002 100.7233228  37.6057253
  26.3268172  99.9980056  37.5090305  26.4755490 101.4842589  37.2624327
  20.6106355  98.4964783  52.3456454  21.3205973  97.8557975  52.3043072
  20.5675663  98.7477678  53.2682634  28.5993133 105.4332137  55.2663033
  28.5405679 104.7491357  54.5993616  29.0012652 106.1751127  54.8143659
  19.3235288  95.4830001  54.1652093  18.7872645  95.0320740  54.8173689
  18.7351997  95.6175910  53.4222557  18.7337547  94.9418653  36.7278557
  17.8567014  94.8207453  36.3640803  19.2095301  94.1504731  36.4757445
  28.6010540 103.3971721  53.4977013  27.7137319 103.0597642  53.6203411
  29.1709092 102.6654752  53.7345778  10.2539688  99.7295812  46.8220064
  10.9410727  99.4157542  46.2341079  10.0987816 100.6337177  46.5487315
  15.0574410  94.6186009  51.2505088  14.9732598  94.0111678  50.5155498
  14.2357116  95.1095027  51.2514584  22.1311694 108.0573173  50.4638256
  22.0581865 108.8628144  50.9757560  21.6889087 108.2565139  49.6386277
  21.9201473 107.2944943  43.9741077  21.1368995 107.8366623  44.0679302
  22.6194219 107.8118923  44.3735318  25.2298124  93.1039572  46.6175283
  25.7266823  92.3509535  46.2976353  24.4585105  93.1403889  46.0518492
  33.0827881  98.8079938  48.2593574  33.0717757  99.6904653  47.8887507
  32.2145260  98.4551489  48.0648111  24.5910377 107.9560007  52.6196414
  25.3038350 108.5907472  52.5472316  24.1000406 108.0523873  51.8036416
  26.3127904 101.8611260  44.1913706  25.3784183 101.9812722  44.0218410
  26.4904573 100.9583726  43.9273716  21.8133092  95.2456955  46.3446967
  21.4430880  94.6927996  47.0327873  22.3092185  94.6415089  45.7921967
  29.7000456  97.7028579  44.7263740  30.1660908  98.5356570  44.6524043
  30.1507956  97.2373560  45.4308999  19.6422291 105.7054450  53.4401985
  20.3431750 106.3390933  53.5931379  19.1717406 106.0469182  52.6797625
  27.7676687 104.0472400  41.7249892  28.0436531 103.9328995  42.6343766
  26.8981185 103.6489885  41.6862065  27.6717118  90.0709166  48.7654642
  26.7580198  90.3013393  48.9336848  28.1010220  90.1547610  49.6168674
  27.4423577  98.2599058  51.2654536  26.7895027  98.5074965  50.6106988
  27.8203957  97.4463196  50.9317013  24.4030751 108.2958751  45.3682706
  24.5853145 107.4780407  45.8310458  25.2263737 108.5126443  44.9307596
  24.7372916 107.2226936  42.6297754  25.2660683 106.7119391  42.0167916
  25.0001136 106.9069466  43.4943287  23.4911150  99.0018869  57.7520573
  22.8151787  98.9012998  58.4222948  24.3138784  98.8458083  58.2156570
  15.2390009 105.2390805  50.3733088  15.8243446 104.4934493  50.5060992
  15.0414847 105.5494762  51.2569752  18.0928664 108.2742053  45.3895530
  17.4239039 108.7588180  44.9059570  17.9541534 108.5211273  46.3038909
   9.8307664  97.8096406  49.0937531   9.8691763  97.2759996  49.8874649
   9.3247957  97.2831611  48.4748508  22.2333933 110.3085796  51.9878189
  22.7852241 110.4717418  52.7527274  22.5740126 110.8990234  51.3158214
  17.2098426  92.6560946  52.5900073  17.2739752  93.5175777  52.1777471
  17.1465546  92.0434948  51.8572432  16.6850699  94.7284079  56.2373108
  17.3122737  94.3461156  56.8510632  15.8278617  94.5098281  56.6028800
  27.0844807 105.1347054  57.8426843  27.6284711 105.7477012  57.3481798
  26.5031652 105.6926632  58.3593856  13.4616241  96.5360508  42.1691462
  13.7569682  95.6271186  42.1158516  12.5604277  96.5148247  41.8472465
  25.3702320 108.2567772  48.9741871  25.2453459 107.4557512  48.4652816
  26.0281411 108.7513965  48.4855841  16.9910488  94.6116504  48.1519011
  16.2697074  95.2252472  48.0126484  17.7803744  95.1474269  48.0735657
  27.4337228 106.0576792  50.6021421  26.4867564 105.9382143  50.5299748
  27.7820002 105.1699290  50.6847682  19.7936802  91.9470931  54.4259663
  20.3171204  92.1933227  55.1885972  19.5749135  92.7790966  54.0062800
  15.1904083  94.2174605  42.2930788  14.8616789  93.3371984  42.1105894
  15.5443454  94.1622274  43.1807177  24.4383662 105.8529508  46.8025773
  24.2908624 104.9246216  46.9833343  25.2637155 105.8749599  46.3182848
  18.3045906  94.5047575  42.6606265  18.6441979  95.0333496  41.9384874
  18.7518026  94.8427981  43.4364832  28.0417784 106.6758067  47.8890646
  28.9664331 106.4700928  47.7515097  27.8733087 106.4274468  48.7979987
  20.9989347  92.8884626  52.1109333  20.6586167  92.0892439  52.5130013
  20.2928353  93.1886337  51.5386167  21.6505819  89.9733938  50.5636656
  22.4731888  89.4994417  50.4415547  21.8943882  90.7524422  51.0635343
  20.2914053  93.0022197  40.8599558  21.0122416  93.3803450  40.3563275
  19.6679357  93.7211074  40.9634536  24.4345176  93.7067346  41.7957890
  24.6508790  94.5891984  41.4946719  23.9539243  93.3153559  41.0663532
  19.1744397  96.6653059  48.3728635  19.0288978  96.9793362  49.2652916
  18.6969601  97.2837959  47.8199534  21.0340780  93.6555607  48.4209525
  21.0202349  92.7596700  48.0841822  21.7513208  93.6626271  49.0547811
  22.8866911  94.0892947  50.4662652  22.6284689  95.0110018  50.4646982
  22.3551951  93.6923382  51.1563116  27.8313100 107.1943734  43.2452737
  28.0049977 106.6290157  42.4926590  28.3241991 107.9944629  43.0632227
  13.6490060  99.2058403  51.3116296  13.1043528  99.9818211  51.4436570
  14.5269409  99.5529208  51.1535418  20.4377676  92.5369987  43.6897095
  20.5593587  91.6086633  43.8887982  20.1479719  92.5508673  42.7775410
  23.3068867  90.2224898  46.8263815  23.3290563  90.2864231  45.8715794
  23.7236926  89.3829406  47.0204321  33.6852491  99.9580157  44.8643037
  34.1283637  99.2087482  44.4662160  32.8079001  99.9490294  44.4816769
  28.8188272 106.5110499  40.3449636  29.5139177 107.1317191  40.5636950
  29.1611422 105.6605850  40.6202014  14.4356081  98.3328300  54.2046453
  13.6937817  98.4810935  54.7911083  14.1148826  98.5936565  53.3413202
  30.7179695 103.9610204  41.8736966  31.2431019 104.2997477  41.1486286
  30.6302048 103.0257220  41.6900101  22.3799744 107.8744278  54.0026843
  22.6886871 107.6293425  54.8749543  23.1775226 108.0790916  53.5145713
  22.4020356 110.0282188  46.2332220  21.9625346 109.5358566  46.9265076
  23.1528473 109.4855155  45.9924295  14.8812695 106.2193728  46.2356848
  15.7070715 105.9197500  45.8555491  14.5306747 105.4501351  46.6846636
  19.8494228 105.5720197  48.3054521  19.2274238 104.9090902  48.0056749
  20.5199095 105.5981329  47.6228169  13.0821300 104.1380055  47.1945781
  12.2453208 103.7102229  47.0129783  13.0544946 104.3312498  48.1316572
  19.9218756  94.0501985  57.8987027  19.9706911  94.9264107  57.5164797
  20.4641270  93.5079378  57.3258670  30.4073601 104.5943108  57.1788164
  29.6169145 104.5767247  56.6392664  30.1706956 105.1331402  57.9337201
  30.5271477 101.4435574  54.4920893  30.5769481 101.2785582  55.4336416
  30.4185400 100.5762833  54.1018774  19.4107735 104.1224120  41.7812982
  19.5595856 104.8059584  41.1279655  20.2174179 104.1029210  42.2962438
  27.8175239  97.4266502  55.8080200  28.7185102  97.2872967  55.5164197
  27.8923213  97.5920957  56.7478377  22.1518044  94.8033357  54.6533386
  21.2821354  95.0966923  54.3815974  22.3877525  95.3873802  55.3740650
  32.0289673 103.8632516  54.7362914  31.7374482 104.2262496  55.5726375
  31.4161805 103.1499524  54.5576247  33.2285356 101.4285396  47.2565485
  34.0632247 101.8675200  47.4203045  33.3644484 100.9524049  46.4373730
  30.2776862  98.9865130  53.2042972  30.7530983  99.1792777  52.3961824
  29.3542427  99.0424316  52.9586356  17.1660368 100.1489298  42.7874051
  16.9206410  99.2451628  42.9854261  17.3356283 100.1506448  41.8453529
  24.8557078  91.0212974  52.1698806  25.3739022  91.7574001  51.8445295
  24.5012211  91.3276967  53.0045565  16.4356016  95.8817655  40.2860212
  15.7425261  95.9562010  39.6300248  16.1907768  95.1177999  40.8081729
  25.1069672  87.4413257  47.6899703  25.3871426  86.7736446  48.3160129
  25.8920279  87.6342352  47.1774367  22.9103141 106.6172250  39.2524729
  22.3377108 107.2362438  38.7995201  23.4835934 107.1671612  39.7864651
  28.9778531  95.8630891  51.4371278  29.9295953  95.9628988  51.4583502
  28.8081981  95.0709159  51.9469362  26.9992910  92.9486474  51.6230679
  26.4042842  93.2291486  50.9277168  26.7142607  93.4380375  52.3947420
  26.1300401 106.9009401  40.3833311  27.0631074 106.8354962  40.5866187
  26.0423613 107.7365667  39.9247844  28.7588417 106.2175271  37.3437259
  28.6802049 105.8835135  38.2373017  29.5798084 106.7097039  37.3428731
  31.4566608  99.0837010  50.5513578  31.4242928  98.1453011  50.7373261
  32.0667232  99.1621047  49.8179403  23.2949939  97.9533063  36.5940782
  24.2409044  97.8239271  36.6629200  22.9164184  97.2147725  37.0710210
  31.6061097  95.8748054  50.5971861  31.0900145  95.0906510  50.4101790
  32.4901045  95.5466770  50.7618380  29.2671824  89.6189069  46.5567674
  29.0696645  89.3104157  47.4411005  29.8771529  90.3450708  46.6865603
  37.2743158 100.1453017  49.6919614  38.0046547  99.8838305  50.2527318
  36.6650104  99.4081739  49.7321682  35.3558455  98.2860880  50.2894066
  34.6291619  98.1516845  49.6810557  34.9405742  98.5937708  51.0950784
  23.1788632 102.0050809  58.0541439  24.0991641 102.1829408  58.2481485
  23.1438215 101.0606855  57.9021138  21.4792856  95.8783040  36.5295667
  20.5724312  95.5816152  36.6058381  21.7568837  95.5812858  35.6629953
  12.3970797  97.1989403  46.9794713  12.0773581  96.3454711  46.6869087
  11.8504225  97.4137981  47.7352681  16.1750704  99.9151844  50.6964220
  16.3936714 100.8468952  50.7152254  16.5876478  99.5559818  51.4819024
  23.0954922  90.4219929  42.6839908  22.2855650  90.0767014  43.0595154
  23.7839339  90.1127473  43.2727520  25.0245470  89.4997976  44.3064205
  25.5776509  89.9193430  44.9654228  25.2615557  88.5733724  44.3487161
  21.0478570  95.4885050  60.0866969  20.9475297  96.4379407  60.0179060
  20.8300112  95.1603289  59.2143039  20.2491641  92.7369975  36.6707646
  21.1110805  93.0624873  36.9303463  20.4341985  91.9501471  36.1580712
  12.2659057 100.8192314  48.9487835  11.5722528 100.4046267  48.4357789
  13.0132048 100.8612851  48.3521254  28.4024277  91.6098501  43.8142869
  27.8222947  92.2683305  43.4320922  28.1360210  90.7875846  43.4030287
  26.8527844  91.0103559  46.0164189  27.3527622  91.1220093  45.2078508
  27.4963452  90.7064612  46.6564998  20.9109840  98.9182189  58.9032030
  20.4276921  99.7182549  59.1095919  20.9970779  98.9290133  57.9499474
  14.1795799 100.7510568  46.8253850  14.1566487 100.8498256  45.8735733
  14.4896436 101.5975719  47.1471016  16.8383177 102.8086723  50.9400464
  17.7926431 102.7770666  50.8730396  16.6395701 102.3477347  51.7550690
  17.4282559 101.3787839  53.5071262  18.2475448 101.8731918  53.5306099
  17.7019367 100.4619807  53.4788829  27.1849155  93.7698592  42.8699217
  26.2975011  94.0548242  42.6519412  27.6003145  93.6092355  42.0226494
  30.5363692  93.7945113  46.5853557  31.3124082  94.2841565  46.8578173
  29.8111826  94.2203167  47.0425426  32.9736250  94.5072732  47.6427497
  33.5680741  94.2668468  46.9320805  33.0462834  93.7879862  48.2701034
  26.3292369 103.5343266  36.9647237  27.0328219 103.7393269  37.5804893
  25.6055018 104.1020028  37.2296321  27.1590179  99.2853128  43.0849508
  27.1025381  99.7421679  42.2457140  27.7118522  98.5243812  42.9072350
  30.9694985  95.0742859  43.9099627  30.7131919  94.6739495  44.7407835
  30.3447853  95.7886653  43.7849766  35.2807323  97.8138933  46.4170918
  34.7206881  97.8832122  47.1902481  34.6750826  97.6379917  45.6970415
  28.2379066 103.9725796  39.0145697  29.0724670 103.5406994  38.8323172
  28.0763409 103.8007809  39.9422592  27.8924959 100.4757909  40.3802037
  27.8373762 100.3102180  39.4390481  27.2671014 101.1833942  40.5364226
  12.6817474  95.7125973  54.2063459  13.3276337  95.2024927  54.6950684
  12.4734625  96.4494655  54.7806884  25.2070866 102.7806821  59.7055600
  26.0762025 102.9547473  59.3442234  24.7277617 103.6001238  59.5831329
  21.2021084  89.9766018  39.9587355  21.1899754  90.9207858  40.1155626
  22.0944506  89.7936163  39.6646816  19.3757046 109.9003922  51.3845033
  20.2784293 109.9327532  51.7011528  19.1494416 108.9704373  51.3991369
  21.1310648 108.6534908  48.0455112  20.1806279 108.6536770  47.9319484
  21.4343134 107.9067643  47.5291146  25.0173203  86.5708794  44.2133292
  24.2505599  86.0167281  44.3589974  25.4283908  86.6430663  45.0747444
  17.0214965  92.8593590  58.3038473  17.8846426  92.5030395  58.5141798
  16.4480375  92.5207485  58.9913877  36.8663341 114.4895447  49.1100874
  37.5041751 114.3702194  48.4064214  36.7484184 115.4376291  49.1688826
  33.6753048 114.4422875  49.0462399  33.3371559 114.3263939  48.1582934
  34.5442816 114.0414040  49.0263405  34.1572831 115.5957726  55.0048604
  34.1461471 115.2010525  54.1329108  34.3193470 114.8623799  55.5982376
  31.3761327 113.2111122  38.3779339  31.6286848 112.6892643  37.6162802
  30.4385886 113.0477268  38.4806023  36.4204610 112.2146900  46.1854082
  37.2067699 111.7966324  45.8344499  36.6843314 113.1192993  46.3535731
  41.8213037 112.1522134  47.0887061  42.5538209 111.5821350  47.3224890
  41.0652393 111.7643734  47.5293566  33.4389157 114.5749375  44.2850403
  33.0747364 114.0479996  44.9963325  34.2956273 114.1847844  44.1116889
  39.3438457 105.8643708  51.5481669  39.0121782 106.7339119  51.3242884
  38.7484071 105.5479992  52.2275700  33.0794644 109.6039275  39.2811752
  33.2469046 110.4719511  39.6482223  32.8891813 109.7666557  38.3573041
  39.2367121 110.5838794  48.6275019  38.3283998 110.5154202  48.3333780
  39.1854717 111.0610739  49.4556845  33.0583865 112.0596932  40.2658419
  32.9383490 112.5053983  41.1043899  32.3636453 112.4082250  39.7071957
  33.3107987 112.0028440  56.5709917  32.5341321 112.5622360  56.5612781
  33.9498550 112.4885223  57.0924787  41.1028767 108.7855232  50.4052893
  40.4603147 109.0787766  49.7592688  40.5983696 108.6708153  51.2106090
  38.7568931 112.5318406  41.0938753  39.6686787 112.7645792  40.9186450
  38.2478578 113.1155450  40.5313831  33.3940769 111.8915640  52.1033602
  34.2401964 112.3155054  52.2468251  33.3339406 111.2349264  52.7972165
  36.5440214 109.5520008  53.7614776  36.3001146 110.3062069  53.2249051
  36.8200144 109.9305356  54.5962023  38.4978677 116.0958621  52.4392041
  38.7095572 116.7390381  51.7626422  38.4508425 115.2620937  51.9713971
  36.1004906 108.7076442  49.3428613  35.2389385 109.0057695  49.6345351
  36.1267340 108.9246840  48.4109646  31.8535361 113.3741784  42.5591984
  32.5559404 113.8262828  43.0265911  31.5215990 112.7325603  43.1871877
  30.3015723 111.9653541  56.9343194  29.6714383 112.6469822  57.1678590
  30.1951810 111.8536623  55.9896332  25.5960695 111.6325337  47.8609118
  24.8059749 111.8882866  47.3849228  26.0871942 112.4473675  47.9661158
  27.5475440 111.9969916  44.8192595  26.7506604 112.1088611  45.3376090
  27.3201033 112.3356569  43.9533485  47.7030498 115.3169325  46.9599370
  46.9494206 114.7476723  46.8043375  47.8378039 115.2831989  47.9070005
  29.5796465 106.2674307  59.2968445  29.1863411 105.7140505  59.9716089
  30.3962606 106.5784885  59.6874962  32.4964426 107.6832186  56.8888701
  33.2374140 108.2839339  56.8093164  32.7282349 106.9409824  56.3306744
  36.4421589 103.7113289  51.1652983  36.0985859 104.6014931  51.0892094
  36.8100552 103.5214947  50.3022568  36.4071872 113.7021900  39.6725418
  35.8918495 114.4726505  39.9113805  36.1349180 113.0287036  40.2958480
  33.9918983 108.5471601  44.7310656  33.1360579 108.1578451  44.5516295
  34.4045935 108.6263562  43.8710442  35.5218130 106.0817944  49.1302216
  35.0182925 106.0448079  48.3170021  35.8148736 106.9910687  49.1898873
  31.7661016 106.1656674  48.1368398  32.6314012 105.9699483  47.7774287
  31.8338524 105.9367026  49.0637755  41.3806146 116.4554255  41.6078592
  40.6035589 116.1165414  41.1633754  42.0597627 116.4606878  40.9333557
  36.1958175 111.5748992  41.4985199  35.8908311 111.8895141  42.3495342
  37.1488617 111.6530412  41.5412532  39.6197453 115.9288236  48.2645200
  38.9621127 116.6187497  48.3525328  40.4237852 116.3184668  48.6079186
  29.3723335 108.3958882  45.5084765  29.9467086 108.1734063  44.7757958
  29.9594317 108.4647576  46.2613366  38.4302912 114.2832609  46.3149141
  38.9434794 114.9162600  46.8170851  39.0804136 113.6833804  45.9492501
  29.6992922 110.4263343  39.5280650  28.8630234 110.7638029  39.8489925
  29.5597691 110.2912323  38.5907787  31.6746002 105.2700131  44.2359834
  31.0210415 104.9549148  43.6116449  31.6326476 104.6475871  44.9619657
  34.9083743 111.7582064  48.5607482  33.9906304 111.9797011  48.4029170
  35.3243886 111.8328375  47.7019189  35.6918790 113.1573480  43.6910162
  36.4390609 113.6694877  43.3817284  35.9610380 112.8357533  44.5514556
  38.1397628 110.1930596  45.6728951  37.4020384 109.6807982  46.0039194
  38.3924401 109.7530978  44.8612228  38.2409255 102.9706848  46.2670721
  38.5468132 102.1104212  45.9796636  38.9661860 103.5624468  46.0669715
  32.5130335 113.2660641  46.7746912  32.5678944 112.3134478  46.6989388
  31.7021537 113.4220080  47.2588210  30.4522695 111.8837701  44.5337291
  29.6390560 112.1831872  44.9402483  30.9481689 111.4893390  45.2511773
  36.0496906 112.3479525  53.3652184  36.4046294 112.5750999  54.2246650
  36.6969037 112.6797902  52.7429440  41.7794643 115.4697961  44.0701513
  41.6412542 115.6599557  43.1422703  41.4230862 116.2317344  44.5269565
  29.9436769 109.4556056  50.1498526  30.5836149 109.3144816  49.4521489
  29.1114300 109.1690570  49.7737128  41.8064023 117.5374488  49.0812785
  42.2400529 117.4449777  49.9295839  42.5195603 117.5131989  48.4432801
  27.0279837 112.9001569  42.3393271  26.0977425 112.8386024  42.5563233
  27.1237309 112.3777521  41.5429912  26.9465386 109.4256381  44.9271512
  27.2072203 110.3401715  44.8180673  27.7682558 108.9580824  45.0768125
  28.4190311 110.8394139  52.0970337  29.0913364 110.6311501  51.4482986
  27.5920098 110.6416225  51.6575569  42.6679572 117.5798189  51.6145670
  42.8615462 118.4843999  51.8604945  42.5680191 117.1205608  52.4484255
  34.3215883 107.4656080  54.1135998  33.6743798 108.1646029  54.0200474
  35.0916898 107.8992223  54.4812246  34.4980017 115.3036844  52.1732817
  35.4272077 115.4548004  52.0001785  34.0771047 115.3920865  51.3181464
  37.7832756 116.0525146  37.6057253  37.1661927 115.3271974  37.5090305
  37.3149244 116.8134506  37.2624327  31.4500109 113.8256701  52.3456454
  32.1599728 113.1849893  52.3043072  31.4069417 114.0769596  53.2682634
  30.1629043 110.8121919  54.1652093  29.6266400 110.3612657  54.8173689
  29.5745751 110.9467828  53.4222557  29.5731302 110.2710570  36.7278557
  28.6960768 110.1499371  36.3640803  30.0489055 109.4796649  36.4757445
  25.8968164 109.9477927  51.2505088  25.8126353 109.3403596  50.5155498
  25.0750871 110.4386945  51.2514584  36.0691878 108.4331490  46.6175283
  36.5660578 107.6801452  46.2976353  35.2978860 108.4695807  46.0518492
  43.9221635 114.1371856  48.2593574  43.9111512 115.0196571  47.8887507
  43.0539015 113.7843406  48.0648111  32.6526847 110.5748873  46.3446967
  32.2824634 110.0219913  47.0327873  33.1485939 109.9707007  45.7921967
  40.5394210 113.0320497  44.7263740  41.0054662 113.8648488  44.6524043
  40.9901711 112.5665478  45.4308999  38.5110873 105.4001084  48.7654642
  37.5973953 105.6305310  48.9336848  38.9403974 105.4839528  49.6168674
  38.2817331 113.5890976  51.2654536  37.6288782 113.8366883  50.6106988
  38.6597711 112.7755114  50.9317013  34.3304904 114.3310787  57.7520573
  33.6545541 114.2304916  58.4222948  35.1532538 114.1750000  58.2156570
  28.0492180 107.9852864  52.5900073  28.1133507 108.8467695  52.1777471
  27.9859301 107.3726865  51.8572432  27.5244453 110.0575996  56.2373108
  28.1516492 109.6753074  56.8510632  26.6672372 109.8390198  56.6028800
  24.3009996 111.8652425  42.1691462  24.5963437 110.9563104  42.1158516
  23.3998032 111.8440165  41.8472465  27.8304243 109.9408422  48.1519011
  27.1090829 110.5544390  48.0126484  28.6197499 110.4766187  48.0735657
  30.6330556 107.2762849  54.4259663  31.1564958 107.5225145  55.1885972
  30.4142890 108.1082883  54.0062800  26.0297837 109.5466523  42.2930788
  25.7010544 108.6663902  42.1105894  26.3837208 109.4914192  43.1807177
  29.1439661 109.8339493  42.6606265  29.4835733 110.3625414  41.9384874
  29.5911781 110.1719899  43.4364832  31.8383101 108.2176544  52.1109333
  31.4979922 107.4184357  52.5130013  31.1322108 108.5178254  51.5386167
  32.4899573 105.3025856  50.5636656  33.3125642 104.8286334  50.4415547
  32.7337637 106.0816340  51.0635343  31.1307808 108.3314115  40.8599558
  31.8516170 108.7095367  40.3563275  30.5073112 109.0502991  40.9634536
  35.2738931 109.0359263  41.7957890  35.4902545 109.9183901  41.4946719
  34.7932998 108.6445477  41.0663532  30.0138152 111.9944977  48.3728635
  29.8682733 112.3085280  49.2652916  29.5363356 112.6129877  47.8199534
  31.8734535 108.9847525  48.4209525  31.8596104 108.0888618  48.0841822
  32.5906963 108.9918188  49.0547811  33.7260666 109.4184865  50.4662652
  33.4678443 110.3401936  50.4646982  33.1945706 109.0215299  51.1563116
  31.2771431 107.8661905  43.6897095  31.3987342 106.9378551  43.8887982
  30.9873473 107.8800591  42.7775410  34.1462621 105.5516815  46.8263815
  34.1684318 105.6156148  45.8715794  34.5630680 104.7121324  47.0204321
  44.5246245 115.2872075  44.8643037  44.9677391 114.5379400  44.4662160
  43.6472756 115.2782211  44.4816769  30.7612510 109.3793902  57.8987027
  30.8100666 110.2556025  57.5164797  31.3035024 108.8371295  57.3258670
  41.3665231 116.7727492  54.4920893  41.4163236 116.6077499  55.4336416
  41.2579154 115.9054751  54.1018774  38.6568993 112.7558420  55.8080200
  39.5578856 112.6164885  55.5164197  38.7316968 112.9212875  56.7478377
  32.9911799 110.1325275  54.6533386  32.1215108 110.4258841  54.3815974
  33.2271279 110.7165720  55.3740650  44.0679110 116.7577313  47.2565485
  44.9026002 117.1967117  47.4203045  44.2038239 116.2815966  46.4373730
  41.1170616 114.3157048  53.2042972  41.5924738 114.5084694  52.3961824
  40.1936181 114.3716234  52.9586356  35.6950833 106.3504892  52.1698806
  36.2132776 107.0865919  51.8445295  35.3405965 106.6568885  53.0045565
  27.2749770 111.2109573  40.2860212  26.5819015 111.2853928  39.6300248
  27.0301522 110.4469917  40.8081729  35.9463427 102.7705174  47.6899703
  36.2265180 102.1028363  48.3160129  36.7314034 102.9634270  47.1774367
  39.8172285 111.1922808  51.4371278  40.7689708 111.2920906  51.4583502
  39.6475735 110.4001077  51.9469362  37.8386665 108.2778391  51.6230679
  37.2436597 108.5583404  50.9277168  37.5536361 108.7672292  52.3947420
  42.2960363 114.4128928  50.5513578  42.2636683 113.4744929  50.7373261
  42.9060987 114.4912965  49.8179403  34.1343694 113.2824981  36.5940782
  35.0802798 113.1531189  36.6629200  33.7557939 112.5439643  37.0710210
  42.4454851 111.2039971  50.5971861  41.9293900 110.4198428  50.4101790
  43.3294800 110.8758688  50.7618380  40.1065578 104.9480987  46.5567674
  39.9090399 104.6396075  47.4411005  40.7165284 105.6742626  46.6865603
  48.1136913 115.4744935  49.6919614  48.8440301 115.2130223  50.2527318
  47.5043858 114.7373657  49.7321682  46.1952210 113.6152797  50.2894066
  45.4685373 113.4808762  49.6810557  45.7799497 113.9229626  51.0950784
  32.3186611 111.2074957  36.5295667  31.4118066 110.9108070  36.6058381
  32.5962592 110.9104775  35.6629953  33.9348677 105.7511847  42.6839908
  33.1249405 105.4058932  43.0595154  34.6233094 105.4419391  43.2727520
  35.8639225 104.8289894  44.3064205  36.4170263 105.2485347  44.9654228
  36.1009311 103.9025642  44.3487161  31.8872324 110.8176967  60.0866969
  31.7869051 111.7671324  60.0179060  31.6693866 110.4895206  59.2143039
  31.0885395 108.0661892  36.6707646  31.9504559 108.3916791  36.9303463
  31.2735740 107.2793388  36.1580712  39.2418032 106.9390419  43.8142869
  38.6616701 107.5975223  43.4320922  38.9753965 106.1167764  43.4030287
  37.6921598 106.3395477  46.0164189  38.1921377 106.4512011  45.2078508
  38.3357206 106.0356529  46.6564998  38.0242910 109.0990509  42.8699217
  37.1368765 109.3840160  42.6519412  38.4396899 108.9384273  42.0226494
  41.3757446 109.1237030  46.5853557  42.1517836 109.6133483  46.8578173
  40.6505580 109.5495084  47.0425426  43.8130005 109.8364650  47.6427497
  44.4074496 109.5960385  46.9320805  43.8856588 109.1171780  48.2701034
  37.9983934 114.6145045  43.0849508  37.9419135 115.0713597  42.2457140
  38.5512276 113.8535730  42.9072350  41.8088740 110.4034777  43.9099627
  41.5525674 110.0031413  44.7407835  41.1841608 111.1178571  43.7849766
  46.1201077 113.1430850  46.4170918  45.5600635 113.2124040  47.1902481
  45.5144581 112.9671835  45.6970415  38.7318713 115.8049826  40.3802037
  38.6767517 115.6394098  39.4390481  38.1064768 116.5125859  40.5364226
  23.5211228 111.0417891  54.2063459  24.1670092 110.5316845  54.6950684
  23.3128379 111.7786573  54.7806884  32.0414839 105.3057935  39.9587355
  32.0293508 106.2499775  40.1155626  32.9338260 105.1228081  39.6646816
  35.8566958 101.9000712  44.2133292  35.0899354 101.3459199  44.3589974
  36.2677663 101.9722581  45.0747444  27.8608719 108.1885508  58.3038473
  28.7240181 107.8322313  58.5141798  27.2874130 107.8499403  58.9913877
  47.2815344 119.0405207  51.1652983  46.9379613 119.9306848  51.0892094
  47.6494306 118.8506864  50.3022568  49.0803009 118.2998766  46.2670721
  49.3861886 117.4396129  45.9796636  49.8055614 118.8916386  46.0669715
  46.7857181 118.0997092  47.6899703  47.0658935 117.4320281  48.3160129
  47.5707788 118.2926187  47.1774367  50.9459333 120.2772905  46.5567674
  50.7484154 119.9687993  47.4411005  51.5559038 121.0034543  46.6865603
  46.6960712 117.2292630  44.2133292  45.9293108 116.6751117  44.3589974
  47.1071417 117.3014499  45.0747444   4.3455481  31.0063777  33.6844677
   3.5919189  30.4371175  33.5288681   4.4803022  30.9726441  34.6315311
   0.7104093  32.4471765  33.9810791   1.5450985  32.8861569  34.1448352
   0.8463222  31.9710418  33.1619037   4.7561896  31.1639387  36.4164921
   5.4865284  30.9024675  36.9772624   4.1468841  30.4268109  36.4566989
   2.8377193  29.3047249  37.0139372   2.1110357  29.1703214  36.4055864
   2.4224480  29.6124078  37.8196090   0.4554988  25.5259101  34.3672804
   1.0499479  25.2854837  33.6566112   0.5281572  24.8066232  34.9946340
   2.7626061  28.8325302  33.1416225   2.2025619  28.9018492  33.9147787
   2.1569564  28.6566287  32.4215721   4.3482079  45.5081816  35.8346181
   4.9860489  45.3888564  35.1309521   4.2302922  46.4562660  35.8934133
   1.1571786  45.4609244  35.7707706   0.8190297  45.3450309  34.8828240
   2.0261554  45.0600409  35.7508712   1.6391569  46.6144096  41.7293911
   1.6280209  46.2196894  40.8574415   1.8012208  45.8810169  42.3227683
   2.5958160  50.9815688  27.0719061   1.9446140  51.5669769  26.6853075
   3.3902523  51.5121883  27.1314099   3.9023348  43.2333270  32.9099389
   4.6886437  42.8152693  32.5589806   4.1662052  44.1379362  33.0781037
   4.0733425  48.6706120  27.6088046   3.4379258  48.7440747  28.3208950
   3.7430832  49.2599719  26.9307125   9.3031775  43.1708503  33.8132367
  10.0356947  42.6007720  34.0470197   8.5471131  42.7830104  34.2538873
   0.9207895  45.5935745  31.0095710   0.5566102  45.0666366  31.7208631
   1.7775010  45.2034214  30.8362195   6.8257195  36.8830077  38.2726976
   6.4940520  37.7525488  38.0488191   6.2302809  36.5666361  38.9521006
   3.3188715  49.0842623  37.6722889   3.0189438  49.9867662  37.5638696
   2.9739774  48.8174807  38.5244042   6.7185859  41.6025164  35.3520326
   5.8102736  41.5340572  35.0579087   6.6673454  42.0797108  36.1802152
   8.5847505  39.8041602  37.1298200   7.9421885  40.0974135  36.4837995
   8.0802433  39.6894522  37.9351397   6.2387669  43.5504775  27.8184059
   7.1505525  43.7832162  27.6431757   5.7297316  44.1341819  27.2559138
   4.5228436  47.9729403  41.4545352   4.9311792  47.5311813  40.7099984
   3.8005698  47.3982030  41.7079545   0.8759506  42.9102010  38.8278909
   1.7220702  43.3341423  38.9713558   0.8158144  42.2535634  39.5217472
   4.8457251  48.5330594  35.2097641   4.2166113  48.6976308  34.5073709
   4.4582913  48.9472203  35.9808605   8.7246483  49.4685031  32.5642004
   8.0397521  49.8483933  32.0139038   8.8090332  50.0780358  33.2973952
   4.0258952  40.5706378  40.4860082   3.7819884  41.3248439  39.9494358
   4.3018882  40.9491726  41.3207329   5.9797414  47.1144990  39.1637348
   6.1914310  47.7576750  38.4871729   5.9327163  46.2807307  38.6959278
   3.5823643  39.7262811  36.0673920   2.7208122  40.0244065  36.3590658
   3.6086078  39.9433210  35.1354953   7.0943242  49.9916946  37.3359705
   7.9160686  49.5897133  37.0542387   7.0905645  49.8885180  38.2875821
  15.1849235  46.3355694  33.6844677  14.4312944  45.7663092  33.5288681
  15.3196777  46.3018359  34.6315311   0.5747863  51.2069097  29.3599396
   0.4393538  52.0520632  29.7884244   1.1157676  51.4088374  28.5965330
   2.2016340  51.8292663  43.4899738   1.7580194  51.0429042  43.1720643
   2.8633553  52.0171814  42.8243629   4.2997578  52.1095463  41.5181139
   4.2816053  52.9304344  41.0261409   5.2217498  51.9849538  41.7431281
   3.9240327  34.7299659  37.8898290   3.5804596  35.6201300  37.8137400
   4.2919290  34.5401316  37.0267875   3.8890610  44.7208270  26.3970725
   3.3737233  45.4912874  26.6359112   3.6167918  44.0473406  27.0203786
   1.4737721  39.5657970  31.4555963   0.6179317  39.1764821  31.2761602
   1.8864673  39.6449931  30.5955749   3.0036867  37.1004314  35.8547523
   2.5001663  37.0634449  35.0415328   3.2967474  38.0097056  35.9144180
   8.8624884  47.4740624  28.3323898   8.0854327  47.1351784  27.8879060
   9.5416365  47.4793247  27.6578863   3.6776913  42.5935362  28.2230506
   3.3727048  42.9081511  29.0740649   4.6307355  42.6716782  28.2657839
   2.1223345  48.7525585  29.8723460   1.5944706  48.0178345  29.5596697
   1.6210847  49.5300261  29.6263428   7.1016191  46.9474606  34.9890506
   6.4439865  47.6373867  35.0770635   7.9056590  47.3371037  35.3324493
   5.9121650  45.3018978  33.0394448   6.4253531  45.9348970  33.5416158
   6.5622873  44.7020174  32.6737808   3.1744024  55.2803302  25.7955119
   2.5005723  55.5834999  26.4040077   3.5609846  56.0832383  25.4460576
   2.3902480  42.7768434  35.2852788   1.4725042  42.9983381  35.1274477
   2.8062624  42.8514744  34.4264496   3.1737528  44.1759849  30.4155469
   3.9209347  44.6881247  30.1062591   3.4429118  43.8543902  31.2759862
   1.4464178  46.6718390  27.3982423   0.5375398  46.3877423  27.4954893
   1.4759262  47.0917469  26.5385730   6.6783446  50.2824980  31.1673591
   6.2245773  49.4415890  31.2238781   6.0477413  50.9186378  31.5048371
   5.6216365  41.2116966  32.3974258   4.8839122  40.6994352  32.7284501
   5.8743139  40.7717347  31.5857535   5.1216385  52.1201476  32.1023409
   5.4139359  52.6806533  31.3835774   5.6315006  52.4130037  32.8576568
   5.7227993  33.9893218  32.9916027   6.0286869  33.1290581  32.7041942
   6.4480597  34.5810838  32.7915021   1.1440266  48.2127134  24.7370502
   0.7059696  47.4962993  24.2776139   1.8850707  48.4403249  24.1755593
   3.5315644  43.3665895  40.0897491   3.8865032  43.5937368  40.9491957
   4.1787775  43.6984272  39.4674746   9.2613381  46.4884331  30.7946820
   9.1231280  46.6785927  29.8668009   8.9049600  47.2503714  31.2514871
   9.2882761  48.5560858  35.8058092   9.7219267  48.4636147  36.6541146
  10.0014341  48.5318358  35.1678108   3.0210655  52.1562952  37.3391192
   3.0747678  52.7253888  38.1068908   2.1525437  52.3264837  36.9745229
  10.1498310  48.5984559  38.3390977  10.3434200  49.5030369  38.5850252
  10.0498928  48.1391978  39.1729562   1.8034621  38.4842449  40.8381304
   1.1562536  39.1832399  40.7445781   2.5735636  38.9178593  41.2057553
   5.2113419  48.7491301  43.9131858   5.0598925  48.5201853  42.9961941
   5.2018098  49.7061903  43.9263203   1.9798755  46.3223214  38.8978124
   2.9090815  46.4734374  38.7247091   1.5589785  46.4107235  38.0426771
   1.3735239  55.4482975  28.0102198   1.5486995  54.9771018  28.8247821
   0.6868027  56.0748741  28.2383459   2.3292302  49.7255481  34.0565500
   1.9942135  49.6856251  34.9523149   1.8296248  49.0600197  33.5835910
   5.2651494  47.0711515  24.3302559   4.6480664  46.3458344  24.2335612
   4.7967982  47.8320876  23.9869633   6.9205625  51.7810424  41.9908340
   6.8618172  51.0969644  41.3238923   7.3225144  52.5229414  41.5388966
   6.9223033  49.7450008  40.2222319   6.0349811  49.4075930  40.3448718
   7.4921584  49.0133039  40.4591085   3.5510616  39.4517860  33.3420589
   4.0479315  38.6987822  33.0221660   2.7797597  39.4882176  32.7763799
  11.4040373  45.1558225  34.9838881  11.3930250  46.0382941  34.6132814
  10.5357753  44.8029776  34.7893418   2.9122870  54.3038294  39.3441721
   3.6250842  54.9385759  39.2717623   2.4212898  54.4002160  38.5281723
   4.6340397  48.2089547  30.9159013   3.6996675  48.3291009  30.7463717
   4.8117065  47.3062014  30.6519023   8.0212948  44.0506866  31.4509047
   8.4873400  44.8834858  31.3769350   8.4720448  43.5851848  32.1554305
   6.0889179  50.3950687  28.4495199   6.3649023  50.2807282  29.3589073
   5.2193678  49.9968172  28.4107372   5.9929611  36.4187453  35.4899948
   5.0792690  36.6491680  35.6582155   6.4222712  36.5025897  36.3413981
   5.7636069  44.6077345  37.9899842   5.1107519  44.8553253  37.3352295
   6.1416449  43.7941483  37.6562320   2.7243243  54.6437038  32.0928013
   2.9065638  53.8258694  32.5555765   3.5476229  54.8604730  31.6552903
   3.0585409  53.5705223  29.3543061   3.5873175  53.0597678  28.7413223
   3.3213628  53.2547754  30.2188594   1.8123642  45.3497156  44.4765879
   1.1364279  45.2491285  45.1468255   2.6351276  45.1936370  44.9401877
   0.5546425  56.6564084  38.7123495   1.1064733  56.8195705  39.4772581
   0.8952619  57.2468521  38.0403520   5.4057299  51.4825341  44.5672150
   5.9497203  52.0955299  44.0727105   4.8244144  52.0404919  45.0839163
   3.6914812  54.6046059  35.6987177   3.5665952  53.8035799  35.1898123
   4.3493903  55.0992252  35.2101147   5.7549721  52.4055079  37.3266728
   4.8080056  52.2860430  37.2545054   6.1032494  51.5177577  37.4092989
   2.7596154  52.2007795  33.5271080   2.6121116  51.2724503  33.7078650
   3.5849648  52.2227886  33.0428155   6.3630276  53.0236354  34.6135953
   7.2876823  52.8179215  34.4760404   6.1945579  52.7752755  35.5225294
   2.7557668  40.0545633  28.5203197   2.9721283  40.9370271  28.2192025
   2.2751735  39.6631846  27.7908839   1.2079403  40.4371234  37.1907959
   0.9497181  41.3588305  37.1892289   0.6764444  40.0401669  37.8808423
   6.1525592  53.5422022  29.9698044   6.3262470  52.9768444  29.2171896
   6.6454483  54.3422916  29.7877534   1.6281359  36.5703185  33.5509121
   1.6503056  36.6342518  32.5961101   2.0449418  35.7307694  33.7449627
  12.0064983  46.3058445  31.5888344  12.4496129  45.5565770  31.1907467
  11.1291494  46.2968581  31.2062076   7.1400765  52.8588786  27.0694942
   7.8351669  53.4795479  27.2882257   7.4823915  52.0084137  27.3447320
   9.0392188  50.3088492  28.5982273   9.5643512  50.6475764  27.8731593
   8.9514540  49.3735507  28.4145408   0.7012236  54.2222565  40.7272150
   1.0099363  53.9771712  41.5994849   1.4987718  54.4269204  40.2391020
   8.7286094  50.9421395  43.9033471   7.9381637  50.9245534  43.3637970
   8.4919448  51.4809689  44.6582508   8.8483969  47.7913862  41.2166200
   8.8981974  47.6263869  42.1581722   8.7397892  46.9241121  40.8264080
   6.1387731  43.7744790  42.5325506   7.0397594  43.6351254  42.2409504
   6.2135706  43.9399244  43.4723684  10.3502166  50.2110803  41.4608221
  10.0586974  50.5740784  42.2971682   9.7374297  49.4977811  41.2821553
  11.5497848  47.7763683  33.9810791  12.3844739  48.2153487  34.1448352
  11.6856977  47.3002336  33.1619037   8.5989354  45.3343418  39.9288279
   9.0743475  45.5271064  39.1207130   7.6754919  45.3902604  39.6831663
   3.1769570  37.3691261  38.8944113   3.6951514  38.1052288  38.5690602
   2.8224703  37.6755255  39.7290872   3.4282164  33.7891544  34.4145010
   3.7083918  33.1214733  35.0405436   4.2132771  33.9820639  33.9019673
   1.2315633  52.9650538  25.9770036   0.6589600  53.5840725  25.5240508
   1.8048427  53.5149899  26.5109958   7.2991023  42.2109178  38.1616585
   8.2508446  42.3107275  38.1828809   7.1294473  41.4187446  38.6714669
   5.3205402  39.2964761  38.3475986   4.7255334  39.5769774  37.6522474
   5.0355099  39.7858662  39.1192727   4.4512893  53.2487688  27.1078618
   5.3843566  53.1833249  27.3111494   4.3636106  54.0843955  26.6493151
   7.0800909  52.5653558  24.0682566   7.0014541  52.2313422  24.9618324
   7.9010576  53.0575326  24.0674038   9.7779101  45.4315297  37.2758884
   9.7455421  44.4931298  37.4618568  10.3879724  45.5099334  36.5424709
   1.6162431  44.3011350  23.3186088   2.5621536  44.1717559  23.3874506
   1.2376676  43.5626012  23.7955517   9.9273589  42.2226341  37.3217168
   9.4112638  41.4384798  37.1347096  10.8113538  41.8945058  37.4863687
   7.5884316  35.9667356  33.2812980   7.3909137  35.6582445  34.1656312
   8.1984022  36.6928995  33.4110910  15.5955650  46.4931304  36.4164921
  16.3259039  46.2316592  36.9772624  14.9862596  45.7560026  36.4566989
  13.6770948  44.6339167  37.0139372  12.9504111  44.4995132  36.4055864
  13.2618234  44.9415995  37.8196090   1.5001124  48.3529097  44.7786745
   2.4204133  48.5307696  44.9726792   1.4650707  47.4085142  44.6266445
   1.4167414  36.7698217  29.4085215   0.6068143  36.4245302  29.7840461
   2.1051831  36.4605760  29.9972826   3.3457963  35.8476263  31.0309512
   3.8989001  36.2671717  31.6899535   3.5828049  34.9212011  31.0732468
   6.7236770  37.9576788  30.5388176   6.1435439  38.6161593  30.1566228
   6.4572702  37.1354133  30.1275593   5.1740336  37.3581846  32.7409496
   5.6740114  37.4698381  31.9323815   5.8175944  37.0542899  33.3810305
   5.5061648  40.1176879  29.5944524   4.6187503  40.4026529  29.3764719
   5.9215637  39.9570642  28.7471801   8.8576184  40.1423400  33.3098863
   9.6336574  40.6319852  33.5823480   8.1324318  40.5681454  33.7670733
  11.2948743  40.8551019  34.3672804  11.8893233  40.6146755  33.6566112
  11.3675326  40.1358150  34.9946340   4.6504861  49.8821554  23.6892544
   5.3540711  50.0871556  24.3050200   3.9267510  50.4498315  23.9541628
   5.4802672  45.6331415  29.8094814   5.4237873  46.0899966  28.9702447
   6.0331014  44.8722099  29.6317657   9.2907477  41.4221147  30.6344934
   9.0344412  41.0217782  31.4653141   8.6660345  42.1364941  30.5095073
  13.6019815  44.1617220  33.1416225  13.0419373  44.2310409  33.9147787
  12.9963319  43.9858205  32.4215721   6.5591559  50.3204083  25.7391004
   7.3937163  49.8885281  25.5568479   6.3975902  50.1486096  26.6667899
   6.2137451  46.8236196  27.1047343   6.1586255  46.6580467  26.1635787
   5.5883506  47.5312229  27.2609533   3.5283358  49.1285108  46.4300906
   4.3974518  49.3025760  46.0687541   3.0490109  49.9479525  46.3076636
   3.3385696  32.9187082  30.9378599   2.5718092  32.3645568  31.0835281
   3.7496401  32.9908950  31.7992750  15.1875834  60.8373734  35.8346181
  15.8254244  60.7180481  35.1309521  15.0696677  61.7854578  35.8934133
  11.9965540  60.7901162  35.7707706  11.6584052  60.6742227  34.8828240
  12.8655308  60.3892327  35.7508712   7.8552356  62.6436638  31.7604596
   7.2917221  62.5526575  30.9920884   7.7404751  61.8236543  32.2407089
  12.4785323  61.9436014  41.7293911  12.4673964  61.5488812  40.8574415
  12.6405962  61.2102086  42.3227683   5.4016788  64.1387830  34.5988817
   6.1938080  63.7978655  34.1835116   5.6413438  64.2482805  35.5190970
  13.4351914  66.3107606  27.0719061  12.7839894  66.8961686  26.6853075
  14.2296277  66.8413801  27.1314099   7.3607542  63.3996743  27.4706196
   8.1338418  62.8525730  27.3319072   7.7132940  64.2640993  27.6820657
   9.1992584  64.7273125  40.6773095   8.9082450  65.6318756  40.5619761
   9.8349569  64.7689653  41.3917165  10.1248791  62.1049974  37.2674455
  10.7212363  61.8805996  36.5531418  10.1823763  61.3634719  37.8699903
   9.6973819  59.5589409  25.1024646   9.9499340  59.0370931  24.3408109
   8.7598378  59.3955555  25.2051329  14.7417102  58.5625188  32.9099389
  15.5280191  58.1444611  32.5589806  15.0055807  59.4671280  33.0781037
  14.9127180  63.9998038  27.6088046  14.2773013  64.0732665  28.3208950
  14.5824586  64.5891637  26.9307125  20.1425529  58.5000421  33.8132367
  20.8750701  57.9299638  34.0470197  19.3864885  58.1122021  34.2538873
   9.4170108  61.4617515  27.3049021   9.3006366  60.7862419  27.9730105
   9.5272368  60.9749889  26.4881174  11.7601649  60.9227662  31.0095710
  11.3959856  60.3958283  31.7208631  12.6168765  60.5326131  30.8362195
  17.6650950  52.2121995  38.2726976  17.3334274  53.0817406  38.0488191
  17.0696563  51.8958279  38.9521006  11.4007136  55.9517562  26.0057058
  11.5681538  56.8197799  26.3727529  11.2104305  56.1144844  25.0818348
  14.1582469  64.4134541  37.6722889  13.8583192  65.3159580  37.5638696
  13.8133529  64.1466724  38.5244042   7.6094951  60.8648338  33.7059593
   6.6845447  60.7324552  33.9137285   7.8579364  61.6442557  34.2029536
  17.5579613  56.9317081  35.3520326  16.6496490  56.8632490  35.0579087
  17.5067209  57.4089026  36.1802152  11.3796357  58.4075220  26.9903725
  11.2595982  58.8532270  27.8289205  10.6848945  58.7560537  26.4317263
   4.9703762  60.5081611  34.5403382   5.0996143  60.7616090  35.4542794
   4.2901213  61.1009319  34.2208037   9.1403249  71.1778861  30.6393856
   9.0627279  72.1286686  30.7182337   8.5364893  70.8324734  31.2968783
  11.6320479  58.3506727  43.2955223  10.8553813  58.9100647  43.2858088
  12.2711042  58.8363510  43.8170093  19.4241259  55.1333520  37.1298200
  18.7815640  55.4266053  36.4837995  18.9196188  55.0186440  37.9351397
  17.0781423  58.8796693  27.8184059  17.9899279  59.1124080  27.6431757
  16.5691070  59.4633737  27.2559138   9.8866851  61.1592180  42.8573190
  10.6281535  61.6977224  42.5808014   9.1803837  61.7858469  43.0144742
  15.3622191  63.3021321  41.4545352  15.7705547  62.8603731  40.7099984
  14.6399452  62.7273948  41.7079545  11.7153261  58.2393927  38.8278909
  12.5614456  58.6633341  38.9713558  11.6551898  57.5827552  39.5217472
  15.6851005  63.8622511  35.2097641  15.0559868  64.0268225  34.5073709
  15.2976667  64.2764121  35.9808605  19.5640237  64.7976949  32.5642004
  18.8791275  65.1775850  32.0139038  19.6484087  65.4072276  33.2973952
  14.8652706  55.8998296  40.4860082  14.6213638  56.6540356  39.9494358
  15.1412637  56.2783643  41.3207329  16.8191169  62.4436908  39.1637348
  17.0308064  63.0868668  38.4871729  16.7720917  61.6099225  38.6959278
  14.4217398  55.0554729  36.0673920  13.5601877  55.3535982  36.3590658
  14.4479833  55.2725128  35.1354953  11.2378967  63.5996919  32.4747726
  11.7017313  63.8784622  31.6852348  10.9735765  62.6980364  32.2920816
   8.1303048  63.1468401  35.4127489   8.7004405  63.5755669  34.7744974
   8.7211160  62.8650986  36.1111675  10.1747853  59.7220072  29.2837291
  10.8771897  60.1741115  29.7511217   9.8428482  59.0803891  29.9117184
   8.6228215  58.3131828  43.6588500   7.9926875  58.9948109  43.8923897
   8.5164303  58.2014910  42.7141639   3.9173187  57.9803624  34.5854424
   3.1272241  58.2361153  34.1094535   4.4084435  58.7951962  34.6906465
  17.9336997  65.3208864  37.3359705  18.7554441  64.9189051  37.0542387
  17.9299400  65.2177098  38.2875821   5.8687933  58.3448204  31.5437901
   5.0719096  58.4566898  32.0621397   5.6413525  58.6834856  30.6778792
  11.6993600  64.8692907  39.4920416  11.7638033  65.3313314  40.3278588
  10.9904524  64.2390272  39.6202726   2.2010890  58.2334115  37.0169415
   2.4518929  59.1181125  37.2826991   2.7370439  58.0538716  36.2444507
  26.0242990  61.6647612  33.6844677  25.2706698  61.0955010  33.5288681
  26.1590531  61.6310277  34.6315311  11.4141618  66.5361014  29.3599396
  11.2787293  67.3812550  29.7884244  11.9551430  66.7380292  28.5965330
   7.9008958  52.6152594  46.0213751   7.5075903  52.0618793  46.6961396
   8.7175098  52.9263173  46.4120269   4.8671015  64.0536452  29.9327321
   5.3795536  64.8479703  30.0832886   5.5193728  63.3562743  29.8660923
   6.6765900  67.1702209  32.0150074   6.8532528  68.0920173  31.8271058
   7.4722734  66.8560628  32.4444454  10.8176919  54.0310473  43.6134008
  11.5586632  54.6317626  43.5338470  11.0494841  53.2888111  43.0552050
   5.9618257  59.2166841  41.8912238   5.8471772  58.3152098  42.1919337
   5.1062774  59.4630537  41.5397054  13.0410094  67.1584581  43.4899738
  12.5973949  66.3720959  43.1720643  13.7027308  67.3463731  42.8243629
   7.7997216  68.6880382  38.0160417   8.3504641  68.5597446  37.2437411
   6.9608691  68.9875271  37.6655310  15.1391332  67.4387381  41.5181139
  15.1209808  68.2596262  41.0261409  16.0611252  67.3141456  41.7431281
  11.5964387  64.9531510  42.3604648  12.1292723  64.1919798  42.1303956
  11.0678468  64.6605162  43.1028802  14.7634082  50.0591576  37.8898290
  14.4198351  50.9493218  37.8137400  15.1313044  49.8693234  37.0267875
   2.8319932  62.3825107  30.7086892   3.6695154  62.7922115  30.4920599
   3.0098200  61.4424549  30.6787086  14.7284364  60.0500187  26.3970725
  14.2130988  60.8204792  26.6359112  14.4561673  59.3765323  27.0203786
  12.3131475  54.8949888  31.4555963  11.4573072  54.5056738  31.2761602
  12.7258427  54.9741849  30.5955749  13.8430622  52.4296231  35.8547523
  13.3395417  52.3926367  35.0415328  14.1361229  53.3388974  35.9144180
  10.0873508  52.5134961  34.8613705  10.9526505  52.3177770  34.5019594
  10.1551017  52.2845313  35.7883061  19.7018638  62.8032542  28.3323898
  18.9248081  62.4643701  27.8879060  20.3810119  62.8085165  27.6578863
  14.5170667  57.9227279  28.2230506  14.2120803  58.2373429  29.0740649
  15.4701110  58.0008699  28.2657839  12.9617099  64.0817503  29.8723460
  12.4338461  63.3470262  29.5596697  12.4604602  64.8592179  29.6263428
  17.9409945  62.2766523  34.9890506  17.2833620  62.9665785  35.0770635
  18.7450344  62.6662955  35.3324493   7.6935827  54.7437169  32.2330071
   8.2679579  54.5212350  31.5003264   8.2806809  54.8125864  32.9858673
  16.7515404  60.6310896  33.0394448  17.2647286  61.2640888  33.5416158
  17.4016628  60.0312091  32.6737808   8.0205414  56.7741630  26.2525957
   7.1842726  57.1116317  26.5735231   7.8810184  56.6390610  25.3153094
   9.9958495  51.6178418  30.9605141   9.3422907  51.3027435  30.3361756
   9.9538969  50.9954158  31.6864964  11.1069699  61.8997713  22.8758433
  10.1996761  61.6686966  23.0749582  11.6040731  61.1035332  23.0632414
  14.0137778  70.6095220  25.7955119  13.3399477  70.9126917  26.4040077
  14.4003600  71.4124301  25.4460576  13.2296235  58.1060351  35.2852788
  12.3118796  58.3275298  35.1274477  13.6456379  58.1806662  34.4264496
  14.0131283  59.5051767  30.4155469  14.7603102  60.0173164  30.1062591
  14.2822872  59.1835820  31.2759862  12.2857933  62.0010308  27.3982423
  11.3769152  61.7169341  27.4954893  12.3153017  62.4209386  26.5385730
  17.5177200  65.6116897  31.1673591  17.0639527  64.7707807  31.2238781
  16.8871167  66.2478296  31.5048371  16.4610120  56.5408883  32.3974258
  15.7232877  56.0286270  32.7284501  16.7136893  56.1009265  31.5857535
  15.9610140  67.4493394  32.1023409  16.2533114  68.0098451  31.3835774
  16.4708760  67.7421955  32.8576568  16.5621747  49.3185135  32.9916027
  16.8680624  48.4582499  32.7041942  17.2874352  49.9102756  32.7915021
   2.8546103  59.7215822  31.3797625   2.6570503  59.1285183  30.6548692
   2.2992767  59.4168032  32.0973564  10.8342827  59.6138928  33.4992218
  10.8891437  58.6612765  33.4234695  10.0234029  59.7698368  33.9833517
  11.9834021  63.5419052  24.7370502  11.5453451  62.8254910  24.2776139
  12.7244462  63.7695166  24.1755593   8.7735187  58.2315988  31.2582597
   7.9603052  58.5310159  31.6647789   9.2694181  57.8371677  31.9757079
  10.9243765  68.2273745  33.1916862  10.8819944  68.4534591  32.2625394
  11.8406464  67.9937120  33.3402663  14.3709399  58.6957813  40.0897491
  14.7258786  58.9229286  40.9491957  15.0181530  59.0276189  39.4674746
  20.1007135  61.8176249  30.7946820  19.9625034  62.0077845  29.8668009
  19.7443354  62.5795631  31.2514871   8.2649262  55.8034344  36.8743832
   8.9048641  55.6623103  36.1766795   7.4326792  55.5168857  36.4982434
  20.1276515  63.8852776  35.8058092  20.5613022  63.7928065  36.6541146
  20.8408096  63.8610276  35.1678108   9.0409565  65.1036774  32.9878825
   9.8350164  64.6087094  32.7861400   8.3301258  64.5754637  32.6246530
  13.8604410  67.4854870  37.3391192  13.9141432  68.0545806  38.1068908
  12.9919191  67.6556755  36.9745229   5.3492329  59.2479856  29.0638577
   4.4189917  59.1864311  29.2808539   5.4449801  58.7255809  28.2675219
   5.2677878  55.7734669  31.6516819   5.5284695  56.6880002  31.5425979
   6.0895050  55.3059111  31.8013432   6.7402803  57.1872426  38.8215643
   7.4125857  56.9789788  38.1728292   5.9132590  56.9894512  38.3820876
  20.9892065  63.9276476  38.3390977  21.1827955  64.8322287  38.5850252
  20.8892683  63.4683895  39.1729562  12.6428375  53.8134367  40.8381304
  11.9956290  54.5124316  40.7445781  13.4129391  54.2470511  41.2057553
  16.0507173  64.0783219  43.9131858  15.8992680  63.8493771  42.9961941
  16.0411853  65.0353820  43.9263203  12.8192510  61.6515132  38.8978124
  13.7484570  61.8026291  38.7247091  12.3983540  61.7399152  38.0426771
  11.6180841  65.6765796  36.6676662  11.4791927  65.3084581  37.5402600
  10.8295438  66.1913436  36.4960620  12.2128993  70.7774893  28.0102198
  12.3880749  70.3062936  28.8247821  11.5261781  71.4040659  28.2383459
  13.1686057  65.0547399  34.0565500  12.8335889  65.0148169  34.9523149
  12.6690002  64.3892115  33.5835910   7.1430301  60.4615029  39.5818081
   7.0050099  59.7295268  40.1829620   8.0535224  60.3723929  39.3002268
  16.1045248  62.4003433  24.3302559  15.4874419  61.6750261  24.2335612
  15.6361737  63.1612793  23.9869633   9.7712601  60.1734988  39.0701760
  10.4812220  59.5328180  39.0288379   9.7281909  60.4247883  39.9927941
  17.7599380  67.1102342  41.9908340  17.7011926  66.4261562  41.3238923
  18.1618898  67.8521332  41.5388966   8.4841535  57.1600206  40.8897400
   7.9478892  56.7090945  41.5418996   7.8958244  57.2946115  40.1467864
   6.7790079  73.9264255  34.7842058   7.0186677  74.5582780  35.4621077
   5.9359275  73.5752295  35.0707418   7.8943794  56.6188857  23.4523863
   7.0173261  56.4977658  23.0886110   8.3701547  55.8274936  23.2002752
  17.7616787  65.0741925  40.2222319  16.8743566  64.7367847  40.3448718
  18.3315338  64.3424957  40.4591085   4.2180656  56.2956214  37.9750394
   4.1338845  55.6881883  37.2400804   3.3963363  56.7865232  37.9759891
  11.2917941  69.7343378  37.1883562  11.2188112  70.5398349  37.7002867
  10.8495334  69.9335344  36.3631584  11.0807720  68.9715148  30.6986384
  10.2975242  69.5136828  30.7924608  11.7800465  69.4889127  31.0980625
  14.3904370  54.7809777  33.3420589  14.8873070  54.0279740  33.0221660
  13.6191352  54.8174094  32.7763799  22.2434128  60.4850143  34.9838881
  22.2324004  61.3674858  34.6132814  21.3751507  60.1321694  34.7893418
  13.7516624  69.6330212  39.3441721  14.4644596  70.2677677  39.2717623
  13.2606653  69.7294078  38.5281723  15.4734151  63.5381465  30.9159013
  14.5390430  63.6582927  30.7463717  15.6510820  62.6353931  30.6519023
  10.9739339  56.9227160  33.0692274  10.6037127  56.3698201  33.7573180
  11.4698432  56.3185294  32.5167274  18.8606702  59.3798784  31.4509047
  19.3267155  60.2126775  31.3769350  19.3114203  58.9143765  32.1554305
   8.8028538  67.3824655  40.1647292   9.5037997  68.0161138  40.3176686
   8.3323653  67.7239387  39.4042931  16.9282934  65.7242605  28.4495199
  17.2042777  65.6099200  29.3589073  16.0587432  65.3260090  28.4107372
  16.8323365  51.7479371  35.4899948  15.9186445  51.9783598  35.6582155
  17.2616467  51.8317815  36.3413981  16.6029824  59.9369263  37.9899842
  15.9501274  60.1845170  37.3352295  16.9810204  59.1233401  37.6562320
  13.5636998  69.9728956  32.0928013  13.7459392  69.1550612  32.5555765
  14.3869984  70.1896648  31.6552903  13.8979163  68.8997141  29.3543061
  14.4266929  68.3889596  28.7413223  14.1607383  68.5839671  30.2188594
  12.6517397  60.6789074  44.4765879  11.9758034  60.5783203  45.1468255
  13.4745031  60.5228288  44.9401877   4.3996256  66.9161010  37.0978395
   4.9849693  66.1704698  37.2306299   4.2021094  67.2264967  37.9815058
   7.2534911  69.9512258  32.1140837   6.5845286  70.4358385  31.6304877
   7.1147781  70.1981478  33.0284215  11.3940180  71.9856001  38.7123495
  11.9458488  72.1487623  39.4772581  11.7346373  72.5760439  38.0403520
   6.3704673  54.3331151  39.3145380   6.4345999  55.1945982  38.9022778
   6.3071793  53.7205153  38.5817739   5.8456945  56.4054284  42.9618414
   6.4728984  56.0231361  43.5755939   4.9884864  56.1868486  43.3274107
  16.2451054  66.8117259  44.5672150  16.7890958  67.4247217  44.0727105
  15.6637899  67.3696837  45.0839163   2.6222488  58.2130713  28.8936769
   2.9175929  57.3041391  28.8403823   1.7210524  58.1918452  28.5717771
  14.5308567  69.9337977  35.6987177  14.4059706  69.1327717  35.1898123
  15.1887658  70.4284170  35.2101147   6.1516735  56.2886709  34.8764318
   5.4303321  56.9022677  34.7371791   6.9409991  56.8244474  34.7980964
  16.5943475  67.7346997  37.3266728  15.6473811  67.6152348  37.2545054
  16.9426248  66.8469495  37.4092989   8.9543049  53.6241136  41.1504969
   9.4777450  53.8703432  41.9131279   8.7355382  54.4561171  40.7308107
   4.3510330  55.8944810  29.0176094   4.0223036  55.0142189  28.8351200
   4.7049700  55.8392479  29.9052483  13.5989909  67.5299713  33.5271080
  13.4514871  66.6016420  33.7078650  14.4243402  67.5519804  33.0428155
   7.4652153  56.1817780  29.3851572   7.8048225  56.7103701  28.6630180
   7.9124273  56.5198186  30.1610138  17.2024030  68.3528272  34.6135953
  18.1270578  68.1471133  34.4760404  17.0339334  68.1044673  35.5225294
  10.1595594  54.5654831  38.8354640   9.8192414  53.7662644  39.2375320
   9.4534600  54.8656542  38.2631473  10.8112065  51.6504143  37.2881963
  11.6338135  51.1764622  37.1660853  11.0550129  52.4294627  37.7880649
   9.4520300  54.6792402  27.5844865  10.1728662  55.0573655  27.0808582
   8.8285604  55.3981279  27.6879843  13.5951423  55.3837551  28.5203197
  13.8115037  56.2662189  28.2192025  13.1145490  54.9923764  27.7908839
   8.3350644  58.3423264  35.0973942   8.1895225  58.6563567  35.9898223
   7.8575848  58.9608164  34.5444840  10.1947027  55.3325812  35.1454831
  10.1808596  54.4366905  34.8087129  10.9119455  55.3396476  35.7793117
  12.0473158  55.7663152  37.1907959  11.7890936  56.6880223  37.1892289
  11.5158198  55.3693587  37.8808423  16.9919347  68.8713939  29.9698044
  17.1656224  68.3060362  29.2171896  17.4848238  69.6714834  29.7877534
   2.8096306  60.8828608  38.0361603   2.2649774  61.6588416  38.1681877
   3.6875656  61.2299413  37.8780724   9.5983923  54.2140192  30.4142401
   9.7199834  53.2856838  30.6133289   9.3085965  54.2278878  29.5020717
  12.4675113  51.8995103  33.5509121  12.4896810  51.9634436  32.5961101
  12.8843172  51.0599611  33.7449627  22.8458738  61.6350362  31.5888344
  23.2889884  60.8857687  31.1907467  21.9685248  61.6260499  31.2062076
  17.9794519  68.1880704  27.0694942  18.6745424  68.8087396  27.2882257
  18.3217669  67.3376055  27.3447320   3.5962328  60.0098505  40.9291760
   2.8544064  60.1581140  41.5156390   3.2755072  60.2706770  40.0658509
  19.8785942  65.6380409  28.5982273  20.4037266  65.9767682  27.8731593
  19.7908295  64.7027425  28.4145408  11.5405991  69.5514483  40.7272150
  11.8493117  69.3063630  41.5994849  12.3381473  69.7561121  40.2391020
  11.5626603  71.7052392  32.9577526  11.1231593  71.2128771  33.6510383
  12.3134720  71.1625360  32.7169601   4.0418942  67.8963933  32.9602154
   4.8676962  67.5967705  32.5800798   3.6912994  67.1271556  33.4091943
   9.0100475  67.2490402  35.0299828   8.3880484  66.5861107  34.7302056
   9.6805342  67.2751533  34.3473476   2.2427547  65.8150260  33.9191088
   1.4059455  65.3872434  33.7375089   2.2151192  66.0082703  34.8561879
   9.0825003  55.7272190  44.6232334   9.1313158  56.6034312  44.2410104
   9.6247517  55.1849583  44.0503977  19.5679848  66.2713313  43.9033471
  18.7775392  66.2537452  43.3637970  19.3313203  66.8101607  44.6582508
  19.6877723  63.1205779  41.2166200  19.7375728  62.9555787  42.1581722
  19.5791647  62.2533038  40.8264080   8.5713982  65.7994325  28.5058288
   8.7202102  66.4829789  27.8524961   9.3780425  65.7799415  29.0207744
  16.9781486  59.1036707  42.5325506  17.8791348  58.9643172  42.2409504
  17.0529460  59.2691162  43.4723684  11.3124291  56.4803562  41.3778693
  10.4427600  56.7737128  41.1061281  11.5483771  57.0644007  42.0985956
  21.1895920  65.5402721  41.4608221  20.8980728  65.9032701  42.2971682
  20.5768051  64.8269729  41.2821553  22.3891602  63.1055601  33.9810791
  23.2238494  63.5445405  34.1448352  22.5250731  62.6294254  33.1619037
  19.4383108  60.6635335  39.9288279  19.9137230  60.8562982  39.1207130
  18.5148674  60.7194521  39.6831663   6.3266615  61.8259503  29.5119357
   6.0812657  60.9221833  29.7099567   6.4962529  61.8276653  28.5698835
  14.0163325  52.6983179  38.8944113  14.5345269  53.4344206  38.5690602
  13.6618458  53.0047172  39.7290872   5.5962262  57.5587860  27.0105519
   4.9031507  57.6332215  26.3545555   5.3514014  56.7948204  27.5327036
  14.2675919  49.1183461  34.4145010  14.5477673  48.4506651  35.0405436
  15.0526526  49.3112557  33.9019673  12.0709387  68.2942455  25.9770036
  11.4983355  68.9132642  25.5240508  12.6442181  68.8441817  26.5109958
  18.1384777  57.5401095  38.1616585  19.0902200  57.6399193  38.1828809
  17.9688228  56.7479364  38.6714669  16.1599157  54.6256679  38.3475986
  15.5649089  54.9061691  37.6522474  15.8748854  55.1150580  39.1192727
  15.2906647  68.5779605  27.1078618  16.2237320  68.5125167  27.3111494
  15.2029860  69.4135872  26.6493151  17.9194664  67.8945476  24.0682566
  17.8408295  67.5605339  24.9618324  18.7404331  68.3867244  24.0674038
  20.6172855  60.7607215  37.2758884  20.5849175  59.8223216  37.4618568
  21.2273479  60.8391252  36.5424709  12.4556186  59.6303268  23.3186088
  13.4015291  59.5009476  23.3874506  12.0770431  58.8917930  23.7955517
  20.7667344  57.5518259  37.3217168  20.2506392  56.7676715  37.1347096
  21.6507292  57.2236975  37.4863687  18.4278071  51.2959274  33.2812980
  18.2302892  50.9874362  34.1656312  19.0377776  52.0220913  33.4110910
  26.4349405  61.8223222  36.4164921  27.1652793  61.5608510  36.9772624
  25.8256350  61.0851944  36.4566989  24.5164702  59.9631085  37.0139372
  23.7897866  59.8287049  36.4055864  24.1011989  60.2707913  37.8196090
  12.3394879  63.6821014  44.7786745  13.2597888  63.8599613  44.9726792
  12.3044462  62.7377060  44.6266445  10.6399103  57.5553244  23.2540974
   9.7330559  57.2586357  23.3303687  10.9175084  57.2583063  22.3875260
   1.5577044  58.8759608  33.7040020   1.2379828  58.0224916  33.4114394
   1.0110472  59.0908186  34.4597987   5.3356951  61.5922049  37.4209527
   5.5542961  62.5239157  37.4397560   5.7482725  61.2330023  38.2064330
  12.2561169  52.0990134  29.4085215  11.4461897  51.7537219  29.7840461
  12.9445586  51.7897678  29.9972826  14.1851717  51.1768181  31.0309512
  14.7382756  51.5963634  31.6899535  14.4221804  50.2503929  31.0732468
  10.2084816  57.1655255  46.8112275  10.1081543  58.1149612  46.7424367
   9.9906358  56.8373494  45.9388346   9.4097888  54.4140180  23.3952953
  10.2717052  54.7395078  23.6548770   9.5948232  53.6271676  22.8826019
   1.4265304  62.4962519  35.6733142   0.7328775  62.0816472  35.1603096
   2.1738295  62.5383056  35.0766560  17.5630524  53.2868706  30.5388176
  16.9829193  53.9453510  30.1566228  17.2966457  52.4646051  30.1275593
  16.0134091  52.6873764  32.7409496  16.5133869  52.7990298  31.9323815
  16.6569699  52.3834817  33.3810305  10.0716086  60.5952393  45.6277337
   9.5883168  61.3952754  45.8341226  10.1577025  60.6060338  44.6744781
   3.3402046  62.4280773  33.5499156   3.3172734  62.5268460  32.5981040
   3.6502683  63.2745924  33.8716323   5.9989424  64.4856928  37.6645771
   6.9532677  64.4540871  37.5975702   5.8001948  64.0247552  38.4795997
   6.5888806  63.0558044  40.2316569   7.4081695  63.5502123  40.2551406
   6.8625614  62.1390012  40.2034136  16.3455402  55.4468797  29.5944524
  15.4581257  55.7318447  29.3764719  16.7609391  55.2862560  28.7471801
  19.6969938  55.4715318  33.3098863  20.4730329  55.9611770  33.5823480
  18.9718073  55.8973372  33.7670733  22.1342497  56.1842937  34.3672804
  22.7286988  55.9438673  33.6566112  22.2069081  55.4650067  34.9946340
   4.3539653  70.0276548  34.6815969   4.2194121  69.2676949  34.1153967
   3.9371715  70.7517448  34.2144758  15.4898616  65.2113471  23.6892544
  16.1934466  65.4163474  24.3050200  14.7661264  65.7790233  23.9541628
  16.3196426  60.9623332  29.8094814  16.2631627  61.4191884  28.9702447
  16.8724768  60.2014017  29.6317657  20.1301232  56.7513064  30.6344934
  19.8738166  56.3509700  31.4653141  19.5054100  57.4656858  30.5095073
  24.4413570  59.4909138  33.1416225  23.8813128  59.5602327  33.9147787
  23.8357073  59.3150122  32.4215721   7.5108779  70.9245865  34.8934411
   7.3941163  71.8691297  34.7913102   6.6901225  70.6219426  35.2820211
  17.3985313  65.6496000  25.7391004  18.2330917  65.2177199  25.5568479
  17.2369656  65.4778014  26.6667899  17.0531205  62.1528114  27.1047343
  16.9980009  61.9872385  26.1635787  16.4277261  62.8604147  27.2609533
   1.8423720  57.3896178  40.9308766   2.4882584  56.8795132  41.4195991
   1.6340871  58.1264860  41.5052191  14.3677112  64.4577026  46.4300906
  15.2368272  64.6317678  46.0687541  13.8883864  65.2771442  46.3076636
  10.3627331  51.6536223  26.6832662  10.3506001  52.5978063  26.8400933
  11.2550753  51.4706368  26.3892123   8.5363293  71.5774127  38.1090340
   9.4390539  71.6097737  38.4256835   8.3100663  70.6474578  38.1236676
  10.2916895  70.3305113  34.7700418   9.3412526  70.3306975  34.6564791
  10.5949381  69.5837848  34.2536453  14.1779450  48.2478999  30.9378599
  13.4111846  47.6937486  31.0835281  14.5890155  48.3200868  31.7992750
   6.1821211  54.5363795  45.0283780   7.0452673  54.1800600  45.2387104
   5.6086622  54.1977690  45.7159184  26.0269588  76.1665652  35.8346181
  26.6647998  76.0472399  35.1309521  25.9090431  77.1146495  35.8934133
  22.8359295  76.1193080  35.7707706  22.4977806  76.0034144  34.8828240
  23.7049063  75.7184245  35.7508712  18.6946110  77.9728556  31.7604596
  18.1310975  77.8818493  30.9920884  18.5798505  77.1528461  32.2407089
  23.3179078  77.2727931  41.7293911  23.3067718  76.8780730  40.8574415
  23.4799717  76.5394004  42.3227683  16.2410542  79.4679748  34.5988817
  17.0331834  79.1270572  34.1835116  16.4807192  79.5774723  35.5190970
  24.2745669  81.6399524  27.0719061  23.6233649  82.2253604  26.6853075
  25.0690032  82.1705719  27.1314099  18.2001296  78.7288661  27.4706196
  18.9732172  78.1817648  27.3319072  18.5526695  79.5932910  27.6820657
  20.0386339  80.0565043  40.6773095  19.7476205  80.9610674  40.5619761
  20.6743323  80.0981571  41.3917165  20.9642545  77.4341892  37.2674455
  21.5606118  77.2097914  36.5531418  21.0217517  76.6926637  37.8699903
  20.5367574  74.8881327  25.1024646  20.7893095  74.3662848  24.3408109
  19.5992133  74.7247472  25.2051329  25.5810857  73.8917105  32.9099389
  26.3673946  73.4736529  32.5589806  25.8449561  74.7963198  33.0781037
  25.7520934  79.3289956  27.6088046  25.1166767  79.4024582  28.3208950
  25.4218340  79.9183555  26.9307125  30.9819284  73.8292339  33.8132367
  31.7144456  73.2591555  34.0470197  30.2258640  73.4413939  34.2538873
  20.2563863  76.7909433  27.3049021  20.1400121  76.1154336  27.9730105
  20.3666123  76.3041807  26.4881174  22.5995404  76.2519580  31.0095710
  22.2353611  75.7250201  31.7208631  23.4562519  75.8618049  30.8362195
  28.5044704  67.5413913  38.2726976  28.1728029  68.4109324  38.0488191
  27.9090318  67.2250197  38.9521006  22.2400891  71.2809480  26.0057058
  22.4075293  72.1489716  26.3727529  22.0498060  71.4436761  25.0818348
  24.9976224  79.7426459  37.6722889  24.6976947  80.6451497  37.5638696
  24.6527283  79.4758642  38.5244042  18.4488705  76.1940256  33.7059593
  17.5239202  76.0616470  33.9137285  18.6973118  76.9734475  34.2029536
  28.3973368  72.2608999  35.3520326  27.4890245  72.1924407  35.0579087
  28.3460963  72.7380944  36.1802152  22.2190111  73.7367137  26.9903725
  22.0989737  74.1824188  27.8289205  21.5242700  74.0852455  26.4317263
  15.8097516  75.8373529  34.5403382  15.9389897  76.0908008  35.4542794
  15.1294968  76.4301237  34.2208037  19.9797004  86.5070779  30.6393856
  19.9021033  87.4578604  30.7182337  19.3758647  86.1616652  31.2968783
  22.4714233  73.6798644  43.2955223  21.6947567  74.2392565  43.2858088
  23.1104796  74.1655427  43.8170093  30.2635014  70.4625437  37.1298200
  29.6209394  70.7557970  36.4837995  29.7589942  70.3478358  37.9351397
  27.9175178  74.2088610  27.8184059  28.8293034  74.4415997  27.6431757
  27.4084825  74.7925655  27.2559138  20.7260606  76.4884098  42.8573190
  21.4675290  77.0269142  42.5808014  20.0197591  77.1150387  43.0144742
  26.2015945  78.6313238  41.4545352  26.6099301  78.1895649  40.7099984
  25.4793207  78.0565866  41.7079545  22.5547015  73.5685845  38.8278909
  23.4008210  73.9925259  38.9713558  22.4945653  72.9119469  39.5217472
  26.5244760  79.1914429  35.2097641  25.8953622  79.3560143  34.5073709
  26.1370422  79.6056038  35.9808605  30.4033992  80.1268867  32.5642004
  29.7185030  80.5067768  32.0139038  30.4877841  80.7364193  33.2973952
  25.7046461  71.2290213  40.4860082  25.4607392  71.9832274  39.9494358
  25.9806391  71.6075561  41.3207329  27.6584923  77.7728826  39.1637348
  27.8701819  78.4160586  38.4871729  27.6114672  76.9391142  38.6959278
  25.2611152  70.3846646  36.0673920  24.3995631  70.6827900  36.3590658
  25.2873587  70.6017045  35.1354953  22.0772722  78.9288837  32.4747726
  22.5411067  79.2076540  31.6852348  21.8129520  78.0272282  32.2920816
  18.9696803  78.4760319  35.4127489  19.5398160  78.9047587  34.7744974
  19.5604915  78.1942903  36.1111675  21.0141608  75.0511989  29.2837291
  21.7165651  75.5033033  29.7511217  20.6822236  74.4095808  29.9117184
  19.4621969  73.6423746  43.6588500  18.8320630  74.3240027  43.8923897
  19.3558057  73.5306828  42.7141639  14.7566942  73.3095542  34.5854424
  13.9665996  73.5653071  34.1094535  15.2478189  74.1243880  34.6906465
  28.7730751  80.6500781  37.3359705  29.5948195  80.2480968  37.0542387
  28.7693154  80.5469015  38.2875821  16.7081687  73.6740121  31.5437901
  15.9112850  73.7858816  32.0621397  16.4807279  74.0126773  30.6778792
  22.5387355  80.1984824  39.4920416  22.6031787  80.6605232  40.3278588
  21.8298279  79.5682189  39.6202726  13.0404645  73.5626032  37.0169415
  13.2912683  74.4473042  37.2826991  13.5764193  73.3830634  36.2444507
  36.8636744  76.9939530  33.6844677  36.1100453  76.4246928  33.5288681
  36.9984286  76.9602194  34.6315311  22.2535372  81.8652932  29.3599396
  22.1181047  82.7104468  29.7884244  22.7945185  82.0672210  28.5965330
  18.7402712  67.9444512  46.0213751  18.3469658  67.3910710  46.6961396
  19.5568852  68.2555090  46.4120269  15.7064770  79.3828370  29.9327321
  16.2189290  80.1771620  30.0832886  16.3587483  78.6854660  29.8660923
  17.5159655  82.4994126  32.0150074  17.6926283  83.4212091  31.8271058
  18.3116488  82.1852546  32.4444454  21.6570673  69.3602391  43.6134008
  22.3980386  69.9609544  43.5338470  21.8888596  68.6180029  43.0552050
  16.8012011  74.5458758  41.8912238  16.6865526  73.6444015  42.1919337
  15.9456529  74.7922455  41.5397054  23.8803849  82.4876498  43.4899738
  23.4367703  81.7012877  43.1720643  24.5421062  82.6755649  42.8243629
  18.6390970  84.0172300  38.0160417  19.1898395  83.8889363  37.2437411
  17.8002446  84.3167189  37.6655310  25.9785087  82.7679298  41.5181139
  25.9603562  83.5888179  41.0261409  26.9005007  82.6433374  41.7431281
  22.4358141  80.2823428  42.3604648  22.9686478  79.5211716  42.1303956
  21.9072222  79.9897080  43.1028802  25.6027836  65.3883494  37.8898290
  25.2592105  66.2785136  37.8137400  25.9706799  65.1985152  37.0267875
  13.6713687  77.7117024  30.7086892  14.5088909  78.1214033  30.4920599
  13.8491954  76.7716466  30.6787086  25.5678119  75.3792105  26.3970725
  25.0524742  76.1496710  26.6359112  25.2955427  74.7057241  27.0203786
  23.1525230  70.2241806  31.4555963  22.2966826  69.8348656  31.2761602
  23.5652182  70.3033767  30.5955749  24.6824376  67.7588149  35.8547523
  24.1789172  67.7218284  35.0415328  24.9754983  68.6680892  35.9144180
  20.9267262  67.8426879  34.8613705  21.7920259  67.6469687  34.5019594
  20.9944771  67.6137231  35.7883061  30.5412393  78.1324460  28.3323898
  29.7641836  77.7935619  27.8879060  31.2203874  78.1377083  27.6578863
  25.3564422  73.2519197  28.2230506  25.0514557  73.5665346  29.0740649
  26.3094864  73.3300617  28.2657839  23.8010854  79.4109420  29.8723460
  23.2732215  78.6762180  29.5596697  23.2998356  80.1884097  29.6263428
  28.7803700  77.6058441  34.9890506  28.1227374  78.2957702  35.0770635
  29.5844099  77.9954873  35.3324493  18.5329581  70.0729087  32.2330071
  19.1073333  69.8504268  31.5003264  19.1200564  70.1417781  32.9858673
  27.5909159  75.9602814  33.0394448  28.1041040  76.5932805  33.5416158
  28.2410382  75.3604009  32.6737808  18.8599168  72.1033548  26.2525957
  18.0236481  72.4408234  26.5735231  18.7203938  71.9682527  25.3153094
  20.8352249  66.9470336  30.9605141  20.1816661  66.6319353  30.3361756
  20.7932723  66.3246076  31.6864964  21.9463454  77.2289631  22.8758433
  21.0390516  76.9978884  23.0749582  22.4434486  76.4327250  23.0632414
  24.8531533  85.9387138  25.7955119  24.1793232  86.2418835  26.4040077
  25.2397355  86.7416218  25.4460576  24.0689989  73.4352269  35.2852788
  23.1512551  73.6567216  35.1274477  24.4850133  73.5098580  34.4264496
  24.8525037  74.8343685  30.4155469  25.5996856  75.3465082  30.1062591
  25.1216627  74.5127738  31.2759862  23.1251687  77.3302226  27.3982423
  22.2162907  77.0461258  27.4954893  23.1546771  77.7501304  26.5385730
  28.3570955  80.9408815  31.1673591  27.9033282  80.0999725  31.2238781
  27.7264921  81.5770213  31.5048371  27.3003874  71.8700801  32.3974258
  26.5626631  71.3578187  32.7284501  27.5530648  71.4301183  31.5857535
  26.8003894  82.7785312  32.1023409  27.0926868  83.3390369  31.3835774
  27.3102515  83.0713873  32.8576568  27.4015502  64.6477053  32.9916027
  27.7074378  63.7874416  32.7041942  28.1268106  65.2394673  32.7915021
  13.6939858  75.0507740  31.3797625  13.4964258  74.4577100  30.6548692
  13.1386522  74.7459950  32.0973564  21.6736581  74.9430846  33.4992218
  21.7285191  73.9904683  33.4234695  20.8627783  75.0990285  33.9833517
  22.8227775  78.8710969  24.7370502  22.3847205  78.1546828  24.2776139
  23.5638216  79.0987084  24.1755593  19.6128941  73.5607906  31.2582597
  18.7996807  73.8602076  31.6647789  20.1087936  73.1663595  31.9757079
  21.7637519  83.5565663  33.1916862  21.7213698  83.7826509  32.2625394
  22.6800218  83.3229037  33.3402663  25.2103153  74.0249730  40.0897491
  25.5652541  74.2521203  40.9491957  25.8575284  74.3568107  39.4674746
  30.9400890  77.1468166  30.7946820  30.8018789  77.3369762  29.8668009
  30.5837109  77.9087549  31.2514871  19.1043016  71.1326261  36.8743832
  19.7442395  70.9915020  36.1766795  18.2720547  70.8460775  36.4982434
  30.9670270  79.2144693  35.8058092  31.4006776  79.1219982  36.6541146
  31.6801850  79.1902194  35.1678108  19.8803320  80.4328692  32.9878825
  20.6743918  79.9379012  32.7861400  19.1695012  79.9046555  32.6246530
  24.6998164  82.8146787  37.3391192  24.7535187  83.3837724  38.1068908
  23.8312946  82.9848672  36.9745229  16.1886083  74.5771774  29.0638577
  15.2583672  74.5156229  29.2808539  16.2843555  74.0547726  28.2675219
  16.1071633  71.1026586  31.6516819  16.3678450  72.0171920  31.5425979
  16.9288805  70.6351029  31.8013432  17.5796558  72.5164344  38.8215643
  18.2519611  72.3081706  38.1728292  16.7526344  72.3186430  38.3820876
  31.8285819  79.2568394  38.3390977  32.0221709  80.1614204  38.5850252
  31.7286437  78.7975813  39.1729562  23.4822130  69.1426284  40.8381304
  22.8350045  69.8416234  40.7445781  24.2523145  69.5762428  41.2057553
  26.8900928  79.4075137  43.9131858  26.7386434  79.1785688  42.9961941
  26.8805607  80.3645738  43.9263203  23.6586264  76.9807049  38.8978124
  24.5878324  77.1318209  38.7247091  23.2377294  77.0691070  38.0426771
  22.4574596  81.0057714  36.6676662  22.3185682  80.6376498  37.5402600
  21.6689192  81.5205353  36.4960620  23.0522748  86.1066810  28.0102198
  23.2274504  85.6354853  28.8247821  22.3655536  86.7332576  28.2383459
  24.0079811  80.3839316  34.0565500  23.6729644  80.3440086  34.9523149
  23.5083757  79.7184032  33.5835910  17.9824055  75.7906947  39.5818081
  17.8443853  75.0587185  40.1829620  18.8928979  75.7015847  39.3002268
  26.9439003  77.7295351  24.3302559  26.3268173  77.0042179  24.2335612
  26.4755491  78.4904711  23.9869633  20.6106356  75.5026906  39.0701760
  21.3205974  74.8620098  39.0288379  20.5675664  75.7539801  39.9927941
  28.5993134  82.4394259  41.9908340  28.5405681  81.7553479  41.3238923
  29.0012653  83.1813249  41.5388966  19.3235290  72.4892124  40.8897400
  18.7872647  72.0382862  41.5418996  18.7351998  72.6238033  40.1467864
  17.6183833  89.2556173  34.7842058  17.8580431  89.8874697  35.4621077
  16.7753030  88.9044213  35.0707418  18.7337549  71.9480775  23.4523863
  17.8567015  71.8269576  23.0886110  19.2095302  71.1566853  23.2002752
  28.6010542  80.4033843  40.2222319  27.7137320  80.0659765  40.3448718
  29.1709093  79.6716874  40.4591085  10.2539689  76.7357935  33.5465371
  10.9410729  76.4219665  32.9586386  10.0987818  77.6399300  33.2732622
  15.0574411  71.6248131  37.9750394  14.9732600  71.0173801  37.2400804
  14.2357117  72.1157150  37.9759891  22.1311695  85.0635295  37.1883562
  22.0581867  85.8690267  37.7002867  21.6889088  85.2627261  36.3631584
  21.9201475  84.3007065  30.6986384  21.1368997  84.8428746  30.7924608
  22.6194220  84.8181045  31.0980625  25.2298125  70.1101695  33.3420589
  25.7266824  69.3571657  33.0221660  24.4585106  70.1466012  32.7763799
  33.0827882  75.8142060  34.9838881  33.0717758  76.6966776  34.6132814
  32.2145262  75.4613611  34.7893418  24.5910379  84.9622130  39.3441721
  25.3038351  85.5969594  39.2717623  24.1000407  85.0585995  38.5281723
  26.3127906  78.8673382  30.9159013  25.3784184  78.9874845  30.7463717
  26.4904574  77.9645849  30.6519023  21.8133094  72.2519078  33.0692274
  21.4430881  71.6990118  33.7573180  22.3092186  71.6477211  32.5167274
  29.7000457  74.7090701  31.4509047  30.1660909  75.5418693  31.3769350
  30.1507957  74.2435683  32.1554305  19.6422292  82.7116573  40.1647292
  20.3431752  83.3453056  40.3176686  19.1717407  83.0531305  39.4042931
  27.7676688  81.0534523  28.4495199  28.0436532  80.9391117  29.3589073
  26.8981187  80.6552008  28.4107372  27.6717120  67.0771288  35.4899948
  26.7580199  67.3075515  35.6582155  28.1010221  67.1609733  36.3413981
  27.4423578  75.2661180  37.9899842  26.7895028  75.5137088  37.3352295
  27.8203958  74.4525319  37.6562320  24.4030752  85.3020874  32.0928013
  24.5853147  84.4842530  32.5555765  25.2263738  85.5188566  31.6552903
  24.7372918  84.2289059  29.3543061  25.2660684  83.7181513  28.7413223
  25.0001137  83.9131589  30.2188594  23.4911151  76.0080991  44.4765879
  22.8151788  75.9075121  45.1468255  24.3138785  75.8520205  44.9401877
  15.2390010  82.2452928  37.0978395  15.8243447  81.4996616  37.2306299
  15.0414849  82.5556885  37.9815058  18.0928665  85.2804175  32.1140837
  17.4239041  85.7650303  31.6304877  17.9541535  85.5273396  33.0284215
   9.8307665  74.8158528  35.8182838   9.8691764  74.2822119  36.6119956
   9.3247958  74.2893734  35.1993815  22.2333934  87.3147919  38.7123495
  22.7852242  87.4779540  39.4772581  22.5740127  87.9052357  38.0403520
  17.2098427  69.6623069  39.3145380  17.2739754  70.5237900  38.9022778
  17.1465547  69.0497070  38.5817739  16.6850700  71.7346201  42.9618414
  17.3122739  71.3523279  43.5755939  15.8278619  71.5160403  43.3274107
  27.0844808  82.1409176  44.5672150  27.6284712  82.7539135  44.0727105
  26.5031653  82.6988755  45.0839163  13.4616243  73.5422630  28.8936769
  13.7569684  72.6333309  28.8403823  12.5604278  73.5210370  28.5717771
  25.3702321  85.2629894  35.6987177  25.2453461  84.4619634  35.1898123
  26.0281412  85.7576088  35.2101147  16.9910490  71.6178627  34.8764318
  16.2697075  72.2314595  34.7371791  17.7803745  72.1536392  34.7980964
  27.4337230  83.0638915  37.3266728  26.4867565  82.9444266  37.2545054
  27.7820003  82.1761413  37.4092989  19.7936803  68.9533053  41.1504969
  20.3171205  69.1995350  41.9131279  19.5749136  69.7853088  40.7308107
  15.1904084  71.2236728  29.0176094  14.8616790  70.3434107  28.8351200
  15.5443455  71.1684397  29.9052483  24.4383663  82.8591631  33.5271080
  24.2908625  81.9308338  33.7078650  25.2637156  82.8811721  33.0428155
  18.3045907  71.5109698  29.3851572  18.6441980  72.0395619  28.6630180
  18.7518028  71.8490104  30.1610138  28.0417785  83.6820189  34.6135953
  28.9664332  83.4763051  34.4760404  27.8733088  83.4336591  35.5225294
  20.9989348  69.8946749  38.8354640  20.6586168  69.0954562  39.2375320
  20.2928354  70.1948459  38.2631473  21.6505820  66.9796061  37.2881963
  22.4731889  66.5056539  37.1660853  21.8943883  67.7586545  37.7880649
  20.2914054  70.0084319  27.5844865  21.0122417  70.3865572  27.0808582
  19.6679359  70.7273196  27.6879843  24.4345177  70.7129468  28.5203197
  24.6508792  71.5954106  28.2192025  23.9539244  70.3215682  27.7908839
  19.1744399  73.6715182  35.0973942  19.0288979  73.9855485  35.9898223
  18.6969602  74.2900082  34.5444840  21.0340782  70.6617730  35.1454831
  21.0202350  69.7658823  34.8087129  21.7513210  70.6688393  35.7793117
  22.8866912  71.0955070  37.1907959  22.6284690  72.0172140  37.1892289
  22.3551953  70.6985504  37.8808423  27.8313101  84.2005857  29.9698044
  28.0049979  83.6352279  29.2171896  28.3241992  85.0006752  29.7877534
  13.6490061  76.2120526  38.0361603  13.1043529  76.9880334  38.1681877
  14.5269411  76.5591330  37.8780724  20.4377677  69.5432110  30.4142401
  20.5593589  68.6148756  30.6133289  20.1479720  69.5570796  29.5020717
  23.3068868  67.2287020  33.5509121  23.3290565  67.2926353  32.5961101
  23.7236927  66.3891529  33.7449627  33.6852492  76.9642280  31.5888344
  34.1283638  76.2149605  31.1907467  32.8079002  76.9552416  31.2062076
  28.8188274  83.5172621  27.0694942  29.5139178  84.1379314  27.2882257
  29.1611424  82.6667973  27.3447320  14.4356083  75.3390422  40.9291760
  13.6937819  75.4873058  41.5156390  14.1148827  75.5998688  40.0658509
  30.7179697  80.9672327  28.5982273  31.2431021  81.3059600  27.8731593
  30.6302049  80.0319342  28.4145408  22.3799745  84.8806401  40.7272150
  22.6886872  84.6355547  41.5994849  23.1775227  85.0853039  40.2391020
  22.4020357  87.0344310  32.9577526  21.9625348  86.5420689  33.6510383
  23.1528474  86.4917278  32.7169601  14.8812696  83.2255851  32.9602154
  15.7070716  82.9259623  32.5800798  14.5306748  82.4563473  33.4091943
  19.8494230  82.5782319  35.0299828  19.2274239  81.9153024  34.7302056
  20.5199096  82.6043451  34.3473476  13.0821301  81.1442177  33.9191088
  12.2453210  80.7164352  33.7375089  13.0544947  81.3374621  34.8561879
  19.9218757  71.0564107  44.6232334  19.9706913  71.9326230  44.2410104
  20.4641271  70.5141500  44.0503977  30.4073603  81.6005231  43.9033471
  29.6169146  81.5829369  43.3637970  30.1706957  82.1393524  44.6582508
  30.5271478  78.4497697  41.2166200  30.5769483  78.2847704  42.1581722
  30.4185401  77.5824956  40.8264080  19.4107736  81.1286243  28.5058288
  19.5595857  81.8121707  27.8524961  20.2174180  81.1091333  29.0207744
  27.8175240  74.4328625  42.5325506  28.7185103  74.2935090  42.2409504
  27.8923215  74.5983080  43.4723684  22.1518045  71.8095480  41.3778693
  21.2821355  72.1029046  41.1061281  22.3877526  72.3935925  42.0985956
  32.0289675  80.8694638  41.4608221  31.7374483  81.2324619  42.2971682
  31.4161806  80.1561647  41.2821553  33.2285357  78.4347518  33.9810791
  34.0632248  78.8737322  34.1448352  33.3644486  77.9586171  33.1619037
  30.2776863  75.9927253  39.9288279  30.7530984  76.1854899  39.1207130
  29.3542428  76.0486439  39.6831663  17.1660369  77.1551420  29.5119357
  16.9206411  76.2513750  29.7099567  17.3356284  77.1568571  28.5698835
  24.8557079  68.0275097  38.8944113  25.3739023  68.7636124  38.5690602
  24.5012212  68.3339090  39.7290872  16.4356017  72.8879778  27.0105519
  15.7425262  72.9624133  26.3545555  16.1907769  72.1240121  27.5327036
  25.1069673  64.4475379  34.4145010  25.3871427  63.7798568  35.0405436
  25.8920280  64.6404475  33.9019673  22.9103142  83.6234373  25.9770036
  22.3377109  84.2424560  25.5240508  23.4835936  84.1733735  26.5109958
  28.9778532  72.8693013  38.1616585  29.9295955  72.9691111  38.1828809
  28.8081982  72.0771282  38.6714669  26.9992911  69.9548596  38.3475986
  26.4042843  70.2353609  37.6522474  26.7142608  70.4442497  39.1192727
  26.1300402  83.9071523  27.1078618  27.0631075  83.8417085  27.3111494
  26.0423615  84.7427790  26.6493151  28.7588418  83.2237394  24.0682566
  28.6802050  82.8897257  24.9618324  29.5798085  83.7159161  24.0674038
  31.4566610  76.0899133  37.2758884  31.4242930  75.1515134  37.4618568
  32.0667233  76.1683170  36.5424709  23.2949940  74.9595186  23.3186088
  24.2409045  74.8301394  23.3874506  22.9164185  74.2209848  23.7955517
  31.6061098  72.8810176  37.3217168  31.0900147  72.0968633  37.1347096
  32.4901047  72.5528893  37.4863687  29.2671825  66.6251192  33.2812980
  29.0696646  66.3166280  34.1656312  29.8771531  67.3512831  33.4110910
  37.2743159  77.1515140  36.4164921  38.0046548  76.8900428  36.9772624
  36.6650105  76.4143862  36.4566989  35.3558457  75.2923002  37.0139372
  34.6291620  75.1578967  36.4055864  34.9405743  75.5999831  37.8196090
  23.1788633  79.0112932  44.7786745  24.0991642  79.1891531  44.9726792
  23.1438216  78.0668977  44.6266445  21.4792858  72.8845162  23.2540974
  20.5724313  72.5878275  23.3303687  21.7568839  72.5874980  22.3875260
  12.3970798  74.2051526  33.7040020  12.0773582  73.3516834  33.4114394
  11.8504226  74.4200104  34.4597987  16.1750706  76.9213967  37.4209527
  16.3936715  77.8531074  37.4397560  16.5876479  76.5621941  38.2064330
  23.0954923  67.4282052  29.4085215  22.2855652  67.0829137  29.7840461
  23.7839340  67.1189596  29.9972826  25.0245472  66.5060099  31.0309512
  25.5776510  66.9255552  31.6899535  25.2615558  65.5795847  31.0732468
  21.0478571  72.4947172  46.8112275  20.9475298  73.4441529  46.7424367
  20.8300113  72.1665411  45.9388346  20.2491642  69.7432097  23.3952953
  21.1110806  70.0686996  23.6548770  20.4341986  68.9563593  22.8826019
  12.2659058  77.8254437  35.6733142  11.5722529  77.4108390  35.1603096
  13.0132049  77.8674974  35.0766560  28.4024279  68.6160624  30.5388176
  27.8222948  69.2745428  30.1566228  28.1360211  67.7937968  30.1275593
  26.8527845  68.0165682  32.7409496  27.3527623  68.1282216  31.9323815
  27.4963453  67.7126734  33.3810305  20.9109841  75.9244311  45.6277337
  20.4276923  76.7244671  45.8341226  20.9970780  75.9352256  44.6744781
  14.1795801  77.7572691  33.5499156  14.1566489  77.8560378  32.5981040
  14.4896437  78.6037842  33.8716323  16.8383178  79.8148846  37.6645771
  17.7926432  79.7832788  37.5975702  16.6395702  79.3539470  38.4795997
  17.4282561  78.3849962  40.2316569  18.2475450  78.8794041  40.2551406
  17.7019368  77.4681930  40.2034136  27.1849157  70.7760714  29.5944524
  26.2975012  71.0610365  29.3764719  27.6003146  70.6154478  28.7471801
  30.5363693  70.8007235  33.3098863  31.3124083  71.2903688  33.5823480
  29.8111827  71.2265289  33.7670733  32.9736252  71.5134854  34.3672804
  33.5680742  71.2730590  33.6566112  33.0462835  70.7941985  34.9946340
  15.1933407  85.3568465  34.6815969  15.0587875  84.5968866  34.1153967
  14.7765469  86.0809365  34.2144758  26.3292370  80.5405389  23.6892544
  27.0328220  80.7455391  24.3050200  25.6055019  81.1082151  23.9541628
  27.1590180  76.2915250  29.8094814  27.1025382  76.7483802  28.9702447
  27.7118523  75.5305935  29.6317657  30.9694986  72.0804982  30.6344934
  30.7131921  71.6801618  31.4653141  30.3447854  72.7948776  30.5095073
  35.2807324  74.8201055  33.1416225  34.7206882  74.8894245  33.9147787
  34.6750828  74.6442040  32.4215721  18.3502533  86.2537782  34.8934411
  18.2334917  87.1983215  34.7913102  17.5294979  85.9511344  35.2820211
  28.2379068  80.9787918  25.7391004  29.0724672  80.5469117  25.5568479
  28.0763411  80.8069932  26.6667899  27.8924960  77.4820031  27.1047343
  27.8373764  77.3164303  26.1635787  27.2671015  78.1896064  27.2609533
  12.6817475  72.7188096  40.9308766  13.3276338  72.2087050  41.4195991
  12.4734626  73.4556777  41.5052191  25.2070867  79.7868943  46.4300906
  26.0762027  79.9609596  46.0687541  24.7277618  80.6063360  46.3076636
  21.2021085  66.9828140  26.6832662  21.1899755  67.9269980  26.8400933
  22.0944507  66.7998286  26.3892123  19.3757047  86.9066044  38.1090340
  20.2784294  86.9389655  38.4256835  19.1494417  85.9766495  38.1236676
  21.1310649  85.6597031  34.7700418  20.1806280  85.6598892  34.6564791
  21.4343135  84.9129765  34.2536453  25.0173205  63.5770917  30.9378599
  24.2505601  63.0229404  31.0835281  25.4283910  63.6492786  31.7992750
  17.0214966  69.8655713  45.0283780  17.8846427  69.5092518  45.2387104
  16.4480376  69.5269608  45.7159184  36.8663343  91.4957569  35.8346181
  37.5041753  91.3764317  35.1309521  36.7484186  92.4438413  35.8934133
  33.6753049  91.4484997  35.7707706  33.3371561  91.3326062  34.8828240
  34.5442817  91.0476162  35.7508712  29.5339865  93.3020474  31.7604596
  28.9704730  93.2110411  30.9920884  29.4192260  92.4820378  32.2407089
  34.1572832  92.6019849  41.7293911  34.1461473  92.2072647  40.8574415
  34.3193471  91.8685922  42.3227683  27.0804297  94.7971665  34.5988817
  27.8725589  94.4562490  34.1835116  27.3200947  94.9066640  35.5190970
  35.1139423  96.9691441  27.0719061  34.4627403  97.5545522  26.6853075
  35.9083786  97.4997636  27.1314099  29.0395051  94.0580579  27.4706196
  29.8125927  93.5109566  27.3319072  29.3920449  94.9224828  27.6820657
  30.8780093  95.3856961  40.6773095  30.5869959  96.2902592  40.5619761
  31.5137077  95.4273488  41.3917165  31.8036300  92.7633809  37.2674455
  32.3999872  92.5389832  36.5531418  31.8611272  92.0218555  37.8699903
  31.3761328  90.2173245  25.1024646  31.6286849  89.6954766  24.3408109
  30.4385887  90.0539390  25.2051329  36.4204611  89.2209023  32.9099389
  37.2067700  88.8028446  32.5589806  36.6843316  90.1255115  33.0781037
  36.5914689  94.6581873  27.6088046  35.9560522  94.7316500  28.3208950
  36.2612095  95.2475472  26.9307125  41.8213038  89.1584256  33.8132367
  42.5538210  88.5883473  34.0470197  41.0652394  88.7705857  34.2538873
  31.0957617  92.1201351  27.3049021  30.9793875  91.4446254  27.9730105
  31.2059877  91.6333725  26.4881174  33.4389158  91.5811498  31.0095710
  33.0747365  91.0542119  31.7208631  34.2956274  91.1909967  30.8362195
  39.3438459  82.8705830  38.2726976  39.0121783  83.7401241  38.0488191
  38.7484072  82.5542114  38.9521006  33.0794645  86.6101397  26.0057058
  33.2469047  87.4781634  26.3727529  32.8891814  86.7728679  25.0818348
  35.8369978  95.0718376  37.6722889  35.5370701  95.9743415  37.5638696
  35.4921038  94.8050560  38.5244042  29.2882460  91.5232173  33.7059593
  28.3632956  91.3908387  33.9137285  29.5366873  92.3026392  34.2029536
  39.2367122  87.5900917  35.3520326  38.3283999  87.5216325  35.0579087
  39.1854718  88.0672861  36.1802152  33.0583866  89.0659055  26.9903725
  32.9383491  89.5116106  27.8289205  32.3636454  89.4144373  26.4317263
  26.6491271  91.1665447  34.5403382  26.7783652  91.4199926  35.4542794
  25.9688722  91.7593155  34.2208037  30.8190758 101.8362697  30.6393856
  30.7414788 102.7870522  30.7182337  30.2152402 101.4908569  31.2968783
  33.3107988  89.0090562  43.2955223  32.5341322  89.5684482  43.2858088
  33.9498551  89.4947345  43.8170093  41.1028768  85.7917355  37.1298200
  40.4603149  86.0849888  36.4837995  40.5983697  85.6770275  37.9351397
  38.7568932  89.5380528  27.8184059  39.6686788  89.7707915  27.6431757
  38.2478579  90.1217572  27.2559138  31.5654360  91.8176015  42.8573190
  32.3069044  92.3561059  42.5808014  30.8591346  92.4442304  43.0144742
  37.0409700  93.9605156  41.4545352  37.4493056  93.5187566  40.7099984
  36.3186961  93.3857783  41.7079545  33.3940770  88.8977763  38.8278909
  34.2401965  89.3217176  38.9713558  33.3339407  88.2411387  39.5217472
  37.3638514  94.5206347  35.2097641  36.7347377  94.6852061  34.5073709
  36.9764176  94.9347956  35.9808605  41.2427746  95.4560784  32.5642004
  40.5578784  95.8359686  32.0139038  41.3271596  96.0656111  33.2973952
  36.5440215  86.5582131  40.4860082  36.3001147  87.3124192  39.9494358
  36.8200146  86.9367479  41.3207329  38.4978678  93.1020743  39.1637348
  38.7095573  93.7452503  38.4871729  38.4508426  92.2683060  38.6959278
  36.1004907  85.7138564  36.0673920  35.2389386  86.0119818  36.3590658
  36.1267341  85.9308963  35.1354953  32.9166476  94.2580755  32.4747726
  33.3804822  94.5368458  31.6852348  32.6523274  93.3564199  32.2920816
  29.8090557  93.8052236  35.4127489  30.3791914  94.2339505  34.7744974
  30.3998669  93.5234821  36.1111675  31.8535362  90.3803907  29.2837291
  32.5559406  90.8324951  29.7511217  31.5215991  89.7387726  29.9117184
  30.3015724  88.9715664  43.6588500  29.6714384  89.6531945  43.8923897
  30.1951812  88.8598745  42.7141639  25.5960696  88.6387460  34.5854424
  24.8059750  88.8944988  34.1094535  26.0871944  89.4535798  34.6906465
  39.6124506  95.9792699  37.3359705  40.4341950  95.5772886  37.0542387
  39.6086909  95.8760933  38.2875821  27.5475442  89.0032039  31.5437901
  26.7506605  89.1150733  32.0621397  27.3201034  89.3418691  30.6778792
  33.3781109  95.5276742  39.4920416  33.4425542  95.9897149  40.3278588
  32.6692033  94.8974107  39.6202726  23.8798399  88.8917950  37.0169415
  24.1306438  89.7764960  37.2826991  24.4157948  88.7122552  36.2444507
  47.7030499  92.3231447  33.6844677  46.9494207  91.7538845  33.5288681
  47.8378040  92.2894112  34.6315311  33.0929127  97.1944850  29.3599396
  32.9574802  98.0396385  29.7884244  33.6338939  97.3964127  28.5965330
  29.5796467  83.2736430  46.0213751  29.1863412  82.7202628  46.6961396
  30.3962607  83.5847008  46.4120269  26.5458524  94.7120288  29.9327321
  27.0583045  95.5063538  30.0832886  27.1981237  94.0146578  29.8660923
  28.3553409  97.8286044  32.0150074  28.5320037  98.7504009  31.8271058
  29.1510243  97.5144463  32.4444454  32.4964428  84.6894309  43.6134008
  33.2374141  85.2901462  43.5338470  32.7282350  83.9471946  43.0552050
  27.6405766  89.8750676  41.8912238  27.5259281  88.9735933  42.1919337
  26.7850283  90.1214373  41.5397054  34.7197603  97.8168416  43.4899738
  34.2761457  97.0304795  43.1720643  35.3814817  98.0047567  42.8243629
  29.4784724  99.3464218  38.0160417  30.0292150  99.2181281  37.2437411
  28.6396200  99.6459107  37.6655310  36.8178841  98.0971216  41.5181139
  36.7997317  98.9180097  41.0261409  37.7398761  97.9725291  41.7431281
  33.2751896  95.6115346  42.3604648  33.8080232  94.8503634  42.1303956
  32.7465977  95.3188997  43.1028802  36.4421591  80.7175412  37.8898290
  36.0985860  81.6077053  37.8137400  36.8100553  80.5277069  37.0267875
  24.5107441  93.0408942  30.7086892  25.3482663  93.4505950  30.4920599
  24.6885709  92.1008384  30.6787086  36.4071873  90.7084023  26.3970725
  35.8918497  91.4788627  26.6359112  36.1349182  90.0349159  27.0203786
  33.9918984  85.5533723  31.4555963  33.1360581  85.1640574  31.2761602
  34.4045936  85.6325684  30.5955749  35.5218131  83.0880067  35.8547523
  35.0182926  83.0510202  35.0415328  35.8148738  83.9972809  35.9144180
  31.7661017  83.1718796  34.8613705  32.6314014  82.9761605  34.5019594
  31.8338526  82.9429148  35.7883061  41.3806147  93.4616377  28.3323898
  40.6035590  93.1227537  27.8879060  42.0597628  93.4669000  27.6578863
  36.1958176  88.5811115  28.2230506  35.8908312  88.8957264  29.0740649
  37.1488619  88.6592535  28.2657839  34.6404608  94.7401338  29.8723460
  34.1125970  94.0054098  29.5596697  34.1392111  95.5176014  29.6263428
  39.6197454  92.9350359  34.9890506  38.9621129  93.6249620  35.0770635
  40.4237853  93.3246790  35.3324493  29.3723336  85.4021004  32.2330071
  29.9467088  85.1796186  31.5003264  29.9594318  85.4709699  32.9858673
  38.4302913  91.2894731  33.0394448  38.9434795  91.9224723  33.5416158
  39.0804137  90.6895927  32.6737808  29.6992923  87.4325465  26.2525957
  28.8630235  87.7700152  26.5735231  29.5597693  87.2974445  25.3153094
  31.6746004  82.2762253  30.9605141  31.0210416  81.9611270  30.3361756
  31.6326478  81.6537994  31.6864964  32.7857208  92.5581548  22.8758433
  31.8784270  92.3270802  23.0749582  33.2828240  91.7619168  23.0632414
  35.6925287 101.2679056  25.7955119  35.0186986 101.5710752  26.4040077
  36.0791109 102.0708136  25.4460576  34.9083744  88.7644187  35.2852788
  33.9906305  88.9859134  35.1274477  35.3243888  88.8390497  34.4264496
  35.6918792  90.1635602  30.4155469  36.4390611  90.6757000  30.1062591
  35.9610381  89.8419655  31.2759862  33.9645442  92.6594143  27.3982423
  33.0556661  92.3753176  27.4954893  33.9940526  93.0793222  26.5385730
  39.1964709  96.2700733  31.1673591  38.7427036  95.4291643  31.2238781
  38.5658676  96.9062131  31.5048371  38.1397629  87.1992719  32.3974258
  37.4020386  86.6870105  32.7284501  38.3924402  86.7593100  31.5857535
  37.6397649  98.1077229  32.1023409  37.9320623  98.6682286  31.3835774
  38.1496269  98.4005790  32.8576568  38.2409256  79.9768971  32.9916027
  38.5468133  79.1166334  32.7041942  38.9661861  80.5686591  32.7915021
  24.5333612  90.3799657  31.3797625  24.3358012  89.7869018  30.6548692
  23.9780276  90.0751868  32.0973564  32.5130336  90.2722764  33.4992218
  32.5678946  89.3196600  33.4234695  31.7021538  90.4282203  33.9833517
  33.6621530  94.2002887  24.7370502  33.2240960  93.4838746  24.2776139
  34.4031971  94.4279002  24.1755593  30.4522696  88.8899824  31.2582597
  29.6390561  89.1893994  31.6647789  30.9481690  88.4955512  31.9757079
  32.6031274  98.8857580  33.1916862  32.5607452  99.1118427  32.2625394
  33.5193973  98.6520955  33.3402663  36.0496908  89.3541648  40.0897491
  36.4046295  89.5813121  40.9491957  36.6969039  89.6860025  39.4674746
  41.7794644  92.4760084  30.7946820  41.6412543  92.6661680  29.8668009
  41.4230863  93.2379467  31.2514871  29.9436771  86.4618179  36.8743832
  30.5836150  86.3206938  36.1766795  29.1114301  86.1752692  36.4982434
  41.8064024  94.5436611  35.8058092  42.2400531  94.4511900  36.6541146
  42.5195605  94.5194111  35.1678108  30.7197074  95.7620609  32.9878825
  31.5137673  95.2670930  32.7861400  30.0088767  95.2338473  32.6246530
  35.5391919  98.1438705  37.3391192  35.5928941  98.7129641  38.1068908
  34.6706700  98.3140590  36.9745229  27.0279838  89.9063691  29.0638577
  26.0977426  89.8448147  29.2808539  27.1237310  89.3839644  28.2675219
  26.9465387  86.4318504  31.6516819  27.2072204  87.3463837  31.5425979
  27.7682559  85.9642947  31.8013432  28.4190312  87.8456261  38.8215643
  29.0913366  87.6373623  38.1728292  27.5920099  87.6478347  38.3820876
  42.6679574  94.5860312  38.3390977  42.8615464  95.4906122  38.5850252
  42.5680192  94.1267731  39.1729562  34.3215884  84.4718202  40.8381304
  33.6743799  85.1708152  40.7445781  35.0916900  84.9054346  41.2057553
  37.7294682  94.7367054  43.9131858  37.5780189  94.5077606  42.9961941
  37.7199362  95.6937656  43.9263203  34.4980019  92.3098967  38.8978124
  35.4272079  92.4610127  38.7247091  34.0771049  92.3982988  38.0426771
  33.2968350  96.3349631  36.6676662  33.1579436  95.9668416  37.5402600
  32.5082947  96.8497271  36.4960620  33.8916502 101.4358728  28.0102198
  34.0668258 100.9646771  28.8247821  33.2049290 102.0624494  28.2383459
  34.8473566  95.7131234  34.0565500  34.5123398  95.6732004  34.9523149
  34.3477511  95.0475950  33.5835910  28.8217810  91.1198864  39.5818081
  28.6837608  90.3879103  40.1829620  29.7322733  91.0307764  39.3002268
  37.7832757  93.0587269  24.3302559  37.1661928  92.3334097  24.2335612
  37.3149246  93.8196629  23.9869633  31.4500110  90.8318824  39.0701760
  32.1599729  90.1912016  39.0288379  31.4069418  91.0831718  39.9927941
  39.4386889  97.7686177  41.9908340  39.3799435  97.0845397  41.3238923
  39.8406407  98.5105167  41.5388966  30.1629044  87.8184041  40.8897400
  29.6266401  87.3674780  41.5418996  29.5745753  87.9529950  40.1467864
  28.4577588 104.5848091  34.7842058  28.6974186 105.2166615  35.4621077
  27.6146784 104.2336131  35.0707418  29.5731303  87.2772693  23.4523863
  28.6960770  87.1561494  23.0886110  30.0489056  86.4858771  23.2002752
  39.4404296  95.7325761  40.2222319  38.5531075  95.3951683  40.3448718
  40.0102847  95.0008792  40.4591085  21.0933443  92.0649853  33.5465371
  21.7804483  91.7511583  32.9586386  20.9381572  92.9691217  33.2732622
  25.8968165  86.9540049  37.9750394  25.8126354  86.3465719  37.2400804
  25.0750872  87.4449067  37.9759891  32.9705450 100.3927213  37.1883562
  32.8975621 101.1982185  37.7002867  32.5282843 100.5919179  36.3631584
  32.7595229  99.6298983  30.6986384  31.9762751 100.1720663  30.7924608
  33.4587974 100.1472963  31.0980625  36.0691879  85.4393613  33.3420589
  36.5660579  84.6863575  33.0221660  35.2978861  85.4757929  32.7763799
  43.9221637  91.1433978  34.9838881  43.9111513  92.0258694  34.6132814
  43.0539016  90.7905529  34.7893418  35.4304133 100.2914047  39.3441721
  36.1432105 100.9261512  39.2717623  34.9394162 100.3877913  38.5281723
  37.1521660  94.1965300  30.9159013  36.2177939  94.3166762  30.7463717
  37.3298328  93.2937767  30.6519023  32.6526848  87.5810996  33.0692274
  32.2824636  87.0282036  33.7573180  33.1485941  86.9769129  32.5167274
  40.5394211  90.0382619  31.4509047  41.0054664  90.8710611  31.3769350
  40.9901712  89.5727601  32.1554305  30.4816047  98.0408491  40.1647292
  31.1825506  98.6744974  40.3176686  30.0111162  98.3823222  39.4042931
  38.6070442  96.3826440  28.4495199  38.8830286  96.2683035  29.3589073
  37.7374941  95.9843925  28.4107372  38.5110874  82.4063206  35.4899948
  37.5973954  82.6367433  35.6582155  38.9403976  82.4901650  36.3413981
  38.2817333  90.5953098  37.9899842  37.6288783  90.8429006  37.3352295
  38.6597713  89.7817236  37.6562320  35.2424506 100.6312791  32.0928013
  35.4246901  99.8134447  32.5555765  36.0657493 100.8480484  31.6552903
  35.5766672  99.5580976  29.3543061  36.1054438  99.0473431  28.7413223
  35.8394892  99.2423507  30.2188594  34.3304906  91.3372909  44.4765879
  33.6545543  91.2367038  45.1468255  35.1532540  91.1812123  44.9401877
  26.0783765  97.5744846  37.0978395  26.6637202  96.8288534  37.2306299
  25.8808603  97.8848802  37.9815058  28.9322420 100.6096093  32.1140837
  28.2632795 101.0942221  31.6304877  28.7935290 100.8565314  33.0284215
  20.6701419  90.1450446  35.8182838  20.7085519  89.6114037  36.6119956
  20.1641712  89.6185651  35.1993815  33.0727689 102.6439837  38.7123495
  33.6245997 102.8071458  39.4772581  33.4133882 103.2344274  38.0403520
  28.0492182  84.9914986  39.3145380  28.1133508  85.8529817  38.9022778
  27.9859302  84.3788988  38.5817739  27.5244454  87.0638119  42.9618414
  28.1516493  86.6815196  43.5755939  26.6672373  86.8452321  43.3274107
  37.9238563  97.4701094  44.5672150  38.4678467  98.0831052  44.0727105
  37.3425408  98.0280673  45.0839163  24.3009997  88.8714548  28.8936769
  24.5963438  87.9625226  28.8403823  23.3998033  88.8502288  28.5717771
  36.2096076 100.5921812  35.6987177  36.0847215  99.7911552  35.1898123
  36.8675167 101.0868005  35.2101147  27.8304244  86.9470545  34.8764318
  27.1090830  87.5606512  34.7371791  28.6197500  87.4828309  34.7980964
  38.2730984  98.3930832  37.3266728  37.3261320  98.2736183  37.2545054
  38.6213757  97.5053330  37.4092989  30.6330558  84.2824971  41.1504969
  31.1564959  84.5287268  41.9131279  30.4142891  85.1145006  40.7308107
  26.0297839  86.5528646  29.0176094  25.7010545  85.6726025  28.8351200
  26.3837209  86.4976314  29.9052483  35.2777417  98.1883548  33.5271080
  35.1302380  97.2600256  33.7078650  36.1030911  98.2103639  33.0428155
  29.1439662  86.8401616  29.3851572  29.4835734  87.3687537  28.6630180
  29.5911782  87.1782022  30.1610138  38.8811539  99.0112107  34.6135953
  39.8058087  98.8054969  34.4760404  38.7126843  98.7628508  35.5225294
  31.8383103  85.2238666  38.8354640  31.4979923  84.4246479  39.2375320
  31.1322109  85.5240377  38.2631473  32.4899574  82.3087979  37.2881963
  33.3125644  81.8348457  37.1660853  32.7337638  83.0878462  37.7880649
  31.1307809  85.3376237  27.5844865  31.8516171  85.7157490  27.0808582
  30.5073113  86.0565114  27.6879843  35.2738932  86.0421386  28.5203197
  35.4902546  86.9246024  28.2192025  34.7932999  85.6507599  27.7908839
  30.0138153  89.0007099  35.0973942  29.8682734  89.3147402  35.9898223
  29.5363357  89.6192000  34.5444840  31.8734536  85.9909647  35.1454831
  31.8596105  85.0950741  34.8087129  32.5906964  85.9980311  35.7793117
  33.7260667  86.4246987  37.1907959  33.4678445  87.3464058  37.1892289
  33.1945707  86.0277422  37.8808423  38.6706856  99.5297775  29.9698044
  38.8443733  98.9644197  29.2171896  39.1635747 100.3298669  29.7877534
  24.4883815  91.5412444  38.0361603  23.9437283  92.3172252  38.1681877
  25.3663165  91.8883248  37.8780724  31.2771432  84.8724028  30.4142401
  31.3987343  83.9440674  30.6133289  30.9873474  84.8862714  29.5020717
  34.1462622  82.5578938  33.5509121  34.1684319  82.6218271  32.5961101
  34.5630681  81.7183447  33.7449627  44.5246247  92.2934198  31.5888344
  44.9677393  91.5441523  31.1907467  43.6472757  92.2844334  31.2062076
  39.6582028  98.8464539  27.0694942  40.3532933  99.4671232  27.2882257
  40.0005178  97.9959890  27.3447320  25.2749837  90.6682340  40.9291760
  24.5331573  90.8164975  41.5156390  24.9542581  90.9290606  40.0658509
  41.5573451  96.2964245  28.5982273  42.0824775  96.6351517  27.8731593
  41.4695804  95.3611260  28.4145408  33.2193500 100.2098318  40.7272150
  33.5280626  99.9647465  41.5994849  34.0168982 100.4144957  40.2391020
  33.2414112 102.3636228  32.9577526  32.8019102 101.8712607  33.6510383
  33.9922229 101.8209195  32.7169601  25.7206451  98.5547769  32.9602154
  26.5464471  98.2551541  32.5800798  25.3700503  97.7855391  33.4091943
  30.6887984  97.9074237  35.0299828  30.0667993  97.2444942  34.7302056
  31.3592851  97.9335369  34.3473476  23.9215056  96.4734095  33.9191088
  23.0846964  96.0456270  33.7375089  23.8938701  96.6666538  34.8561879
  30.7612512  86.3856025  44.6232334  30.8100667  87.2618148  44.2410104
  31.3035026  85.8433418  44.0503977  41.2467357  96.9297148  43.9033471
  40.4562901  96.9121287  43.3637970  41.0100712  97.4685442  44.6582508
  41.3665232  93.7789615  41.2166200  41.4163237  93.6139622  42.1581722
  41.2579156  92.9116874  40.8264080  30.2501491  96.4578160  28.5058288
  30.3989611  97.1413625  27.8524961  31.0567934  96.4383250  29.0207744
  38.6568995  89.7620543  42.5325506  39.5578857  89.6227007  42.2409504
  38.7316969  89.9274997  43.4723684  32.9911800  87.1387397  41.3778693
  32.1215109  87.4320963  41.1061281  33.2271280  87.7227842  42.0985956
  42.8683429  96.1986556  41.4608221  42.5768237  96.5616537  42.2971682
  42.2555560  95.4853564  41.2821553  44.0679111  93.7639436  33.9810791
  44.9026003  94.2029240  34.1448352  44.2038240  93.2878089  33.1619037
  41.1170617  91.3219171  39.9288279  41.5924739  91.5146817  39.1207130
  40.1936183  91.3778357  39.6831663  28.0054124  92.4843338  29.5119357
  27.7600166  91.5805668  29.7099567  28.1750038  92.4860488  28.5698835
  35.6950834  83.3567014  38.8944113  36.2132778  84.0928041  38.5690602
  35.3405967  83.6631008  39.7290872  27.2749771  88.2171695  27.0105519
  26.5819016  88.2916050  26.3545555  27.0301523  87.4532039  27.5327036
  35.9463428  79.7767297  34.4145010  36.2265182  79.1090486  35.0405436
  36.7314035  79.9696392  33.9019673  33.7496896  98.9526291  25.9770036
  33.1770864  99.5716478  25.5240508  34.3229690  99.5025652  26.5109958
  39.8172286  88.1984931  38.1616585  40.7689709  88.2983028  38.1828809
  39.6475737  87.4063199  38.6714669  37.8386666  85.2840514  38.3475986
  37.2436598  85.5645527  37.6522474  37.5536362  85.7734415  39.1192727
  36.9694156  99.2363441  27.1078618  37.9024829  99.1709003  27.3111494
  36.8817369 100.0719708  26.6493151  39.5982173  98.5529311  24.0682566
  39.5195804  98.2189175  24.9618324  40.4191840  99.0451079  24.0674038
  42.2960364  91.4191050  37.2758884  42.2636684  90.4807051  37.4618568
  42.9060988  91.4975087  36.5424709  34.1343695  90.2887103  23.3186088
  35.0802800  90.1593312  23.3874506  33.7557940  89.5501765  23.7955517
  42.4454853  88.2102094  37.3217168  41.9293901  87.4260551  37.1347096
  43.3294801  87.8820811  37.4863687  40.1065580  81.9543109  33.2812980
  39.9090401  81.6458198  34.1656312  40.7165285  82.6804748  33.4110910
  48.1136914  92.4807057  36.4164921  48.8440302  92.2192345  36.9772624
  47.5043859  91.7435779  36.4566989  46.1952211  90.6214920  37.0139372
  45.4685375  90.4870885  36.4055864  45.7799498  90.9291749  37.8196090
  34.0182388  94.3404850  44.7786745  34.9385397  94.5183449  44.9726792
  33.9831971  93.3960895  44.6266445  32.3186612  88.2137080  23.2540974
  31.4118068  87.9170193  23.3303687  32.5962593  87.9166898  22.3875260
  23.2364553  89.5343443  33.7040020  22.9167337  88.6808751  33.4114394
  22.6897981  89.7492021  34.4597987  27.0144460  92.2505884  37.4209527
  27.2330470  93.1822992  37.4397560  27.4270234  91.8913859  38.2064330
  33.9348678  82.7573970  29.4085215  33.1249406  82.4121055  29.7840461
  34.6233095  82.4481513  29.9972826  35.8639226  81.8352016  31.0309512
  36.4170265  82.2547470  31.6899535  36.1009312  80.9087764  31.0732468
  31.8872325  87.8239090  46.8112275  31.7869052  88.7733447  46.7424367
  31.6693867  87.4957329  45.9388346  31.0885397  85.0724015  23.3952953
  31.9504561  85.3978913  23.6548770  31.2735741  84.2855511  22.8826019
  23.1052813  93.1546355  35.6733142  22.4116284  92.7400308  35.1603096
  23.8525804  93.1966891  35.0766560  39.2418033  83.9452542  30.5388176
  38.6616702  84.6037346  30.1566228  38.9753966  83.1229886  30.1275593
  37.6921600  83.3457599  32.7409496  38.1921378  83.4574134  31.9323815
  38.3357208  83.0418652  33.3810305  31.7503595  91.2536229  45.6277337
  31.2670677  92.0536589  45.8341226  31.8364534  91.2644174  44.6744781
  25.0189555  93.0864609  33.5499156  24.9960243  93.1852296  32.5981040
  25.3290192  93.9329759  33.8716323  27.6776933  95.1440764  37.6645771
  28.6320186  95.1124706  37.5975702  27.4789456  94.6831387  38.4795997
  28.2676315  93.7141880  40.2316569  29.0869204  94.2085958  40.2551406
  28.5413123  92.7973848  40.2034136  38.0242911  86.1052632  29.5944524
  37.1368766  86.3902283  29.3764719  38.4396900  85.9446395  28.7471801
  41.3757447  86.1299153  33.3098863  42.1517837  86.6195605  33.5823480
  40.6505582  86.5557207  33.7670733  43.8130006  86.8426772  34.3672804
  44.4074497  86.6022508  33.6566112  43.8856590  86.1233903  34.9946340
  26.0327162 100.6860383  34.6815969  25.8981630  99.9260784  34.1153967
  25.6159224 101.4101283  34.2144758  37.1686125  95.8697307  23.6892544
  37.8721975  96.0747309  24.3050200  36.4448773  96.4374068  23.9541628
  37.9983935  91.6207168  29.8094814  37.9419136  92.0775719  28.9702447
  38.5512277  90.8597852  29.6317657  41.8088741  87.4096900  30.6344934
  41.5525675  87.0093535  31.4653141  41.1841609  88.1240694  30.5095073
  46.1201079  90.1492973  33.1416225  45.5600637  90.2186162  33.9147787
  45.5144582  89.9733958  32.4215721  29.1896288 101.5829700  34.8934411
  29.0728672 102.5275133  34.7913102  28.3688734 101.2803262  35.2820211
  39.0772822  96.3079836  25.7391004  39.9118426  95.8761034  25.5568479
  38.9157165  96.1361849  26.6667899  38.7318714  92.8111949  27.1047343
  38.6767518  92.6456221  26.1635787  38.1064770  93.5187982  27.2609533
  23.5211229  88.0480013  40.9308766  24.1670093  87.5378967  41.4195991
  23.3128380  88.7848695  41.5052191  36.0464621  95.1160861  46.4300906
  36.9155781  95.2901513  46.0687541  35.5671373  95.9355278  46.3076636
  32.0414840  82.3120058  26.6832662  32.0293510  83.2561898  26.8400933
  32.9338262  82.1290204  26.3892123  30.2150802 102.2357962  38.1090340
  31.1178048 102.2681572  38.4256835  29.9888172 101.3058413  38.1236676
  31.9704404 100.9888949  34.7700418  31.0200035 100.9890810  34.6564791
  32.2736890 100.2421683  34.2536453  35.8566959  78.9062835  30.9378599
  35.0899355  78.3521321  31.0835281  36.2677664  78.9784703  31.7992750
  27.8608720  85.1947631  45.0283780  28.7240182  84.8384435  45.2387104
  27.2874131  84.8561525  45.7159184  47.7057097 106.8249487  35.8346181
  48.3435507 106.7056234  35.1309521  47.5877940 107.7730331  35.8934133
  44.5146803 106.7776915  35.7707706  44.1765315 106.6617980  34.8828240
  45.3836572 106.3768080  35.7508712  40.3733619 108.6312391  31.7604596
  39.8098484 108.5402328  30.9920884  40.2586014 107.8112296  32.2407089
  44.9966586 107.9311767  41.7293911  44.9855227 107.5364565  40.8574415
  45.1587226 107.1977839  42.3227683  37.9198051 110.1263583  34.5988817
  38.7119343 109.7854408  34.1835116  38.1594701 110.2358558  35.5190970
  45.9533178 112.2983359  27.0719061  45.3021158 112.8837440  26.6853075
  46.7477541 112.8289554  27.1314099  39.8788805 109.3872496  27.4706196
  40.6519681 108.8401483  27.3319072  40.2314204 110.2516746  27.6820657
  41.7173848 110.7148879  40.6773095  41.4263714 111.6194509  40.5619761
  42.3530832 110.7565406  41.3917165  42.6430054 108.0925727  37.2674455
  43.2393627 107.8681749  36.5531418  42.7005026 107.3510473  37.8699903
  42.2155083 105.5465162  25.1024646  42.4680604 105.0246684  24.3408109
  41.2779642 105.3831308  25.2051329  47.2598366 104.5500941  32.9099389
  48.0461455 104.1320364  32.5589806  47.5237070 105.4547033  33.0781037
  47.4308443 109.9873791  27.6088046  46.7954276 110.0608418  28.3208950
  47.1005849 110.5767390  26.9307125  52.6606793 104.4876174  33.8132367
  53.3931965 103.9175391  34.0470197  51.9046149 104.0997774  34.2538873
  41.9351372 107.4493268  27.3049021  41.8187630 106.7738172  27.9730105
  42.0453632 106.9625642  26.4881174  44.2782913 106.9103415  31.0095710
  43.9141120 106.3834036  31.7208631  45.1350028 106.5201884  30.8362195
  50.1832213  98.1997748  38.2726976  49.8515538  99.0693159  38.0488191
  49.5877827  97.8834032  38.9521006  43.9188400 101.9393315  26.0057058
  44.0862802 102.8073552  26.3727529  43.7285569 102.1020597  25.0818348
  46.6763733 110.4010294  37.6722889  46.3764456 111.3035333  37.5638696
  46.3314792 110.1342477  38.5244042  40.1276214 106.8524091  33.7059593
  39.2026711 106.7200305  33.9137285  40.3760627 107.6318310  34.2029536
  50.0760877 102.9192834  35.3520326  49.1677754 102.8508243  35.0579087
  50.0248472 103.3964779  36.1802152  43.8977620 104.3950973  26.9903725
  43.7777246 104.8408023  27.8289205  43.2030209 104.7436290  26.4317263
  37.4885025 106.4957364  34.5403382  37.6177406 106.7491843  35.4542794
  36.8082477 107.0885072  34.2208037  41.6584513 117.1654614  30.6393856
  41.5808542 118.1162439  30.7182337  41.0546156 116.8200487  31.2968783
  44.1501742 104.3382480  43.2955223  43.3735076 104.8976400  43.2858088
  44.7892305 104.8239263  43.8170093  51.9422523 101.1209273  37.1298200
  51.2996903 101.4141806  36.4837995  51.4377451 101.0062193  37.9351397
  49.5962687 104.8672446  27.8184059  50.5080543 105.0999833  27.6431757
  49.0872334 105.4509490  27.2559138  42.4048115 107.1467933  42.8573190
  43.1462799 107.6852977  42.5808014  41.6985100 107.7734222  43.0144742
  47.8803454 109.2897074  41.4545352  48.2886810 108.8479484  40.7099984
  47.1580716 108.7149701  41.7079545  44.2334524 104.2269680  38.8278909
  45.0795719 104.6509094  38.9713558  44.1733162 103.5703305  39.5217472
  48.2032269 109.8498264  35.2097641  47.5741131 110.0143978  34.5073709
  47.8157931 110.2639874  35.9808605  52.0821501 110.7852702  32.5642004
  51.3972539 111.1651603  32.0139038  52.1665350 111.3948029  33.2973952
  47.3833970 101.8874049  40.4860082  47.1394901 102.6416109  39.9494358
  47.6593900 102.2659396  41.3207329  49.3372432 108.4312661  39.1637348
  49.5489328 109.0744421  38.4871729  49.2902181 107.5974978  38.6959278
  46.9398661 101.0430482  36.0673920  46.0783140 101.3411735  36.3590658
  46.9661096 101.2600881  35.1354953  43.7560231 109.5872672  32.4747726
  44.2198576 109.8660375  31.6852348  43.4917029 108.6856117  32.2920816
  40.6484312 109.1344154  35.4127489  41.2185669 109.5631422  34.7744974
  41.2392424 108.8526739  36.1111675  42.6929117 105.7095825  29.2837291
  43.3953160 106.1616868  29.7511217  42.3609745 105.0679644  29.9117184
  41.1409478 104.3007581  43.6588500  40.5108139 104.9823862  43.8923897
  41.0345566 104.1890663  42.7141639  36.4354451 103.9679377  34.5854424
  35.6453505 104.2236906  34.1094535  36.9265698 104.7827715  34.6906465
  50.4518260 111.3084617  37.3359705  51.2735704 110.9064804  37.0542387
  50.4480663 111.2052851  38.2875821  38.3869196 104.3323957  31.5437901
  37.5900359 104.4442651  32.0621397  38.1594788 104.6710609  30.6778792
  44.2174864 110.8568660  39.4920416  44.2819296 111.3189067  40.3278588
  43.5085788 110.2266025  39.6202726  34.7192154 104.2209868  37.0169415
  34.9700192 105.1056878  37.2826991  35.2551702 104.0414469  36.2444507
  58.5424253 107.6523365  33.6844677  57.7887962 107.0830763  33.5288681
  58.6771795 107.6186030  34.6315311  43.9322881 112.5236767  29.3599396
  43.7968556 113.3688303  29.7884244  44.4732694 112.7256045  28.5965330
  40.4190221  98.6028347  46.0213751  40.0257167  98.0494546  46.6961396
  41.2356361  98.9138926  46.4120269  37.3852279 110.0412205  29.9327321
  37.8976799 110.8355456  30.0832886  38.0374992 109.3438496  29.8660923
  39.1947164 113.1577962  32.0150074  39.3713792 114.0795926  31.8271058
  39.9903997 112.8436381  32.4444454  43.3358182 100.0186226  43.6134008
  44.0767895 100.6193379  43.5338470  43.5676105  99.2763864  43.0552050
  38.4799520 105.2042594  41.8912238  38.3653035 104.3027851  42.1919337
  37.6244038 105.4506290  41.5397054  45.5591358 113.1460334  43.4899738
  45.1155212 112.3596712  43.1720643  46.2208571 113.3339484  42.8243629
  40.3178479 114.6756135  38.0160417  40.8685904 114.5473199  37.2437411
  39.4789955 114.9751024  37.6655310  47.6572596 113.4263134  41.5181139
  47.6391071 114.2472015  41.0261409  48.5792516 113.3017209  41.7431281
  44.1145650 110.9407263  42.3604648  44.6473987 110.1795551  42.1303956
  43.5859731 110.6480915  43.1028802  47.2815345  96.0467329  37.8898290
  46.9379614  96.9368971  37.8137400  47.6494308  95.8568987  37.0267875
  35.3501196 108.3700860  30.7086892  36.1876418 108.7797868  30.4920599
  35.5279463 107.4300302  30.6787086  47.2465628 106.0375940  26.3970725
  46.7312251 106.8080545  26.6359112  46.9742936 105.3641076  27.0203786
  44.8312739 100.8825641  31.4555963  43.9754335 100.4932492  31.2761602
  45.2439691 100.9617602  30.5955749  46.3611885  98.4171984  35.8547523
  45.8576681  98.3802120  35.0415328  46.6542492  99.3264727  35.9144180
  42.6054771  98.5010714  34.8613705  43.4707768  98.3053523  34.5019594
  42.6732280  98.2721066  35.7883061  52.2199902 108.7908295  28.3323898
  51.4429345 108.4519454  27.8879060  52.8991383 108.7960918  27.6578863
  47.0351931 103.9103032  28.2230506  46.7302066 104.2249182  29.0740649
  47.9882373 103.9884452  28.2657839  45.4798363 110.0693256  29.8723460
  44.9519724 109.3346015  29.5596697  44.9785865 110.8467932  29.6263428
  50.4591209 108.2642276  34.9890506  49.8014883 108.9541538  35.0770635
  51.2631608 108.6538708  35.3324493  40.2117090 100.7312922  32.2330071
  40.7860842 100.5088104  31.5003264  40.7988073 100.8001617  32.9858673
  49.2696668 106.6186649  33.0394448  49.7828549 107.2516641  33.5416158
  49.9197891 106.0187844  32.6737808  40.5386677 102.7617383  26.2525957
  39.7023990 103.0992070  26.5735231  40.3991447 102.6266363  25.3153094
  42.5139758  97.6054171  30.9605141  41.8604170  97.2903188  30.3361756
  42.4720232  96.9829911  31.6864964  43.6250963 107.8873466  22.8758433
  42.7178025 107.6562719  23.0749582  44.1221995 107.0911085  23.0632414
  46.5319042 116.5970973  25.7955119  45.8580741 116.9002670  26.4040077
  46.9184864 117.4000054  25.4460576  45.7477498 104.0936104  35.2852788
  44.8300060 104.3151051  35.1274477  46.1637642 104.1682415  34.4264496
  46.5312546 105.4927520  30.4155469  47.2784365 106.0048917  30.1062591
  46.8004136 105.1711573  31.2759862  44.8039196 107.9886061  27.3982423
  43.8950416 107.7045094  27.4954893  44.8334280 108.4085139  26.5385730
  50.0358464 111.5992650  31.1673591  49.5820791 110.7583560  31.2238781
  49.4052430 112.2354049  31.5048371  48.9791383 102.5284636  32.3974258
  48.2414140 102.0162023  32.7284501  49.2318157 102.0885018  31.5857535
  48.4791403 113.4369147  32.1023409  48.7714377 113.9974204  31.3835774
  48.9890024 113.7297708  32.8576568  49.0803011  95.3060888  32.9916027
  49.3861887  94.4458252  32.7041942  49.8055615  95.8978509  32.7915021
  35.3727367 105.7091575  31.3797625  35.1751767 105.1160936  30.6548692
  34.8174031 105.4043785  32.0973564  43.3524090 105.6014681  33.4992218
  43.4072700 104.6488518  33.4234695  42.5415292 105.7574121  33.9833517
  44.5015284 109.5294805  24.7370502  44.0634714 108.8130663  24.2776139
  45.2425725 109.7570919  24.1755593  41.2916450 104.2191741  31.2582597
  40.4784316 104.5185912  31.6647789  41.7875444 103.8247430  31.9757079
  43.4425028 114.2149498  33.1916862  43.4001207 114.4410344  32.2625394
  44.3587727 113.9812873  33.3402663  46.8890662 104.6833566  40.0897491
  47.2440050 104.9105039  40.9491957  47.5362793 105.0151942  39.4674746
  52.6188399 107.8052002  30.7946820  52.4806298 107.9953598  29.8668009
  52.2624618 108.5671384  31.2514871  40.7830525 101.7910097  36.8743832
  41.4229904 101.6498856  36.1766795  39.9508056 101.5044610  36.4982434
  52.6457779 109.8728529  35.8058092  53.0794285 109.7803818  36.6541146
  53.3589359 109.8486029  35.1678108  41.5590829 111.0912527  32.9878825
  42.3531427 110.5962847  32.7861400  40.8482521 110.5630390  32.6246530
  46.3785673 113.4730623  37.3391192  46.4322696 114.0421559  38.1068908
  45.5100455 113.6432508  36.9745229  37.8673592 105.2355609  29.0638577
  36.9371181 105.1740064  29.2808539  37.9631064 104.7131562  28.2675219
  37.7859141 101.7610422  31.6516819  38.0465959 102.6755755  31.5425979
  38.6076314 101.2934864  31.8013432  39.2584067 103.1748179  38.8215643
  39.9307120 102.9665541  38.1728292  38.4313853 102.9770265  38.3820876
  53.5073328 109.9152229  38.3390977  53.7009218 110.8198040  38.5850252
  53.4073946 109.4559648  39.1729562  45.1609639  99.8010120  40.8381304
  44.5137554 100.5000069  40.7445781  45.9310654 100.2346264  41.2057553
  48.5688437 110.0658972  43.9131858  48.4173943 109.8369524  42.9961941
  48.5593116 111.0229573  43.9263203  45.3373773 107.6390885  38.8978124
  46.2665833 107.7902044  38.7247091  44.9164803 107.7274906  38.0426771
  44.1362105 111.6641549  36.6676662  43.9973191 111.2960334  37.5402600
  43.3476701 112.1789189  36.4960620  44.7310257 116.7650646  28.0102198
  44.9062013 116.2938689  28.8247821  44.0443045 117.3916412  28.2383459
  45.6867320 111.0423152  34.0565500  45.3517153 111.0023922  34.9523149
  45.1871266 110.3767868  33.5835910  39.6611564 106.4490782  39.5818081
  39.5231362 105.7171021  40.1829620  40.5716488 106.3599682  39.3002268
  48.6226512 108.3879186  24.3302559  48.0055682 107.6626014  24.2335612
  48.1543000 109.1488546  23.9869633  42.2893865 106.1610741  39.0701760
  42.9993483 105.5203933  39.0288379  42.2463173 106.4123636  39.9927941
  50.2780643 113.0978095  41.9908340  50.2193190 112.4137315  41.3238923
  50.6800162 113.8397085  41.5388966  41.0022799 103.1475959  40.8897400
  40.4660156 102.6966698  41.5418996  40.4139507 103.2821868  40.1467864
  40.4125058 102.6064610  23.4523863  39.5354524 102.4853411  23.0886110
  40.8882811 101.8150689  23.2002752  50.2798051 111.0617678  40.2222319
  49.3924829 110.7243600  40.3448718  50.8496602 110.3300710  40.4591085
  31.9327198 107.3941770  33.5465371  32.6198238 107.0803500  32.9586386
  31.7775326 108.2983135  33.2732622  36.7361920 102.2831967  37.9750394
  36.6520109 101.6757636  37.2400804  35.9144626 102.7740985  37.9759891
  43.8099204 115.7219131  37.1883562  43.7369376 116.5274102  37.7002867
  43.3676597 115.9211097  36.3631584  43.5988984 114.9590901  30.6986384
  42.8156506 115.5012581  30.7924608  44.2981729 115.4764880  31.0980625
  46.9085634 100.7685530  33.3420589  47.4054333 100.0155493  33.0221660
  46.1372615 100.8049847  32.7763799  54.7615391 106.4725896  34.9838881
  54.7505267 107.3550611  34.6132814  53.8932771 106.1197447  34.7893418
  46.2697888 115.6205965  39.3441721  46.9825860 116.2553430  39.2717623
  45.7787916 115.7169831  38.5281723  47.9915415 109.5257218  30.9159013
  47.0571693 109.6458680  30.7463717  48.1692083 108.6229684  30.6519023
  43.4920603 102.9102913  33.0692274  43.1218390 102.3573954  33.7573180
  43.9879695 102.3061047  32.5167274  51.3787966 105.3674537  31.4509047
  51.8448418 106.2002528  31.3769350  51.8295466 104.9019518  32.1554305
  41.3209801 113.3700408  40.1647292  42.0219261 114.0036891  40.3176686
  40.8504916 113.7115140  39.4042931  49.4464197 111.7118358  28.4495199
  49.7224041 111.5974953  29.3589073  48.5768696 111.3135843  28.4107372
  49.3504629  97.7355124  35.4899948  48.4367708  97.9659351  35.6582155
  49.7797730  97.8193568  36.3413981  49.1211087 105.9245016  37.9899842
  48.4682537 106.1720923  37.3352295  49.4991467 105.1109154  37.6562320
  46.0818261 115.9604709  32.0928013  46.2640656 115.1426365  32.5555765
  46.9051247 116.1772401  31.6552903  46.4160426 114.8872894  29.3543061
  46.9448193 114.3765349  28.7413223  46.6788646 114.5715424  30.2188594
  45.1698660 106.6664827  44.4765879  44.4939297 106.5658956  45.1468255
  45.9926294 106.5104041  44.9401877  36.9177519 112.9036763  37.0978395
  37.5030956 112.1580451  37.2306299  36.7202358 113.2140720  37.9815058
  39.7716174 115.9388011  32.1140837  39.1026550 116.4234138  31.6304877
  39.6329044 116.1857231  33.0284215  31.5095174 105.4742364  35.8182838
  31.5479273 104.9405954  36.6119956  31.0035467 104.9477569  35.1993815
  43.9121443 117.9731754  38.7123495  44.4639751 118.1363376  39.4772581
  44.2527636 118.5636192  38.0403520  38.8885936 100.3206904  39.3145380
  38.9527263 101.1821735  38.9022778  38.8253056  99.7080906  38.5817739
  38.3638209 102.3930037  42.9618414  38.9910248 102.0107114  43.5755939
  37.5066128 102.1744239  43.3274107  48.7632317 112.7993012  44.5672150
  49.3072221 113.4122970  44.0727105  48.1819162 113.3572590  45.0839163
  35.1403752 104.2006466  28.8936769  35.4357193 103.2917144  28.8403823
  34.2391787 104.1794205  28.5717771  47.0489830 115.9213730  35.6987177
  46.9240970 115.1203470  35.1898123  47.7068921 116.4159923  35.2101147
  38.6697999 102.2762462  34.8764318  37.9484584 102.8898430  34.7371791
  39.4591254 102.8120227  34.7980964  49.1124739 113.7222750  37.3266728
  48.1655074 113.6028101  37.2545054  49.4607512 112.8345248  37.4092989
  41.4724312  99.6116889  41.1504969  41.9958714  99.8579185  41.9131279
  41.2536645 100.4436924  40.7308107  36.8691593 101.8820563  29.0176094
  36.5404299 101.0017942  28.8351200  37.2230964 101.8268232  29.9052483
  46.1171172 113.5175466  33.5271080  45.9696134 112.5892174  33.7078650
  46.9424665 113.5395557  33.0428155  39.9833416 102.1693533  29.3851572
  40.3229489 102.6979454  28.6630180  40.4305537 102.5073939  30.1610138
  49.7205294 114.3404025  34.6135953  50.6451841 114.1346886  34.4760404
  49.5520597 114.0920426  35.5225294  42.6776857 100.5530584  38.8354640
  42.3373677  99.7538397  39.2375320  41.9715863 100.8532295  38.2631473
  43.3293329  97.6379896  37.2881963  44.1519398  97.1640375  37.1660853
  43.5731392  98.4170380  37.7880649  41.9701563 100.6668155  27.5844865
  42.6909926 101.0449408  27.0808582  41.3466868 101.3857032  27.6879843
  46.1132686 101.3713304  28.5203197  46.3296301 102.2537942  28.2192025
  45.6326753 100.9799517  27.7908839  40.8531908 104.3299017  35.0973942
  40.7076488 104.6439320  35.9898223  40.3757111 104.9483917  34.5444840
  42.7128291 101.3201565  35.1454831  42.6989859 100.4242658  34.8087129
  43.4300719 101.3272229  35.7793117  44.5654421 101.7538905  37.1907959
  44.3072199 102.6755976  37.1892289  44.0339462 101.3569340  37.8808423
  49.5100610 114.8589692  29.9698044  49.6837488 114.2936115  29.2171896
  50.0029501 115.6590587  29.7877534  35.3277570 106.8704361  38.0361603
  34.7831038 107.6464169  38.1681877  36.2056920 107.2175166  37.8780724
  42.1165186 100.2015945  30.4142401  42.2381098  99.2732591  30.6133289
  41.8267229 100.2154631  29.5020717  44.9856377  97.8870856  33.5509121
  45.0078074  97.9510189  32.5961101  45.4024436  97.0475364  33.7449627
  55.3640001 107.6226115  31.5888344  55.8071147 106.8733440  31.1907467
  54.4866511 107.6136252  31.2062076  50.4975783 114.1756457  27.0694942
  51.1926687 114.7963149  27.2882257  50.8398933 113.3251808  27.3447320
  36.1143592 105.9974258  40.9291760  35.3725328 106.1456893  41.5156390
  35.7936336 106.2582523  40.0658509  52.3967206 111.6256162  28.5982273
  52.9218530 111.9643435  27.8731593  52.3089558 110.6903178  28.4145408
  44.0587254 115.5390236  40.7272150  44.3674381 115.2939383  41.5994849
  44.8562736 115.7436874  40.2391020  44.0807866 117.6928146  32.9577526
  43.6412857 117.2004524  33.6510383  44.8315983 117.1501113  32.7169601
  36.5600205 113.8839686  32.9602154  37.3858225 113.5843458  32.5800798
  36.2094257 113.1147309  33.4091943  41.5281739 113.2366155  35.0299828
  40.9061748 112.5736860  34.7302056  42.1986605 113.2627286  34.3473476
  34.7608810 111.8026013  33.9191088  33.9240719 111.3748187  33.7375089
  34.7332456 111.9958456  34.8561879  41.6006266 101.7147943  44.6232334
  41.6494421 102.5910065  44.2410104  42.1428780 101.1725336  44.0503977
  52.0861112 112.2589066  43.9033471  51.2956655 112.2413205  43.3637970
  51.8494466 112.7977360  44.6582508  52.2058987 109.1081532  41.2166200
  52.2556992 108.9431540  42.1581722  52.0972910 108.2408791  40.8264080
  41.0895245 111.7870078  28.5058288  41.2383366 112.4705542  27.8524961
  41.8961689 111.7675168  29.0207744  49.4962749 105.0912460  42.5325506
  50.3972612 104.9518925  42.2409504  49.5710724 105.2566915  43.4723684
  43.8305554 102.4679315  41.3778693  42.9608864 102.7612881  41.1061281
  44.0665035 103.0519760  42.0985956  53.7077184 111.5278474  41.4608221
  53.4161992 111.8908454  42.2971682  53.0949315 110.8145482  41.2821553
  54.9072866 109.0931354  33.9810791  55.7419757 109.5321158  34.1448352
  55.0431995 108.6170007  33.1619037  51.9564372 106.6511088  39.9288279
  52.4318493 106.8438735  39.1207130  51.0329937 106.7070274  39.6831663
  38.8447878 107.8135256  29.5119357  38.5993920 106.9097586  29.7099567
  39.0143793 107.8152406  28.5698835  46.5344588  98.6858932  38.8944113
  47.0526532  99.4219959  38.5690602  46.1799721  98.9922925  39.7290872
  38.1143526 103.5463613  27.0105519  37.4212771 103.6207968  26.3545555
  37.8695278 102.7823957  27.5327036  46.7857182  95.1059214  34.4145010
  47.0658936  94.4382404  35.0405436  47.5707789  95.2988310  33.9019673
  44.5890651 114.2818208  25.9770036  44.0164618 114.9008396  25.5240508
  45.1623445 114.8317570  26.5109958  50.6566041 103.5276848  38.1616585
  51.6083464 103.6274946  38.1828809  50.4869491 102.7355117  38.6714669
  48.6780420 100.6132432  38.3475986  48.0830352 100.8937444  37.6522474
  48.3930117 101.1026333  39.1192727  47.8087911 114.5655359  27.1078618
  48.7418584 114.5000920  27.3111494  47.7211124 115.4011625  26.6493151
  50.4375927 113.8821229  24.0682566  50.3589559 113.5481092  24.9618324
  51.2585594 114.3742997  24.0674038  53.1354119 106.7482968  37.2758884
  53.1030439 105.8098969  37.4618568  53.7454742 106.8267005  36.5424709
  44.9737449 105.6179021  23.3186088  45.9196554 105.4885229  23.3874506
  44.5951694 104.8793683  23.7955517  53.2848607 103.5394012  37.3217168
  52.7687656 102.7552468  37.1347096  54.1688556 103.2112728  37.4863687
  50.9459334  97.2835027  33.2812980  50.7484155  96.9750115  34.1656312
  51.5559040  98.0096666  33.4110910  58.9530668 107.8098975  36.4164921
  59.6834057 107.5484263  36.9772624  58.3437614 107.0727697  36.4566989
  57.0345966 105.9506838  37.0139372  56.3079129 105.8162803  36.4055864
  56.6193252 106.2583666  37.8196090  44.8576142 109.6696767  44.7786745
  45.7779151 109.8475366  44.9726792  44.8225725 108.7252813  44.6266445
  43.1580367 103.5428998  23.2540974  42.2511822 103.2462110  23.3303687
  43.4356348 103.2458816  22.3875260  34.0758307 104.8635361  33.7040020
  33.7561091 104.0100669  33.4114394  33.5291735 105.0783939  34.4597987
  37.8538215 107.5797802  37.4209527  38.0724224 108.5114910  37.4397560
  38.2663988 107.2205776  38.2064330  44.7742432  98.0865887  29.4085215
  43.9643161  97.7412972  29.7840461  45.4626849  97.7773431  29.9972826
  46.7032981  97.1643934  31.0309512  47.2564019  97.5839387  31.6899535
  46.9403067  96.2379682  31.0732468  42.7266080 103.1531008  46.8112275
  42.6262807 104.1025365  46.7424367  42.5087622 102.8249247  45.9388346
  41.9279151 100.4015933  23.3952953  42.7898315 100.7270831  23.6548770
  42.1129495  99.6147429  22.8826019  33.9446567 108.4838272  35.6733142
  33.2510038 108.0692225  35.1603096  34.6919558 108.5258809  35.0766560
  50.0811788  99.2744459  30.5388176  49.5010457  99.9329263  30.1566228
  49.8147720  98.4521804  30.1275593  48.5315354  98.6749517  32.7409496
  49.0315132  98.7866051  31.9323815  49.1750962  98.3710570  33.3810305
  42.5897350 106.5828147  45.6277337  42.1064432 107.3828507  45.8341226
  42.6758289 106.5936091  44.6744781  35.8583310 108.4156526  33.5499156
  35.8353998 108.5144213  32.5981040  36.1683946 109.2621677  33.8716323
  38.5170687 110.4732681  37.6645771  39.4713941 110.4416624  37.5975702
  38.3183211 110.0123305  38.4795997  39.1070070 109.0433797  40.2316569
  39.9262959 109.5377876  40.2551406  39.3806877 108.1265765  40.2034136
  48.8636666 101.4344550  29.5944524  47.9762521 101.7194200  29.3764719
  49.2790655 101.2738313  28.7471801  52.2151202 101.4591071  33.3098863
  52.9911592 101.9487523  33.5823480  51.4899336 101.8849125  33.7670733
  54.6523760 102.1718690  34.3672804  55.2468251 101.9314426  33.6566112
  54.7250344 101.4525820  34.9946340  48.0079879 111.1989224  23.6892544
  48.7115729 111.4039227  24.3050200  47.2842528 111.7665986  23.9541628
  48.8377689 106.9499086  29.8094814  48.7812891 107.4067637  28.9702447
  49.3906032 106.1889770  29.6317657  52.6482495 102.7388817  30.6344934
  52.3919430 102.3385453  31.4653141  52.0235363 103.4532611  30.5095073
  56.9594833 105.4784891  33.1416225  56.3994391 105.5478080  33.9147787
  56.3538337 105.3025875  32.4215721  49.9166577 111.6371753  25.7391004
  50.7512181 111.2052952  25.5568479  49.7550920 111.4653767  26.6667899
  49.5712469 108.1403867  27.1047343  49.5161273 107.9748138  26.1635787
  48.9458524 108.8479900  27.2609533  34.3604984 103.3771931  40.9308766
  35.0063847 102.8670885  41.4195991  34.1522135 104.1140613  41.5052191
  46.8858376 110.4452779  46.4300906  47.7549536 110.6193431  46.0687541
  46.4065127 111.2647195  46.3076636  42.8808594  97.6411976  26.6832662
  42.8687264  98.5853816  26.8400933  43.7732016  97.4582121  26.3892123
  41.0544556 117.5649880  38.1090340  41.9571803 117.5973490  38.4256835
  40.8281926 116.6350331  38.1236676  42.8098158 116.3180866  34.7700418
  41.8593789 116.3182728  34.6564791  43.1130644 115.5713601  34.2536453
  46.6960714  94.2354752  30.9378599  45.9293110  93.6813239  31.0835281
  47.1071419  94.3076621  31.7992750  38.7002475 100.5239548  45.0283780
  39.5633936 100.1676353  45.2387104  38.1267885 100.1853443  45.7159184
  58.5450852 122.1541405  35.8346181  59.1829262 122.0348152  35.1309521
  58.4271695 123.1022249  35.8934133  55.3540558 122.1068833  35.7707706
  55.0159070 121.9909897  34.8828240  56.2230326 121.7059998  35.7508712
  55.8360341 123.2603684  41.7293911  55.8248982 122.8656483  40.8574415
  55.9980980 122.5269757  42.3227683  53.0548837 120.8757080  25.1024646
  53.3074358 120.3538601  24.3408109  52.1173396 120.7123225  25.2051329
  58.0992120 119.8792858  32.9099389  58.8855209 119.4612282  32.5589806
  58.3630825 120.7838951  33.0781037  63.5000547 119.8168092  33.8132367
  64.2325719 119.2467308  34.0470197  62.7439903 119.4289692  34.2538873
  55.1176667 122.2395333  31.0095710  54.7534874 121.7125954  31.7208631
  55.9743783 121.8493802  30.8362195  61.0225968 113.5289666  38.2726976
  60.6909292 114.3985077  38.0488191  60.4271581 113.2125950  38.9521006
  54.7582154 117.2685233  26.0057058  54.9256556 118.1365469  26.3727529
  54.5679323 117.4312515  25.0818348  60.9154631 118.2484752  35.3520326
  60.0071508 118.1800160  35.0579087  60.8642227 118.7256697  36.1802152
  54.7371375 119.7242890  26.9903725  54.6171000 120.1699941  27.8289205
  54.0423963 120.0728208  26.4317263  54.9895497 119.6674397  43.2955223
  54.2128831 120.2268318  43.2858088  55.6286060 120.1531180  43.8170093
  62.7816277 116.4501190  37.1298200  62.1390658 116.7433723  36.4837995
  62.2771206 116.3354111  37.9351397  60.4356441 120.1964363  27.8184059
  61.3474297 120.4291750  27.6431757  59.9266088 120.7801408  27.2559138
  55.0728279 119.5561598  38.8278909  55.9189474 119.9801012  38.9713558
  55.0126916 118.8995222  39.5217472  58.2227724 117.2165966  40.4860082
  57.9788656 117.9708027  39.9494358  58.4987655 117.5951314  41.3207329
  60.1766187 123.7604579  39.1637348  60.3883082 124.4036339  38.4871729
  60.1295935 122.9266895  38.6959278  57.7792416 116.3722399  36.0673920
  56.9176895 116.6703653  36.3590658  57.8054850 116.5892798  35.1354953
  53.5322871 121.0387742  29.2837291  54.2346915 121.4908786  29.7511217
  53.2003500 120.3971561  29.9117184  51.9803233 119.6299499  43.6588500
  51.3501893 120.3115780  43.8923897  51.8739321 119.5182581  42.7141639
  47.2748205 119.2971295  34.5854424  46.4847259 119.5528824  34.1094535
  47.7659453 120.1119633  34.6906465  49.2262951 119.6615874  31.5437901
  48.4294114 119.7734569  32.0621397  48.9988543 120.0002527  30.6778792
  69.3818008 122.9815283  33.6844677  68.6281716 122.4122681  33.5288681
  69.5165549 122.9477947  34.6315311  51.2583976 113.9320265  46.0213751
  50.8650921 113.3786463  46.6961396  52.0750116 114.2430843  46.4120269
  54.1751937 115.3478144  43.6134008  54.9161650 115.9485297  43.5338470
  54.4069859 114.6055782  43.0552050  58.1209099 111.3759247  37.8898290
  57.7773369 112.2660889  37.8137400  58.4888062 111.1860905  37.0267875
  58.0859382 121.3667858  26.3970725  57.5706006 122.1372463  26.6359112
  57.8136691 120.6932994  27.0203786  55.6706493 116.2117559  31.4555963
  54.8148090 115.8224409  31.2761602  56.0833445 116.2909520  30.5955749
  57.2005640 113.7463902  35.8547523  56.6970435 113.7094037  35.0415328
  57.4936247 114.6556645  35.9144180  53.4448526 113.8302632  34.8613705
  54.3101523 113.6345440  34.5019594  53.5126035 113.6012984  35.7883061
  63.0593656 124.1200213  28.3323898  62.2823099 123.7811372  27.8879060
  63.7385137 124.1252836  27.6578863  57.8745685 119.2394950  28.2230506
  57.5695821 119.5541099  29.0740649  58.8276127 119.3176370  28.2657839
  61.2984963 123.5934194  34.9890506  60.6408638 124.2833455  35.0770635
  62.1025362 123.9830626  35.3324493  51.0510845 116.0604840  32.2330071
  51.6254597 115.8380021  31.5003264  51.6381827 116.1293534  32.9858673
  60.1090422 121.9478567  33.0394448  60.6222304 122.5808558  33.5416158
  60.7591646 121.3479762  32.6737808  51.3780432 118.0909301  26.2525957
  50.5417744 118.4283987  26.5735231  51.2385202 117.9558281  25.3153094
  53.3533513 112.9346089  30.9605141  52.6997925 112.6195106  30.3361756
  53.3113987 112.3121829  31.6864964  56.5871253 119.4228022  35.2852788
  55.6693814 119.6442969  35.1274477  57.0031397 119.4974333  34.4264496
  57.3706301 120.8219438  30.4155469  58.1178120 121.3340835  30.1062591
  57.6397890 120.5003491  31.2759862  59.8185138 117.8576554  32.3974258
  59.0807895 117.3453940  32.7284501  60.0711911 117.4176936  31.5857535
  59.9196765 110.6352806  32.9916027  60.2255642 109.7750170  32.7041942
  60.6449370 111.2270426  32.7915021  54.1917845 120.9306599  33.4992218
  54.2466455 119.9780436  33.4234695  53.3809047 121.0866038  33.9833517
  52.1310205 119.5483659  31.2582597  51.3178070 119.8477829  31.6647789
  52.6269199 119.1539348  31.9757079  57.7284416 120.0125483  40.0897491
  58.0833804 120.2396957  40.9491957  58.3756548 120.3443860  39.4674746
  63.4582153 123.1343919  30.7946820  63.3200052 123.3245515  29.8668009
  63.1018372 123.8963302  31.2514871  51.6224280 117.1202014  36.8743832
  52.2623659 116.9790774  36.1766795  50.7901810 116.8336528  36.4982434
  63.4851533 125.2020446  35.8058092  63.9188040 125.1095735  36.6541146
  64.1983114 125.1777947  35.1678108  48.7067347 120.5647527  29.0638577
  47.7764935 120.5031982  29.2808539  48.8024819 120.0423479  28.2675219
  48.6252896 117.0902339  31.6516819  48.8859713 118.0047673  31.5425979
  49.4470068 116.6226782  31.8013432  50.0977821 118.5040097  38.8215643
  50.7700875 118.2957459  38.1728292  49.2707608 118.3062183  38.3820876
  64.3467083 125.2444147  38.3390977  64.5402973 126.1489957  38.5850252
  64.2467701 124.7851566  39.1729562  56.0003393 115.1302037  40.8381304
  55.3531308 115.8291987  40.7445781  56.7704409 115.5638181  41.2057553
  56.1767528 122.9682802  38.8978124  57.1059588 123.1193962  38.7247091
  55.7558558 123.0566823  38.0426771  59.4620266 123.7171104  24.3302559
  58.8449437 122.9917932  24.2335612  58.9936755 124.4780464  23.9869633
  53.1287619 121.4902659  39.0701760  53.8387238 120.8495851  39.0288379
  53.0856927 121.7415554  39.9927941  51.8416553 118.4767877  40.8897400
  51.3053910 118.0258615  41.5418996  51.2533262 118.6113786  40.1467864
  51.2518812 117.9356528  23.4523863  50.3748278 117.8145329  23.0886110
  51.7276565 117.1442606  23.2002752  47.5755674 117.6123884  37.9750394
  47.4913863 117.0049554  37.2400804  46.7538381 118.1032903  37.9759891
  57.7479388 116.0977448  33.3420589  58.2448088 115.3447410  33.0221660
  56.9766370 116.1341765  32.7763799  65.6009146 121.8017814  34.9838881
  65.5899022 122.6842529  34.6132814  64.7326525 121.4489364  34.7893418
  54.3314357 118.2394831  33.0692274  53.9612145 117.6865871  33.7573180
  54.8273450 117.6352964  32.5167274  62.2181720 120.6966454  31.4509047
  62.6842173 121.5294446  31.3769350  62.6689221 120.2311436  32.1554305
  60.1898383 113.0647041  35.4899948  59.2761463 113.2951268  35.6582155
  60.6191485 113.1485486  36.3413981  59.9604842 121.2536933  37.9899842
  59.3076292 121.5012841  37.3352295  60.3385221 120.4401072  37.6562320
  56.0092415 121.9956745  44.4765879  55.3333052 121.8950874  45.1468255
  56.8320049 121.8395958  44.9401877  49.7279691 115.6498822  39.3145380
  49.7921017 116.5113653  38.9022778  49.6646811 115.0372823  38.5817739
  49.2031963 117.7221954  42.9618414  49.8304002 117.3399032  43.5755939
  48.3459882 117.5036156  43.3274107  45.9797506 119.5298383  28.8936769
  46.2750947 118.6209062  28.8403823  45.0785542 119.5086123  28.5717771
  49.5091753 117.6054380  34.8764318  48.7878339 118.2190348  34.7371791
  50.2985009 118.1412145  34.7980964  52.3118067 114.9408806  41.1504969
  52.8352468 115.1871103  41.9131279  52.0930400 115.7728841  40.7308107
  47.7085348 117.2112481  29.0176094  47.3798054 116.3309860  28.8351200
  48.0624718 117.1560150  29.9052483  50.8227171 117.4985451  29.3851572
  51.1623243 118.0271372  28.6630180  51.2699291 117.8365857  30.1610138
  53.5170612 115.8822502  38.8354640  53.1767432 115.0830315  39.2375320
  52.8109618 116.1824212  38.2631473  54.1687083 112.9671814  37.2881963
  54.9913153 112.4932292  37.1660853  54.4125147 113.7462298  37.7880649
  52.8095318 115.9960072  27.5844865  53.5303680 116.3741325  27.0808582
  52.1860622 116.7148949  27.6879843  56.9526441 116.7005221  28.5203197
  57.1690055 117.5829859  28.2192025  56.4720508 116.3091435  27.7908839
  51.6925662 119.6590935  35.0973942  51.5470243 119.9731238  35.9898223
  51.2150866 120.2775835  34.5444840  53.5522045 116.6493483  35.1454831
  53.5383614 115.7534576  34.8087129  54.2694473 116.6564146  35.7793117
  55.4048176 117.0830823  37.1907959  55.1465954 118.0047893  37.1892289
  54.8733216 116.6861257  37.8808423  52.9558941 115.5307863  30.4142401
  53.0774852 114.6024509  30.6133289  52.6660983 115.5446549  29.5020717
  55.8250131 113.2162773  33.5509121  55.8471828 113.2802106  32.5961101
  56.2418190 112.3767282  33.7449627  66.2033756 122.9518033  31.5888344
  66.6464902 122.2025358  31.1907467  65.3260266 122.9428169  31.2062076
  52.4400021 117.0439860  44.6232334  52.4888176 117.9201983  44.2410104
  52.9822535 116.5017253  44.0503977  63.0452741 124.4373450  41.2166200
  63.0950746 124.2723457  42.1581722  62.9366665 123.5700709  40.8264080
  60.3356504 120.4204378  42.5325506  61.2366366 120.2810843  42.2409504
  60.4104478 120.5858833  43.4723684  54.6699309 117.7971233  41.3778693
  53.8002618 118.0904799  41.1061281  54.9058789 118.3811678  42.0985956
  65.7466620 124.4223271  33.9810791  66.5813512 124.8613075  34.1448352
  65.8825749 123.9461924  33.1619037  62.7958126 121.9803006  39.9288279
  63.2712248 122.1730652  39.1207130  61.8723692 122.0362192  39.6831663
  57.3738343 114.0150850  38.8944113  57.8920287 114.7511877  38.5690602
  57.0193476 114.3214843  39.7290872  48.9537280 118.8755531  27.0105519
  48.2606525 118.9499886  26.3545555  48.7089032 118.1115874  27.5327036
  57.6250937 110.4351132  34.4145010  57.9052691 109.7674321  35.0405436
  58.4101544 110.6280228  33.9019673  61.4959795 118.8568766  38.1616585
  62.4477218 118.9566864  38.1828809  61.3263246 118.0647035  38.6714669
  59.5174175 115.9424349  38.3475986  58.9224107 116.2229362  37.6522474
  59.2323871 116.4318250  39.1192727  63.9747873 122.0774886  37.2758884
  63.9424193 121.1390887  37.4618568  64.5848497 122.1558923  36.5424709
  55.8131204 120.9470939  23.3186088  56.7590309 120.8177147  23.3874506
  55.4345449 120.2085601  23.7955517  64.1242362 118.8685929  37.3217168
  63.6081410 118.0844386  37.1347096  65.0082310 118.5404646  37.4863687
  61.7853088 112.6126945  33.2812980  61.5877910 112.3042033  34.1656312
  62.3952794 113.3388584  33.4110910  69.7924423 123.1390893  36.4164921
  70.5227811 122.8776181  36.9772624  69.1831368 122.4019615  36.4566989
  67.8739720 121.2798755  37.0139372  67.1472884 121.1454720  36.4055864
  67.4587007 121.5875584  37.8196090  53.9974121 118.8720915  23.2540974
  53.0905576 118.5754028  23.3303687  54.2750102 118.5750733  22.3875260
  55.6136187 113.4157805  29.4085215  54.8036915 113.0704890  29.7840461
  56.3020604 113.1065349  29.9972826  57.5426735 112.4935852  31.0309512
  58.0957774 112.9131305  31.6899535  57.7796821 111.5671600  31.0732468
  53.5659834 118.4822925  46.8112275  53.4656561 119.4317282  46.7424367
  53.3481376 118.1541164  45.9388346  52.7672906 115.7307850  23.3952953
  53.6292070 116.0562749  23.6548770  52.9523250 114.9439346  22.8826019
  60.9205542 114.6036377  30.5388176  60.3404211 115.2621181  30.1566228
  60.6541475 113.7813721  30.1275593  59.3709109 114.0041435  32.7409496
  59.8708887 114.1157969  31.9323815  60.0144716 113.7002487  33.3810305
  59.7030420 116.7636467  29.5944524  58.8156275 117.0486118  29.3764719
  60.1184409 116.6030231  28.7471801  63.0544956 116.7882988  33.3098863
  63.8305346 117.2779441  33.5823480  62.3293091 117.2141042  33.7670733
  65.4917515 117.5010607  34.3672804  66.0862006 117.2606343  33.6566112
  65.5644099 116.7817738  34.9946340  59.6771444 122.2791003  29.8094814
  59.6206645 122.7359555  28.9702447  60.2299786 121.5181688  29.6317657
  63.4876250 118.0680735  30.6344934  63.2313184 117.6677371  31.4653141
  62.8629118 118.7824529  30.5095073  67.7988588 120.8076808  33.1416225
  67.2388146 120.8769998  33.9147787  67.1932091 120.6317793  32.4215721
  60.4106223 123.4695784  27.1047343  60.3555027 123.3040056  26.1635787
  59.7852279 124.1771817  27.2609533  45.1998738 118.7063849  40.9308766
  45.8457602 118.1962803  41.4195991  44.9915889 119.4432530  41.5052191
  53.7202349 112.9703893  26.6832662  53.7081019 113.9145733  26.8400933
  54.6125771 112.7874039  26.3892123  57.5354468 109.5646670  30.9378599
  56.7686864 109.0105157  31.0835281  57.9465173 109.6368539  31.7992750
  49.5396229 115.8531466  45.0283780  50.4027691 115.4968271  45.2387104
  48.9661640 115.5145361  45.7159184  68.9602854 126.7051165  37.8898290
  68.6167123 127.5952806  37.8137400  69.3281817 126.5152822  37.0267875
  70.7590520 125.9644724  32.9916027  71.0649396 125.1042087  32.7041942
  71.4843124 126.5562344  32.7915021  68.4644691 125.7643050  34.4145010
  68.7446445 125.0966239  35.0405436  69.2495298 125.9572145  33.9019673
  72.6246843 127.9418863  33.2812980  72.4271664 127.6333951  34.1656312
  73.2346549 128.6680501  33.4110910  68.3748223 124.8938588  30.9378599
  67.6080618 124.3397074  31.0835281  68.7858928 124.9660457  31.7992750
   6.9205627  28.7872546  28.7153646   6.8618173  28.1031767  28.0484229
   7.3225145  29.5291536  28.2634272   5.4057301  28.4887464  31.2917456
   5.9497205  29.1017422  30.7972411   4.8244145  29.0467042  31.8084469
   8.7286095  27.9483518  30.6278778   7.9381639  27.9307657  30.0883277
   8.4919450  28.4871811  31.3827814  10.3502167  27.2172926  28.1853528
  10.0586975  27.5802906  29.0216989   9.7374298  26.5039934  28.0066860
   3.5283359  26.1347231  33.1546213   4.3974519  26.3087883  32.7932848
   3.0490111  26.9541647  33.0321942  15.1875835  37.8435856  22.5591487
  15.8254245  37.7242604  21.8554828  15.0696678  38.7916700  22.6179440
  11.9965541  37.7963285  22.4953012  11.6584053  37.6804349  21.6073547
  12.8655309  37.3954450  22.4754018  12.4785324  38.9498136  28.4539218
  12.4673965  38.5550935  27.5819721  12.6405964  38.2164209  29.0472989
   5.4016789  41.1449953  21.3234124   6.1938081  40.8040777  20.9080423
   5.6413439  41.2544928  22.2436277   9.1992585  41.7335248  27.4018402
   8.9082451  42.6380879  27.2865068   9.8349570  41.7751776  28.1162471
  10.1248792  39.1112097  23.9919761  10.7212365  38.8868119  23.2776724
  10.1823764  38.3696842  24.5945209  20.1425531  35.5062544  20.5377674
  20.8750703  34.9361760  20.7715503  19.3864886  35.1184144  20.9784180
  17.6650951  29.2184118  24.9972283  17.3334276  30.0879529  24.7733498
  17.0696564  28.9020402  25.6766313  14.1582470  41.4196664  24.3968195
  13.8583194  42.3221702  24.2884003  13.8133530  41.1528847  25.2489348
  17.5579614  33.9379204  22.0765633  16.6496492  33.8694612  21.7824394
  17.5067210  34.4151149  22.9047458   9.1403250  48.1840984  17.3639163
   9.0627280  49.1348809  17.4427644   8.5364894  47.8386856  18.0214089
  11.6320480  35.3568849  30.0200530  10.8553814  35.9162770  30.0103395
  12.2711043  35.8425632  30.5415400  19.4241261  32.1395642  23.8543507
  18.7815641  32.4328175  23.2083301  18.9196189  32.0248563  24.6596703
   9.8866852  38.1654303  29.5818497  10.6281537  38.7039347  29.3053321
   9.1803838  38.7920591  29.7390049  15.3622192  40.3083443  28.1790658
  15.7705548  39.8665854  27.4345291  14.6399454  39.7336071  28.4324851
  11.7153262  35.2456050  25.5524215  12.5614457  35.6695464  25.6958864
  11.6551900  34.5889674  26.2462778  15.6851007  40.8684634  21.9342947
  15.0559869  41.0330348  21.2319015  15.2976669  41.2826243  22.7053911
  19.5640239  41.8039072  19.2887311  18.8791277  42.1837973  18.7384344
  19.6484088  42.4134398  20.0219259  14.8652707  32.9060418  27.2105389
  14.6213639  33.6602479  26.6739665  15.1412638  33.2845766  28.0452636
  16.8191170  39.4499031  25.8882655  17.0308065  40.0930791  25.2117036
  16.7720918  38.6161347  25.4204585   8.1303050  40.1530523  22.1372796
   8.7004407  40.5817792  21.4990280   8.7211161  39.8713108  22.8356981
   8.6228216  35.3193951  30.3833807   7.9926877  36.0010232  30.6169204
   8.5164304  35.2077033  29.4386945  17.9336998  42.3270986  24.0605012
  18.7554442  41.9251173  23.7787694  17.9299401  42.2239220  25.0121128
  11.6993602  41.8755029  26.2165722  11.7638034  42.3375437  27.0523894
  10.9904525  41.2452394  26.3448032  26.0242991  38.6709735  20.4089983
  25.2706700  38.1017133  20.2533988  26.1590532  38.6372399  21.3560618
   7.9008959  29.6214717  32.7459058   7.5075904  29.0680915  33.4206702
   8.7175099  29.9325295  33.1365576   6.6765901  44.1764331  18.7395381
   6.8532530  45.0982296  18.5516365   7.4722735  43.8622750  19.1689761
  10.8176920  31.0372596  30.3379315  11.5586633  31.6379749  30.2583777
  11.0494843  30.2950234  29.7797357   5.9618258  36.2228963  28.6157544
   5.8471773  35.3214220  28.9164643   5.1062776  36.4692660  28.2642361
  13.0410096  44.1646703  30.2145045  12.5973950  43.3783082  29.8965949
  13.7027309  44.3525854  29.5488936   7.7997217  45.6942505  24.7405723
   8.3504642  45.5659568  23.9682717   6.9608693  45.9937394  24.3900616
  15.1391334  44.4449503  28.2426446  15.1209809  45.2658384  27.7506715
  16.0611254  44.3203579  28.4676587  11.5964388  41.9593633  29.0849954
  12.1292725  41.1981921  28.8549262  11.0678469  41.6667285  29.8274109
  17.9409947  39.2828646  21.7135813  17.2833621  39.9727907  21.8015941
  18.7450346  39.6725078  22.0569799  16.7515405  37.6373018  19.7639755
  17.2647287  38.2703010  20.2661464  17.4016629  37.0374214  19.3983115
  13.2296236  35.1122474  22.0098095  12.3118798  35.3337421  21.8519783
  13.6456380  35.1868785  21.1509802  17.5177202  42.6179020  17.8918897
  17.0639529  41.7769930  17.9484088  16.8871168  43.2540418  18.2293677
  15.9610141  44.4555517  18.8268715  16.2533115  45.0160574  18.1081081
  16.4708761  44.7484078  19.5821874  10.9243766  45.2335868  19.9162169
  10.8819945  45.4596714  18.9870701  11.8406465  44.9999242  20.0647970
  14.3709400  35.7019935  26.8142798  14.7258787  35.9291408  27.6737263
  15.0181531  36.0338312  26.1920053  20.1007137  38.8238371  17.5192127
  19.9625035  39.0139967  16.5913316  19.7443356  39.5857754  17.9760178
  20.1276516  40.8914898  22.5303398  20.5613023  40.7990187  23.3786452
  20.8408097  40.8672399  21.8923414  13.8604411  44.4916992  24.0636499
  13.9141434  45.0607929  24.8314215  12.9919193  44.6618877  23.6990536
   6.7402805  34.1934548  25.5460950   7.4125858  33.9851911  24.8973599
   5.9132591  33.9956634  25.1066182  20.9892066  40.9338599  25.0636284
  21.1827956  41.8384409  25.3095559  20.8892684  40.4746018  25.8974869
  12.6428377  30.8196489  27.5626611  11.9956292  31.5186439  27.4691087
  13.4129392  31.2532633  27.9302859  16.0507175  41.0845342  30.6377164
  15.8992681  40.8555893  29.7207248  16.0411854  42.0415943  30.6508509
  12.8192511  38.6577254  25.6223431  13.7484571  38.8088414  25.4492398
  12.3983541  38.7461275  24.7672077  11.6180843  42.6827919  23.3921968
  11.4791928  42.3146703  24.2647906  10.8295439  43.1975558  23.2205926
  12.2128995  47.7837015  14.7347505  12.3880750  47.3125058  15.5493128
  11.5261783  48.4102781  14.9628766  13.1686058  42.0609521  20.7810806
  12.8335891  42.0210291  21.6768456  12.6690004  41.3954237  20.3081216
   7.1430302  37.4677151  26.3063387   7.0050100  36.7357390  26.9074926
   8.0535225  37.3786052  26.0247575   9.7712603  37.1797111  25.7947067
  10.4812221  36.5390303  25.7533685   9.7281911  37.4310006  26.7173248
  17.7599381  44.1164464  28.7153646  17.7011927  43.4323684  28.0484229
  18.1618900  44.8583454  28.2634272   8.4841537  34.1662329  27.6142706
   7.9478894  33.7153067  28.2664303   7.8958245  34.3008237  26.8713171
   6.7790080  50.9326378  21.5087365   7.0186678  51.5644902  22.1866384
   5.9359276  50.5814418  21.7952724  17.7616788  42.0804048  26.9467626
  16.8743567  41.7429970  27.0694025  18.3315340  41.3487079  27.1836391
  11.2917942  46.7405500  23.9128869  11.2188113  47.5460472  24.4248174
  10.8495335  46.9397466  23.0876890  11.0807721  45.9777270  17.4231691
  10.2975243  46.5198951  17.5169915  11.7800467  46.4951250  17.8225932
  22.2434129  37.4912265  21.7084187  22.2324005  38.3736981  21.3378121
  21.3751508  37.1383816  21.5138725  13.7516625  46.6392334  26.0687028
  14.4644598  47.2739799  25.9962929  13.2606654  46.7356200  25.2527030
   8.8028539  44.3886778  26.8892599   9.5037998  45.0223261  27.0421993
   8.3323654  44.7301509  26.1288238  16.6029825  36.9431385  24.7145149
  15.9501275  37.1907293  24.0597602  16.9810205  36.1295524  24.3807626
  13.5636999  46.9791079  18.8173319  13.7459393  46.1612734  19.2801071
  14.3869985  47.1958771  18.3798209  13.8979164  45.9059264  16.0788368
  14.4266931  45.3951718  15.4658530  14.1607384  45.5901794  16.9433901
  12.6517398  37.6851196  31.2011186  11.9758035  37.5845326  31.8713561
  13.4745032  37.5290410  31.6647183   4.3996257  43.9223133  23.8223701
   4.9849694  43.1766821  23.9551605   4.2021095  44.2327090  24.7060365
   7.2534912  46.9574380  18.8386144   6.5845287  47.4420508  18.3550184
   7.1147782  47.2043601  19.7529522  11.3940181  48.9918124  25.4368802
  11.9458489  49.1549745  26.2017887  11.7346374  49.5822562  24.7648827
   5.8456947  33.4116406  29.6863721   6.4728985  33.0293484  30.3001245
   4.9884865  33.1930608  30.0519413  16.2451055  43.8179381  31.2917456
  16.7890959  44.4309340  30.7972411  15.6637900  44.3758960  31.8084469
  14.5308568  46.9400099  22.4232484  14.4059708  46.1389839  21.9143430
  15.1887659  47.4346293  21.9346454  16.5943476  44.7409119  24.0512034
  15.6473812  44.6214471  23.9790361  16.9426250  43.8531618  24.1338296
   8.9543050  30.6303258  27.8750276   9.4777452  30.8765555  28.6376585
   8.7355383  31.4623293  27.4553413  13.5989910  44.5361836  20.2516386
  13.4514872  43.6078543  20.4323956  14.4243403  44.5581926  19.7673462
  17.2024032  45.3590394  21.3381259  18.1270579  45.1533256  21.2005710
  17.0339335  45.1106796  22.2470601  10.1595595  31.5716953  25.5599947
   9.8192415  30.7724767  25.9620627   9.4534601  31.8718664  24.9876780
  12.0473159  32.7725275  23.9153265  11.7890937  33.6942345  23.9137596
  11.5158199  32.3755709  24.6053729  16.9919348  45.8776062  16.6943351
  17.1656225  45.3122484  15.9417203  17.4848239  46.6776957  16.5122841
   2.8096308  37.8890731  24.7606909   2.2649776  38.6650539  24.8927184
   3.6875657  38.2361535  24.6026031  22.8458739  38.6412485  18.3133650
  23.2889885  37.8919810  17.9152774  21.9685249  38.6322621  17.9307382
  17.9794520  45.1942826  13.7940249  18.6745425  45.8149519  14.0127564
  18.3217670  44.3438177  14.0692627   3.5962329  37.0160627  27.6537066
   2.8544066  37.1643263  28.2401697   3.2755074  37.2768893  26.7903816
  19.8785943  42.6442532  15.3227580  20.4037268  42.9829805  14.5976900
  19.7908296  41.7089547  15.1390714  11.5405992  46.5576605  27.4517456
  11.8493119  46.3125752  28.3240156  12.3381474  46.7623244  26.9636327
  11.5626604  48.7114515  19.6822833  11.1231594  48.2190894  20.3755690
  12.3134721  48.1687483  19.4414908   4.0418943  44.9026056  19.6847461
   4.8676963  44.6029828  19.3046104   3.6912995  44.1333678  20.1337250
   9.0100476  44.2552524  21.7545135   8.3880486  43.5923229  21.4547362
   9.6805343  44.2813656  21.0718782   9.0825004  32.7334312  31.3477641
   9.1313159  33.6096435  30.9655410   9.6247518  32.1911705  30.7749284
  19.5679849  43.2775435  30.6278778  18.7775393  43.2599574  30.0883277
  19.3313204  43.8163729  31.3827814  19.6877725  40.1267902  27.9411506
  19.7375729  39.9617909  28.8827029  19.5791648  39.2595161  27.5509387
  16.9781487  36.1098830  29.2570813  17.8791350  35.9705295  28.9654811
  17.0529461  36.2753285  30.1968990  11.3124292  33.4865685  28.1023999
  10.4427602  33.7799251  27.8306588  11.5483773  34.0706130  28.8231263
  21.1895921  42.5464843  28.1853528  20.8980730  42.9094824  29.0216989
  20.5768053  41.8331852  28.0066860  22.3891604  40.1117723  20.7056098
  23.2238495  40.5507527  20.8693658  22.5250732  39.6356376  19.8864344
  19.4383110  37.6697458  26.6533586  19.9137231  37.8625104  25.8452437
  18.5148675  37.7256644  26.4076969  14.0163326  29.7045302  25.6189420
  14.5345270  30.4406328  25.2935908  13.6618459  30.0109295  26.4536179
  18.1384779  34.5463218  24.8861891  19.0902201  34.6461316  24.9074115
  17.9688229  33.7541487  25.3959976  16.1599158  31.6318801  25.0721292
  15.5649090  31.9123814  24.3767781  15.8748855  32.1212702  25.8438033
  20.6172856  37.7669338  24.0004191  20.5849176  36.8285338  24.1863875
  21.2273480  37.8453374  23.2670016  20.7667345  34.5580381  24.0462474
  20.2506394  33.7738838  23.8592403  21.6507293  34.2299098  24.2108994
  26.4349406  38.8285345  23.1410228  27.1652795  38.5670633  23.7017931
  25.8256352  38.0914067  23.1812296  24.5164703  36.9693207  23.7384679
  23.7897867  36.8349172  23.1301171  24.1011990  37.2770036  24.5441397
  12.3394880  40.6883137  31.5032052  13.2597889  40.8661736  31.6972098
  12.3044463  39.7439182  31.3511751   5.3356952  38.5984171  24.1454833
   5.5542962  39.5301279  24.1642867   5.7482726  38.2392146  24.9309637
  10.2084818  34.1717377  33.5357582  10.1081545  35.1211734  33.4669673
   9.9906360  33.8435616  32.6633652  10.0716088  37.6014516  32.3522644
   9.5883169  38.4014876  32.5586533  10.1577027  37.6122461  31.3990088
   5.9989425  41.4919051  24.3891078   6.9532679  41.4602993  24.3221009
   5.8001949  41.0309675  25.2041303   6.5888807  40.0620167  26.9561875
   7.4081696  40.5564246  26.9796712   6.8625615  39.1452135  26.9279443
  22.1342498  33.1905059  21.0918111  22.7286989  32.9500795  20.3811419
  22.2069082  32.4712190  21.7191647   4.3539654  47.0338670  21.4061275
   4.2194122  46.2739071  20.8399273   3.9371716  47.7579570  20.9390064
  24.4413571  36.4971260  19.8661532  23.8813129  36.5664450  20.6393094
  23.8357074  36.3212245  19.1461028   7.5108780  47.9307987  21.6179718
   7.3941164  48.8753420  21.5158408   6.6901226  47.6281549  22.0065517
   1.8423722  34.3958301  27.6554072   2.4882585  33.8857255  28.1441297
   1.6340873  35.1326982  28.2297497  14.3677114  41.4639148  33.1546213
  15.2368273  41.6379800  32.7932848  13.8883865  42.2833565  33.0321942
   8.5363294  48.5836249  24.8335646   9.4390541  48.6159859  25.1502141
   8.3100664  47.6536700  24.8481982  10.2916896  47.3367236  21.4945725
   9.3412527  47.3369097  21.3810097  10.5949382  46.5899970  20.9781760
   6.1821213  31.5425918  31.7529086   7.0452674  31.1862723  31.9632411
   5.6086623  31.2039813  32.4404491  26.0269589  53.1727774  22.5591487
  26.6647999  53.0534521  21.8554828  25.9090432  54.1208618  22.6179440
  22.8359296  53.1255202  22.4953012  22.4977807  53.0096267  21.6073547
  23.7049064  52.7246367  22.4754018  18.6946111  54.9790679  18.4849903
  18.1310977  54.8880616  17.7166191  18.5798507  54.1590583  18.9652396
  23.3179079  54.2790054  28.4539218  23.3067720  53.8842852  27.5819721
  23.4799718  53.5456127  29.0472989  16.2410543  56.4741870  21.3234124
  17.0331835  56.1332695  20.9080423  16.4807194  56.5836845  22.2436277
  24.2745670  58.6461646  13.7964368  23.6233650  59.2315727  13.4098382
  25.0690033  59.1767841  13.8559405  18.2001297  55.7350784  14.1951502
  18.9732173  55.1879771  14.0564378  18.5526696  56.5995033  14.4065964
  20.0386340  57.0627166  27.4018402  19.7476206  57.9672797  27.2865068
  20.6743324  57.1043693  28.1162471  20.9642547  54.4404014  23.9919761
  21.5606119  54.2160037  23.2776724  21.0217518  53.6988760  24.5945209
  20.5367575  51.8943450  11.8269952  20.7893096  51.3724971  11.0653415
  19.5992134  51.7309595  11.9296636  25.5810858  50.8979228  19.6344696
  26.3673947  50.4798651  19.2835113  25.8449562  51.8025320  19.8026344
  25.7520935  56.3352078  14.3333352  25.1166768  56.4086705  15.0454257
  25.4218342  56.9245677  13.6552432  30.9819285  50.8354461  20.5377674
  31.7144457  50.2653678  20.7715503  30.2258641  50.4476062  20.9784180
  20.2563864  53.7971556  14.0294327  20.1400122  53.1216459  14.6975412
  20.3666124  53.3103930  13.2126480  22.5995405  53.2581703  17.7341016
  22.2353612  52.7312324  18.4453938  23.4562521  52.8680172  17.5607502
  28.5044705  44.5476035  24.9972283  28.1728030  45.4171446  24.7733498
  27.9090319  44.2312319  25.6766313  22.2400892  48.2871602  12.7302365
  22.4075294  49.1551839  13.0972836  22.0498061  48.4498884  11.8063654
  24.9976225  56.7488581  24.3968195  24.6976948  57.6513620  24.2884003
  24.6527284  56.4820764  25.2489348  18.4488706  53.2002378  20.4304900
  17.5239203  53.0678592  20.6382592  18.6973120  53.9796597  20.9274842
  28.3973369  49.2671121  22.0765633  27.4890246  49.1986530  21.7824394
  28.3460965  49.7443066  22.9047458  22.2190113  50.7429260  13.7149032
  22.0989738  51.1886311  14.5534512  21.5242701  51.0914578  13.1562570
  15.8097517  52.8435652  21.2648689  15.9389899  53.0970131  22.1788101
  15.1294969  53.4363360  20.9453344  19.9797005  63.5132902  17.3639163
  19.9021034  64.4640727  17.4427644  19.3758648  63.1678774  18.0214089
  22.4714235  50.6860767  30.0200530  21.6947569  51.2454687  30.0103395
  23.1104798  51.1717550  30.5415400  30.2635015  47.4687560  23.8543507
  29.6209395  47.7620093  23.2083301  29.7589944  47.3540480  24.6596703
  27.9175179  51.2150733  14.5429366  28.8293035  51.4478120  14.3677063
  27.4084826  51.7987777  13.9804444  20.7260607  53.4946220  29.5818497
  21.4675291  54.0331264  29.3053321  20.0197592  54.1212509  29.7390049
  26.2015946  55.6375361  28.1790658  26.6099303  55.1957771  27.4345291
  25.4793208  55.0627988  28.4324851  22.5547017  50.5747968  25.5524215
  23.4008212  50.9987381  25.6958864  22.4945654  49.9181592  26.2462778
  26.5244761  56.1976552  21.9342947  25.8953624  56.3622266  21.2319015
  26.1370423  56.6118161  22.7053911  30.4033993  57.1330989  19.2887311
  29.7185031  57.5129891  18.7384344  30.4877842  57.7426316  20.0219259
  25.7046462  48.2352336  27.2105389  25.4607394  48.9894397  26.6739665
  25.9806392  48.6137684  28.0452636  27.6584925  54.7790948  25.8882655
  27.8701820  55.4222708  25.2117036  27.6114673  53.9453265  25.4204585
  25.2611154  47.3908769  22.7919227  24.3995633  47.6890023  23.0835964
  25.2873588  47.6079168  21.8600259  22.0772723  55.9350960  19.1993032
  22.5411069  56.2138663  18.4097655  21.8129521  55.0334404  19.0166123
  18.9696804  55.4822441  22.1372796  19.5398161  55.9109710  21.4990280
  19.5604916  55.2005026  22.8356981  21.0141609  52.0574112  16.0082598
  21.7165652  52.5095156  16.4756524  20.6822238  51.4157931  16.6362491
  19.4621971  50.6485869  30.3833807  18.8320631  51.3302149  30.6169204
  19.3558058  50.5368950  29.4386945  14.7566943  50.3157665  21.3099731
  13.9665997  50.5715193  20.8339842  15.2478190  51.1306002  21.4151772
  28.7730753  57.6562904  24.0605012  29.5948196  57.2543091  23.7787694
  28.7693155  57.5531138  25.0121128  16.7081688  50.6802244  18.2683208
  15.9112852  50.7920938  18.7866703  16.4807281  51.0188896  17.4024098
  22.5387356  57.2046947  26.2165722  22.6031789  57.6667354  27.0523894
  21.8298280  56.5744312  26.3448032  13.0404646  50.5688155  23.7414722
  13.2912684  51.4535165  24.0072298  13.5764194  50.3892757  22.9689814
  36.8636746  54.0001652  20.4089983  36.1100454  53.4309050  20.2533988
  36.9984287  53.9664317  21.3560618  22.2535374  58.8715055  16.0844703
  22.1181048  59.7166590  16.5129551  22.7945186  59.0734332  15.3210637
  18.7402713  44.9506634  32.7459058  18.3469659  44.3972833  33.4206702
  19.5568854  45.2617213  33.1365576  15.7064771  56.3890493  16.6572628
  16.2189292  57.1833743  16.8078193  16.3587484  55.6916783  16.5906229
  17.5159656  59.5056249  18.7395381  17.6926284  60.4274214  18.5516365
  18.3116489  59.1914668  19.1689761  21.6570674  46.3664514  30.3379315
  22.3980388  46.9671667  30.2583777  21.8888597  45.6242151  29.7797357
  16.8012012  51.5520881  28.6157544  16.6865527  50.6506138  28.9164643
  15.9456530  51.7984578  28.2642361  23.8803850  59.4938621  30.2145045
  23.4367704  58.7075000  29.8965949  24.5421064  59.6817772  29.5488936
  18.6390971  61.0234423  24.7405723  19.1898396  60.8951486  23.9682717
  17.8002447  61.3229312  24.3900616  25.9785088  59.7741421  28.2426446
  25.9603563  60.5950302  27.7506715  26.9005008  59.6495496  28.4676587
  22.4358142  57.2885551  29.0849954  22.9686479  56.5273839  28.8549262
  21.9072223  56.9959202  29.8274109  25.6027837  42.3945616  24.6143596
  25.2592107  43.2847258  24.5382707  25.9706800  42.2047274  23.7513181
  13.6713688  54.7179147  17.4332198  14.5088910  55.1276155  17.2165906
  13.8491956  53.7778589  17.4032392  25.5678120  52.3854228  13.1216031
  25.0524743  53.1558832  13.3604419  25.2955428  51.7119364  13.7449093
  23.1525231  47.2303928  18.1801270  22.2966827  46.8410779  18.0006908
  23.5652183  47.3095889  17.3201055  24.6824378  44.7650272  22.5792829
  24.1789173  44.7280407  21.7660635  24.9754985  45.6743014  22.6389486
  20.9267264  44.8489001  21.5859011  21.7920260  44.6531810  21.2264901
  20.9944772  44.6199353  22.5128368  30.5412394  55.1386582  15.0569205
  29.7641837  54.7997742  14.6124367  31.2203875  55.1439205  14.3824170
  25.3564423  50.2581320  14.9475813  25.0514559  50.5727469  15.7985956
  26.3094865  50.3362740  14.9903146  23.8010855  56.4171543  16.5968767
  23.2732217  55.6824303  16.2842004  23.2998358  57.1946219  16.3508735
  28.7803701  54.6120563  21.7135813  28.1227375  55.3019825  21.8015941
  29.5844100  55.0016995  22.0569799  18.5329583  47.0791209  18.9575378
  19.1073335  46.8566391  18.2248571  19.1200565  47.1479904  19.7103979
  27.5909160  52.9664936  19.7639755  28.1041042  53.5994928  20.2661464
  28.2410384  52.3666132  19.3983115  18.8599170  49.1095670  12.9771263
  18.0236482  49.4470357  13.2980538  18.7203939  48.9744650  12.0398400
  20.8352250  43.9532458  17.6850447  20.1816663  43.6381475  17.0607062
  20.7932724  43.3308199  18.4110270  21.9463455  54.2351753   9.6003740
  21.0390517  54.0041007   9.7994889  22.4434487  53.4389373   9.7877721
  24.8531534  62.9449260  12.5200426  24.1793233  63.2480957  13.1285384
  25.2397356  63.7478341  12.1705883  24.0689991  50.4414392  22.0098095
  23.1512552  50.6629339  21.8519783  24.4850134  50.5160702  21.1509802
  24.8525038  51.8405807  17.1400775  25.5996857  52.3527205  16.8307897
  25.1216628  51.5189860  18.0005169  23.1251689  54.3364348  14.1227730
  22.2162908  54.0523381  14.2200199  23.1546772  54.7563427  13.2631036
  28.3570956  57.9470938  17.8918897  27.9033283  57.1061847  17.9484088
  27.7264923  58.5832336  18.2293677  27.3003876  48.8762924  19.1219565
  26.5626632  48.3640310  19.4529807  27.5530649  48.4363305  18.3102842
  26.8003895  59.7847434  18.8268715  27.0926870  60.3452491  18.1081081
  27.3102516  60.0775995  19.5821874  27.4015503  41.6539176  19.7161334
  27.7074380  40.7936539  19.4287249  28.1268108  42.2456796  19.5160328
  13.6939859  52.0569862  18.1042932  13.4964259  51.4639223  17.3793998
  13.1386523  51.7522072  18.8218871  21.6736583  51.9492969  20.2237525
  21.7285192  50.9966805  20.1480002  20.8627785  52.1052408  20.7078823
  22.8227776  55.8773092  11.4615808  22.3847206  55.1608951  11.0021446
  23.5638217  56.1049207  10.9000900  19.6128943  50.5670028  17.9827904
  18.7996808  50.8664199  18.3893096  20.1087937  50.1725717  18.7002386
  21.7637520  60.5627785  19.9162169  21.7213699  60.7888632  18.9870701
  22.6800219  60.3291160  20.0647970  25.2103154  51.0311853  26.8142798
  25.5652542  51.2583326  27.6737263  25.8575285  51.3630230  26.1920053
  30.9400891  54.1530289  17.5192127  30.8018790  54.3431885  16.5913316
  30.5837110  54.9149672  17.9760178  19.1043017  48.1388384  23.5989139
  19.7442397  47.9977143  22.9012102  18.2720548  47.8522897  23.2227741
  30.9670271  56.2206816  22.5303398  31.4006777  56.1282105  23.3786452
  31.6801852  56.1964316  21.8923414  19.8803321  57.4390814  19.7124131
  20.6743920  56.9441135  19.5106706  19.1695014  56.9108678  19.3491837
  24.6998166  59.8208910  24.0636499  24.7535188  60.3899846  24.8314215
  23.8312947  59.9910795  23.6990536  16.1886085  51.5833896  15.7883884
  15.2583673  51.5218352  16.0053846  16.2843557  51.0609849  14.9920525
  16.1071634  48.1088709  18.3762126  16.3678451  49.0234042  18.2671286
  16.9288806  47.6413152  18.5258738  17.5796559  49.5226466  25.5460950
  18.2519613  49.3143828  24.8973599  16.7526346  49.3248552  25.1066182
  31.8285820  56.2630516  25.0636284  32.0221710  57.1676327  25.3095559
  31.7286439  55.8037936  25.8974869  23.4822131  46.1488407  27.5626611
  22.8350046  46.8478357  27.4691087  24.2523147  46.5824551  27.9302859
  26.8900929  56.4137259  30.6377164  26.7386435  56.1847811  29.7207248
  26.8805609  57.3707861  30.6508509  23.6586265  53.9869172  25.6223431
  24.5878325  54.1380332  25.4492398  23.2377295  54.0753193  24.7672077
  22.4574597  58.0119836  23.3921968  22.3185683  57.6438621  24.2647906
  21.6689193  58.5267476  23.2205926  23.0522749  63.1128933  14.7347505
  23.2274505  62.6416976  15.5493128  22.3655537  63.7394699  14.9628766
  24.0079812  57.3901439  20.7810806  23.6729645  57.3502209  21.6768456
  23.5083758  56.7246155  20.3081216  17.9824056  52.7969069  26.3063387
  17.8443854  52.0649308  26.9074926  18.8928980  52.7077969  26.0247575
  26.9439004  54.7357473  11.0547866  26.3268175  54.0104302  10.9580918
  26.4755492  55.4966834  10.7114940  20.6106357  52.5089028  25.7947067
  21.3205976  51.8682221  25.7533685  20.5675665  52.7601923  26.7173248
  28.5993136  59.4456382  28.7153646  28.5405682  58.7615602  28.0484229
  29.0012654  60.1875372  28.2634272  19.3235291  49.4954246  27.6142706
  18.7872648  49.0444985  28.2664303  18.7351999  49.6300155  26.8713171
  17.6183834  66.2618296  21.5087365  17.8580433  66.8936820  22.1866384
  16.7753031  65.9106336  21.7952724  28.6010543  57.4095966  26.9467626
  27.7137322  57.0721888  27.0694025  29.1709094  56.6778997  27.1836391
  10.2539690  53.7420057  20.2710677  10.9410730  53.4281787  19.6831693
  10.0987819  54.6461422  19.9977929  15.0574412  48.6310254  24.6995701
  14.9732601  48.0235924  23.9646111  14.2357119  49.1219272  24.7005197
  22.1311696  62.0697418  23.9128869  22.0581868  62.8752390  24.4248174
  21.6889089  62.2689384  23.0876890  21.9201476  61.3069188  17.4231691
  21.1368998  61.8490868  17.5169915  22.6194221  61.8243168  17.8225932
  25.2298126  47.1163818  20.0665896  25.7266826  46.3633780  19.7466966
  24.4585108  47.1528134  19.5009105  33.0827884  52.8204183  21.7084187
  33.0717760  53.7028899  21.3378121  32.2145263  52.4675734  21.5138725
  24.5910380  61.9684252  26.0687028  25.3038352  62.6031717  25.9962929
  24.1000409  62.0648118  25.2527030  26.3127907  55.8735505  17.6404319
  25.3784186  55.9936967  17.4709024  26.4904575  54.9707972  17.3764329
  21.8133095  49.2581201  19.7937581  21.4430882  48.7052241  20.4818486
  22.3092187  48.6539334  19.2412581  29.7000458  51.7152824  18.1754354
  30.1660910  52.5480816  18.1014656  30.1507959  51.2497806  18.8799612
  19.6422293  59.7178696  26.8892599  20.3431753  60.3515179  27.0421993
  19.1717408  60.0593427  26.1288238  27.7676689  58.0596645  15.1740506
  28.0436533  57.9453240  16.0834380  26.8981188  57.6614130  15.1352679
  27.6717121  44.0833411  22.2145255  26.7580201  44.3137638  22.3827462
  28.1010222  44.1671855  23.0659287  27.4423579  52.2723303  24.7145149
  26.7895030  52.5199210  24.0597602  27.8203959  51.4587441  24.3807626
  24.4030753  62.3082996  18.8173319  24.5853148  61.4904652  19.2801071
  25.2263739  62.5250688  18.3798209  24.7372919  61.2351181  16.0788368
  25.2660685  60.7243636  15.4658530  25.0001138  60.9193712  16.9433901
  23.4911152  53.0143114  31.2011186  22.8151789  52.9137243  31.8713561
  24.3138786  52.8582328  31.6647183  15.2390011  59.2515051  23.8223701
  15.8243448  58.5058739  23.9551605  15.0414850  59.5619007  24.7060365
  18.0928667  62.2866298  18.8386144  17.4239042  62.7712426  18.3550184
  17.9541536  62.5335518  19.7529522   9.8307666  51.8220651  22.5428144
   9.8691766  51.2884242  23.3365262   9.3247959  51.2955856  21.9239122
  22.2333935  64.3210042  25.4368802  22.7852243  64.4841663  26.2017887
  22.5740129  64.9114479  24.7648827  17.2098429  46.6685191  26.0390687
  17.2739755  47.5300022  25.6268084  17.1465549  46.0559193  25.3063045
  16.6850701  48.7408324  29.6863721  17.3122740  48.3585401  30.3001245
  15.8278620  48.5222526  30.0519413  27.0844810  59.1471299  31.2917456
  27.6284714  59.7601257  30.7972411  26.5031654  59.7050877  31.8084469
  13.4616244  50.5484753  15.6182076  13.7569685  49.6395431  15.5649129
  12.5604280  50.5272492  15.2963078  25.3702323  62.2692017  22.4232484
  25.2453462  61.4681757  21.9143430  26.0281414  62.7638210  21.9346454
  16.9910491  48.6240750  21.6009624  16.2697077  49.2376717  21.4617098
  17.7803747  49.1598514  21.5226270  27.4337231  60.0701037  24.0512034
  26.4867566  59.9506388  23.9790361  27.7820004  59.1823535  24.1338296
  19.7936804  45.9595176  27.8750276  20.3171206  46.2057473  28.6376585
  19.5749138  46.7915211  27.4553413  15.1904085  48.2298851  15.7421401
  14.8616792  47.3496230  15.5596507  15.5443456  48.1746519  16.6297790
  24.4383664  59.8653753  20.2516386  24.2908627  58.9370461  20.4323956
  25.2637158  59.8873844  19.7673462  18.3045909  48.5171820  16.1096879
  18.6441981  49.0457742  15.3875487  18.7518029  48.8552227  16.8855445
  28.0417786  60.6882312  21.3381259  28.9664334  60.4825173  21.2005710
  27.8733089  60.4398713  22.2470601  20.9989349  46.9008871  25.5599947
  20.6586170  46.1016684  25.9620627  20.2928356  47.2010582  24.9876780
  21.6505821  43.9858184  24.0127270  22.4731890  43.5118662  23.8906160
  21.8943885  44.7648667  24.5125956  20.2914056  47.0146442  14.3090171
  21.0122418  47.3927695  13.8053888  19.6679360  47.7335319  14.4125149
  24.4345179  47.7191591  15.2448504  24.6508793  48.6016229  14.9437332
  23.9539246  47.3277804  14.5154146  19.1744400  50.6777304  21.8219248
  19.0288981  50.9917607  22.7143530  18.6969604  51.2962205  21.2690147
  21.0340783  47.6679852  21.8700138  21.0202352  46.7720946  21.5332436
  21.7513211  47.6750516  22.5038424  22.8866914  48.1017192  23.9153265
  22.6284691  49.0234263  23.9137596  22.3551954  47.7047627  24.6053729
  27.8313102  61.2067980  16.6943351  28.0049980  60.6414402  15.9417203
  28.3241994  62.0068874  16.5122841  13.6490062  53.2182649  24.7606909
  13.1043530  53.9942457  24.8927184  14.5269412  53.5653453  24.6026031
  20.4377679  46.5494232  17.1387708  20.5593590  45.6210879  17.3378595
  20.1479721  46.5632918  16.2266023  23.3068869  44.2349143  20.2754428
  23.3290566  44.2988476  19.3206407  23.7236928  43.3953652  20.4694934
  33.6852493  53.9704402  18.3133650  34.1283640  53.2211728  17.9152774
  32.8079004  53.9614539  17.9307382  28.8188275  60.5234744  13.7940249
  29.5139179  61.1441437  14.0127564  29.1611425  59.6730095  14.0692627
  14.4356084  52.3452545  27.6537066  13.6937820  52.4935180  28.2401697
  14.1148828  52.6060810  26.7903816  30.7179698  57.9734449  15.3227580
  31.2431022  58.3121722  14.5976900  30.6302050  57.0381465  15.1390714
  22.3799747  61.8868523  27.4517456  22.6886873  61.6417670  28.3240156
  23.1775229  62.0915162  26.9636327  22.4020359  64.0406433  19.6822833
  21.9625349  63.5482811  20.3755690  23.1528476  63.4979400  19.4414908
  14.8812698  60.2317974  19.6847461  15.7070718  59.9321745  19.3046104
  14.5306750  59.4625596  20.1337250  19.8494231  59.5844442  21.7545135
  19.2274240  58.9215147  21.4547362  20.5199098  59.6105574  21.0718782
  13.0821303  58.1504300  20.6436395  12.2453211  57.7226474  20.4620396
  13.0544948  58.3436743  21.5807186  19.9218758  48.0626230  31.3477641
  19.9706914  48.9388353  30.9655410  20.4641273  47.5203623  30.7749284
  30.4073604  58.6067353  30.6278778  29.6169148  58.5891492  30.0883277
  30.1706959  59.1455647  31.3827814  30.5271479  55.4559819  27.9411506
  30.5769484  55.2909827  28.8827029  30.4185402  54.5887079  27.5509387
  19.4107738  58.1348365  15.2303595  19.5595858  58.8183830  14.5770268
  20.2174181  58.1153455  15.7453051  27.8175241  51.4390748  29.2570813
  28.7185104  51.2997212  28.9654811  27.8923216  51.6045202  30.1968990
  22.1518047  48.8157602  28.1023999  21.2821356  49.1091168  27.8306588
  22.3877527  49.3998047  28.8231263  32.0289676  57.8756761  28.1853528
  31.7374484  58.2386742  29.0216989  31.4161807  57.1623769  28.0066860
  33.2285358  55.4409641  20.7056098  34.0632250  55.8799445  20.8693658
  33.3644487  54.9648294  19.8864344  30.2776864  52.9989376  26.6533586
  30.7530986  53.1917022  25.8452437  29.3542429  53.0548561  26.4076969
  17.1660371  54.1613543  16.2364664  16.9206413  53.2575873  16.4344874
  17.3356285  54.1630693  15.2944142  24.8557081  45.0337219  25.6189420
  25.3739024  45.7698246  25.2935908  24.5012213  45.3401212  26.4536179
  16.4356018  49.8941900  13.7350825  15.7425263  49.9686255  13.0790861
  16.1907770  49.1302244  14.2572342  25.1069675  41.4537502  21.1390316
  25.3871429  40.7860691  21.7650743  25.8920282  41.6466597  20.6264980
  22.9103143  60.6296496  12.7015343  22.3377110  61.2486683  12.2485814
  23.4835937  61.1795857  13.2355264  28.9778533  49.8755136  24.8861891
  29.9295956  49.9753233  24.9074115  28.8081984  49.0833404  25.3959976
  26.9992913  46.9610719  25.0721292  26.4042845  47.2415732  24.3767781
  26.7142609  47.4504620  25.8438033  26.1300403  60.9133646  13.8323925
  27.0631076  60.8479207  14.0356800  26.0423616  61.7489913  13.3738457
  28.7588420  60.2299516  10.7927872  28.6802051  59.8959380  11.6863630
  29.5798086  60.7221284  10.7919345  31.4566611  53.0961255  24.0004191
  31.4242931  52.1577256  24.1863875  32.0667235  53.1745292  23.2670016
  23.2949942  51.9657308  10.0431395  24.2409046  51.8363516  10.1119813
  22.9164187  51.2271970  10.5200823  31.6061099  49.8872299  24.0462474
  31.0900148  49.1030755  23.8592403  32.4901048  49.5591015  24.2108994
  29.2671826  43.6313314  20.0058287  29.0696647  43.3228403  20.8901619
  29.8771532  44.3574953  20.1356217  37.2743161  54.1577262  23.1410228
  38.0046549  53.8962550  23.7017931  36.6650106  53.4205984  23.1812296
  35.3558458  52.2985125  23.7384679  34.6291621  52.1641090  23.1301171
  34.9405745  52.6061953  24.5441397  23.1788634  56.0175055  31.5032052
  24.0991644  56.1953654  31.6972098  23.1438217  55.0731100  31.3511751
  12.3970799  51.2113648  20.4285327  12.0773584  50.3578956  20.1359701
  11.8504227  51.4262226  21.1843294  16.1750707  53.9276089  24.1454833
  16.3936717  54.8593197  24.1642867  16.5876481  53.5684064  24.9309637
  23.0954925  44.4344174  16.1330522  22.2855653  44.0891259  16.5085768
  23.7839342  44.1251718  16.7218133  25.0245473  43.5122221  17.7554818
  25.5776512  43.9317675  18.4144841  25.2615559  42.5857969  17.7977774
  21.0478572  49.5009295  33.5357582  20.9475299  50.4503652  33.4669673
  20.8300114  49.1727534  32.6633652  12.2659059  54.8316560  22.3978448
  11.5722531  54.4170512  21.8848403  13.0132050  54.8737096  21.8011867
  28.4024280  45.6222746  17.2633482  27.8222949  46.2807550  16.8811535
  28.1360213  44.8000091  16.8520900  26.8527846  45.0227804  19.4654803
  27.3527625  45.1344339  18.6569122  27.4963454  44.7188857  20.1055611
  20.9109842  52.9306434  32.3522644  20.4276924  53.7306794  32.5586533
  20.9970781  52.9414379  31.3990088  14.1795802  54.7634813  20.2744463
  14.1566490  54.8622501  19.3226346  14.4896438  55.6099964  20.5961629
  16.8383180  56.8210968  24.3891078  17.7926433  56.7894911  24.3221009
  16.6395703  56.3601592  25.2041303  17.4282562  55.3912085  26.9561875
  18.2475451  55.8856163  26.9796712  17.7019370  54.4744053  26.9279443
  27.1849158  47.7822837  16.3189831  26.2975013  48.0672487  16.1010025
  27.6003147  47.6216600  15.4717108  30.5363694  47.8069358  20.0344170
  31.3124084  48.2965810  20.3068787  29.8111828  48.2327412  20.4916039
  32.9736253  48.5196977  21.0918111  33.5680744  48.2792713  20.3811419
  33.0462836  47.8004108  21.7191647  15.1933408  62.3630588  21.4061275
  15.0587876  61.6030989  20.8399273  14.7765471  63.0871488  20.9390064
  26.3292371  57.5467511  10.4137851  27.0328222  57.7517514  11.0295506
  25.6055020  58.1144273  10.6786934  27.1590182  53.2977373  16.5340121
  27.1025383  53.7545924  15.6947753  27.7118524  52.5368057  16.3562964
  30.9694988  49.0867105  17.3590240  30.7131922  48.6863740  18.1898448
  30.3447856  49.8010899  17.2340379  35.2807326  51.8263178  19.8661532
  34.7206884  51.8956367  20.6393094  34.6750829  51.6504162  19.1461028
  18.3502534  63.2599905  21.6179718  18.2334918  64.2045337  21.5158408
  17.5294981  62.9573467  22.0065517  28.2379069  57.9850041  12.4636311
  29.0724673  57.5531239  12.2813786  28.0763412  57.8132054  13.3913205
  27.8924961  54.4882154  13.8292650  27.8373765  54.3226425  12.8881094
  27.2671016  55.1958187  13.9854840  12.6817476  49.7250218  27.6554072
  13.3276340  49.2149172  28.1441297  12.4734627  50.4618900  28.2297497
  25.2070868  56.7931066  33.1546213  26.0762028  56.9671718  32.7932848
  24.7277620  57.6125483  33.0321942  21.2021087  43.9890263  13.4077968
  21.1899756  44.9332103  13.5646239  22.0944508  43.8060408  13.1137430
  19.3757048  63.9128167  24.8335646  20.2784295  63.9451777  25.1502141
  19.1494419  62.9828618  24.8481982  21.1310650  62.6659153  21.4945725
  20.1806281  62.6661015  21.3810097  21.4343137  61.9191888  20.9781760
  25.0173206  40.5833040  17.6623905  24.2505602  40.0291526  17.8080588
  25.4283911  40.6554908  18.5238057  17.0214967  46.8717835  31.7529086
  17.8846429  46.5154640  31.9632411  16.4480378  46.5331730  32.4404491
  36.8663344  68.5019692  22.5591487  37.5041754  68.3826439  21.8554828
  36.7484187  69.4500536  22.6179440  33.6753050  68.4547120  22.4953012
  33.3371562  68.3388185  21.6073547  34.5442818  68.0538285  22.4754018
  29.5339866  70.3082596  18.4849903  28.9704731  70.2172533  17.7166191
  29.4192261  69.4882501  18.9652396  34.1572833  69.6081972  28.4539218
  34.1461474  69.2134770  27.5819721  34.3193473  68.8748044  29.0472989
  27.0804298  71.8033788  21.3234124  27.8725590  71.4624613  20.9080423
  27.3200948  71.9128763  22.2436277  35.1139425  73.9753564  13.7964368
  34.4627404  74.5607644  13.4098382  35.9083787  74.5059759  13.8559405
  29.0395052  71.0642701  14.1951502  29.8125928  70.5171688  14.0564378
  29.3920451  71.9286950  14.4065964  30.8780094  72.3919083  27.4018402
  30.5869960  73.2964714  27.2865068  31.5137079  72.4335611  28.1162471
  31.8036301  69.7695932  23.9919761  32.3999873  69.5451954  23.2776724
  31.8611273  69.0280677  24.5945209  31.3761330  67.2235367  11.8269952
  31.6286850  66.7016889  11.0653415  30.4385889  67.0601513  11.9296636
  36.4204612  66.2271146  19.6344696  37.2067702  65.8090569  19.2835113
  36.6843317  67.1317238  19.8026344  36.5914690  71.6643996  14.3333352
  35.9560523  71.7378622  15.0454257  36.2612096  72.2537595  13.6552432
  41.8213040  66.1646379  20.5377674  42.5538212  65.5945596  20.7715503
  41.0652395  65.7767979  20.9784180  31.0957618  69.1263473  14.0294327
  30.9793876  68.4508377  14.6975412  31.2059878  68.6395847  13.2126480
  33.4389159  68.5873620  17.7341016  33.0747367  68.0604241  18.4453938
  34.2956275  68.1972089  17.5607502  39.3438460  59.8767953  24.9972283
  39.0121785  60.7463364  24.7733498  38.7484073  59.5604237  25.6766313
  33.0794646  63.6163520  12.7302365  33.2469049  64.4843756  13.0972836
  32.8891815  63.7790802  11.8063654  35.8369979  72.0780499  24.3968195
  35.5370703  72.9805538  24.2884003  35.4921039  71.8112682  25.2489348
  29.2882461  68.5294296  20.4304900  28.3632957  68.3970510  20.6382592
  29.5366874  69.3088515  20.9274842  39.2367123  64.5963039  22.0765633
  38.3284001  64.5278448  21.7824394  39.1854719  65.0734984  22.9047458
  33.0583867  66.0721178  13.7149032  32.9383492  66.5178228  14.5534512
  32.3636456  66.4206495  13.1562570  26.6491272  68.1727569  21.2648689
  26.7783653  68.4262048  22.1788101  25.9688723  68.7655277  20.9453344
  30.8190759  78.8424819  17.3639163  30.7414789  79.7932644  17.4427644
  30.2152403  78.4970692  18.0214089  33.3107989  66.0152685  30.0200530
  32.5341323  66.5746605  30.0103395  33.9498552  66.5009468  30.5415400
  41.1028770  62.7979478  23.8543507  40.4603150  63.0912011  23.2083301
  40.5983698  62.6832398  24.6596703  38.7568933  66.5442651  14.5429366
  39.6686789  66.7770037  14.3677063  38.2478580  67.1279695  13.9804444
  31.5654361  68.8238138  29.5818497  32.3069046  69.3623182  29.3053321
  30.8591347  69.4504427  29.7390049  37.0409701  70.9667279  28.1790658
  37.4493057  70.5249689  27.4345291  36.3186962  70.3919906  28.4324851
  33.3940771  65.9039885  25.5524215  34.2401966  66.3279299  25.6958864
  33.3339409  65.2473510  26.2462778  37.3638516  71.5268469  21.9342947
  36.7347378  71.6914183  21.2319015  36.9764178  71.9410079  22.7053911
  41.2427748  72.4622907  19.2887311  40.5578786  72.8421808  18.7384344
  41.3271597  73.0718234  20.0219259  36.5440216  63.5644254  27.2105389
  36.3001148  64.3186314  26.6739665  36.8200147  63.9429601  28.0452636
  38.4978679  70.1082866  25.8882655  38.7095574  70.7514626  25.2117036
  38.4508427  69.2745183  25.4204585  36.1004908  62.7200687  22.7919227
  35.2389387  63.0181940  23.0835964  36.1267343  62.9371086  21.8600259
  32.9166478  71.2642877  19.1993032  33.3804823  71.5430580  18.4097655
  32.6523276  70.3626322  19.0166123  29.8090559  70.8114359  22.1372796
  30.3791916  71.2401627  21.4990280  30.3998670  70.5296944  22.8356981
  31.8535364  67.3866030  16.0082598  32.5559407  67.8387073  16.4756524
  31.5215992  66.7449849  16.6362491  30.3015725  65.9777786  30.3833807
  29.6714386  66.6594067  30.6169204  30.1951813  65.8660868  29.4386945
  25.5960698  65.6449582  21.3099731  24.8059752  65.9007111  20.8339842
  26.0871945  66.4597920  21.4151772  39.6124507  72.9854821  24.0605012
  40.4341951  72.5835009  23.7787694  39.6086910  72.8823056  25.0121128
  27.5475443  66.0094162  18.2683208  26.7506606  66.1212856  18.7866703
  27.3201035  66.3480814  17.4024098  33.3781111  72.5338865  26.2165722
  33.4425543  72.9959272  27.0523894  32.6692034  71.9036230  26.3448032
  23.8798401  65.8980073  23.7414722  24.1306439  66.7827083  24.0072298
  24.4157949  65.7184674  22.9689814  47.7030500  69.3293570  20.4089983
  46.9494209  68.7600968  20.2533988  47.8378041  69.2956234  21.3560618
  33.0929128  74.2006972  16.0844703  32.9574803  75.0458508  16.5129551
  33.6338941  74.4026250  15.3210637  29.5796468  60.2798552  32.7459058
  29.1863413  59.7264751  33.4206702  30.3962608  60.5909131  33.1365576
  26.5458526  71.7182410  16.6572628  27.0583046  72.5125661  16.8078193
  27.1981238  71.0208701  16.5906229  28.3553410  74.8348167  18.7395381
  28.5320039  75.7566131  18.5516365  29.1510244  74.5206586  19.1689761
  32.4964429  61.6956431  30.3379315  33.2374142  62.2963584  30.2583777
  32.7282352  60.9534069  29.7797357  27.6405767  66.8812798  28.6157544
  27.5259282  65.9798056  28.9164643  26.7850285  67.1276495  28.2642361
  34.7197605  74.8230539  30.2145045  34.2761459  74.0366917  29.8965949
  35.3814818  75.0109689  29.5488936  29.4784726  76.3526340  24.7405723
  30.0292151  76.2243404  23.9682717  28.6396202  76.6521229  24.3900616
  36.8178843  75.1033339  28.2426446  36.7997318  75.9242220  27.7506715
  37.7398763  74.9787414  28.4676587  33.2751897  72.6177468  29.0849954
  33.8080234  71.8565756  28.8549262  32.7465978  72.3251120  29.8274109
  36.4421592  57.7237534  24.6143596  36.0985861  58.6139176  24.5382707
  36.8100554  57.5339192  23.7513181  24.5107442  70.0471065  17.4332198
  25.3482664  70.4568073  17.2165906  24.6885710  69.1070507  17.4032392
  36.4071874  67.7146145  13.1216031  35.8918498  68.4850750  13.3604419
  36.1349183  67.0411281  13.7449093  33.9918986  62.5595846  18.1801270
  33.1360582  62.1702696  18.0006908  34.4045937  62.6387807  17.3201055
  35.5218132  60.0942189  22.5792829  35.0182928  60.0572324  21.7660635
  35.8148739  61.0034932  22.6389486  31.7661018  60.1780919  21.5859011
  32.6314015  59.9823728  21.2264901  31.8338527  59.9491271  22.5128368
  41.3806149  70.4678500  15.0569205  40.6035591  70.1289659  14.6124367
  42.0597630  70.4731123  14.3824170  36.1958178  65.5873237  14.9475813
  35.8908313  65.9019387  15.7985956  37.1488620  65.6654657  14.9903146
  34.6404609  71.7463461  16.5968767  34.1125971  71.0116220  16.2842004
  34.1392112  72.5238137  16.3508735  39.6197456  69.9412481  21.7135813
  38.9621130  70.6311743  21.8015941  40.4237855  70.3308913  22.0569799
  29.3723337  62.4083127  18.9575378  29.9467089  62.1858308  18.2248571
  29.9594320  62.4771821  19.7103979  38.4302914  68.2956854  19.7639755
  38.9434796  68.9286846  20.2661464  39.0804138  67.6958049  19.3983115
  29.6992924  64.4387588  12.9771263  28.8630236  64.7762275  13.2980538
  29.5597694  64.3036568  12.0398400  31.6746005  59.2824376  17.6850447
  31.0210417  58.9673393  17.0607062  31.6326479  58.6600116  18.4110270
  32.7857210  69.5643671   9.6003740  31.8784271  69.3332924   9.7994889
  33.2828242  68.7681290   9.7877721  35.6925289  78.2741178  12.5200426
  35.0186987  78.5772875  13.1285384  36.0791111  79.0770258  12.1705883
  34.9083745  65.7706309  22.0098095  33.9906307  65.9921256  21.8519783
  35.3243889  65.8452620  21.1509802  35.6918793  67.1697725  17.1400775
  36.4390612  67.6819122  16.8307897  35.9610382  66.8481778  18.0005169
  33.9645443  69.6656266  14.1227730  33.0556662  69.3815299  14.2200199
  33.9940527  70.0855344  13.2631036  39.1964711  73.2762855  17.8918897
  38.7427038  72.4353765  17.9484088  38.5658677  73.9124254  18.2293677
  38.1397630  64.2054841  19.1219565  37.4020387  63.6932228  19.4529807
  38.3924404  63.7655223  18.3102842  37.6397650  75.1139352  18.8268715
  37.9320624  75.6744409  18.1081081  38.1496270  75.4067913  19.5821874
  38.2409257  56.9831093  19.7161334  38.5468134  56.1228457  19.4287249
  38.9661862  57.5748714  19.5160328  24.5333613  67.3861780  18.1042932
  24.3358013  66.7931141  17.3793998  23.9780277  67.0813990  18.8218871
  32.5130337  67.2784886  20.2237525  32.5678947  66.3258723  20.1480002
  31.7021539  67.4344325  20.7078823  33.6621531  71.2065009  11.4615808
  33.2240961  70.4900868  11.0021446  34.4031972  71.4341124  10.9000900
  30.4522697  65.8961946  17.9827904  29.6390563  66.1956117  18.3893096
  30.9481691  65.5017635  18.7002386  32.6031275  75.8919703  19.9162169
  32.5607454  76.1180549  18.9870701  33.5193974  75.6583078  20.0647970
  36.0496909  66.3603771  26.8142798  36.4046296  66.5875244  27.6737263
  36.6969040  66.6922147  26.1920053  41.7794646  69.4822206  17.5192127
  41.6412544  69.6723802  16.5913316  41.4230865  70.2441589  17.9760178
  29.9436772  63.4680302  23.5989139  30.5836151  63.3269061  22.9012102
  29.1114302  63.1814815  23.2227741  41.8064025  71.5498734  22.5303398
  42.2400532  71.4574023  23.3786452  42.5195606  71.5256234  21.8923414
  30.7197076  72.7682732  19.7124131  31.5137674  72.2733052  19.5106706
  30.0088768  72.2400595  19.3491837  35.5391920  75.1500828  24.0636499
  35.5928942  75.7191764  24.8314215  34.6706702  75.3202713  23.6990536
  27.0279839  66.9125814  15.7883884  26.0977427  66.8510269  16.0053846
  27.1237311  66.3901767  14.9920525  26.9465388  63.4380627  18.3762126
  27.2072206  64.3525960  18.2671286  27.7682561  62.9705069  18.5258738
  28.4190314  64.8518384  25.5460950  29.0913367  64.6435746  24.8973599
  27.5920100  64.6540470  25.1066182  42.6679575  71.5922434  25.0636284
  42.8615465  72.4968245  25.3095559  42.5680193  71.1329853  25.8974869
  34.3215886  61.4780325  27.5626611  33.6743801  62.1770274  27.4691087
  35.0916901  61.9116469  27.9302859  37.7294684  71.7429177  30.6377164
  37.5780190  71.5139729  29.7207248  37.7199363  72.6999778  30.6508509
  34.4980020  69.3161090  25.6223431  35.4272080  69.4672249  25.4492398
  34.0771050  69.4045110  24.7672077  33.2968352  73.3411754  23.3921968
  33.1579437  72.9730538  24.2647906  32.5082948  73.8559393  23.2205926
  33.8916504  78.4420851  14.7347505  34.0668259  77.9708894  15.5493128
  33.2049292  79.0686617  14.9628766  34.8473567  72.7193357  20.7810806
  34.5123399  72.6794127  21.6768456  34.3477513  72.0538073  20.3081216
  28.8217811  68.1260987  26.3063387  28.6837609  67.3941226  26.9074926
  29.7322734  68.0369887  26.0247575  37.7832759  70.0649391  11.0547866
  37.1661929  69.3396219  10.9580918  37.3149247  70.8258751  10.7114940
  31.4500112  67.8380946  25.7947067  32.1599730  67.1974138  25.7533685
  31.4069420  68.0893841  26.7173248  39.4386890  74.7748299  28.7153646
  39.3799436  74.0907520  28.0484229  39.8406409  75.5167289  28.2634272
  30.1629045  64.8246164  27.6142706  29.6266403  64.3736902  28.2664303
  29.5745754  64.9592073  26.8713171  28.4577589  81.5910213  21.5087365
  28.6974187  82.2228737  22.1866384  27.6146785  81.2398253  21.7952724
  29.5731304  64.2834815  10.1769170  28.6960771  64.1623616   9.8131417
  30.0489058  63.4920894   9.9248059  39.4404297  72.7387883  26.9467626
  38.5531076  72.4013805  27.0694025  40.0102849  72.0070915  27.1836391
  21.0933445  69.0711975  20.2710677  21.7804484  68.7573705  19.6831693
  20.9381573  69.9753340  19.9977929  25.8968167  63.9602172  24.6995701
  25.8126355  63.3527841  23.9646111  25.0750873  64.4511190  24.7005197
  32.9705451  77.3989336  23.9128869  32.8975622  78.2044307  24.4248174
  32.5282844  77.5981302  23.0876890  32.7595230  76.6361106  17.4231691
  31.9762752  77.1782786  17.5169915  33.4587976  77.1535085  17.8225932
  36.0691881  62.4455735  20.0665896  36.5660580  61.6925698  19.7466966
  35.2978862  62.4820052  19.5009105  43.9221638  68.1496101  21.7084187
  43.9111514  69.0320816  21.3378121  43.0539017  67.7967652  21.5138725
  35.4304134  77.2976170  26.0687028  36.1432107  77.9323635  25.9962929
  34.9394163  77.3940036  25.2527030  37.1521661  71.2027422  17.6404319
  36.2177940  71.3228885  17.4709024  37.3298330  70.2999889  17.3764329
  32.6526849  64.5873118  19.7937581  32.2824637  64.0344159  20.4818486
  33.1485942  63.9831252  19.2412581  40.5394213  67.0444742  18.1754354
  41.0054665  67.8772733  18.1014656  40.9901713  66.5789723  18.8799612
  30.4816048  75.0470613  26.8892599  31.1825507  75.6807096  27.0421993
  30.0111163  75.3885345  26.1288238  38.6070444  73.3888563  15.1740506
  38.8830288  73.2745158  16.0834380  37.7374942  72.9906048  15.1352679
  38.5110875  59.4125329  22.2145255  37.5973955  59.6429556  22.3827462
  38.9403977  59.4963773  23.0659287  38.2817334  67.6015221  24.7145149
  37.6288784  67.8491128  24.0597602  38.6597714  66.7879359  24.3807626
  35.2424508  77.6374914  18.8173319  35.4246902  76.8196570  19.2801071
  36.0657494  77.8542606  18.3798209  35.5766673  76.5643099  16.0788368
  36.1054440  76.0535554  15.4658530  35.8394893  76.2485629  16.9433901
  34.3304907  68.3435032  31.2011186  33.6545544  68.2429161  31.8713561
  35.1532541  68.1874245  31.6647183  26.0783766  74.5806968  23.8223701
  26.6637203  73.8350656  23.9551605  25.8808604  74.8910925  24.7060365
  28.9322421  77.6158216  18.8386144  28.2632796  78.1004343  18.3550184
  28.7935291  77.8627436  19.7529522  20.6701421  67.1512569  22.5428144
  20.7085520  66.6176159  23.3365262  20.1641714  66.6247774  21.9239122
  33.0727690  79.6501959  25.4368802  33.6245998  79.8133581  26.2017887
  33.4133883  80.2406397  24.7648827  28.0492183  61.9977109  26.0390687
  28.1133509  62.8591940  25.6268084  27.9859303  61.3851111  25.3063045
  27.5244456  64.0700242  29.6863721  28.1516494  63.6877319  30.3001245
  26.6672374  63.8514443  30.0519413  37.9238564  74.4763217  31.2917456
  38.4678468  75.0893175  30.7972411  37.3425409  75.0342795  31.8084469
  24.3009998  65.8776671  15.6182076  24.5963439  64.9687349  15.5649129
  23.3998034  65.8564410  15.2963078  36.2096077  77.5983935  22.4232484
  36.0847217  76.7973675  21.9143430  36.8675168  78.0930128  21.9346454
  27.8304245  63.9532667  21.6009624  27.1090831  64.5668635  21.4617098
  28.6197501  64.4890432  21.5226270  38.2730985  75.3992955  24.0512034
  37.3261321  75.2798306  23.9790361  38.6213759  74.5115453  24.1338296
  30.6330559  61.2887094  27.8750276  31.1564961  61.5349390  28.6376585
  30.4142892  62.1207129  27.4553413  26.0297840  63.5590768  15.7421401
  25.7010546  62.6788147  15.5596507  26.3837211  63.5038437  16.6297790
  35.2777419  75.1945671  20.2516386  35.1302381  74.2662378  20.4323956
  36.1030912  75.2165762  19.7673462  29.1439663  63.8463738  16.1096879
  29.4835736  64.3749659  15.3875487  29.5911783  64.1844144  16.8855445
  38.8811541  76.0174230  21.3381259  39.8058088  75.8117091  21.2005710
  38.7126844  75.7690631  22.2470601  31.8383104  62.2300789  25.5599947
  31.4979924  61.4308602  25.9620627  31.1322110  62.5302500  24.9876780
  32.4899576  59.3150101  24.0127270  33.3125645  58.8410579  23.8906160
  32.7337639  60.0940585  24.5125956  31.1307810  62.3438360  14.3090171
  31.8516173  62.7219612  13.8053888  30.5073114  63.0627237  14.4125149
  35.2738933  63.0483509  15.2448504  35.4902547  63.9308147  14.9437332
  34.7933000  62.6569722  14.5154146  30.0138154  66.0069222  21.8219248
  29.8682735  66.3209525  22.7143530  29.5363358  66.6254122  21.2690147
  31.8734537  62.9971770  21.8700138  31.8596106  62.1012863  21.5332436
  32.5906965  63.0042434  22.5038424  33.7260668  63.4309110  23.9153265
  33.4678446  64.3526181  23.9137596  33.1945708  63.0339545  24.6053729
  38.6706857  76.5359897  16.6943351  38.8443734  75.9706320  15.9417203
  39.1635748  77.3360792  16.5122841  24.4883817  68.5474566  24.7606909
  23.9437285  69.3234374  24.8927184  25.3663166  68.8945371  24.6026031
  31.2771433  61.8786150  17.1387708  31.3987344  60.9502796  17.3378595
  30.9873476  61.8924836  16.2266023  34.1462624  59.5641061  20.2754428
  34.1684320  59.6280394  19.3206407  34.5630683  58.7245569  20.4694934
  44.5246248  69.2996320  18.3133650  44.9677394  68.5503645  17.9152774
  43.6472758  69.2906457  17.9307382  39.6582029  75.8526662  13.7940249
  40.3532934  76.4733354  14.0127564  40.0005179  75.0022013  14.0692627
  25.2749838  67.6744463  27.6537066  24.5331574  67.8227098  28.2401697
  24.9542583  67.9352728  26.7903816  41.5573452  73.3026367  15.3227580
  42.0824776  73.6413640  14.5976900  41.4695805  72.3673382  15.1390714
  33.2193501  77.2160441  27.4517456  33.5280628  76.9709588  28.3240156
  34.0168983  77.4207079  26.9636327  33.2414113  79.3698350  19.6822833
  32.8019103  78.8774729  20.3755690  33.9922230  78.8271318  19.4414908
  25.7206452  75.5609891  19.6847461  26.5464472  75.2613663  19.3046104
  25.3700504  74.7917514  20.1337250  30.6887985  74.9136360  21.7545135
  30.0667995  74.2507065  21.4547362  31.3592852  74.9397491  21.0718782
  23.9215057  73.4796218  20.6436395  23.0846965  73.0518392  20.4620396
  23.8938703  73.6728661  21.5807186  30.7612513  63.3918148  31.3477641
  30.8100668  64.2680270  30.9655410  31.3035027  62.8495541  30.7749284
  41.2467358  73.9359271  30.6278778  40.4562902  73.9183410  30.0883277
  41.0100713  74.4747564  31.3827814  41.3665234  70.7851737  27.9411506
  41.4163238  70.6201745  28.8827029  41.2579157  69.9178996  27.5509387
  30.2501492  73.4640283  15.2303595  30.3989613  74.1475747  14.5770268
  31.0567936  73.4445373  15.7453051  38.6568996  66.7682665  29.2570813
  39.5578859  66.6289130  28.9654811  38.7316970  66.9337120  30.1968990
  32.9911801  64.1449520  28.1023999  32.1215111  64.4383086  27.8306588
  33.2271282  64.7289965  28.8231263  42.8683430  73.2048679  28.1853528
  42.5768239  73.5678659  29.0216989  42.2555562  72.4915687  28.0066860
  44.0679113  70.7701558  20.7056098  44.9026004  71.2091363  20.8693658
  44.2038241  70.2940212  19.8864344  41.1170619  68.3281293  26.6533586
  41.5924740  68.5208940  25.8452437  40.1936184  68.3840479  26.4076969
  28.0054125  69.4905460  16.2364664  27.7600167  68.5867790  16.4344874
  28.1750040  69.4922611  15.2944142  35.6950835  60.3629137  25.6189420
  36.2132779  61.0990164  25.2935908  35.3405968  60.6693130  26.4536179
  27.2749773  65.2233818  13.7350825  26.5819018  65.2978173  13.0790861
  27.0301525  64.4594162  14.2572342  35.9463429  56.7829419  21.1390316
  36.2265183  56.1152608  21.7650743  36.7314036  56.9758515  20.6264980
  33.7496898  75.9588413  12.7015343  33.1770865  76.5778600  12.2485814
  34.3229691  76.5087775  13.2355264  39.8172288  65.2047053  24.8861891
  40.7689710  65.3045151  24.9074115  39.6475738  64.4125322  25.3959976
  37.8386667  62.2902637  25.0721292  37.2436599  62.5707649  24.3767781
  37.5536364  62.7796538  25.8438033  36.9694158  76.2425563  13.8323925
  37.9024831  76.1771125  14.0356800  36.8817370  77.0781830  13.3738457
  39.5982174  75.5591434  10.7927872  39.5195806  75.2251297  11.6863630
  40.4191841  76.0513202  10.7919345  42.2960365  68.4253173  24.0004191
  42.2636685  67.4869174  24.1863875  42.9060989  68.5037210  23.2670016
  34.1343696  67.2949226  10.0431395  35.0802801  67.1655434  10.1119813
  33.7557941  66.5563888  10.5200823  42.4454854  65.2164217  24.0462474
  41.9293902  64.4322673  23.8592403  43.3294802  64.8882933  24.2108994
  40.1065581  58.9605232  20.0058287  39.9090402  58.6520320  20.8901619
  40.7165286  59.6866871  20.1356217  48.1136915  69.4869180  23.1410228
  48.8440304  69.2254468  23.7017931  47.5043861  68.7497902  23.1812296
  46.1952212  67.6277043  23.7384679  45.4685376  67.4933007  23.1301171
  45.7799499  67.9353871  24.5441397  34.0182389  71.3466972  31.5032052
  34.9385398  71.5245571  31.6972098  33.9831972  70.4023018  31.3511751
  32.3186613  65.2199202   9.9786280  31.4118069  64.9232315  10.0548994
  32.5962594  64.9229021   9.1120566  23.2364554  66.5405566  20.4285327
  22.9167338  65.6870874  20.1359701  22.6897982  66.7554144  21.1843294
  27.0144461  69.2568007  24.1454833  27.2330471  70.1885115  24.1642867
  27.4270235  68.8975981  24.9309637  33.9348679  59.7636092  16.1330522
  33.1249407  59.4183177  16.5085768  34.6233096  59.4543636  16.7218133
  35.8639227  58.8414139  17.7554818  36.4170266  59.2609592  18.4144841
  36.1009314  57.9149887  17.7977774  31.8872327  64.8301213  33.5357582
  31.7869054  65.7795570  33.4669673  31.6693869  64.5019452  32.6633652
  31.0885398  62.0786138  10.1198259  31.9504562  62.4041036  10.3794077
  31.2735742  61.2917634   9.6071325  23.1052814  70.1608477  22.3978448
  22.4116285  69.7462430  21.8848403  23.8525805  70.2029014  21.8011867
  39.2418034  60.9514664  17.2633482  38.6616704  61.6099468  16.8811535
  38.9753967  60.1292009  16.8520900  37.6921601  60.3519722  19.4654803
  38.1921379  60.4636256  18.6569122  38.3357209  60.0480775  20.1055611
  31.7503597  68.2598351  32.3522644  31.2670678  69.0598712  32.5586533
  31.8364536  68.2706296  31.3990088  25.0189556  70.0926731  20.2744463
  24.9960244  70.1914418  19.3226346  25.3290193  70.9391882  20.5961629
  27.6776934  72.1502886  24.3891078  28.6320188  72.1186828  24.3221009
  27.4789458  71.6893510  25.2041303  28.2676316  70.7204002  26.9561875
  29.0869205  71.2148081  26.9796712  28.5413124  69.8035970  26.9279443
  38.0242913  63.1114755  16.3189831  37.1368768  63.3964405  16.1010025
  38.4396902  62.9508518  15.4717108  41.3757449  63.1361275  20.0344170
  42.1517839  63.6257728  20.3068787  40.6505583  63.5619330  20.4916039
  43.8130007  63.8488895  21.0918111  44.4074498  63.6084631  20.3811419
  43.8856591  63.1296025  21.7191647  26.0327163  77.6922506  21.4061275
  25.8981631  76.9322907  20.8399273  25.6159225  78.4163405  20.9390064
  37.1686126  72.8759429  10.4137851  37.8721976  73.0809432  11.0295506
  36.4448775  73.4436191  10.6786934  37.9983936  68.6269290  16.5340121
  37.9419138  69.0837842  15.6947753  38.5512279  67.8659975  16.3562964
  41.8088742  64.4159022  17.3590240  41.5525676  64.0155658  18.1898448
  41.1841610  65.1302816  17.2340379  46.1201080  67.1555096  19.8661532
  45.5600638  67.2248285  20.6393094  45.5144583  66.9796080  19.1461028
  29.1896289  78.5891823  21.6179718  29.0728673  79.5337255  21.5158408
  28.3688735  78.2865384  22.0065517  39.0772823  73.3141958  12.4636311
  39.9118427  72.8823157  12.2813786  38.9157166  73.1423972  13.3913205
  38.7318716  69.8174072  13.8292650  38.6767519  69.6518343  12.8881094
  38.1064771  70.5250105  13.9854840  23.5211231  65.0542136  27.6554072
  24.1670094  64.5441090  28.1441297  23.3128382  65.7910818  28.2297497
  36.0464623  72.1222984  33.1546213  36.9155782  72.2963636  32.7932848
  35.5671374  72.9417400  33.0321942  32.0414841  59.3182181  13.4077968
  32.0293511  60.2624021  13.5646239  32.9338263  59.1352326  13.1137430
  30.2150803  79.2420085  24.8335646  31.1178050  79.2743695  25.1502141
  29.9888173  78.3120536  24.8481982  31.9704405  77.9951071  21.4945725
  31.0200036  77.9952933  21.3810097  32.2736891  77.2483806  20.9781760
  35.8566960  55.9124957  17.6623905  35.0899356  55.3583444  17.8080588
  36.2677665  55.9846826  18.5238057  27.8608722  62.2009753  31.7529086
  28.7240183  61.8446558  31.9632411  27.2874132  61.8623648  32.4404491
  47.7057098  83.8311609  22.5591487  48.3435508  83.7118357  21.8554828
  47.5877941  84.7792453  22.6179440  44.5146805  83.7839038  22.4953012
  44.1765316  83.6680102  21.6073547  45.3836573  83.3830203  22.4754018
  40.3733620  85.6374514  18.4849903  39.8098486  85.5464451  17.7166191
  40.2586015  84.8174418  18.9652396  44.9966588  84.9373889  28.4539218
  44.9855229  84.5426688  27.5819721  45.1587227  84.2039962  29.0472989
  37.9198052  87.1325706  21.3234124  38.7119344  86.7916530  20.9080423
  38.1594703  87.2420681  22.2436277  45.9533179  89.3045482  13.7964368
  45.3021159  89.8899562  13.4098382  46.7477542  89.8351677  13.8559405
  39.8788806  86.3934619  14.1951502  40.6519682  85.8463606  14.0564378
  40.2314205  87.2578868  14.4065964  41.7173849  87.7211001  27.4018402
  41.4263715  88.6256632  27.2865068  42.3530833  87.7627529  28.1162471
  42.6430056  85.0987850  23.9919761  43.2393628  84.8743872  23.2776724
  42.7005027  84.3572595  24.5945209  42.2155084  82.5527285  11.8269952
  42.4680605  82.0308806  11.0653415  41.2779643  82.3893430  11.9296636
  47.2598367  81.5563063  19.6344696  48.0461456  81.1382487  19.2835113
  47.5237071  82.4609156  19.8026344  47.4308444  86.9935914  14.3333352
  46.7954277  87.0670540  15.0454257  47.1005851  87.5829512  13.6552432
  52.6606794  81.4938297  20.5377674  53.3931966  80.9237513  20.7715503
  51.9046150  81.1059897  20.9784180  41.9351373  84.4555391  14.0294327
  41.8187631  83.7800294  14.6975412  42.0453633  83.9687765  13.2126480
  44.2782914  83.9165538  17.7341016  43.9141121  83.3896159  18.4453938
  45.1350030  83.5264007  17.5607502  50.1832214  75.2059871  24.9972283
  49.8515539  76.0755282  24.7733498  49.5877828  74.8896155  25.6766313
  43.9188401  78.9455438  12.7302365  44.0862803  79.8135674  13.0972836
  43.7285570  79.1082719  11.8063654  46.6763734  87.4072417  24.3968195
  46.3764457  88.3097455  24.2884003  46.3314793  87.1404600  25.2489348
  40.1276215  83.8586213  20.4304900  39.2026712  83.7262428  20.6382592
  40.3760629  84.6380433  20.9274842  50.0760878  79.9254957  22.0765633
  49.1677755  79.8570365  21.7824394  50.0248474  80.4026902  22.9047458
  43.8977622  81.4013095  13.7149032  43.7777247  81.8470146  14.5534512
  43.2030210  81.7498413  13.1562570  37.4885026  83.5019487  21.2648689
  37.6177408  83.7553966  22.1788101  36.8082478  84.0947195  20.9453344
  41.6584514  94.1716737  17.3639163  41.5808543  95.1224562  17.4427644
  41.0546157  93.8262609  18.0214089  44.1501744  81.3444602  30.0200530
  43.3735078  81.9038523  30.0103395  44.7892307  81.8301385  30.5415400
  51.9422524  78.1271395  23.8543507  51.2996904  78.4203928  23.2083301
  51.4377453  78.0124316  24.6596703  49.5962688  81.8734568  14.5429366
  50.5080544  82.1061955  14.3677063  49.0872335  82.4571613  13.9804444
  42.4048116  84.1530056  29.5818497  43.1462800  84.6915100  29.3053321
  41.6985101  84.7796345  29.7390049  47.8803455  86.2959196  28.1790658
  48.2886812  85.8541607  27.4345291  47.1580717  85.7211824  28.4324851
  44.2334526  81.2331803  25.5524215  45.0795721  81.6571217  25.6958864
  44.1733163  80.5765427  26.2462778  48.2032270  86.8560387  21.9342947
  47.5741133  87.0206101  21.2319015  47.8157932  87.2701996  22.7053911
  52.0821502  87.7914825  19.2887311  51.3972540  88.1713726  18.7384344
  52.1665351  88.4010151  20.0219259  47.3833971  78.8936171  27.2105389
  47.1394903  79.6478232  26.6739665  47.6593901  79.2721519  28.0452636
  49.3372434  85.4374784  25.8882655  49.5489329  86.0806544  25.2117036
  49.2902182  84.6037100  25.4204585  46.9398663  78.0492604  22.7919227
  46.0783142  78.3473858  23.0835964  46.9661097  78.2663003  21.8600259
  43.7560232  86.5934795  19.1993032  44.2198578  86.8722498  18.4097655
  43.4917030  85.6918240  19.0166123  40.6484313  86.1406276  22.1372796
  41.2185670  86.5693545  21.4990280  41.2392425  85.8588861  22.8356981
  42.6929118  82.7157947  16.0082598  43.3953161  83.1678991  16.4756524
  42.3609747  82.0741766  16.6362491  41.1409480  81.3069704  30.3833807
  40.5108140  81.9885985  30.6169204  41.0345567  81.1952786  29.4386945
  36.4354452  80.9741500  21.3099731  35.6453506  81.2299029  20.8339842
  36.9265699  81.7889838  21.4151772  50.4518262  88.3146739  24.0605012
  51.2735705  87.9126926  23.7787694  50.4480664  88.2114973  25.0121128
  38.3869197  81.3386079  18.2683208  37.5900361  81.4504773  18.7866703
  38.1594790  81.6772731  17.4024098  44.2174865  87.8630782  26.2165722
  44.2819298  88.3251190  27.0523894  43.5085789  87.2328147  26.3448032
  34.7192155  81.2271990  23.7414722  34.9700193  82.1119000  24.0072298
  35.2551703  81.0476592  22.9689814  58.5424255  84.6585488  20.4089983
  57.7887963  84.0892886  20.2533988  58.6771796  84.6248152  21.3560618
  43.9322883  89.5298890  16.0844703  43.7968557  90.3750426  16.5129551
  44.4732695  89.7318168  15.3210637  40.4190222  75.6090470  32.7459058
  40.0257168  75.0556668  33.4206702  41.2356363  75.9201048  33.1365576
  37.3852280  87.0474328  16.6572628  37.8976801  87.8417578  16.8078193
  38.0374993  86.3500618  16.5906229  39.1947165  90.1640084  18.7395381
  39.3713793  91.0858049  18.5516365  39.9903998  89.8498503  19.1689761
  43.3358183  77.0248349  30.3379315  44.0767897  77.6255502  30.2583777
  43.5676106  76.2825987  29.7797357  38.4799521  82.2104716  28.6157544
  38.3653036  81.3089973  28.9164643  37.6244039  82.4568413  28.2642361
  45.5591359  90.1522456  30.2145045  45.1155213  89.3658835  29.8965949
  46.2208573  90.3401607  29.5488936  40.3178480  91.6818258  24.7405723
  40.8685905  91.5535321  23.9682717  39.4789956  91.9813147  24.3900616
  47.6572597  90.4325256  28.2426446  47.6391072  91.2534137  27.7506715
  48.5792517  90.3079332  28.4676587  44.1145651  87.9469386  29.0849954
  44.6473988  87.1857674  28.8549262  43.5859732  87.6543038  29.8274109
  47.2815346  73.0529452  24.6143596  46.9379616  73.9431094  24.5382707
  47.6494309  72.8631109  23.7513181  35.3501197  85.3762982  17.4332198
  36.1876419  85.7859991  17.2165906  35.5279465  84.4362424  17.4032392
  47.2465629  83.0438063  13.1216031  46.7312252  83.8142668  13.3604419
  46.9742937  82.3703199  13.7449093  44.8312740  77.8887764  18.1801270
  43.9754336  77.4994614  18.0006908  45.2439692  77.9679725  17.3201055
  46.3611887  75.4234107  22.5792829  45.8576682  75.3864242  21.7660635
  46.6542494  76.3326850  22.6389486  42.6054773  75.5072837  21.5859011
  43.4707769  75.3115645  21.2264901  42.6732281  75.2783188  22.5128368
  52.2199903  85.7970418  15.0569205  51.4429346  85.4581577  14.6124367
  52.8991384  85.8023041  14.3824170  47.0351932  80.9165155  14.9475813
  46.7302068  81.2311304  15.7985956  47.9882374  80.9946575  14.9903146
  45.4798364  87.0755378  16.5968767  44.9519726  86.3408138  16.2842004
  44.9785867  87.8530055  16.3508735  50.4591210  85.2704399  21.7135813
  49.8014884  85.9603660  21.8015941  51.2631609  85.6600831  22.0569799
  40.2117092  77.7375045  18.9575378  40.7860843  77.5150226  18.2248571
  40.7988074  77.8063739  19.7103979  49.2696669  83.6248772  19.7639755
  49.7828551  84.2578763  20.2661464  49.9197893  83.0249967  19.3983115
  40.5386679  79.7679506  12.9771263  39.7023991  80.1054192  13.2980538
  40.3991448  79.6328485  12.0398400  42.5139759  74.6116294  17.6850447
  41.8604172  74.2965311  17.0607062  42.4720233  73.9892034  18.4110270
  43.6250964  84.8935589   9.6003740  42.7178026  84.6624842   9.7994889
  44.1221996  84.0973208   9.7877721  46.5319043  93.6033096  12.5200426
  45.8580742  93.9064793  13.1285384  46.9184865  94.4062176  12.1705883
  45.7477500  81.0998227  22.0098095  44.8300061  81.3213174  21.8519783
  46.1637643  81.1744538  21.1509802  46.5312547  82.4989643  17.1400775
  47.2784366  83.0111040  16.8307897  46.8004137  82.1773695  18.0005169
  44.8039198  84.9948183  14.1227730  43.8950417  84.7107216  14.2200199
  44.8334281  85.4147262  13.2631036  50.0358465  88.6054773  17.8918897
  49.5820792  87.7645683  17.9484088  49.4052432  89.2416171  18.2293677
  48.9791385  79.5346759  19.1219565  48.2414141  79.0224145  19.4529807
  49.2318158  79.0947141  18.3102842  48.4791404  90.4431270  18.8268715
  48.7714379  91.0036327  18.1081081  48.9890025  90.7359831  19.5821874
  49.0803012  72.3123011  19.7161334  49.3861889  71.4520374  19.4287249
  49.8055617  72.9040631  19.5160328  35.3727368  82.7153698  18.1042932
  35.1751768  82.1223058  17.3793998  34.8174032  82.4105908  18.8218871
  43.3524092  82.6076804  20.2237525  43.4072701  81.6550640  20.1480002
  42.5415294  82.7636243  20.7078823  44.5015285  86.5356927  11.4615808
  44.0634715  85.8192786  11.0021446  45.2425726  86.7633042  10.9000900
  41.2916452  81.2253864  17.9827904  40.4784317  81.5248034  18.3893096
  41.7875446  80.8309553  18.7002386  43.4425029  91.2211621  19.9162169
  43.4001208  91.4472467  18.9870701  44.3587728  90.9874995  20.0647970
  46.8890663  81.6895688  26.8142798  47.2440051  81.9167161  27.6737263
  47.5362794  82.0214065  26.1920053  52.6188400  84.8114124  17.5192127
  52.4806299  85.0015720  16.5913316  52.2624619  85.5733507  17.9760178
  40.7830526  78.7972219  23.5989139  41.4229906  78.6560978  22.9012102
  39.9508057  78.5106733  23.2227741  52.6457780  86.8790651  22.5303398
  53.0794286  86.7865940  23.3786452  53.3589360  86.8548152  21.8923414
  41.5590830  88.0974650  19.7124131  42.3531429  87.6024970  19.5106706
  40.8482523  87.5692513  19.3491837  46.3785675  90.4792745  24.0636499
  46.4322697  91.0483682  24.8314215  45.5100456  90.6494630  23.6990536
  37.8673594  82.2417731  15.7883884  36.9371182  82.1802187  16.0053846
  37.9631066  81.7193684  14.9920525  37.7859143  78.7672544  18.3762126
  38.0465960  79.6817878  18.2671286  38.6076315  78.2996987  18.5258738
  39.2584068  80.1810302  25.5460950  39.9307121  79.9727664  24.8973599
  38.4313855  79.9832387  25.1066182  53.5073329  86.9214352  25.0636284
  53.7009219  87.8260162  25.3095559  53.4073948  86.4621771  25.8974869
  45.1609640  76.8072242  27.5626611  44.5137555  77.5062192  27.4691087
  45.9310655  77.2408386  27.9302859  48.5688438  87.0721095  30.6377164
  48.4173944  86.8431646  29.7207248  48.5593118  88.0291696  30.6508509
  45.3373774  84.6453007  25.6223431  46.2665834  84.7964167  25.4492398
  44.9164804  84.7337028  24.7672077  44.1362106  88.6703672  23.3921968
  43.9973192  88.3022456  24.2647906  43.3476702  89.1851311  23.2205926
  44.7310258  93.7712768  14.7347505  44.9062014  93.3000811  15.5493128
  44.0443046  94.3978534  14.9628766  45.6867321  88.0485274  20.7810806
  45.3517154  88.0086044  21.6768456  45.1871267  87.3829990  20.3081216
  39.6611565  83.4552904  26.3063387  39.5231363  82.7233143  26.9074926
  40.5716489  83.3661805  26.0247575  48.6226513  85.3941309  11.0547866
  48.0055684  84.6688137  10.9580918  48.1543001  86.1550669  10.7114940
  42.2893866  83.1672864  25.7947067  42.9993485  82.5266056  25.7533685
  42.2463174  83.4185759  26.7173248  50.2780645  90.1040217  28.7153646
  50.2193191  89.4199437  28.0484229  50.6800163  90.8459207  28.2634272
  41.0022800  80.1538082  27.6142706  40.4660157  79.7028820  28.2664303
  40.4139508  80.2883991  26.8713171  39.2971343  96.9202131  21.5087365
  39.5367942  97.5520655  22.1866384  38.4540540  96.5690171  21.7952724
  40.4125059  79.6126733  10.1769170  39.5354525  79.4915534   9.8131417
  40.8882812  78.8212811   9.9248059  50.2798052  88.0679801  26.9467626
  49.3924831  87.7305723  27.0694025  50.8496603  87.3362832  27.1836391
  31.9327199  84.4003893  20.2710677  32.6198239  84.0865623  19.6831693
  31.7775328  85.3045257  19.9977929  36.7361921  79.2894089  24.6995701
  36.6520110  78.6819759  23.9646111  35.9144628  79.7803108  24.7005197
  43.8099205  92.7281253  23.9128869  43.7369377  93.5336225  24.4248174
  43.3676598  92.9273219  23.0876890  43.5988985  91.9653023  17.4231691
  42.8156507  92.5074704  17.5169915  44.2981730  92.4827003  17.8225932
  46.9085635  77.7747653  20.0665896  47.4054335  77.0217615  19.7466966
  46.1372617  77.8111970  19.5009105  54.7615392  83.4788018  21.7084187
  54.7505269  84.3612734  21.3378121  53.8932772  83.1259569  21.5138725
  46.2697889  92.6268087  26.0687028  46.9825861  93.2615552  25.9962929
  45.7787918  92.7231953  25.2527030  47.9915416  86.5319340  17.6404319
  47.0571695  86.6520803  17.4709024  48.1692084  85.6291807  17.3764329
  43.4920604  79.9165036  19.7937581  43.1218391  79.3636076  20.4818486
  43.9879696  79.3123169  19.2412581  51.3787967  82.3736659  18.1754354
  51.8448419  83.2064651  18.1014656  51.8295468  81.9081641  18.8799612
  41.3209802  90.3762531  26.8892599  42.0219262  91.0099014  27.0421993
  40.8504917  90.7177262  26.1288238  49.4464198  88.7180481  15.1740506
  49.7224042  88.6037075  16.0834380  48.5768697  88.3197966  15.1352679
  49.3504630  74.7417246  22.2145255  48.4367710  74.9721473  22.3827462
  49.7797731  74.8255690  23.0659287  49.1211088  82.9307138  24.7145149
  48.4682539  83.1783046  24.0597602  49.4991468  82.1171277  24.3807626
  46.0818262  92.9666832  18.8173319  46.2640657  92.1488487  19.2801071
  46.9051248  93.1834524  18.3798209  46.4160428  91.8935017  16.0788368
  46.9448194  91.3827471  15.4658530  46.6788647  91.5777547  16.9433901
  45.1698661  83.6726949  31.2011186  44.4939298  83.5721079  31.8713561
  45.9926295  83.5166163  31.6647183  36.9177520  89.9098886  23.8223701
  37.5030957  89.1642574  23.9551605  36.7202359  90.2202843  24.7060365
  39.7716176  92.9450133  18.8386144  39.1026551  93.4296261  18.3550184
  39.6329045  93.1919354  19.7529522  31.5095175  82.4804486  22.5428144
  31.5479275  81.9468077  23.3365262  31.0035468  81.9539692  21.9239122
  43.9121444  94.9793877  25.4368802  44.4639752  95.1425498  26.2017887
  44.2527638  95.5698315  24.7648827  38.8885937  77.3269027  26.0390687
  38.9527264  78.1883858  25.6268084  38.8253058  76.7143028  25.3063045
  38.3638210  79.3992159  29.6863721  38.9910249  79.0169237  30.3001245
  37.5066129  79.1806361  30.0519413  48.7632319  89.8055134  31.2917456
  49.3072223  90.4185093  30.7972411  48.1819163  90.3634713  31.8084469
  35.1403753  81.2068588  15.6182076  35.4357194  80.2979267  15.5649129
  34.2391789  81.1856328  15.2963078  47.0489832  92.9275852  22.4232484
  46.9240971  92.1265592  21.9143430  47.7068923  93.4222046  21.9346454
  38.6698000  79.2824585  21.6009624  37.9484586  79.8960553  21.4617098
  39.4591256  79.8182350  21.5226270  49.1124740  90.7284872  24.0512034
  48.1655075  90.6090224  23.9790361  49.4607513  89.8407371  24.1338296
  41.4724313  76.6179011  27.8750276  41.9958715  76.8641308  28.6376585
  41.2536647  77.4499046  27.4553413  36.8691594  78.8882686  15.7421401
  36.5404301  78.0080065  15.5596507  37.2230965  78.8330355  16.6297790
  46.1171173  90.5237589  20.2516386  45.9696136  89.5954296  20.4323956
  46.9424667  90.5457679  19.7673462  39.9833418  79.1755656  16.1096879
  40.3229490  79.7041577  15.3875487  40.4305538  79.5136062  16.8855445
  49.7205295  91.3466147  21.3381259  50.6451843  91.1409009  21.2005710
  49.5520598  91.0982549  22.2470601  42.6776858  77.5592707  25.5599947
  42.3373679  76.7600520  25.9620627  41.9715865  77.8594417  24.9876780
  43.3293330  74.6442019  24.0127270  44.1519399  74.1702497  23.8906160
  43.5731394  75.4232503  24.5125956  41.9701565  77.6730277  14.3090171
  42.6909927  78.0511530  13.8053888  41.3466869  78.3919154  14.4125149
  46.1132688  78.3775426  15.2448504  46.3296302  79.2600064  14.9437332
  45.6326755  77.9861640  14.5154146  40.8531909  81.3361140  21.8219248
  40.7076490  81.6501443  22.7143530  40.3757113  81.9546040  21.2690147
  42.7128292  78.3263688  21.8700138  42.6989861  77.4304781  21.5332436
  43.4300720  78.3334351  22.5038424  44.5654423  78.7601028  23.9153265
  44.3072200  79.6818098  23.9137596  44.0339463  78.3631462  24.6053729
  49.5100611  91.8651815  16.6943351  49.6837489  91.2998237  15.9417203
  50.0029503  92.6652710  16.5122841  35.3277571  83.8766484  24.7606909
  34.7831039  84.6526292  24.8927184  36.2056921  84.2237288  24.6026031
  42.1165188  77.2078068  17.1387708  42.2381099  76.2794714  17.3378595
  41.8267230  77.2216754  16.2266023  44.9856378  74.8932978  20.2754428
  45.0078075  74.9572311  19.3206407  45.4024437  74.0537487  20.4694934
  55.3640002  84.6288238  18.3133650  55.8071148  83.8795563  17.9152774
  54.4866513  84.6198374  17.9307382  50.4975784  91.1818579  13.7940249
  51.1926688  91.8025272  14.0127564  50.8398934  90.3313931  14.0692627
  36.1143593  83.0036380  27.6537066  35.3725329  83.1519016  28.2401697
  35.7936337  83.2644646  26.7903816  52.3967207  88.6318285  15.3227580
  52.9218531  88.9705558  14.5976900  52.3089559  87.6965300  15.1390714
  44.0587256  92.5452358  27.4517456  44.3674382  92.3001505  28.3240156
  44.8562738  92.7498997  26.9636327  44.0807868  94.6990268  19.6822833
  43.6412858  94.2066647  20.3755690  44.8315985  94.1563236  19.4414908
  36.5600207  90.8901809  19.6847461  37.3858227  90.5905581  19.3046104
  36.2094259  90.1209431  20.1337250  41.5281740  90.2428277  21.7545135
  40.9061749  89.5798982  21.4547362  42.1986607  90.2689409  21.0718782
  34.7608812  88.8088135  20.6436395  33.9240720  88.3810310  20.4620396
  34.7332457  89.0020579  21.5807186  41.6006267  78.7210065  31.3477641
  41.6494423  79.5972188  30.9655410  42.1428781  78.1787458  30.7749284
  52.0861113  89.2651188  30.6278778  51.2956657  89.2475327  30.0883277
  51.8494468  89.8039482  31.3827814  52.2058988  86.1143655  27.9411506
  52.2556993  85.9493662  28.8827029  52.0972911  85.2470914  27.5509387
  41.0895247  88.7932201  15.2303595  41.2383367  89.4767665  14.5770268
  41.8961690  88.7737291  15.7453051  49.4962750  82.0974583  29.2570813
  50.3972613  81.9581048  28.9654811  49.5710725  82.2629038  30.1968990
  43.8305556  79.4741438  28.1023999  42.9608865  79.7675004  27.8306588
  44.0665036  80.0581883  28.8231263  53.7077185  88.5340596  28.1853528
  53.4161993  88.8970577  29.0216989  53.0949316  87.8207605  28.0066860
  54.9072867  86.0993476  20.7056098  55.7419759  86.5383280  20.8693658
  55.0431996  85.6232129  19.8864344  51.9564373  83.6573211  26.6533586
  52.4318495  83.8500857  25.8452437  51.0329938  83.7132397  26.4076969
  38.8447880  84.8197378  16.2364664  38.5993922  83.9159708  16.4344874
  39.0143794  84.8214529  15.2944142  46.5344590  75.6921055  25.6189420
  47.0526533  76.4282081  25.2935908  46.1799722  75.9985048  26.4536179
  38.1143527  80.5525736  13.7350825  37.4212772  80.6270091  13.0790861
  37.8695279  79.7886079  14.2572342  46.7857184  72.1121337  21.1390316
  47.0658937  71.4444526  21.7650743  47.5707791  72.3050433  20.6264980
  44.5890652  91.2880331  12.7015343  44.0164619  91.9070518  12.2485814
  45.1623446  91.8379693  13.2355264  50.6566042  80.5338971  24.8861891
  51.6083465  80.6337069  24.9074115  50.4869492  79.7417240  25.3959976
  48.6780422  77.6194554  25.0721292  48.0830354  77.8999567  24.3767781
  48.3930118  78.1088455  25.8438033  47.8087912  91.5717481  13.8323925
  48.7418585  91.5063043  14.0356800  47.7211125  92.4073748  13.3738457
  50.4375929  90.8883351  10.7927872  50.3589560  90.5543215  11.6863630
  51.2585595  91.3805119  10.7919345  53.1354120  83.7545091  24.0004191
  53.1030440  82.8161091  24.1863875  53.7454744  83.8329127  23.2670016
  44.9737451  82.6241144  10.0431395  45.9196555  82.4947352  10.1119813
  44.5951696  81.8855806  10.5200823  53.2848608  80.5456134  24.0462474
  52.7687657  79.7614591  23.8592403  54.1688557  80.2174851  24.2108994
  50.9459335  74.2897150  20.0058287  50.7484156  73.9812238  20.8901619
  51.5559041  75.0158789  20.1356217  58.9530670  84.8161098  23.1410228
  59.6834058  84.5546386  23.7017931  58.3437615  84.0789820  23.1812296
  57.0345967  82.9568960  23.7384679  56.3079130  82.8224925  23.1301171
  56.6193254  83.2645789  24.5441397  44.8576143  86.6758890  31.5032052
  45.7779153  86.8537489  31.6972098  44.8225726  85.7314935  31.3511751
  43.1580368  80.5491120   9.9786280  42.2511823  80.2524233  10.0548994
  43.4356349  80.2520938   9.1120566  34.0758308  81.8697484  20.4285327
  33.7561093  81.0162792  20.1359701  33.5291736  82.0846062  21.1843294
  37.8538216  84.5859925  24.1454833  38.0724226  85.5177032  24.1642867
  38.2663990  84.2267899  24.9309637  44.7742434  75.0928010  16.1330522
  43.9643162  74.7475095  16.5085768  45.4626851  74.7835554  16.7218133
  46.7032982  74.1706057  17.7554818  47.2564020  74.5901510  18.4144841
  46.9403068  73.2441805  17.7977774  42.7266081  80.1593130  33.5357582
  42.6262808  81.1087487  33.4669673  42.5087623  79.8311369  32.6633652
  41.9279153  77.4078055  10.1198259  42.7898316  77.7332954  10.3794077
  42.1129497  76.6209551   9.6071325  33.9446568  85.4900395  22.3978448
  33.2510040  85.0754348  21.8848403  34.6919559  85.5320932  21.8011867
  50.0811789  76.2806582  17.2633482  49.5010458  76.9391386  16.8811535
  49.8147722  75.4583926  16.8520900  48.5315355  75.6811640  19.4654803
  49.0315134  75.7928174  18.6569122  49.1750963  75.3772692  20.1055611
  42.5897351  83.5890269  32.3522644  42.1064433  84.3890629  32.5586533
  42.6758290  83.5998214  31.3990088  35.8583311  85.4218649  20.2744463
  35.8353999  85.5206336  19.3226346  36.1683947  86.2683800  20.5961629
  38.5170689  87.4794804  24.3891078  39.4713942  87.4478746  24.3221009
  38.3183212  87.0185428  25.2041303  39.1070071  86.0495920  26.9561875
  39.9262960  86.5439999  26.9796712  39.3806878  85.1327888  26.9279443
  48.8636667  78.4406672  16.3189831  47.9762522  78.7256323  16.1010025
  49.2790656  78.2800436  15.4717108  52.2151203  78.4653193  20.0344170
  52.9911593  78.9549646  20.3068787  51.4899337  78.8911247  20.4916039
  54.6523762  79.1780812  21.0918111  55.2468253  78.9376548  20.3811419
  54.7250345  78.4587943  21.7191647  36.8720917  93.0214423  21.4061275
  36.7375385  92.2614824  20.8399273  36.4552980  93.7455323  20.9390064
  48.0079880  88.2051347  10.4137851  48.7115731  88.4101349  11.0295506
  47.2842529  88.7728109  10.6786934  48.8377691  83.9561208  16.5340121
  48.7812892  84.4129760  15.6947753  49.3906033  83.1951893  16.3562964
  52.6482497  79.7450940  17.3590240  52.3919431  79.3447576  18.1898448
  52.0235365  80.4594734  17.2340379  56.9594835  82.4847013  19.8661532
  56.3994392  82.5540203  20.6393094  56.3538338  82.3087998  19.1461028
  40.0290043  93.9183740  21.6179718  39.9122427  94.8629173  21.5158408
  39.2082490  93.6157302  22.0065517  49.9166578  88.6433876  12.4636311
  50.7512182  88.2115075  12.2813786  49.7550921  88.4715890  13.3913205
  49.5712470  85.1465989  13.8292650  49.5161274  84.9810261  12.8881094
  48.9458525  85.8542022  13.9854840  34.3604985  80.3834054  27.6554072
  35.0063849  79.8733008  28.1441297  34.1522136  81.1202735  28.2297497
  46.8858377  87.4514901  33.1546213  47.7549537  87.6255554  32.7932848
  46.4065129  88.2709318  33.0321942  42.8808596  74.6474098  13.4077968
  42.8687265  75.5915938  13.5646239  43.7732017  74.4644244  13.1137430
  41.0544557  94.5712002  24.8335646  41.9571804  94.6035612  25.1502141
  40.8281928  93.6412453  24.8481982  42.8098159  93.3242989  21.4945725
  41.8593790  93.3244850  21.3810097  43.1130646  92.5775723  20.9781760
  46.6960715  71.2416875  17.6623905  45.9293111  70.6875362  17.8080588
  47.1071420  71.3138744  18.5238057  38.7002476  77.5301671  31.7529086
  39.5633938  77.1738476  31.9632411  38.1267887  77.1915566  32.4404491
  58.5450853  99.1603527  22.5591487  59.1829263  99.0410275  21.8554828
  58.4271696 100.1084371  22.6179440  55.3540559  99.1130955  22.4953012
  55.0159071  98.9972020  21.6073547  56.2230327  98.7122120  22.4754018
  51.2127375 100.9666432  18.4849903  50.6492240 100.8756369  17.7166191
  51.0979770 100.1466336  18.9652396  55.8360342 100.2665807  28.4539218
  55.8248983  99.8718605  27.5819721  55.9980982  99.5331880  29.0472989
  48.7591807 102.4617623  21.3234124  49.5513099 102.1208448  20.9080423
  48.9988457 102.5712598  22.2436277  56.7926934 104.6337399  13.7964368
  56.1414913 105.2191480  13.4098382  57.5871296 105.1643594  13.8559405
  50.7182561 101.7226537  14.1951502  51.4913437 101.1755524  14.0564378
  51.0707960 102.5870786  14.4065964  52.5567603 103.0502919  27.4018402
  52.2657469 103.9548550  27.2865068  53.1924588 103.0919446  28.1162471
  53.4823810 100.4279767  23.9919761  54.0787382 100.2035790  23.2776724
  53.5398782  99.6864513  24.5945209  53.0548839  97.8819203  11.8269952
  53.3074359  97.3600724  11.0653415  52.1173398  97.7185348  11.9296636
  58.0992121  96.8854981  19.6344696  58.8855211  96.4674404  19.2835113
  58.3630826  97.7901073  19.8026344  58.2702199 102.3227831  14.3333352
  57.6348032 102.3962458  15.0454257  57.9399605 102.9121430  13.6552432
  63.5000549  96.8230214  20.5377674  64.2325721  96.2529431  20.7715503
  62.7439904  96.4351815  20.9784180  52.7745127  99.7847309  14.0294327
  52.6581385  99.1092212  14.6975412  52.8847387  99.2979683  13.2126480
  55.1176668  99.2457456  17.7341016  54.7534876  98.7188077  18.4453938
  55.9743784  98.8555925  17.5607502  61.0225969  90.5351788  24.9972283
  60.6909294  91.4047199  24.7733498  60.4271582  90.2188072  25.6766313
  54.7582155  94.2747355  12.7302365  54.9256558  95.1427592  13.0972836
  54.5679324  94.4374637  11.8063654  57.5157488 102.7364334  24.3968195
  57.2158212 103.6389373  24.2884003  57.1708548 102.4696518  25.2489348
  50.9669970  99.1878131  20.4304900  50.0420466  99.0554345  20.6382592
  51.2154383  99.9672350  20.9274842  60.9154632  95.2546875  22.0765633
  60.0071510  95.1862283  21.7824394  60.8642228  95.7318819  22.9047458
  54.7371376  96.7305013  13.7149032  54.6171001  97.1762064  14.5534512
  54.0423965  97.0790331  13.1562570  48.3278781  98.8311405  21.2648689
  48.4571162  99.0845884  22.1788101  47.6476232  99.4239113  20.9453344
  52.4978268 109.5008655  17.3639163  52.4202298 110.4516480  17.4427644
  51.8939912 109.1554527  18.0214089  54.9895498  96.6736520  30.0200530
  54.2128832  97.2330440  30.0103395  55.6286061  97.1593303  30.5415400
  62.7816279  93.4563313  23.8543507  62.1390659  93.7495846  23.2083301
  62.2771207  93.3416233  24.6596703  60.4356442  97.2026486  14.5429366
  61.3474298  97.4353873  14.3677063  59.9266089  97.7863530  13.9804444
  53.2441870  99.4821973  29.5818497  53.9856555 100.0207017  29.3053321
  52.5378856 100.1088262  29.7390049  58.7197210 101.6251114  28.1790658
  59.1280566 101.1833524  27.4345291  57.9974471 101.0503741  28.4324851
  55.0728280  96.5623721  25.5524215  55.9189475  96.9863134  25.6958864
  55.0126918  95.9057345  26.2462778  59.0426025 102.1852305  21.9342947
  58.4134887 102.3498019  21.2319015  58.6551687 102.5993914  22.7053911
  62.9215257 103.1206742  19.2887311  62.2366295 103.5005644  18.7384344
  63.0059106 103.7302069  20.0219259  58.2227725  94.2228089  27.2105389
  57.9788657  94.9770150  26.6739665  58.4987656  94.6013437  28.0452636
  60.1766188 100.7666701  25.8882655  60.3883083 101.4098461  25.2117036
  60.1295936  99.9329018  25.4204585  57.7792417  93.3784522  22.7919227
  56.9176896  93.6765776  23.0835964  57.8054852  93.5954921  21.8600259
  54.5953986 101.9226713  19.1993032  55.0592332 102.2014416  18.4097655
  54.3310785 101.0210157  19.0166123  51.4878068 101.4698194  22.1372796
  52.0579425 101.8985463  21.4990280  52.0786179 101.1880779  22.8356981
  53.5322873  98.0449865  16.0082598  54.2346916  98.4970909  16.4756524
  53.2003501  97.4033684  16.6362491  51.9803234  96.6361622  30.3833807
  51.3501895  97.3177902  30.6169204  51.8739322  96.5244703  29.4386945
  47.2748207  96.3033418  21.3099731  46.4847260  96.5590946  20.8339842
  47.7659454  97.1181756  21.4151772  61.2912016 103.6438657  24.0605012
  62.1129460 103.2418844  23.7787694  61.2874419 103.5406891  25.0121128
  49.2262952  96.6677997  18.2683208  48.4294115  96.7796691  18.7866703
  48.9988544  97.0064649  17.4024098  55.0568620 103.1922700  26.2165722
  55.1213052 103.6543107  27.0523894  54.3479543 102.5620065  26.3448032
  45.5585909  96.5563908  23.7414722  45.8093948  97.4410918  24.0072298
  46.0945458  96.3768510  22.9689814  69.3818009  99.9877405  20.4089983
  68.6281718  99.4184803  20.2533988  69.5165550  99.9540070  21.3560618
  54.7716637 104.8590808  16.0844703  54.6362312 105.7042343  16.5129551
  55.3126450 105.0610085  15.3210637  51.2583977  90.9382387  32.7459058
  50.8650922  90.3848586  33.4206702  52.0750117  91.2492966  33.1365576
  48.2246035 102.3766246  16.6572628  48.7370555 103.1709496  16.8078193
  48.8768747 101.6792536  16.5906229  50.0340919 105.4932002  18.7395381
  50.2107548 106.4149967  18.5516365  50.8297753 105.1790421  19.1689761
  54.1751938  92.3540267  30.3379315  54.9161651  92.9547420  30.2583777
  54.4069861  91.6117904  29.7797357  49.3193276  97.5396634  28.6157544
  49.2046791  96.6381891  28.9164643  48.4637794  97.7860331  28.2642361
  56.3985114 105.4814374  30.2145045  55.9548968 104.6950753  29.8965949
  57.0602327 105.6693525  29.5488936  51.1572235 107.0110176  24.7405723
  51.7079660 106.8827239  23.9682717  50.3183711 107.3105065  24.3900616
  58.4966352 105.7617174  28.2426446  58.4784827 106.5826055  27.7506715
  59.4186272 105.6371249  28.4676587  54.9539406 103.2761304  29.0849954
  55.4867743 102.5149592  28.8549262  54.4253487 102.9834955  29.8274109
  58.1209101  88.3821369  24.6143596  57.7773370  89.2723011  24.5382707
  58.4888063  88.1923027  23.7513181  46.1894951 100.7054900  17.4332198
  47.0270173 101.1151908  17.2165906  46.3673219  99.7654342  17.4032392
  58.0859383  98.3729981  13.1216031  57.5706007  99.1434585  13.3604419
  57.8136692  97.6995117  13.7449093  55.6706494  93.2179681  18.1801270
  54.8148091  92.8286532  18.0006908  56.0833446  93.2971642  17.3201055
  57.2005641  90.7526025  22.5792829  56.6970437  90.7156160  21.7660635
  57.4936248  91.6618767  22.6389486  53.4448527  90.8364754  21.5859011
  54.3101524  90.6407563  21.2264901  53.5126036  90.6075106  22.5128368
  63.0593658 101.1262335  15.0569205  62.2823100 100.7873495  14.6124367
  63.7385139 101.1314958  14.3824170  57.8745687  96.2457073  14.9475813
  57.5695822  96.5603222  15.7985956  58.8276129  96.3238493  14.9903146
  56.3192118 102.4047296  16.5968767  55.7913480 101.6700056  16.2842004
  55.8179621 103.1821972  16.3508735  61.2984964 100.5996317  21.7135813
  60.6408639 101.2895578  21.8015941  62.1025364 100.9892748  22.0569799
  51.0510846  93.0666962  18.9575378  51.6254598  92.8442144  18.2248571
  51.6381829  93.1355657  19.7103979  60.1090423  98.9540689  19.7639755
  60.6222305  99.5870681  20.2661464  60.7591647  98.3541885  19.3983115
  51.3780433  95.0971423  12.9771263  50.5417745  95.4346110  13.2980538
  51.2385203  94.9620403  12.0398400  53.3533514  89.9408211  17.6850447
  52.6997926  89.6257228  17.0607062  53.3113988  89.3183952  18.4110270
  54.4644719 100.2227506   9.6003740  53.5571780  99.9916760   9.7994889
  54.9615751  99.4265126   9.7877721  56.5871254  96.4290145  22.0098095
  55.6693816  96.6505092  21.8519783  57.0031398  96.5036455  21.1509802
  57.3706302  97.8281560  17.1400775  58.1178121  98.3402958  16.8307897
  57.6397891  97.5065613  18.0005169  55.6432952 100.3240101  14.1227730
  54.7344171 100.0399134  14.2200199  55.6728036 100.7439180  13.2631036
  60.8752220 103.9346691  17.8918897  60.4214547 103.0937601  17.9484088
  60.2446186 104.5708089  18.2293677  59.8185139  94.8638677  19.1219565
  59.0807896  94.3516063  19.4529807  60.0711913  94.4239058  18.3102842
  59.3185159 105.7723187  18.8268715  59.6108133 106.3328244  18.1081081
  59.8283779 106.0651748  19.5821874  59.9196766  87.6414929  19.7161334
  60.2255643  86.7812292  19.4287249  60.6449371  88.2332549  19.5160328
  46.2121122  98.0445615  18.1042932  46.0145522  97.4514976  17.3793998
  45.6567786  97.7397825  18.8218871  54.1917846  97.9368722  20.2237525
  54.2466456  96.9842558  20.1480002  53.3809048  98.0928161  20.7078823
  55.3409040 101.8648845  11.4615808  54.9028470 101.1484704  11.0021446
  56.0819481 102.0924960  10.9000900  52.1310206  96.5545781  17.9827904
  51.3178072  96.8539952  18.3893096  52.6269200  96.1601470  18.7002386
  54.2818784 106.5503538  19.9162169  54.2394963 106.7764385  18.9870701
  55.1981483 106.3166913  20.0647970  57.7284418  97.0187606  26.8142798
  58.0833805  97.2459079  27.6737263  58.3756549  97.3505983  26.1920053
  63.4582155 100.1406042  17.5192127  63.3200053 100.3307638  16.5913316
  63.1018373 100.9025425  17.9760178  51.6224281  94.1264137  23.5989139
  52.2623660  93.9852896  22.9012102  50.7901811  93.8398650  23.2227741
  63.4851534 102.2082569  22.5303398  63.9188041 102.1157858  23.3786452
  64.1983115 102.1840069  21.8923414  52.3984585 103.4266567  19.7124131
  53.1925183 102.9316888  19.5106706  51.6876277 102.8984431  19.3491837
  57.2179429 105.8084663  24.0636499  57.2716451 106.3775599  24.8314215
  56.3494211 105.9786548  23.6990536  48.7067348  97.5709649  15.7883884
  47.7764936  97.5094105  16.0053846  48.8024820  97.0485602  14.9920525
  48.6252897  94.0964462  18.3762126  48.8859715  95.0109795  18.2671286
  49.4470070  93.6288905  18.5258738  50.0977823  95.5102219  25.5460950
  50.7700876  95.3019581  24.8973599  49.2707609  95.3124305  25.1066182
  64.3467084 102.2506270  25.0636284  64.5402974 103.1552080  25.3095559
  64.2467702 101.7913689  25.8974869  56.0003395  92.1364160  27.5626611
  55.3531310  92.8354110  27.4691087  56.7704410  92.5700304  27.9302859
  59.4082193 102.4013012  30.6377164  59.2567699 102.1723564  29.7207248
  59.3986872 103.3583614  30.6508509  56.1767529  99.9744925  25.6223431
  57.1059589 100.1256085  25.4492398  55.7558559 100.0628946  24.7672077
  54.9755861 103.9995589  23.3921968  54.8366946 103.6314374  24.2647906
  54.1870457 104.5143229  23.2205926  55.5704013 109.1004686  14.7347505
  55.7455768 108.6292729  15.5493128  54.8836801 109.7270452  14.9628766
  56.5261076 103.3777192  20.7810806  56.1910908 103.3377962  21.6768456
  56.0265022 102.7121908  20.3081216  50.5005320  98.7844822  26.3063387
  50.3625118  98.0525061  26.9074926  51.4110243  98.6953722  26.0247575
  59.4620268 100.7233226  11.0547866  58.8449438  99.9980055  10.9580918
  58.9936756 101.4842587  10.7114940  53.1287620  98.4964781  25.7947067
  53.8387239  97.8557974  25.7533685  53.0856929  98.7477676  26.7173248
  61.1174399 105.4332135  28.7153646  61.0586945 104.7491355  28.0484229
  61.5193918 106.1751125  28.2634272  51.8416554  95.4829999  27.6142706
  51.3053911  95.0320738  28.2664303  51.2533263  95.6175908  26.8713171
  50.1365098 112.2494049  21.5087365  50.3761696 112.8812573  22.1866384
  49.2934294 111.8982089  21.7952724  51.2518813  94.9418651  10.1769170
  50.3748280  94.8207452   9.8131417  51.7276566  94.1504729   9.9248059
  61.1191806 103.3971719  26.9467626  60.2318585 103.0597641  27.0694025
  61.6890357 102.6654750  27.1836391  42.7720954  99.7295810  20.2710677
  43.4591993  99.4157541  19.6831693  42.6169082 100.6337175  19.9977929
  47.5755676  94.6186007  24.6995701  47.4913864  94.0111677  23.9646111
  46.7538382  95.1095025  24.7005197  54.6492960 108.0573171  23.9128869
  54.5763131 108.8628143  24.4248174  54.2070353 108.2565137  23.0876890
  54.4382739 107.2944941  17.4231691  53.6550261 107.8366621  17.5169915
  55.1375485 107.8118921  17.8225932  57.7479390  93.1039571  20.0665896
  58.2448089  92.3509533  19.7466966  56.9766371  93.1403887  19.5009105
  65.6009147  98.8079936  21.7084187  65.5899023  99.6904652  21.3378121
  64.7326526  98.4551487  21.5138725  57.1091643 107.9560005  26.0687028
  57.8219616 108.5907470  25.9962929  56.6181672 108.0523871  25.2527030
  58.8309170 101.8611258  17.6404319  57.8965449 101.9812720  17.4709024
  59.0085839 100.9583725  17.3764329  54.3314358  95.2456954  19.7937581
  53.9612146  94.6927994  20.4818486  54.8273451  94.6415087  19.2412581
  62.2181722  97.7028577  18.1754354  62.6842174  98.5356569  18.1014656
  62.6689222  97.2373559  18.8799612  52.1603557 105.7054449  26.8892599
  52.8613016 106.3390932  27.0421993  51.6898672 106.0469180  26.1288238
  60.2857953 104.0472398  15.1740506  60.5617797 103.9328993  16.0834380
  59.4162451 103.6489883  15.1352679  60.1898384  90.0709164  22.2145255
  59.2761464  90.3013391  22.3827462  60.6191486  90.1547608  23.0659287
  59.9604843  98.2599056  24.7145149  59.3076293  98.5074963  24.0597602
  60.3385223  97.4463194  24.3807626  56.9212017 108.2958749  18.8173319
  57.1034411 107.4780405  19.2801071  57.7445003 108.5126441  18.3798209
  57.2554182 107.2226934  16.0788368  57.7841949 106.7119389  15.4658530
  57.5182402 106.9069465  16.9433901  56.0092416  99.0018867  31.2011186
  55.3333053  98.9012996  31.8713561  56.8320050  98.8458081  31.6647183
  47.7571275 105.2390804  23.8223701  48.3424712 104.4934492  23.9551605
  47.5596113 105.5494760  24.7060365  50.6109930 108.2742051  18.8386144
  49.9420305 108.7588179  18.3550184  50.4722800 108.5211271  19.7529522
  42.3488930  97.8096404  22.5428144  42.3873029  97.2759995  23.3365262
  41.8429223  97.2831609  21.9239122  54.7515199 110.3085795  25.4368802
  55.3033507 110.4717416  26.2017887  55.0921392 110.8990232  24.7648827
  49.7279692  92.6560944  26.0390687  49.7921018  93.5175775  25.6268084
  49.6646812  92.0434946  25.3063045  49.2031965  94.7284077  29.6863721
  49.8304003  94.3461154  30.3001245  48.3459883  94.5098279  30.0519413
  59.6026073 105.1347052  31.2917456  60.1465977 105.7477010  30.7972411
  59.0212918 105.6926630  31.8084469  45.9797507  96.5360506  15.6182076
  46.2750948  95.6271184  15.5649129  45.0785543  96.5148245  15.2963078
  57.8883586 108.2567770  22.4232484  57.7634725 107.4557510  21.9143430
  58.5462677 108.7513963  21.9346454  49.5091754  94.6116503  21.6009624
  48.7878340  95.2252470  21.4617098  50.2985010  95.1474267  21.5226270
  59.9518494 106.0576790  24.0512034  59.0048830 105.9382141  23.9790361
  60.3001268 105.1699288  24.1338296  52.3118068  91.9470929  27.8750276
  52.8352470  92.1933226  28.6376585  52.0930401  92.7790964  27.4553413
  47.7085349  94.2174604  15.7421401  47.3798055  93.3371983  15.5596507
  48.0624720  94.1622272  16.6297790  56.9564928 105.8529506  20.2516386
  56.8089890 104.9246214  20.4323956  57.7818421 105.8749597  19.7673462
  50.8227172  94.5047573  16.1096879  51.1623245  95.0333495  15.3875487
  51.2699292  94.8427980  16.8855445  60.5599050 106.6758065  21.3381259
  61.4845597 106.4700926  21.2005710  60.3914353 106.4274466  22.2470601
  53.5170613  92.8884624  25.5599947  53.1767433  92.0892437  25.9620627
  52.8109619  93.1886335  24.9876780  54.1687085  89.9733937  24.0127270
  54.9913154  89.4994415  23.8906160  54.4125148  90.7524420  24.5125956
  52.8095319  93.0022195  14.3090171  53.5303682  93.3803448  13.8053888
  52.1860623  93.7211072  14.4125149  56.9526442  93.7067344  15.2448504
  57.1690056  94.5891982  14.9437332  56.4720509  93.3153557  14.5154146
  51.6925663  96.6653057  21.8219248  51.5470244  96.9793360  22.7143530
  51.2150867  97.2837958  21.2690147  53.5522046  93.6555605  21.8700138
  53.5383615  92.7596699  21.5332436  54.2694474  93.6626269  22.5038424
  55.4048177  94.0892945  23.9153265  55.1465955  95.0110016  23.9137596
  54.8733217  93.6923380  24.6053729  60.3494366 107.1943733  16.6943351
  60.5231243 106.6290155  15.9417203  60.8423257 107.9944627  16.5122841
  46.1671326  99.2058402  24.7606909  45.6224794  99.9818210  24.8927184
  47.0450675  99.5529206  24.6026031  52.9558942  92.5369986  17.1387708
  53.0774853  91.6086632  17.3378595  52.6660985  92.5508671  16.2266023
  55.8250133  90.2224896  20.2754428  55.8471829  90.2864229  19.3206407
  56.2418192  89.3829405  20.4694934  66.2033757  99.9580156  18.3133650
  66.6464903  99.2087481  17.9152774  65.3260267  99.9490292  17.9307382
  61.3369538 106.5110497  13.7940249  62.0320443 107.1317190  14.0127564
  61.6792688 105.6605848  14.0692627  46.9537347  98.3328298  27.6537066
  46.2119083  98.4810933  28.2401697  46.6330092  98.5936564  26.7903816
  63.2360961 103.9610202  15.3227580  63.7612285 104.2997475  14.5976900
  63.1483314 103.0257218  15.1390714  54.8981010 107.8744276  27.4517456
  55.2068137 107.6293423  28.3240156  55.6956492 108.0790915  26.9636327
  54.9201622 110.0282186  19.6822833  54.4806612 109.5358564  20.3755690
  55.6709739 109.4855153  19.4414908  47.3993961 106.2193727  19.6847461
  48.2251981 105.9197499  19.3046104  47.0488013 105.4501349  20.1337250
  52.3675494 105.5720195  21.7545135  51.7455504 104.9090900  21.4547362
  53.0380361 105.5981327  21.0718782  45.6002566 104.1380053  20.6436395
  44.7634474 103.7102227  20.4620396  45.5726212 104.3312496  21.5807186
  52.4400022  94.0501983  31.3477641  52.4888177  94.9264106  30.9655410
  52.9822536  93.5079376  30.7749284  62.9254867 104.5943106  30.6278778
  62.1350411 104.5767245  30.0883277  62.6888222 105.1331400  31.3827814
  63.0452742 101.4435573  27.9411506  63.0950747 101.2785580  28.8827029
  62.9366666 100.5762832  27.5509387  51.9289001 104.1224118  15.2303595
  52.0777122 104.8059583  14.5770268  52.7355445 104.1029208  15.7453051
  60.3356505  97.4266501  29.2570813  61.2366368  97.2872965  28.9654811
  60.4104479  97.5920955  30.1968990  54.6699310  94.8033355  28.1023999
  53.8002620  95.0966921  27.8306588  54.9058791  95.3873800  28.8231263
  64.5470939 103.8632514  28.1853528  64.2555748 104.2262495  29.0216989
  63.9343071 103.1499522  28.0066860  65.7466622 101.4285394  20.7056098
  66.5813513 101.8675198  20.8693658  65.8825750 100.9524047  19.8864344
  62.7958128  98.9865129  26.6533586  63.2712249  99.1792775  25.8452437
  61.8723693  99.0424314  26.4076969  49.6841634 100.1489296  16.2364664
  49.4387676  99.2451626  16.4344874  49.8537549 100.1506446  15.2944142
  57.3738344  91.0212972  25.6189420  57.8920288  91.7573999  25.2935908
  57.0193477  91.3276966  26.4536179  48.9537282  95.8817653  13.7350825
  48.2606527  95.9562008  13.0790861  48.7089034  95.1177997  14.2572342
  57.6250938  87.4413255  21.1390316  57.9052692  86.7736444  21.7650743
  58.4101545  87.6342350  20.6264980  55.4284407 106.6172249  12.7015343
  54.8558374 107.2362436  12.2485814  56.0017200 107.1671610  13.2355264
  61.4959797  95.8630889  24.8861891  62.4477219  95.9628986  24.9074115
  61.3263247  95.0709157  25.3959976  59.5174176  92.9486472  25.0721292
  58.9224108  93.2291485  24.3767781  59.2323873  93.4380373  25.8438033
  58.6481666 106.9009399  13.8323925  59.5812340 106.8354960  14.0356800
  58.5604879 107.7365666  13.3738457  63.9747874  99.0837008  24.0004191
  63.9424194  98.1453009  24.1863875  64.5848498  99.1621045  23.2670016
  55.8131205  97.9533061  10.0431395  56.7590310  97.8239270  10.1119813
  55.4345450  97.2147723  10.5200823  64.1242363  95.8748052  24.0462474
  63.6081411  95.0906508  23.8592403  65.0082311  95.5466768  24.2108994
  61.7853090  89.6189067  20.0058287  61.5877911  89.3104156  20.8901619
  62.3952795  90.3450706  20.1356217  69.7924424 100.1453015  23.1410228
  70.5227813  99.8838303  23.7017931  69.1831370  99.4081737  23.1812296
  67.8739721  98.2860878  23.7384679  67.1472885  98.1516843  23.1301171
  67.4587008  98.5937706  24.5441397  55.6969898 102.0050808  31.5032052
  56.6172907 102.1829407  31.6972098  55.6619481 101.0606853  31.3511751
  53.9974122  95.8783038   9.9786280  53.0905578  95.5816151  10.0548994
  54.2750103  95.5812856   9.1120566  44.9152063  97.1989401  20.4285327
  44.5954847  96.3454709  20.1359701  44.3685491  97.4137979  21.1843294
  48.6931970  99.9151842  24.1454833  48.9117980 100.8468950  24.1642867
  49.1057744  99.5559817  24.9309637  55.6136188  90.4219928  16.1330522
  54.8036916  90.0767012  16.5085768  56.3020605  90.1127471  16.7218133
  57.5426736  89.4997974  17.7554818  58.0957775  89.9193428  18.4144841
  57.7796823  88.5733722  17.7977774  53.5659836  95.4885048  33.5357582
  53.4656563  96.4379405  33.4669673  53.3481378  95.1603287  32.6633652
  52.7672907  92.7369973  10.1198259  53.6292071  93.0624871  10.3794077
  52.9523251  91.9501469   9.6071325  44.7840323 100.8192313  22.3978448
  44.0903794 100.4046265  21.8848403  45.5313314 100.8612849  21.8011867
  60.9205543  91.6098499  17.2633482  60.3404213  92.2683304  16.8811535
  60.6541476  90.7875844  16.8520900  59.3709110  91.0103557  19.4654803
  59.8708888  91.1220092  18.6569122  60.0144718  90.7064610  20.1055611
  53.4291106  98.9182187  32.3522644  52.9458187  99.7182547  32.5586533
  53.5152045  98.9290132  31.3990088  46.6977065 100.7510566  20.2744463
  46.6747753 100.8498254  19.3226346  47.0077702 101.5975717  20.5961629
  49.3564443 102.8086721  24.3891078  50.3107697 102.7770664  24.3221009
  49.1576967 102.3477345  25.2041303  49.9463825 101.3787838  26.9561875
  50.7656714 101.8731916  26.9796712  50.2200633 100.4619806  26.9279443
  59.7030421  93.7698590  16.3189831  58.8156277  94.0548240  16.1010025
  60.1184411  93.6092353  15.4717108  63.0544958  93.7945111  20.0344170
  63.8305348  94.2841563  20.3068787  62.3293092  94.2203165  20.4916039
  65.4917516  94.5072730  21.0918111  66.0862007  94.2668466  20.3811419
  65.5644100  93.7879861  21.7191647  47.7114672 108.3506341  21.4061275
  47.5769140 107.5906742  20.8399273  47.2946734 109.0747241  20.9390064
  59.6771445  99.2853126  16.5340121  59.6206647  99.7421677  15.6947753
  60.2299788  98.5243810  16.3562964  63.4876251  95.0742858  17.3590240
  63.2313185  94.6739493  18.1898448  62.8629119  95.7886652  17.2340379
  67.7988589  97.8138931  19.8661532  67.2388147  97.8832120  20.6393094
  67.1932092  97.6379916  19.1461028  50.8683798 109.2475658  21.6179718
  50.7516182 110.1921090  21.5158408  50.0476244 108.9449220  22.0065517
  60.7560332 103.9725794  12.4636311  61.5905936 103.5406992  12.2813786
  60.5944675 103.8007807  13.3913205  60.4106225 100.4757907  13.8292650
  60.3555028 100.3102178  12.8881094  59.7852280 101.1833940  13.9854840
  45.1998740  95.7125971  27.6554072  45.8457603  95.2024925  28.1441297
  44.9915891  96.4494653  28.2297497  57.7252132 102.7806819  33.1546213
  58.5943291 102.9547471  32.7932848  57.2458883 103.6001236  33.0321942
  53.7202350  89.9766016  13.4077968  53.7081020  90.9207856  13.5646239
  54.6125772  89.7936161  13.1137430  51.8938312 109.9003920  24.8335646
  52.7965559 109.9327530  25.1502141  51.6675682 108.9704371  24.8481982
  53.6491914 108.6534906  21.4945725  52.6987545 108.6536768  21.3810097
  53.9524400 107.9067641  20.9781760  57.5354469  86.5708793  17.6623905
  56.7686865  86.0167279  17.8080588  57.9465174  86.6430661  18.5238057
  49.5396231  92.8593588  31.7529086  50.4027692  92.5030393  31.9632411
  48.9661641  92.5207483  32.4404491  69.3844607 114.4895445  22.5591487
  70.0223017 114.3702192  21.8554828  69.2665450 115.4376289  22.6179440
  66.1934314 114.4422873  22.4953012  65.8552825 114.3263938  21.6073547
  67.0624082 114.0414038  22.4754018  66.6754097 115.5957725  28.4539218
  66.6642737 115.2010523  27.5819721  66.8374736 114.8623797  29.0472989
  59.5985561 117.7909541  21.3234124  60.3906853 117.4500366  20.9080423
  59.8382212 117.9004516  22.2436277  63.3961358 118.3794836  27.4018402
  63.1051224 119.2840467  27.2865068  64.0318342 118.4211364  28.1162471
  64.3217565 115.7571685  23.9919761  64.9181137 115.5327707  23.2776724
  64.3792536 115.0156430  24.5945209  71.8619723 105.8643706  24.9972283
  71.5303048 106.7339117  24.7733498  71.2665337 105.5479990  25.6766313
  68.3551243 118.0656252  24.3968195  68.0551966 118.9681291  24.2884003
  68.0102302 117.7988435  25.2489348  61.8063724 114.5170049  20.4304900
  60.8814221 114.3846263  20.6382592  62.0548138 115.2964268  20.9274842
  71.7548387 110.5838792  22.0765633  70.8465264 110.5154201  21.7824394
  71.7035983 111.0610737  22.9047458  59.1672535 114.1603322  21.2648689
  59.2964917 114.4137801  22.1788101  58.4869987 114.7531030  20.9453344
  65.8289253 112.0028438  30.0200530  65.0522587 112.5622358  30.0103395
  66.4679816 112.4885221  30.5415400  73.6210033 108.7855231  23.8543507
  72.9784413 109.0787764  23.2083301  73.1164962 108.6708151  24.6596703
  64.0835625 114.8113891  29.5818497  64.8250309 115.3498935  29.3053321
  63.3772610 115.4380180  29.7390049  69.5590964 116.9543032  28.1790658
  69.9674320 116.5125442  27.4345291  68.8368226 116.3795659  28.4324851
  65.9122035 111.8915638  25.5524215  66.7583230 112.3155052  25.6958864
  65.8520672 111.2349263  26.2462778  69.0621480 109.5520007  27.2105389
  68.8182412 110.3062067  26.6739665  69.3381410 109.9305354  28.0452636
  71.0159943 116.0958619  25.8882655  71.2276838 116.7390379  25.2117036
  70.9689691 115.2620936  25.4204585  68.6186172 108.7076440  22.7919227
  67.7570651 109.0057693  23.0835964  68.6448606 108.9246839  21.8600259
  62.3271822 116.7990112  22.1372796  62.8973179 117.2277380  21.4990280
  62.9179934 116.5172697  22.8356981  62.8196989 111.9653539  30.3833807
  62.1895649 112.6469820  30.6169204  62.7133076 111.8536621  29.4386945
  58.1141961 111.6325335  21.3099731  57.3241015 111.8882864  20.8339842
  58.6053208 112.4473673  21.4151772  60.0656706 111.9969915  18.2683208
  59.2687870 112.1088609  18.7866703  59.8382299 112.3356567  17.4024098
  65.8962374 118.5214618  26.2165722  65.9606807 118.9835025  27.0523894
  65.1873298 117.8911983  26.3448032  56.3979664 111.8855826  23.7414722
  56.6487702 112.7702836  24.0072298  56.9339212 111.7060427  22.9689814
  62.0977731 106.2674305  32.7459058  61.7044677 105.7140504  33.4206702
  62.9143872 106.5784884  33.1365576  65.0145692 107.6832184  30.3379315
  65.7555406 108.2839337  30.2583777  65.2463615 106.9409822  29.7797357
  60.1587030 112.8688551  28.6157544  60.0440545 111.9673809  28.9164643
  59.3031548 113.1152248  28.2642361  67.2378868 120.8106292  30.2145045
  66.7942722 120.0242670  29.8965949  67.8996082 120.9985442  29.5488936
  61.9965989 122.3402093  24.7405723  62.5473414 122.2119157  23.9682717
  61.1577465 122.6396982  24.3900616  69.3360106 121.0909092  28.2426446
  69.3178581 121.9117973  27.7506715  70.2580026 120.9663167  28.4676587
  65.7933160 118.6053221  29.0849954  66.3261497 117.8441509  28.8549262
  65.2647241 118.3126873  29.8274109  68.9602855 103.7113287  24.6143596
  68.6167125 104.6014929  24.5382707  69.3281818 103.5214945  23.7513181
  66.5100249 108.5471599  18.1801270  65.6541845 108.1578449  18.0006908
  66.9227201 108.6263560  17.3201055  68.0399396 106.0817942  22.5792829
  67.5364191 106.0448077  21.7660635  68.3330002 106.9910685  22.6389486
  64.2842281 106.1656672  21.5859011  65.1495278 105.9699481  21.2264901
  64.3519790 105.9367024  22.5128368  61.8904601 108.3958880  18.9575378
  62.4648352 108.1734061  18.2248571  62.4775583 108.4647574  19.7103979
  64.1927268 105.2700129  17.6850447  63.5391681 104.9549146  17.0607062
  64.1507742 104.6475869  18.4110270  67.4265009 111.7582062  22.0098095
  66.5087570 111.9797009  21.8519783  67.8425152 111.8328373  21.1509802
  70.7590521 102.9706846  19.7161334  71.0649398 102.1104210  19.4287249
  71.4843126 103.5624467  19.5160328  57.0514877 113.3737533  18.1042932
  56.8539277 112.7806894  17.3793998  56.4961541 113.0689743  18.8218871
  65.0311601 113.2660639  20.2237525  65.0860210 112.3134476  20.1480002
  64.2202803 113.4220079  20.7078823  62.9703961 111.8837699  17.9827904
  62.1571826 112.1831870  18.3893096  63.4662955 111.4893388  18.7002386
  68.5678172 112.3479524  26.8142798  68.9227560 112.5750997  27.6737263
  69.2150303 112.6797900  26.1920053  62.4618035 109.4556055  23.5989139
  63.1017415 109.3144814  22.9012102  61.6295566 109.1690568  23.2227741
  59.4646652 109.4256380  18.3762126  59.7253469 110.3401713  18.2671286
  60.2863824 108.9580822  18.5258738  60.9371577 110.8394137  25.5460950
  61.6094630 110.6311499  24.8973599  60.1101364 110.6416223  25.1066182
  66.8397149 107.4656078  27.5626611  66.1925064 108.1646027  27.4691087
  67.6098164 107.8992222  27.9302859  70.2475947 117.7304930  30.6377164
  70.0961453 117.5015482  29.7207248  70.2380626 118.6875531  30.6508509
  67.0161283 115.3036843  25.6223431  67.9453343 115.4548002  25.4492398
  66.5952313 115.3920863  24.7672077  65.8149615 119.3287507  23.3921968
  65.6760701 118.9606291  24.2647906  65.0264211 119.8435147  23.2205926
  61.3399074 114.1136740  26.3063387  61.2018872 113.3816979  26.9074926
  62.2503998 114.0245640  26.0247575  63.9681375 113.8256699  25.7947067
  64.6780994 113.1849891  25.7533685  63.9250683 114.0769594  26.7173248
  71.9568154 120.7624052  28.7153646  71.8980700 120.0783273  28.0484229
  72.3587672 121.5043042  28.2634272  62.6810309 110.8121917  27.6142706
  62.1447666 110.3612655  28.2664303  62.0927017 110.9467826  26.8713171
  71.9585561 118.7263636  26.9467626  71.0712340 118.3889558  27.0694025
  72.5284112 117.9946668  27.1836391  53.6114708 115.0587728  20.2710677
  54.2985748 114.7449458  19.6831693  53.4562837 115.9629093  19.9977929
  58.4149430 109.9477925  24.6995701  58.3307619 109.3403594  23.9646111
  57.5932137 110.4386943  24.7005197  68.5873144 108.4331488  20.0665896
  69.0841844 107.6801451  19.7466966  67.8160126 108.4695805  19.5009105
  65.1708113 110.5748871  19.7937581  64.8005900 110.0219912  20.4818486
  65.6667205 109.9707005  19.2412581  62.9997311 121.0346366  26.8892599
  63.7006771 121.6682849  27.0421993  62.5292426 121.3761098  26.1288238
  71.0292139 105.4001082  22.2145255  70.1155219 105.6305309  22.3827462
  71.4585240 105.4839526  23.0659287  70.7998597 113.5890974  24.7145149
  70.1470048 113.8366881  24.0597602  71.1778977 112.7755112  24.3807626
  66.8486170 114.3310785  31.2011186  66.1726807 114.2304914  31.8713561
  67.6713804 114.1749999  31.6647183  58.5965029 120.5682721  23.8223701
  59.1818466 119.8226409  23.9551605  58.3989868 120.8786678  24.7060365
  53.1882684 113.1388322  22.5428144  53.2266784 112.6051912  23.3365262
  52.6822977 112.6123527  21.9239122  60.5673446 107.9852862  26.0390687
  60.6314773 108.8467693  25.6268084  60.5040567 107.3726864  25.3063045
  60.0425719 110.0575995  29.6863721  60.6697758 109.6753072  30.3001245
  59.1853638 109.8390197  30.0519413  70.4419828 120.4638970  31.2917456
  70.9859732 121.0768928  30.7972411  69.8606672 121.0218548  31.8084469
  56.8191262 111.8652424  15.6182076  57.1144703 110.9563102  15.5649129
  55.9179298 111.8440163  15.2963078  60.3485509 109.9408420  21.6009624
  59.6272095 110.5544388  21.4617098  61.1378765 110.4766185  21.5226270
  63.1511822 107.2762847  27.8750276  63.6746224 107.5225143  28.6376585
  62.9324156 108.1082882  27.4553413  58.5479103 109.5466521  15.7421401
  58.2191809 108.6663900  15.5596507  58.9018474 109.4914190  16.6297790
  64.3564367 108.2176542  25.5599947  64.0161188 107.4184355  25.9620627
  63.6503374 108.5178253  24.9876780  65.0080839 105.3025854  24.0127270
  65.8306908 104.8286332  23.8906160  65.2518903 106.0816338  24.5125956
  62.5319418 111.9944975  21.8219248  62.3863999 112.3085278  22.7143530
  62.0544622 112.6129875  21.2690147  64.3915801 108.9847523  21.8700138
  64.3777370 108.0888616  21.5332436  65.1088229 108.9918187  22.5038424
  66.2441932 109.4184863  23.9153265  65.9859709 110.3401934  23.9137596
  65.7126972 109.0215298  24.6053729  57.0065080 114.5350319  24.7606909
  56.4618548 115.3110127  24.8927184  57.8844430 114.8821124  24.6026031
  63.7952697 107.8661903  17.1387708  63.9168608 106.9378549  17.3378595
  63.5054739 107.8800589  16.2266023  66.6643887 105.5516814  20.2754428
  66.6865584 105.6156147  19.3206407  67.0811946 104.7121322  20.4694934
  57.7931102 113.6620216  27.6537066  57.0512838 113.8102851  28.2401697
  57.4723846 113.9228481  26.7903816  65.7374765 123.2036194  27.4517456
  66.0461891 122.9585341  28.3240156  66.5350247 123.4082832  26.9636327
  56.4396321 119.4671971  20.6436395  55.6028229 119.0394145  20.4620396
  56.4119966 119.6604414  21.5807186  63.2793776 109.3793901  31.3477641
  63.3281932 110.2556023  30.9655410  63.8216290 108.8371294  30.7749284
  73.7648622 119.9235024  30.6278778  72.9744166 119.9059163  30.0883277
  73.5281977 120.4623318  31.3827814  73.8846497 116.7727490  27.9411506
  73.9344502 116.6077498  28.8827029  73.7760420 115.9054749  27.5509387
  71.1750259 112.7558418  29.2570813  72.0760122 112.6164883  28.9654811
  71.2498234 112.9212873  30.1968990  65.5093065 110.1325273  28.1023999
  64.6396374 110.4258839  27.8306588  65.7452545 110.7165718  28.8231263
  75.3864694 119.1924432  28.1853528  75.0949502 119.5554412  29.0216989
  74.7736825 118.4791440  28.0066860  73.6351882 114.3157046  26.6533586
  74.1106004 114.5084693  25.8452437  72.7117447 114.3716232  26.4076969
  68.2132099 106.3504890  25.6189420  68.7314042 107.0865917  25.2935908
  67.8587231 106.6568883  26.4536179  68.4644693 102.7705172  21.1390316
  68.7446446 102.1028361  21.7650743  69.2495300 102.9634268  20.6264980
  72.3353551 111.1922806  24.8861891  73.2870974 111.2920904  24.9074115
  72.1657001 110.4001075  25.3959976  70.3567931 108.2778390  25.0721292
  69.7617863 108.5583402  24.3767781  70.0717627 108.7672291  25.8438033
  74.9636117 111.2039970  24.0462474  74.4475166 110.4198426  23.8592403
  75.8476066 110.8758686  24.2108994  72.6246844 104.9480985  20.0058287
  72.4271665 104.6396073  20.8901619  73.2346550 105.6742624  20.1356217
  66.5363652 117.3342725  31.5032052  67.4566662 117.5121324  31.6972098
  66.5013235 116.3898771  31.3511751  55.7545817 112.5281319  20.4285327
  55.4348602 111.6746627  20.1359701  55.2079245 112.7429897  21.1843294
  59.5325725 115.2443760  24.1454833  59.7511735 116.1760868  24.1642867
  59.9451499 114.8851734  24.9309637  66.4529943 105.7511845  16.1330522
  65.6430671 105.4058930  16.5085768  67.1414360 105.4419389  16.7218133
  68.3820491 104.8289892  17.7554818  68.9351529 105.2485345  18.4144841
  68.6190577 103.9025640  17.7977774  64.4053590 110.8176966  33.5357582
  64.3050317 111.7671323  33.4669673  64.1875132 110.4895205  32.6633652
  55.6234077 116.1484230  22.3978448  54.9297549 115.7338183  21.8848403
  56.3707068 116.1904767  21.8011867  70.2102864 106.3395475  19.4654803
  70.7102643 106.4512009  18.6569122  70.8538472 106.0356528  20.1055611
  64.2684860 114.2474104  32.3522644  63.7851942 115.0474465  32.5586533
  64.3545799 114.2582049  31.3990088  57.5370820 116.0802484  20.2744463
  57.5141508 116.1790171  19.3226346  57.8471456 116.9267635  20.5961629
  60.1958198 118.1378639  24.3891078  61.1501451 118.1062582  24.3221009
  59.9970721 117.6769263  25.2041303  60.7857580 116.7079755  26.9561875
  61.6050469 117.2023834  26.9796712  61.0594387 115.7911723  26.9279443
  56.0392494 111.0417889  27.6554072  56.6851358 110.5316843  28.1441297
  55.8309645 111.7786571  28.2297497  68.5645886 118.1098737  33.1546213
  69.4337046 118.2839389  32.7932848  68.0852638 118.9293153  33.0321942
  62.7332066 125.2295838  24.8335646  63.6359313 125.2619448  25.1502141
  62.5069436 124.2996289  24.8481982  68.3748224 101.9000710  17.6623905
  67.6080620 101.3459197  17.8080588  68.7858929 101.9722579  18.5238057
  60.3789985 108.1885506  31.7529086  61.2421447 107.8322311  31.9632411
  59.8055396 107.8499401  32.4404491  72.9371486 121.5966223  32.7459058
  72.5438431 121.0432421  33.4206702  73.7537626 121.9076801  33.1365576
  75.8539447 123.0124102  30.3379315  76.5949160 123.6131255  30.2583777
  76.0857370 122.2701740  29.7797357  70.8819473 125.3867912  29.6863721
  71.5091512 125.0044990  30.3001245  70.0247392 125.1682114  30.0519413
  74.1187531 124.7085818  31.3477641  74.1675686 125.5847941  30.9655410
  74.6610045 124.1663211  30.7749284  75.2447345 126.1468883  33.5357582
  75.1444071 127.0963240  33.4669673  75.0268887 125.8187122  32.6633652
  66.8786249 126.3709807  27.6554072  67.5245112 125.8608761  28.1441297
  66.6703400 127.1078488  28.2297497  71.2183739 123.5177424  31.7529086
  72.0815201 123.1614229  31.9632411  70.6449150 123.1791319  32.4404491
  28.5993137  36.4518504  15.4398953  28.5405683  35.7677725  14.7729536
  29.0012655  37.1937494  14.9879579  27.0844811  36.1533422  18.0162763
  27.6284715  36.7663380  17.5217718  26.5031656  36.7113000  18.5329776
  30.4073605  35.6129476  17.3524084  29.6169149  35.5953615  16.8128584
  30.1706960  36.1517769  18.1073121  32.0289677  34.8818884  14.9098834
  31.7374485  35.2448864  15.7462295  31.4161808  34.1685892  14.7312166
  25.2070870  33.7993188  19.8791519  26.0762029  33.9733841  19.5178154
  24.7277621  34.6187605  19.7567249  36.8663345  45.5081814   9.2836794
  37.5041755  45.3888562   8.5800134  36.7484188  46.4562658   9.3424746
  33.6753052  45.4609243   9.2198319  33.3371563  45.3450307   8.3318854
  34.5442820  45.0600408   9.1999325  34.1572835  46.6144094  15.1784524
  34.1461475  46.2196893  14.3065028  34.3193474  45.8810167  15.7718296
  27.0804299  48.8095911   8.0479430  27.8725591  48.4686735   7.6325729
  27.3200949  48.9190886   8.9681584  30.8780096  49.3981206  14.1263708
  30.5869962  50.3026837  14.0110375  31.5137080  49.4397734  14.8407778
  31.8036303  46.7758055  10.7165068  32.3999875  46.5514077  10.0022031
  31.8611274  46.0342800  11.3190516  41.8213041  43.1708501   7.2622981
  42.5538213  42.6007718   7.4960810  41.0652397  42.7830102   7.7029486
  39.3438461  36.8830076  11.7217589  39.0121786  37.7525487  11.4978804
  38.7484075  36.5666360  12.4011620  35.8369981  49.0842622  11.1213502
  35.5370704  49.9867660  11.0129309  35.4921040  48.8174805  11.9734655
  39.2367125  41.6025162   8.8010939  38.3284002  41.5340570   8.5069700
  39.1854720  42.0797107   9.6292765  30.8190761  55.8486942   4.0884470
  30.7414790  56.7994767   4.1672950  30.2152404  55.5032814   4.7459396
  33.3107990  43.0214807  16.7445837  32.5341324  43.5808727  16.7348701
  33.9498553  43.5071590  17.2660707  41.1028771  39.8041600  10.5788813
  40.4603151  40.0974133   9.9328608  40.5983699  39.6894520  11.3842010
  31.5654363  45.8300261  16.3063804  32.3069047  46.3685305  16.0298627
  30.8591348  46.4566549  16.4635355  37.0409702  47.9729401  14.9035965
  37.4493058  47.5311812  14.1590597  36.3186964  47.3982029  15.1570158
  33.3940772  42.9102008  12.2769522  34.2401967  43.3341421  12.4204171
  33.3339410  42.2535632  12.9708085  37.3638517  48.5330592   8.6588254
  36.7347379  48.6976306   7.9564322  36.9764179  48.9472201   9.4299218
  41.2427749  49.4685030   6.0132618  40.5578787  49.8483931   5.4629651
  41.3271598  50.0780356   6.7464565  36.5440218  40.5706376  13.9350696
  36.3001150  41.3248437  13.3984971  36.8200148  40.9491724  14.7697943
  38.4978680  47.1144989  12.6127961  38.7095576  47.7576749  11.9362342
  38.4508429  46.2807305  12.1449891  29.8090560  47.8176481   8.8618102
  30.3791917  48.2463750   8.2235587  30.3998672  47.5359066   9.5602288
  30.3015726  42.9839909  17.1079114  29.6714387  43.6656190  17.3414510
  30.1951814  42.8722990  16.1632252  39.6124508  49.9916944  10.7850319
  40.4341952  49.5897131  10.5033000  39.6086911  49.8885178  11.7366434
  33.3781112  49.5400987  12.9411029  33.4425544  50.0021395  13.7769201
  32.6692036  48.9098352  13.0693339  47.7030501  46.3355693   7.1335290
  46.9494210  45.7663091   6.9779294  47.8378043  46.3018357   8.0805925
  29.5796469  37.2860675  19.4704365  29.1863415  36.7326873  20.1452009
  30.3962609  37.5971253  19.8610882  28.3553412  51.8410289   5.4640688
  28.5320040  52.7628254   5.2761672  29.1510245  51.5268708   5.8935067
  32.4964430  38.7018554  17.0624621  33.2374143  39.3025707  16.9829084
  32.7282353  37.9596192  16.5042664  27.6405768  43.8874921  15.3402851
  27.5259283  42.9860178  15.6409950  26.7850286  44.1338618  14.9887667
  34.7197606  51.8292661  16.9390351  34.2761460  51.0429040  16.6211256
  35.3814819  52.0171812  16.2734242  29.4784727  53.3588463  11.4651030
  30.0292152  53.2305526  10.6928024  28.6396203  53.6583352  11.1145923
  36.8178844  52.1095461  14.9671753  36.7997319  52.9304342  14.4752022
  37.7398764  51.9849537  15.1921894  33.2751898  49.6239591  15.8095261
  33.8080235  48.8627879  15.5794569  32.7465979  49.3313243  16.5519416
  39.6197457  46.9474604   8.4381119  38.9621131  47.6373865   8.5261248
  40.4237856  47.3371036   8.7815106  38.4302916  45.3018976   6.4885061
  38.9434797  45.9348968   6.9906771  39.0804139  44.7020172   6.1228421
  34.9083746  42.7768432   8.7343402  33.9906308  42.9983379   8.5765090
  35.3243890  42.8514742   7.8755109  39.1964712  50.2824978   4.6164204
  38.7427039  49.4415888   4.6729394  38.5658678  50.9186376   4.9538984
  37.6397651  52.1201475   5.5514022  37.9320625  52.6806532   4.8326388
  38.1496272  52.4130036   6.3067181  32.6031276  52.8981826   6.6407475
  32.5607455  53.1242672   5.7116007  33.5193975  52.6645200   6.7893276
  36.0496910  43.3665893  13.5388104  36.4046298  43.5937366  14.3982570
  36.6969041  43.6984270  12.9165360  41.7794647  46.4884329   4.2437433
  41.6412546  46.6785925   3.3158623  41.4230866  47.2503712   4.7005485
  41.8064027  48.5560856   9.2548705  42.2400533  48.4636145  10.1031759
  42.5195607  48.5318357   8.6168721  35.5391921  52.1562950  10.7881806
  35.5928944  52.7253887  11.5559521  34.6706703  52.3264835  10.4235843
  28.4190315  41.8580506  12.2706257  29.0913368  41.6497869  11.6218906
  27.5920101  41.6602592  11.8311489  42.6679576  48.5984557  11.7881590
  42.8615466  49.5030367  12.0340865  42.5680194  48.1391976  12.6220175
  34.3215887  38.4842447  14.2871918  33.6743802  39.1832397  14.1936394
  35.0916902  38.9178591  14.6548166  37.7294685  48.7491300  17.3622471
  37.5780191  48.5201851  16.4452555  37.7199364  49.7061901  17.3753816
  34.4980021  46.3223212  12.3468737  35.4272081  46.4734372  12.1737705
  34.0771051  46.4107233  11.4917384  33.2968353  50.3473877  10.1167275
  33.1579439  49.9792661  10.9893213  32.5082949  50.8621516   9.9451233
  33.8916505  55.4482973   1.4592812  34.0668261  54.9771016   2.2738434
  33.2049293  56.0748739   1.6874072  34.8473568  49.7255479   7.5056113
  34.5123401  49.6856249   8.4013763  34.3477514  49.0600195   7.0326523
  28.8217812  45.1323109  13.0308694  28.6837610  44.4003348  13.6320233
  29.7322736  45.0432009  12.7492882  31.4500113  44.8443069  12.5192374
  32.1599731  44.2036261  12.4778992  31.4069421  45.0955964  13.4418554
  39.4386891  51.7810422  15.4398953  39.3799438  51.0969642  14.7729536
  39.8406410  52.5229412  14.9879579  30.1629047  41.8308287  14.3388013
  29.6266404  41.3799025  14.9909609  29.5745755  41.9654195  13.5958477
  28.4577590  58.5972336   8.2332672  28.6974188  59.2290860   8.9111690
  27.6146787  58.2460376   8.5198031  39.4404299  49.7450006  13.6712932
  38.5531077  49.4075928  13.7939331  40.0102850  49.0133037  13.9081698
  32.9705452  54.4051458  10.6374176  32.8975624  55.2106430  11.1493480
  32.5282845  54.6043424   9.8122197  32.7595232  53.6423228   4.1476997
  31.9762754  54.1844909   4.2415222  33.4587977  54.1597208   4.5471238
  43.9221639  45.1558223   8.4329494  43.9111515  46.0382939   8.0623427
  43.0539019  44.8029774   8.2384031  35.4304136  54.3038292  12.7932334
  36.1432108  54.9385757  12.7208236  34.9394164  54.4002158  11.9772336
  30.4816049  52.0532736  13.6137905  31.1825509  52.6869219  13.7667299
  30.0111164  52.3947467  12.8533544  38.2817335  44.6077343  11.4390456
  37.6288785  44.8553251  10.7842908  38.6597715  43.7941481  11.1052933
  35.2424509  54.6437036   5.5418626  35.4246904  53.8258692   6.0046378
  36.0657495  54.8604729   5.1043516  35.5766675  53.5705222   2.8033674
  36.1054441  53.0597676   2.1903836  35.8394894  53.2547752   3.6679207
  34.3304908  45.3497154  17.9256493  33.6545545  45.2491284  18.5958868
  35.1532542  45.1936368  18.3892490  26.0783767  51.5869091  10.5469008
  26.6637204  50.8412779  10.6796912  25.8808606  51.8973048  11.4305672
  28.9322422  54.6220338   5.5631450  28.2632798  55.1066466   5.0795490
  28.7935292  54.8689559   6.4774829  33.0727691  56.6564082  12.1614109
  33.6245999  56.8195703  12.9263194  33.4133884  57.2468520  11.4894133
  27.5244457  41.0762364  16.4109028  28.1516496  40.6939441  17.0246552
  26.6672376  40.8576566  16.7764720  37.9238565  51.4825339  18.0162763
  38.4678469  52.0955298  17.5217718  37.3425410  52.0404918  18.5329776
  36.2096078  54.6046057   9.1477791  36.0847218  53.8035797   8.6388736
  36.8675169  55.0992251   8.6591761  38.2730987  52.4055077  10.7757341
  37.3261322  52.2860429  10.7035668  38.6213760  51.5177575  10.8583602
  30.6330560  38.2949216  14.5995583  31.1564962  38.5411513  15.3621892
  30.4142893  39.1269251  14.1798720  35.2777420  52.2007794   6.9761693
  35.1302382  51.2724501   7.1569263  36.1030913  52.2227884   6.4918768
  38.8811542  53.0236352   8.0626566  39.8058089  52.8179214   7.9251017
  38.7126845  52.7752754   8.9715907  31.8383105  39.2362911  12.2845253
  31.4979925  38.4370724  12.6865933  31.1322111  39.5364622  11.7122086
  33.7260669  40.4371233  10.6398572  33.4678447  41.3588303  10.6382902
  33.1945710  40.0401667  11.3299036  38.6706858  53.5422020   3.4188657
  38.8443736  52.9768442   2.6662510  39.1635749  54.3422915   3.2368147
  24.4883818  45.5536689  11.4852216  23.9437286  46.3296497  11.6172490
  25.3663168  45.9007493  11.3271338  44.5246249  46.3058443   5.0378957
  44.9677395  45.5565768   4.6398080  43.6472760  46.2968579   4.6552689
  39.6582031  52.8588784   0.5185556  40.3532935  53.4795477   0.7372870
  40.0005181  52.0084135   0.7937933  25.2749840  44.6806585  14.3782373
  24.5331576  44.8289221  14.9647003  24.9542584  44.9414851  13.5149122
  41.5573454  50.3088490   2.0472886  42.0824778  50.6475763   1.3222206
  41.4695806  49.3735505   1.8636021  33.2193502  54.2222563  14.1762763
  33.5280629  53.9771710  15.0485463  34.0168984  54.4269202  13.6881633
  33.2414114  56.3760473   6.4068139  32.8019105  55.8836852   7.1000996
  33.9922231  55.8333441   6.1660215  25.7206453  52.5672014   6.4092768
  26.5464473  52.2675786   6.0291411  25.3700505  51.7979636   6.8582556
  30.6887987  51.9198482   8.4790441  30.0667996  51.2569187   8.1792669
  31.3592853  51.9459614   7.7964089  30.7612514  40.3980270  18.0722947
  30.8100670  41.2742393  17.6900717  31.3035028  39.8557663  17.4994590
  41.2467360  50.9421393  17.3524084  40.4562903  50.9245532  16.8128584
  41.0100714  51.4809687  18.1073121  41.3665235  47.7913860  14.6656813
  41.4163240  47.6263867  15.6072336  41.2579158  46.9241119  14.2754694
  38.6568997  43.7744788  15.9816120  39.5578860  43.6351253  15.6900117
  38.7316972  43.9399243  16.9214297  32.9911802  41.1511643  14.8269306
  32.1215112  41.4445209  14.5551894  33.2271283  41.7352088  15.5476569
  42.8683432  50.2110801  14.9098834  42.5768240  50.5740782  15.7462295
  42.2555563  49.4977810  14.7312166  44.0679114  47.7763681   7.4301405
  44.9026005  48.2153485   7.5938965  44.2038243  47.3002334   6.6109650
  41.1170620  45.3343416  13.3778892  41.5924741  45.5271062  12.5697744
  40.1936185  45.3902602  13.1322276  35.6950836  37.3691259  12.3434726
  36.2132780  38.1052286  12.0181215  35.3405969  37.6755253  13.1781485
  39.8172289  42.2109176  11.6107198  40.7689712  42.3107274  11.6319422
  39.6475739  41.4187445  12.1205282  37.8386668  39.2964759  11.7966599
  37.2436600  39.5769772  11.1013087  37.5536365  39.7858660  12.5683340
  42.2960367  45.4315296  10.7249498  42.2636687  44.4931296  10.9109181
  42.9060990  45.5099332   9.9915322  42.4454855  42.2226339  10.7707781
  41.9293904  41.4384796  10.5837710  43.3294804  41.8945056  10.9354300
  48.1136916  46.4931303   9.8655534  48.8440305  46.2316591  10.4263238
  47.5043862  45.7560024   9.9057602  46.1952214  44.6339165  10.4629986
  45.4685377  44.4995130   9.8546477  45.7799500  44.9415994  11.2686704
  34.0182390  48.3529095  18.2277359  34.9385399  48.5307694  18.4217405
  33.9831973  47.4085140  18.0757058  27.0144463  46.2630129  10.8700140
  27.2330472  47.1947237  10.8888174  27.4270236  45.9038104  11.6554944
  31.8872328  41.8363335  20.2602889  31.7869055  42.7857692  20.1914980
  31.6693870  41.5081574  19.3878959  31.7503598  45.2660474  19.0767950
  31.2670680  46.0660834  19.2831839  31.8364537  45.2768419  18.1235394
  27.6776935  49.1565009  11.1136384  28.6320189  49.1248951  11.0466316
  27.4789459  48.6955632  11.9286610  28.2676318  47.7266125  13.6807182
  29.0869207  48.2210203  13.7042019  28.5413125  46.8098093  13.6524749
  43.8130009  40.8551017   7.8163417  44.4074499  40.6146753   7.1056725
  43.8856592  40.1358148   8.4436953  26.0327164  54.6984628   8.1306582
  25.8981632  53.9385029   7.5644580  25.6159226  55.4225528   7.6635371
  46.1201081  44.1617218   6.5906838  45.5600639  44.2310407   7.3638400
  45.5144585  43.9858203   5.8706335  29.1896290  55.5953945   8.3425025
  29.0728674  56.5399378   8.2403715  28.3688736  55.2927507   8.7310824
  23.5211232  42.0604259  14.3799379  24.1670095  41.5503213  14.8686604
  23.3128383  42.7972940  14.9542804  36.0464624  49.1285106  19.8791519
  36.9155784  49.3025758  19.5178154  35.5671375  49.9479523  19.7567249
  30.2150804  56.2482207  11.5580953  31.1178051  56.2805817  11.8747448
  29.9888174  55.3182658  11.5727289  31.9704406  55.0013194   8.2191032
  31.0200037  55.0015055   8.1055404  32.2736892  54.2545928   7.7027066
  27.8608723  39.2071876  18.4774393  28.7240184  38.8508681  18.6877718
  27.2874133  38.8685771  19.1649797  47.7057100  60.8373732   9.2836794
  48.3435510  60.7180479   8.5800134  47.5877943  61.7854576   9.3424746
  44.5146806  60.7901160   9.2198319  44.1765318  60.6742225   8.3318854
  45.3836574  60.3892325   9.1999325  40.3733622  62.6436637   5.2095210
  39.8098487  62.5526574   4.4411497  40.2586017  61.8236541   5.6897702
  44.9966589  61.9436012  15.1784524  44.9855230  61.5488810  14.3065028
  45.1587228  61.2102085  15.7718296  37.9198054  64.1387828   8.0479430
  38.7119346  63.7978653   7.6325729  38.1594704  64.2482803   8.9681584
  45.9533180  66.3107604   0.5209675  45.3021160  66.8961685   0.1343688
  46.7477543  66.8413799   0.5804712  39.8788808  63.3996741   0.9196809
  40.6519684  62.8525729   0.7809685  40.2314206  64.2640991   1.1311270
  41.7173850  64.7273124  14.1263708  41.4263716  65.6318755  14.0110375
  42.3530834  64.7689651  14.8407778  42.6430057  62.1049972  10.7165068
  43.2393629  61.8805995  10.0022031  42.7005029  61.3634718  11.3190516
  42.2155085  59.5589408  -1.4484741  42.4680606  59.0370929  -2.2101278
  41.2779644  59.3955553  -1.3458057  47.2598368  58.5625186   6.3590002
  48.0461457  58.1444609   6.0080419  47.5237073  59.4671278   6.5271651
  47.4308446  63.9998036   1.0578659  46.7954279  64.0732663   1.7699564
  47.1005852  64.5891635   0.3797738  52.6606795  58.5000419   7.2622981
  53.3931967  57.9299636   7.4960810  51.9046151  58.1122020   7.7029486
  41.9351374  61.4617514   0.7539634  41.8187632  60.7862417   1.4220718
  42.0453634  60.9749887  -0.0628213  44.2782915  60.9227661   4.4586323
  43.9141122  60.3958282   5.1699245  45.1350031  60.5326130   4.2852809
  50.1832216  52.2121993  11.7217589  49.8515540  53.0817404  11.4978804
  49.5877829  51.8958277  12.4011620  43.9188402  55.9517560  -0.5452328
  44.0862804  56.8197797  -0.1781857  43.7285571  56.1144842  -1.4691039
  46.6763735  64.4134539  11.1213502  46.3764458  65.3159578  11.0129309
  46.3314795  64.1466722  11.9734655  40.1276217  60.8648336   7.1550206
  39.2026713  60.7324550   7.3627898  40.3760630  61.6442555   7.6520149
  50.0760879  56.9317079   8.8010939  49.1677756  56.8632488   8.5069700
  50.0248475  57.4089024   9.6292765  43.8977623  58.4075218   0.4394338
  43.7777248  58.8532269   1.2779819  43.2030211  58.7560536  -0.1192123
  37.4885028  60.5081610   7.9893995  37.6177409  60.7616089   8.9033407
  36.8082479  61.1009318   7.6698651  41.6584515  71.1778860   4.0884470
  41.5808545  72.1286685   4.1672950  41.0546159  70.8324732   4.7459396
  44.1501745  58.3506725  16.7445837  43.3735079  58.9100645  16.7348701
  44.7892308  58.8363508  17.2660707  51.9422525  55.1333518  10.5788813
  51.2996906  55.4266051   9.9328608  51.4377454  55.0186438  11.3842010
  49.5962689  58.8796691   1.2674672  50.5080545  59.1124078   1.0922370
  49.0872336  59.4633735   0.7049751  42.4048117  61.1592178  16.3063804
  43.1462801  61.6977222  16.0298627  41.6985103  61.7858467  16.4635355
  47.8803457  63.3021319  14.9035965  48.2886813  62.8603729  14.1590597
  47.1580718  62.7273946  15.1570158  44.2334527  58.2393926  12.2769522
  45.0795722  58.6633339  12.4204171  44.1733164  57.5827550  12.9708085
  48.2032271  63.8622509   8.6588254  47.5741134  64.0268224   7.9564322
  47.8157933  64.2764119   9.4299218  52.0821503  64.7976947   6.0132618
  51.3972541  65.1775849   5.4629651  52.1665353  65.4072274   6.7464565
  47.3833972  55.8998294  13.9350696  47.1394904  56.6540354  13.3984971
  47.6593903  56.2783642  14.7697943  49.3372435  62.4436906  12.6127961
  49.5489330  63.0868666  11.9362342  49.2902183  61.6099223  12.1449891
  46.9398664  55.0554727   9.5164533  46.0783143  55.3535981   9.8081271
  46.9661098  55.2725126   8.5845566  43.7560233  63.5996918   5.9238339
  44.2198579  63.8784621   5.1342962  43.4917031  62.6980362   5.7411430
  40.6484314  63.1468399   8.8618102  41.2185671  63.5755667   8.2235587
  41.2392426  62.8650984   9.5602288  42.6929119  59.7220070   2.7327904
  43.3953163  60.1741114   3.2001831  42.3609748  59.0803889   3.3607797
  41.1409481  58.3131827  17.1079114  40.5108141  58.9948107  17.3414510
  41.0345569  58.2014908  16.1632252  36.4354453  57.9803623   8.0345038
  35.6453507  58.2361151   7.5585148  36.9265701  58.7951960   8.1397078
  50.4518263  65.3208862  10.7850319  51.2735707  64.9189049  10.5033000
  50.4480666  65.2177096  11.7366434  38.3869199  58.3448202   4.9928514
  37.5900362  58.4566896   5.5112010  38.1594791  58.6834854   4.1269405
  44.2174866  64.8692905  12.9411029  44.2819299  65.3313312  13.7769201
  43.5085790  64.2390270  13.0693339  34.7192156  58.2334113  10.4660029
  34.9700195  59.1181123  10.7317604  35.2551705  58.0538715   9.6935120
  58.5424256  61.6647610   7.1335290  57.7887964  61.0955008   6.9779294
  58.6771797  61.6310275   8.0805925  43.9322884  66.5361013   2.8090009
  43.7968559  67.3812548   3.2374857  44.4732696  66.7380290   2.0455943
  40.4190224  52.6152592  19.4704365  40.0257169  52.0618791  20.1452009
  41.2356364  52.9263171  19.8610882  37.3852281  64.0536451   3.3817934
  37.8976802  64.8479701   3.5323499  38.0374994  63.3562741   3.3151536
  39.1947166  67.1702207   5.4640688  39.3713794  68.0920172   5.2761672
  39.9904000  66.8560626   5.8935067  43.3358185  54.0310471  17.0624621
  44.0767898  54.6317625  16.9829084  43.5676107  53.2888109  16.5042664
  38.4799523  59.2166839  15.3402851  38.3653038  58.3152096  15.6409950
  37.6244040  59.4630536  14.9887667  45.5591360  67.1584579  16.9390351
  45.1155215  66.3720958  16.6211256  46.2208574  67.3463730  16.2734242
  40.3178481  68.6880381  11.4651030  40.8685907  68.5597444  10.6928024
  39.4789957  68.9875270  11.1145923  47.6572598  67.4387379  14.9671753
  47.6391074  68.2596260  14.4752022  48.5792518  67.3141454  15.1921894
  44.1145653  64.9531508  15.8095261  44.6473989  64.1919797  15.5794569
  43.5859734  64.6605160  16.5519416  47.2815348  50.0591574  11.3388903
  46.9379617  50.9493216  11.2628013  47.6494310  49.8693232  10.4758488
  35.3501198  62.3825105   4.1577505  36.1876420  62.7922113   3.9411213
  35.5279466  61.4424547   4.1277699  47.2465630  60.0500186  -0.1538662
  46.7312254  60.8204790   0.0849725  46.9742939  59.3765322   0.4694399
  44.8312741  54.8949886   4.9046576  43.9754338  54.5056737   4.7252215
  45.2439693  54.9741847   4.0446362  46.3611888  52.4296230   9.3038136
  45.8576683  52.3926365   8.4905941  46.6542495  53.3388972   9.3634793
  42.6054774  52.5134959   8.3104318  43.4707771  52.3177768   7.9510207
  42.6732283  52.2845311   9.2373675  52.2199904  62.8032540   1.7814511
  51.4429347  62.4643700   1.3369674  52.8991385  62.8085163   1.1069477
  47.0351933  57.9227278   1.6721119  46.7302069  58.2373427   2.5231262
  47.9882376  58.0008698   1.7148452  45.4798365  64.0817501   3.3214073
  44.9519727  63.3470261   3.0087311  44.9785868  64.8592177   3.0754041
  50.4591211  62.2766521   8.4381119  49.8014886  62.9665783   8.5261248
  51.2631610  62.6662953   8.7815106  40.2117093  54.7437167   5.6820685
  40.7860845  54.5212349   4.9493878  40.7988075  54.8125862   6.4349286
  49.2696670  60.6310894   6.4885061  49.7828552  61.2640886   6.9906771
  49.9197894  60.0312090   6.1228421  40.5386680  56.7741628  -0.2983430
  39.7023992  57.1116315   0.0225845  40.3991450  56.6390608  -1.2356293
  42.5139761  51.6178416   4.4095754  41.8604173  51.3027433   3.7852369
  42.4720235  50.9954157   5.1355577  43.6250965  61.8997711  -3.6750954
  42.7178027  61.6686965  -3.4759805  44.1221997  61.1035330  -3.4876972
  46.5319044  70.6095218  -0.7554268  45.8580743  70.9126915  -0.1469310
  46.9184866  71.4124299  -1.1048811  45.7477501  58.1060350   8.7343402
  44.8300062  58.3275297   8.5765090  46.1637645  58.1806660   7.8755109
  46.5312549  59.5051765   3.8646082  47.2784368  60.0173163   3.5553204
  46.8004138  59.1835818   4.7250476  44.8039199  62.0010306   0.8473036
  43.8950418  61.7169339   0.9445506  44.8334283  62.4209385  -0.0123657
  50.0358466  65.6116896   4.6164204  49.5820793  64.7707805   4.6729394
  49.4052433  66.2478294   4.9538984  48.9791386  56.5408882   5.8464871
  48.2414143  56.0286268   6.1775114  49.2318159  56.1009263   5.0348148
  48.4791406  67.4493392   5.5514022  48.7714380  68.0098449   4.8326388
  48.9890026  67.7421953   6.3067181  49.0803013  49.3185134   6.4406641
  49.3861890  48.4582497   6.1532556  49.8055618  49.9102754   6.2405634
  35.3727369  59.7215820   4.8288238  35.1751769  59.1285181   4.1039305
  34.8174033  59.4168030   5.5464177  43.3524093  59.6138927   6.9482832
  43.4072703  58.6612763   6.8725308  42.5415295  59.7698366   7.4324130
  44.5015287  63.5419050  -1.8138885  44.0634717  62.8254909  -2.2733248
  45.2425728  63.7695165  -2.3753794  41.2916453  58.2315986   4.7073210
  40.4784318  58.5310157   5.1138403  41.7875447  57.8371675   5.4247693
  43.4425031  68.2273743   6.6407475  43.4001210  68.4534590   5.7116007
  44.3587730  67.9937118   6.7893276  46.8890665  58.6957811  13.5388104
  47.2440052  58.9229284  14.3982570  47.5362796  59.0276188  12.9165360
  52.6188401  61.8176247   4.2437433  52.4806300  62.0077843   3.3158623
  52.2624620  62.5795630   4.7005485  40.7830528  55.8034342  10.3234445
  41.4229907  55.6623101   9.6257409  39.9508058  55.5168855   9.9473047
  52.6457781  63.8852774   9.2548705  53.0794288  63.7928063  10.1031759
  53.3589362  63.8610274   8.6168721  41.5590831  65.1036772   6.4369438
  42.3531430  64.6087092   6.2352013  40.8482524  64.5754635   6.0737143
  46.3785676  67.4854868  10.7881806  46.4322698  68.0545804  11.5559521
  45.5100457  67.6556753  10.4235843  37.8673595  59.2479854   2.5129191
  36.9371183  59.1864310   2.7299153  37.9631067  58.7255807   1.7165832
  37.7859144  55.7734667   5.1007432  38.0465961  56.6880000   4.9916593
  38.6076316  55.3059109   5.2504045  39.2584069  57.1872424  12.2706257
  39.9307123  56.9789786  11.6218906  38.4313856  56.9894510  11.8311489
  53.5073331  63.9276474  11.7881590  53.7009221  64.8322285  12.0340865
  53.4073949  63.4683894  12.6220175  45.1609641  53.8134365  14.2871918
  44.5137556  54.5124315  14.1936394  45.9310657  54.2470509  14.6548166
  48.5688439  64.0783217  17.3622471  48.4173946  63.8493769  16.4452555
  48.5593119  65.0353819  17.3753816  45.3373776  61.6515130  12.3468737
  46.2665836  61.8026290  12.1737705  44.9164806  61.7399151  11.4917384
  44.1362107  65.6765794  10.1167275  43.9973193  65.3084579  10.9893213
  43.3476704  66.1913434   9.9451233  44.7310259  70.7774891   1.4592812
  44.9062015  70.3062934   2.2738434  44.0443047  71.4040657   1.6874072
  45.6867323  65.0547397   7.5056113  45.3517155  65.0148167   8.4013763
  45.1871268  64.3892113   7.0326523  39.6611567  60.4615027  13.0308694
  39.5231365  59.7295266  13.6320233  40.5716490  60.3723927  12.7492882
  48.6226514  62.4003431  -2.2206828  48.0055685  61.6750260  -2.3173775
  48.1543003  63.1612792  -2.5639753  42.2893867  60.1734986  12.5192374
  42.9993486  59.5328179  12.4778992  42.2463175  60.4247881  13.4418554
  50.2780646  67.1102340  15.4398953  50.2193192  66.4261560  14.7729536
  50.6800164  67.8521330  14.9879579  41.0022801  57.1600204  14.3388013
  40.4660158  56.7090943  14.9909609  40.4139510  57.2946113  13.5958477
  39.2971345  73.9264254   8.2332672  39.5367943  74.5582778   8.9111690
  38.4540541  73.5752294   8.5198031  50.2798053  65.0741924  13.6712932
  49.3924832  64.7367845  13.7939331  50.8496604  64.3424955  13.9081698
  31.9327200  61.4066015   6.9955984  32.6198240  61.0927745   6.4076999
  31.7775329  62.3107380   6.7223235  36.7361922  56.2956212  11.4241008
  36.6520111  55.6881882  10.6891417  35.9144629  56.7865230  11.4250504
  43.8099207  69.7343376  10.6374176  43.7369378  70.5398348  11.1493480
  43.3676600  69.9335342   9.8122197  43.5988986  68.9715146   4.1476997
  42.8156508  69.5136826   4.2415222  44.2981731  69.4889126   4.5471238
  46.9085636  54.7809776   6.7911203  47.4054336  54.0279738   6.4712273
  46.1372618  54.8174092   6.2254412  54.7615394  60.4850141   8.4329494
  54.7505270  61.3674856   8.0623427  53.8932773  60.1321692   8.2384031
  46.2697890  69.6330210  12.7932334  46.9825862  70.2677675  12.7208236
  45.7787919  69.7294076  11.9772336  47.9915417  63.5381463   4.3649626
  47.0571696  63.6582925   4.1954330  48.1692085  62.6353930   4.1009636
  43.4920605  56.9227159   6.5182887  43.1218393  56.3698199   7.2063793
  43.9879698  56.3185292   5.9657887  51.3787968  59.3798782   4.8999660
  51.8448421  60.2126774   4.8259963  51.8295469  58.9143764   5.6044919
  41.3209804  67.3824654  13.6137905  42.0219263  68.0161136  13.7667299
  40.8504919  67.7239385  12.8533544  49.4464199  65.7242603   1.8985812
  49.7224043  65.6099198   2.8079686  48.5768698  65.3260088   1.8597985
  49.3504631  51.7479369   8.9390561  48.4367711  51.9783596   9.1072768
  49.7797733  51.8317813   9.7904594  49.1211090  59.9369261  11.4390456
  48.4682540  60.1845168  10.7842908  49.4991470  59.1233399  11.1052933
  46.0818263  69.9728954   5.5418626  46.2640658  69.1550610   6.0046378
  46.9051250  70.1896646   5.1043516  46.4160429  68.8997139   2.8033674
  46.9448195  68.3889594   2.1903836  46.6788649  68.5839669   3.6679207
  45.1698663  60.6789072  17.9256493  44.4939300  60.5783201  18.5958868
  45.9926297  60.5228286  18.3892490  36.9177522  66.9161009  10.5469008
  37.5030959  66.1704696  10.6796912  36.7202360  67.2264965  11.4305672
  39.7716177  69.9512256   5.5631450  39.1026552  70.4358384   5.0795490
  39.6329047  70.1981476   6.4774829  31.5095176  59.4866609   9.2673451
  31.5479276  58.9530199  10.0610569  31.0035469  58.9601814   8.6484428
  43.9121446  71.9855999  12.1614109  44.4639754  72.1487621  12.9263194
  44.2527639  72.5760437  11.4894133  38.8885939  54.3331149  12.7635993
  38.9527265  55.1945980  12.3513391  38.8253059  53.7205151  12.0308352
  38.3638211  56.4054282  16.4109028  38.9910250  56.0231359  17.0246552
  37.5066130  56.1868484  16.7764720  48.7632320  66.8117257  18.0162763
  49.3072224  67.4247215  17.5217718  48.1819165  67.3696835  18.5329776
  35.1403754  58.2130711   2.3427382  35.4357195  57.3041389   2.2894436
  34.2391790  58.1918450   2.0208385  47.0489833  69.9337975   9.1477791
  46.9240972  69.1327715   8.6388736  47.7068924  70.4284168   8.6591761
  38.6698001  56.2886707   8.3254931  37.9484587  56.9022675   8.1862404
  39.4591257  56.8244472   8.2471577  49.1124741  67.7346995  10.7757341
  48.1655077  67.6152346  10.7035668  49.4607514  66.8469493  10.8583602
  41.4724315  53.6241134  14.5995583  41.9958716  53.8703431  15.3621892
  41.2536648  54.4561169  14.1798720  36.8691596  55.8944809   2.4666708
  36.5404302  55.0142188   2.2841813  37.2230966  55.8392477   3.3543097
  46.1171174  67.5299711   6.9761693  45.9696137  66.6016419   7.1569263
  46.9424668  67.5519802   6.4918768  39.9833419  56.1817778   2.8342185
  40.3229491  56.7103700   2.1120794  40.4305539  56.5198185   3.6100752
  49.7205296  68.3528270   8.0626566  50.6451844  68.1471131   7.9251017
  49.5520600  68.1044671   8.9715907  42.6776860  54.5654829  12.2845253
  42.3373680  53.7662642  12.6865933  41.9715866  54.8656540  11.7122086
  43.3293331  51.6504142  10.7372576  44.1519401  51.1764620  10.6151467
  43.5731395  52.4294625  11.2371263  41.9701566  54.6792400   1.0335478
  42.6909928  55.0573653   0.5299195  41.3466870  55.3981277   1.1370456
  46.1132689  55.3837549   1.9693810  46.3296303  56.2662187   1.6682638
  45.6326756  54.9923762   1.2399452  40.8531910  58.3423262   8.5464555
  40.7076491  58.6563565   9.4388836  40.3757114  58.9608163   7.9935454
  42.7128293  55.3325810   8.5945444  42.6989862  54.4366903   8.2577742
  43.4300721  55.3396474   9.2283730  44.5654424  55.7663150  10.6398572
  44.3072202  56.6880221  10.6382902  44.0339464  55.3693585  11.3299036
  49.5100613  68.8713937   3.4188657  49.6837490  68.3060360   2.6662510
  50.0029504  69.6714832   3.2368147  35.3277572  60.8828607  11.4852216
  34.7831040  61.6588415  11.6172490  36.2056922  61.2299411  11.3271338
  42.1165189  54.2140190   3.8633015  42.2381100  53.2856837   4.0623902
  41.8267231  54.2278876   2.9511330  44.9856379  51.8995101   6.9999734
  45.0078076  51.9634434   6.0451714  45.4024438  51.0599610   7.1940241
  55.3640004  61.6350360   5.0378957  55.8071150  60.8857686   4.6398080
  54.4866514  61.6260497   4.6552689  50.4975785  68.1880702   0.5185556
  51.1926690  68.8087395   0.7372870  50.8398935  67.3376053   0.7937933
  36.1143594  60.0098503  14.3782373  35.3725330  60.1581138  14.9647003
  35.7936338  60.2706768  13.5149122  52.3967208  65.6380407   2.0472886
  52.9218532  65.9767680   1.3222206  52.3089561  64.7027423   1.8636021
  44.0587257  69.5514481  14.1762763  44.3674383  69.3063628  15.0485463
  44.8562739  69.7561120  13.6881633  44.0807869  71.7052391   6.4068139
  43.6412859  71.2128769   7.1000996  44.8315986  71.1625358   6.1660215
  36.5600208  67.8963932   6.4092768  37.3858228  67.5967703   6.0291411
  36.2094260  67.1271554   6.8582556  41.5281741  67.2490400   8.4790441
  40.9061750  66.5861105   8.1792669  42.1986608  67.2751532   7.7964089
  34.7608813  65.8150258   7.3681701  33.9240721  65.3872432   7.1865702
  34.7332458  66.0082701   8.3052492  41.6006269  55.7272188  18.0722947
  41.6494424  56.6034311  17.6900717  42.1428783  55.1849581  17.4994590
  52.0861114  66.2713311  17.3524084  51.2956658  66.2537450  16.8128584
  51.8494469  66.8101605  18.1073121  52.2058989  63.1205777  14.6656813
  52.2556994  62.9555785  15.6072336  52.0972913  62.2533036  14.2754694
  41.0895248  65.7994323   1.9548902  41.2383368  66.4829788   1.3015574
  41.8961691  65.7799413   2.4698357  49.4962752  59.1036705  15.9816120
  50.3972614  58.9643170  15.6900117  49.5710726  59.2691160  16.9214297
  43.8305557  56.4803560  14.8269306  42.9608866  56.7737126  14.5551894
  44.0665037  57.0644005  15.5476569  53.7077186  65.5402719  14.9098834
  53.4161994  65.9032699  15.7462295  53.0949317  64.8269727  14.7312166
  54.9072868  63.1055599   7.4301405  55.7419760  63.5445403   7.5938965
  55.0431997  62.6294252   6.6109650  51.9564374  60.6635334  13.3778892
  52.4318496  60.8562980  12.5697744  51.0329940  60.7194519  13.1322276
  38.8447881  61.8259501   2.9609971  38.5993923  60.9221831   3.1590181
  39.0143795  61.8276651   2.0189449  46.5344591  52.6983177  12.3434726
  47.0526535  53.4344204  12.0181215  46.1799724  53.0047170  13.1781485
  38.1143528  57.5587858   0.4596132  37.4212773  57.6332213  -0.1963832
  37.8695280  56.7948202   0.9817649  46.7857185  49.1183460   7.8635623
  47.0658939  48.4506649   8.4896049  47.5707792  49.3112555   7.3510287
  44.5890653  68.2942454  -0.5739351  44.0164621  68.9132641  -1.0268879
  45.1623447  68.8441815  -0.0399429  50.6566043  57.5401094  11.6107198
  51.6083466  57.6399191  11.6319422  50.4869494  56.7479362  12.1205282
  48.6780423  54.6256677  11.7966599  48.0830355  54.9061690  11.1013087
  48.3930119  55.1150578  12.5683340  47.8087913  68.5779604   0.5569231
  48.7418586  68.5125165   0.7602107  47.7211126  69.4135871   0.0983764
  50.4375930  67.8945474  -2.4826821  50.3589561  67.5605338  -1.5891063
  51.2585597  68.3867242  -2.4835349  53.1354121  60.7607213  10.7249498
  53.1030441  59.8223214  10.9109181  53.7454745  60.8391250   9.9915322
  44.9737452  59.6303266  -3.2323298  45.9196557  59.5009474  -3.1634880
  44.5951697  58.8917928  -2.7553870  53.2848610  57.5518257  10.7707781
  52.7687658  56.7676713  10.5837710  54.1688558  57.2236973  10.9354300
  50.9459337  51.2959272   6.7303593  50.7484158  50.9874361   7.6146925
  51.5559042  52.0220911   6.8601523  58.9530671  61.8223220   9.8655534
  59.6834059  61.5608508  10.4263238  58.3437616  61.0851942   9.9057602
  57.0345968  59.9631083  10.4629986  56.3079132  59.8287048   9.8546477
  56.6193255  60.2707911  11.2686704  44.8576145  63.6821012  18.2277359
  45.7779154  63.8599611  18.4217405  44.8225728  62.7377058  18.0757058
  34.0758310  58.8759606   7.1530633  33.7561094  58.0224914   6.8605007
  33.5291738  59.0908184   7.9088601  37.8538217  61.5922047  10.8700140
  38.0724227  62.5239155  10.8888174  38.2663991  61.2330022  11.6554944
  44.7742435  52.0990132   2.8575828  43.9643163  51.7537217   3.2331074
  45.4626852  51.7897676   3.4463440  46.7032983  51.1768179   4.4800125
  47.2564022  51.5963633   5.1390148  46.9403070  50.2503927   4.5223081
  42.7266082  57.1655253  20.2602889  42.6262809  58.1149610  20.1914980
  42.5087624  56.8373492  19.3878959  33.9446570  62.4962518   9.1223755
  33.2510041  62.0816470   8.6093709  34.6919561  62.5383054   8.5257174
  50.0811790  53.2868704   3.9878789  49.5010459  53.9453508   3.6056841
  49.8147723  52.4646049   3.5766207  48.5315357  52.6873762   6.1900109
  49.0315135  52.7990297   5.3814428  49.1750965  52.3834815   6.8300918
  42.5897352  60.5952392  19.0767950  42.1064434  61.3952752  19.2831839
  42.6758291  60.6060337  18.1235394  35.8583312  62.4280771   6.9989770
  35.8354000  62.5268459   6.0471653  36.1683949  63.2745922   7.3206936
  38.5170690  64.4856926  11.1136384  39.4713943  64.4540869  11.0466316
  38.3183214  64.0247550  11.9286610  39.1070072  63.0558042  13.6807182
  39.9262961  63.5502121  13.7042019  39.3806880  62.1390011  13.6524749
  48.8636668  55.4468795   3.0435137  47.9762523  55.7318445   2.8255332
  49.2790657  55.2862558   2.1962414  52.2151204  55.4715316   6.7589477
  52.9911594  55.9611768   7.0314093  51.4899339  55.8973370   7.2161346
  54.6523763  56.1842935   7.8163417  55.2468254  55.9438671   7.1056725
  54.7250347  55.4650066   8.4436953  36.8720919  70.0276546   8.1306582
  36.7375387  69.2676947   7.5644580  36.4552981  70.7517446   7.6635371
  48.0079882  65.2113469  -2.8616843  48.7115732  65.4163472  -2.2459187
  47.2842530  65.7790231  -2.5967759  48.8377692  60.9623331   3.2585427
  48.7812893  61.4191882   2.4193060  49.3906034  60.2014015   3.0808270
  52.6482498  56.7513063   4.0835547  52.3919432  56.3509698   4.9143755
  52.0235366  57.4656857   3.9585686  56.9594836  59.4909136   6.5906838
  56.3994394  59.5602325   7.3638400  56.3538339  59.3150120   5.8706335
  40.0290045  70.9245863   8.3425025  39.9122429  71.8691295   8.2403715
  39.2082491  70.6219424   8.7310824  49.9166579  65.6495999  -0.8118383
  50.7512183  65.2177197  -0.9940908  49.7550922  65.4778012   0.1158512
  49.5712471  62.1528112   0.5537957  49.5161275  61.9872383  -0.3873599
  48.9458527  62.8604145   0.7100146  34.3604986  57.3896176  14.3799379
  35.0063850  56.8795130  14.8686604  34.1522137  58.1264858  14.9542804
  46.8858378  64.4577024  19.8791519  47.7549538  64.6317676  19.5178154
  46.4065130  65.2771441  19.7567249  42.8808597  51.6536221   0.1323275
  42.8687267  52.5978061   0.2891546  43.7732019  51.4706366  -0.1617264
  41.0544559  71.5774125  11.5580953  41.9571805  71.6097735  11.8747448
  40.8281929  70.6474576  11.5727289  42.8098161  70.3305111   8.2191032
  41.8593792  70.3306973   8.1055404  43.1130647  69.5837846   7.7027066
  46.6960716  48.2478998   4.3869212  45.9293112  47.6937484   4.5325894
  47.1071421  48.3200866   5.2483363  38.7002477  54.5363793  18.4774393
  39.5633939  54.1800598  18.6877718  38.1267888  54.1977688  19.1649797
  58.5450854  76.1665650   9.2836794  59.1829264  76.0472397   8.5800134
  58.4271697  77.1146494   9.3424746  55.3540560  76.1193078   9.2198319
  55.0159072  76.0034143   8.3318854  56.2230329  75.7184243   9.1999325
  51.2127376  77.9728554   5.2095210  50.6492241  77.8818491   4.4411497
  51.0979771  77.1528459   5.6897702  55.8360343  77.2727930  15.1784524
  55.8248984  76.8780728  14.3065028  55.9980983  76.5394002  15.7718296
  48.7591808  79.4679746   8.0479430  49.5513100  79.1270571   7.6325729
  48.9988458  79.5774721   8.9681584  56.7926935  81.6399522   0.5209675
  56.1414915  82.2253602   0.1343688  57.5871298  82.1705717   0.5804712
  50.7182562  78.7288659   0.9196809  51.4913438  78.1817646   0.7809685
  51.0707961  79.5932908   1.1311270  52.5567605  80.0565041  14.1263708
  52.2657471  80.9610672  14.0110375  53.1924589  80.0981569  14.8407778
  53.4823811  77.4341890  10.7165068  54.0787384  77.2097912  10.0022031
  53.5398783  76.6926635  11.3190516  53.0548840  74.8881325  -1.4484741
  53.3074361  74.3662847  -2.2101278  52.1173399  74.7247471  -1.3458057
  58.0992123  73.8917104   6.3590002  58.8855212  73.4736527   6.0080419
  58.3630827  74.7963196   6.5271651  58.2702200  79.3289954   1.0578659
  57.6348033  79.4024580   1.7699564  57.9399606  79.9183553   0.3797738
  63.5000550  73.8292337   7.2622981  64.2325722  73.2591554   7.4960810
  62.7439906  73.4413937   7.7029486  52.7745129  76.7909431   0.7539634
  52.6581387  76.1154335   1.4220718  52.8847389  76.3041805  -0.0628213
  55.1176670  76.2519578   4.4586323  54.7534877  75.7250199   5.1699245
  55.9743785  75.8618047   4.2852809  61.0225970  67.5413911  11.7217589
  60.6909295  68.4109322  11.4978804  60.4271584  67.2250195  12.4011620
  54.7582157  71.2809478  -0.5452328  54.9256559  72.1489714  -0.1781857
  54.5679326  71.4436760  -1.4691039  57.5157490  79.7426457  11.1213502
  57.2158213  80.6451496  11.0129309  57.1708549  79.4758640  11.9734655
  50.9669971  76.1940254   7.1550206  50.0420468  76.0616468   7.3627898
  51.2154384  76.9734473   7.6520149  60.9154634  72.2608997   8.8010939
  60.0071511  72.1924406   8.5069700  60.8642229  72.7380942   9.6292765
  54.7371377  73.7367135   0.4394338  54.6171003  74.1824186   1.2779819
  54.0423966  74.0852453  -0.1192123  48.3278782  75.8373527   7.9893995
  48.4571163  76.0908006   8.9033407  47.6476234  76.4301235   7.6698651
  52.4978270  86.5070777   4.0884470  52.4202299  87.4578602   4.1672950
  51.8939913  86.1616650   4.7459396  54.9895499  73.6798643  16.7445837
  54.2128833  74.2392563  16.7348701  55.6286062  74.1655426  17.2660707
  62.7816280  70.4625435  10.5788813  62.1390660  70.7557969   9.9328608
  62.2771208  70.3478356  11.3842010  60.4356444  74.2088609   1.2674672
  61.3474300  74.4415995   1.0922370  59.9266091  74.7925653   0.7049751
  53.2441872  76.4884096  16.3063804  53.9856556  77.0269140  16.0298627
  52.5378857  77.1150385  16.4635355  58.7197211  78.6313237  14.9035965
  59.1280567  78.1895647  14.1590597  57.9974473  78.0565864  15.1570158
  55.0728281  73.5685843  12.2769522  55.9189476  73.9925257  12.4204171
  55.0126919  72.9119468  12.9708085  59.0426026  79.1914427   8.6588254
  58.4134888  79.3560141   7.9564322  58.6551688  79.6056037   9.4299218
  62.9215258  80.1268865   6.0132618  62.2366296  80.5067766   5.4629651
  63.0059107  80.7364192   6.7464565  58.2227727  71.2290212  13.9350696
  57.9788658  71.9832272  13.3984971  58.4987657  71.6075559  14.7697943
  60.1766189  77.7728824  12.6127961  60.3883085  78.4160584  11.9362342
  60.1295938  76.9391141  12.1449891  57.7792418  70.3846645   9.5164533
  56.9176897  70.6827898   9.8081271  57.8054853  70.6017044   8.5845566
  54.5953988  78.9288835   5.9238339  55.0592333  79.2076538   5.1342962
  54.3310786  78.0272280   5.7411430  51.4878069  78.4760317   8.8618102
  52.0579426  78.9047585   8.2235587  52.0786181  78.1942901   9.5602288
  53.5322874  75.0511988   2.7327904  54.2346917  75.5033031   3.2001831
  53.2003502  74.4095806   3.3607797  51.9803235  73.6423744  17.1079114
  51.3501896  74.3240025  17.3414510  51.8739323  73.5306826  16.1632252
  47.2748208  73.3095540   8.0345038  46.4847262  73.5653069   7.5585148
  47.7659455  74.1243878   8.1397078  61.2912017  80.6500779  10.7850319
  62.1129461  80.2480967  10.5033000  61.2874420  80.5469014  11.7366434
  49.2262953  73.6740120   4.9928514  48.4294116  73.7858814   5.5112010
  48.9988545  74.0126772   4.1269405  55.0568621  80.1984823  12.9411029
  55.1213053  80.6605230  13.7769201  54.3479545  79.5682188  13.0693339
  45.5585911  73.5626031  10.4660029  45.8093949  74.4473041  10.7317604
  46.0945459  73.3830632   9.6935120  69.3818010  76.9939528   7.1335290
  68.6281719  76.4246926   6.9779294  69.5165552  76.9602192   8.0805925
  54.7716638  81.8652930   2.8090009  54.6362313  82.7104466   3.2374857
  55.3126451  82.0672208   2.0455943  51.2583978  67.9444510  19.4704365
  50.8650924  67.3910709  20.1452009  52.0750118  68.2555089  19.8610882
  48.2246036  79.3828368   3.3817934  48.7370556  80.1771619   3.5323499
  48.8768749  78.6854659   3.3151536  50.0340921  82.4994125   5.4640688
  50.2107549  83.4212089   5.2761672  50.8297754  82.1852544   5.8935067
  54.1751939  69.3602389  17.0624621  54.9161652  69.9609542  16.9829084
  54.4069862  68.6180027  16.5042664  49.3193277  74.5458756  15.3402851
  49.2046792  73.6444014  15.6409950  48.4637795  74.7922453  14.9887667
  56.3985115  82.4876497  16.9390351  55.9548969  81.7012875  16.6211256
  57.0602328  82.6755647  16.2734242  51.1572236  84.0172298  11.4651030
  51.7079661  83.8889362  10.6928024  50.3183712  84.3167187  11.1145923
  58.4966353  82.7679297  14.9671753  58.4784828  83.5888178  14.4752022
  59.4186273  82.6433372  15.1921894  54.9539407  80.2823426  15.8095261
  55.4867744  79.5211714  15.5794569  54.4253488  79.9897078  16.5519416
  58.1209102  65.3883492  11.3388903  57.7773371  66.2785134  11.2628013
  58.4888065  65.1985150  10.4758488  46.1894953  77.7117023   4.1577505
  47.0270175  78.1214031   3.9411213  46.3673220  76.7716465   4.1277699
  58.0859385  75.3792103  -0.1538662  57.5706008  76.1496708   0.0849725
  57.8136693  74.7057239   0.4694399  55.6706496  70.2241804   4.9046576
  54.8148092  69.8348654   4.7252215  56.0833448  70.3033765   4.0446362
  57.2005642  67.7588147   9.3038136  56.6970438  67.7218282   8.4905941
  57.4936249  68.6680890   9.3634793  53.4448528  67.8426877   8.3104318
  54.3101525  67.6469686   7.9510207  53.5126037  67.6137229   9.2373675
  63.0593659  78.1324458   1.7814511  62.2823102  77.7935617   1.3369674
  63.7385140  78.1377081   1.1069477  57.8745688  73.2519195   1.6721119
  57.5695823  73.5665344   2.5231262  58.8276130  73.3300615   1.7148452
  56.3192120  79.4109419   3.3214073  55.7913481  78.6762178   3.0087311
  55.8179622  80.1884095   3.0754041  61.2984966  77.6058439   8.4381119
  60.6408640  78.2957700   8.5261248  62.1025365  77.9954871   8.7815106
  51.0510847  70.0729085   5.6820685  51.6254599  69.8504266   4.9493878
  51.6381830  70.1417779   6.4349286  60.1090425  75.9602812   6.4885061
  60.6222306  76.5932804   6.9906771  60.7591648  75.3604007   6.1228421
  51.3780434  72.1033546  -0.2983430  50.5417747  72.4408232   0.0225845
  51.2385204  71.9682526  -1.2356293  53.3533515  66.9470334   4.4095754
  52.6997927  66.6319351   3.7852369  53.3113989  66.3246074   5.1355577
  54.4644720  77.2289629  -3.6750954  53.5571782  76.9978882  -3.4759805
  54.9615752  76.4327248  -3.4876972  56.5871255  73.4352267   8.7343402
  55.6693817  73.6567214   8.5765090  57.0031399  73.5098578   7.8755109
  57.3706303  74.8343683   3.8646082  58.1178122  75.3465080   3.5553204
  57.6397893  74.5127736   4.7250476  55.6432953  77.3302224   0.8473036
  54.7344173  77.0461257   0.9445506  55.6728037  77.7501302  -0.0123657
  60.8752221  80.9408813   4.6164204  60.4214548  80.0999723   4.6729394
  60.2446187  81.5770212   4.9538984  59.8185140  71.8700799   5.8464871
  59.0807897  71.3578185   6.1775114  60.0711914  71.4301181   5.0348148
  59.3185160  82.7785310   5.5514022  59.6108134  83.3390367   4.8326388
  59.8283781  83.0713871   6.3067181  59.9196768  64.6477051   6.4406641
  60.2255644  63.7874415   6.1532556  60.6449372  65.2394671   6.2405634
  46.2121124  75.0507738   4.8288238  46.0145524  74.4577099   4.1039305
  45.6567788  74.7459948   5.5464177  54.1917847  74.9430844   6.9482832
  54.2466457  73.9904681   6.8725308  53.3809049  75.0990283   7.4324130
  55.3409041  78.8710967  -1.8138885  54.9028471  78.1546826  -2.2733248
  56.0819482  79.0987082  -2.3753794  52.1310207  73.5607904   4.7073210
  51.3178073  73.8602075   5.1138403  52.6269202  73.1663593   5.4247693
  54.2818785  83.5565661   6.6407475  54.2394964  83.7826507   5.7116007
  55.1981484  83.3229036   6.7893276  57.7284419  74.0249729  13.5388104
  58.0833807  74.2521202  14.3982570  58.3756550  74.3568105  12.9165360
  63.4582156  77.1468164   4.2437433  63.3200055  77.3369760   3.3158623
  63.1018375  77.9087547   4.7005485  51.6224282  71.1326260  10.3234445
  52.2623661  70.9915019   9.6257409  50.7901813  70.8460773   9.9473047
  63.4851536  79.2144691   9.2548705  63.9188042  79.1219981  10.1031759
  64.1983116  79.1902192   8.6168721  52.3984586  80.4328690   6.4369438
  53.1925184  79.9379010   6.2352013  51.6876278  79.9046553   6.0737143
  57.2179430  82.8146786  10.7881806  57.2716453  83.3837722  11.5559521
  56.3494212  82.9848671  10.4235843  48.7067349  74.5771772   2.5129191
  47.7764938  74.5156227   2.7299153  48.8024821  74.0547725   1.7165832
  48.6252898  71.1026585   5.1007432  48.8859716  72.0171918   4.9916593
  49.4470071  70.6351027   5.2504045  50.0977824  72.5164342  12.2706257
  50.7700877  72.3081704  11.6218906  49.2707610  72.3186428  11.8311489
  64.3467085  79.2568392  11.7881590  64.5402975  80.1614203  12.0340865
  64.2467703  78.7975811  12.6220175  56.0003396  69.1426283  14.2871918
  55.3531311  69.8416232  14.1936394  56.7704411  69.5762427  14.6548166
  59.4082194  79.4075135  17.3622471  59.2567700  79.1785687  16.4452555
  59.3986873  80.3645736  17.3753816  56.1767530  76.9807048  12.3468737
  57.1059590  77.1318207  12.1737705  55.7558560  77.0691068  11.4917384
  54.9755862  81.0057712  10.1167275  54.8366948  80.6376496  10.9893213
  54.1870458  81.5205351   9.9451233  55.5704014  86.1066808   1.4592812
  55.7455770  85.6354852   2.2738434  54.8836802  86.7332575   1.6874072
  56.5261077  80.3839315   7.5056113  56.1910910  80.3440085   8.4013763
  56.0265023  79.7184031   7.0326523  50.5005321  75.7906945  13.0308694
  50.3625119  75.0587184  13.6320233  51.4110245  75.7015845  12.7492882
  59.4620269  77.7295349  -2.2206828  58.8449439  77.0042177  -2.3173775
  58.9936757  78.4904709  -2.5639753  53.1287622  75.5026904  12.5192374
  53.8387240  74.8620096  12.4778992  53.0856930  75.7539799  13.4418554
  61.1174400  82.4394257  15.4398953  61.0586947  81.7553478  14.7729536
  61.5193919  83.1813247  14.9879579  51.8416556  72.4892122  14.3388013
  51.3053913  72.0382860  14.9909609  51.2533264  72.6238031  13.5958477
  50.1365099  89.2556171   8.2332672  50.3761697  89.8874695   8.9111690
  49.2934296  88.9044211   8.5198031  51.2518815  71.9480773  -3.0985523
  50.3748281  71.8269574  -3.4623277  51.7276568  71.1566852  -3.3506635
  61.1191808  80.4033841  13.6712932  60.2318586  80.0659763  13.7939331
  61.6890359  79.6716873  13.9081698  42.7720955  76.7357933   6.9955984
  43.4591995  76.4219663   6.4076999  42.6169084  77.6399298   6.7223235
  47.5755677  71.6248130  11.4241008  47.4913866  71.0173799  10.6891417
  46.7538383  72.1157148  11.4250504  54.6492961  85.0635294  10.6374176
  54.5763133  85.8690265  11.1493480  54.2070354  85.2627260   9.8122197
  54.4382741  84.3007064   4.1476997  53.6550263  84.8428744   4.2415222
  55.1375486  84.8181043   4.5471238  57.7479391  70.1101693   6.7911203
  58.2448090  69.3571656   6.4712273  56.9766372  70.1466010   6.2254412
  65.6009148  75.8142059   8.4329494  65.5899024  76.6966774   8.0623427
  64.7326528  75.4613610   8.2384031  57.1091645  84.9622128  12.7932334
  57.8219617  85.5969593  12.7208236  56.6181673  85.0585994  11.9772336
  58.8309172  78.8673380   4.3649626  57.8965450  78.9874843   4.1954330
  59.0085840  77.9645847   4.1009636  54.3314360  72.2519076   6.5182887
  53.9612147  71.6990117   7.2063793  54.8273452  71.6477210   5.9657887
  62.2181723  74.7090700   4.8999660  62.6842175  75.5418691   4.8259963
  62.6689223  74.2435681   5.6044919  52.1603558  82.7116571  13.6137905
  52.8613018  83.3453054  13.7667299  51.6898673  83.0531303  12.8533544
  60.2857954  81.0534521   1.8985812  60.5617798  80.9391116   2.8079686
  59.4162453  80.6552006   1.8597985  60.1898386  67.0771287   8.9390561
  59.2761465  67.3075514   9.1072768  60.6191487  67.1609731   9.7904594
  59.9604844  75.2661179  11.4390456  59.3076294  75.5137086  10.7842908
  60.3385224  74.4525317  11.1052933  56.9212018  85.3020872   5.5418626
  57.1034413  84.4842528   6.0046378  57.7445004  85.5188564   5.1043516
  57.2554183  84.2289057   2.8033674  57.7841950  83.7181512   2.1903836
  57.5182403  83.9131587   3.6679207  56.0092417  76.0080990  17.9256493
  55.3333054  75.9075119  18.5958868  56.8320051  75.8520203  18.3892490
  47.7571276  82.2452926  10.5469008  48.3424713  81.4996614  10.6796912
  47.5596115  82.5556883  11.4305672  50.6109931  85.2804174   5.5631450
  49.9420307  85.7650301   5.0795490  50.4722801  85.5273394   6.4774829
  42.3488931  74.8158526   9.2673451  42.3873030  74.2822117  10.0610569
  41.8429224  74.2893732   8.6484428  54.7515200  87.3147917  12.1614109
  55.3033508  87.4779539  12.9263194  55.0921393  87.9052355  11.4894133
  49.7279693  69.6623067  12.7635993  49.7921020  70.5237898  12.3513391
  49.6646813  69.0497069  12.0308352  49.2031966  71.7346199  16.4109028
  49.8304005  71.3523277  17.0246552  48.3459885  71.5160401  16.7764720
  59.6026074  82.1409175  18.0162763  60.1465978  82.7539133  17.5217718
  59.0212919  82.6988753  18.5329776  45.9797509  73.5422629   2.3427382
  46.2750950  72.6333307   2.2894436  45.0785544  73.5210368   2.0208385
  57.8883587  85.2629893   9.1477791  57.7634727  84.4619633   8.6388736
  58.5462678  85.7576086   8.6591761  49.5091756  71.6178625   8.3254931
  48.7878341  72.2314593   8.1862404  50.2985011  72.1536390   8.2471577
  59.9518496  83.0638913  10.7757341  59.0048831  82.9444264  10.7035668
  60.3001269  82.1761411  10.8583602  52.3118069  68.9533052  14.5995583
  52.8352471  69.1995348  15.3621892  52.0930402  69.7853086  14.1798720
  47.7085350  71.2236726   2.4666708  47.3798056  70.3434105   2.2841813
  48.0624721  71.1684395   3.3543097  56.9564929  82.8591629   6.9761693
  56.8089891  81.9308336   7.1569263  57.7818422  82.8811720   6.4918768
  50.8227173  71.5109696   2.8342185  51.1623246  72.0395617   2.1120794
  51.2699294  71.8490102   3.6100752  60.5599051  83.6820188   8.0626566
  61.4845598  83.4763049   7.9251017  60.3914354  83.4336589   8.9715907
  53.5170614  69.8946747  12.2845253  53.1767434  69.0954560  12.6865933
  52.8109620  70.1948458  11.7122086  54.1687086  66.9796059  10.7372576
  54.9913155  66.5056537  10.6151467  54.4125149  67.7586543  11.2371263
  52.8095320  70.0084318   1.0335478  53.5303683  70.3865570   0.5299195
  52.1860625  70.7273194   1.1370456  56.9526443  70.7129467   1.9693810
  57.1690058  71.5954104   1.6682638  56.4720510  70.3215680   1.2399452
  51.6925665  73.6715180   8.5464555  51.5470245  73.9855483   9.4388836
  51.2150868  74.2900080   7.9935454  53.5522048  70.6617728   8.5945444
  53.5383616  69.7658821   8.2577742  54.2694476  70.6688392   9.2283730
  55.4048178  71.0955068  10.6398572  55.1465956  72.0172139  10.6382902
  54.8733219  70.6985503  11.3299036  60.3494367  84.2005855   3.4188657
  60.5231245  83.6352278   2.6662510  60.8423258  85.0006750   3.2368147
  46.1671327  76.2120524  11.4852216  45.6224795  76.9880332  11.6172490
  47.0450677  76.5591329  11.3271338  52.9558943  69.5432108   3.8633015
  53.0774855  68.6148754   4.0623902  52.6660986  69.5570794   2.9511330
  55.8250134  67.2287019   6.9999734  55.8471831  67.2926352   6.0451714
  56.2418193  66.3891527   7.1940241  66.2033758  76.9642278   5.0378957
  66.6464904  76.2149603   4.6398080  65.3260268  76.9552414   4.6552689
  61.3369540  83.5172620   0.5185556  62.0320444  84.1379312   0.7372870
  61.6792690  82.6667971   0.7937933  46.9537349  75.3390421  14.3782373
  46.2119085  75.4873056  14.9647003  46.6330093  75.5998686  13.5149122
  63.2360963  80.9672325   2.0472886  63.7612287  81.3059598   1.3222206
  63.1483315  80.0319340   1.8636021  54.8981011  84.8806399  14.1762763
  55.2068138  84.6355546  15.0485463  55.6956493  85.0853037  13.6881633
  54.9201623  87.0344308   6.4068139  54.4806614  86.5420687   7.1000996
  55.6709740  86.4917276   6.1660215  47.3993962  83.2255849   6.4092768
  48.2251982  82.9259621   6.0291411  47.0488014  82.4563472   6.8582556
  52.3675496  82.5782317   8.4790441  51.7455505  81.9153022   8.1792669
  53.0380362  82.6043449   7.7964089  45.6002567  81.1442176   7.3681701
  44.7634476  80.7164350   7.1865702  45.5726213  81.3374619   8.3052492
  52.4400023  71.0564105  18.0722947  52.4888178  71.9326228  17.6900717
  52.9822537  70.5141499  17.4994590  62.9254869  81.6005229  17.3524084
  62.1350412  81.5829368  16.8128584  62.6888223  82.1393522  18.1073121
  63.0452744  78.4497695  14.6656813  63.0950749  78.2847703  15.6072336
  62.9366667  77.5824954  14.2754694  51.9289002  81.1286241   1.9548902
  52.0777123  81.8121705   1.3015574  52.7355446  81.1091331   2.4698357
  60.3356506  74.4328623  15.9816120  61.2366369  74.2935088  15.6900117
  60.4104481  74.5983078  16.9214297  54.6699311  71.8095478  14.8269306
  53.8002621  72.1029044  14.5551894  54.9058792  72.3935923  15.5476569
  64.5470941  80.8694637  14.9098834  64.2555749  81.2324617  15.7462295
  63.9343072  80.1561645  14.7312166  65.7466623  78.4347516   7.4301405
  66.5813514  78.8737320   7.5938965  65.8825752  77.9586170   6.6109650
  62.7958129  75.9927251  13.3778892  63.2712250  76.1854898  12.5697744
  61.8723694  76.0486437  13.1322276  49.6841635  77.1551418   2.9609971
  49.4387677  76.2513748   3.1590181  49.8537550  77.1568569   2.0189449
  57.3738345  68.0275095  12.3434726  57.8920289  68.7636122  12.0181215
  57.0193478  68.3339088  13.1781485  48.9537283  72.8879776   0.4596132
  48.2606528  72.9624131  -0.1963832  48.7089035  72.1240120   0.9817649
  57.6250939  64.4475377   7.8635623  57.9052693  63.7798566   8.4896049
  58.4101546  64.6404473   7.3510287  55.4284408  83.6234371  -0.5739351
  54.8558375  84.2424558  -1.0268879  56.0017202  84.1733733  -0.0399429
  61.4959798  72.8693011  11.6107198  62.4477221  72.9691109  11.6319422
  61.3263248  72.0771280  12.1205282  59.5174177  69.9548595  11.7966599
  58.9224109  70.2353607  11.1013087  59.2323874  70.4442495  12.5683340
  58.6481668  83.9071521   0.5569231  59.5812341  83.8417083   0.7602107
  58.5604881  84.7427788   0.0983764  63.9747876  76.0899131  10.7249498
  63.9424196  75.1515132  10.9109181  64.5848499  76.1683168   9.9915322
  55.8131206  74.9595184  -3.2323298  56.7590311  74.8301392  -3.1634880
  55.4345451  74.2209846  -2.7553870  64.1242364  72.8810174  10.7707781
  63.6081413  72.0968631  10.5837710  65.0082313  72.5528891  10.9354300
  61.7853091  66.6251190   6.7303593  61.5877912  66.3166278   7.6146925
  62.3952797  67.3512829   6.8601523  69.7924425  77.1515138   9.8655534
  70.5227814  76.8900426  10.4263238  69.1831371  76.4143860   9.9057602
  67.8739723  75.2923000  10.4629986  67.1472886  75.1578965   9.8546477
  67.4587009  75.5999829  11.2686704  55.6969899  79.0112930  18.2277359
  56.6172908  79.1891529  18.4217405  55.6619482  78.0668975  18.0757058
  53.9974124  72.8845160  -3.2968413  53.0905579  72.5878273  -3.2205700
  54.2750105  72.5874978  -4.1634127  44.9152064  74.2051524   7.1530633
  44.5954848  73.3516832   6.8605007  44.3685492  74.4200102   7.9088601
  48.6931972  76.9213965  10.8700140  48.9117981  77.8531073  10.8888174
  49.1057745  76.5621939  11.6554944  55.6136189  67.4282050   2.8575828
  54.8036918  67.0829135   3.2331074  56.3020606  67.1189594   3.4463440
  57.5426738  66.5060097   4.4800125  58.0957776  66.9255550   5.1390148
  57.7796824  65.5795845   4.5223081  53.5659837  72.4947171  20.2602889
  53.4656564  73.4441528  20.1914980  53.3481379  72.1665409  19.3878959
  52.7672908  69.7432096  -3.1556434  53.6292072  70.0686994  -2.8960617
  52.9523252  68.9563592  -3.6683368  44.7840324  77.8254435   9.1223755
  44.0903795  77.4108388   8.6093709  45.5313315  77.8674972   8.5257174
  60.9205545  68.6160622   3.9878789  60.3404214  69.2745426   3.6056841
  60.6541477  67.7937967   3.5766207  59.3709111  68.0165680   6.1900109
  59.8708889  68.1282214   5.3814428  60.0144719  67.7126733   6.8300918
  53.4291107  75.9244309  19.0767950  52.9458189  76.7244670  19.2831839
  53.5152046  75.9352254  18.1235394  46.6977067  77.7572689   6.9989770
  46.6747755  77.8560376   6.0471653  47.0077703  78.6037840   7.3206936
  49.3564444  79.8148844  11.1136384  50.3107698  79.7832786  11.0466316
  49.1576968  79.3539468  11.9286610  49.9463827  78.3849960  13.6807182
  50.7656716  78.8794039  13.7042019  50.2200634  77.4681928  13.6524749
  59.7030423  70.7760712   3.0435137  58.8156278  71.0610363   2.8255332
  60.1184412  70.6154476   2.1962414  63.0544959  70.8007233   6.7589477
  63.8305349  71.2903686   7.0314093  62.3293093  71.2265288   7.2161346
  65.4917517  71.5134853   7.8163417  66.0862008  71.2730589   7.1056725
  65.5644101  70.7941983   8.4436953  47.7114673  85.3568464   8.1306582
  47.5769141  84.5968864   7.5644580  47.2946735  86.0809363   7.6635371
  59.6771446  76.2915248   3.2585427  59.6206648  76.7483800   2.4193060
  60.2299789  75.5305933   3.0808270  63.4876252  72.0804980   4.0835547
  63.2313187  71.6801616   4.9143755  62.8629120  72.7948774   3.9585686
  67.7988590  74.8201053   6.5906838  67.2388148  74.8894243   7.3638400
  67.1932094  74.6442038   5.8706335  50.8683799  86.2537781   8.3425025
  50.7516183  87.1983213   8.2403715  50.0476245  85.9511342   8.7310824
  60.7560334  80.9787916  -0.8118383  61.5905938  80.5469115  -0.9940908
  60.5944677  80.8069930   0.1158512  60.4106226  77.4820030   0.5537957
  60.3555030  77.3164301  -0.3873599  59.7852281  78.1896063   0.7100146
  45.1998741  72.7188094  14.3799379  45.8457604  72.2087048  14.8686604
  44.9915892  73.4556776  14.9542804  57.7252133  79.7868941  19.8791519
  58.5943293  79.9609594  19.5178154  57.2458884  80.6063358  19.7567249
  53.7202351  66.9828139   0.1323275  53.7081021  67.9269979   0.2891546
  54.6125773  66.7998284  -0.1617264  51.8938313  86.9066042  11.5580953
  52.7965560  86.9389653  11.8747448  51.6675683  85.9766493  11.5727289
  53.6491915  85.6597029   8.2191032  52.6987546  85.6598891   8.1055404
  53.9524401  84.9129764   7.7027066  57.5354471  63.5770915   4.3869212
  56.7686867  63.0229402   4.5325894  57.9465176  63.6492784   5.2483363
  49.5396232  69.8655711  18.4774393  50.4027693  69.5092516  18.6877718
  48.9661642  69.5269606  19.1649797  69.3844609  91.4957567   9.2836794
  70.0223019  91.3764315   8.5800134  69.2665452  92.4438411   9.3424746
  66.1934315  91.4484996   9.2198319  65.8552827  91.3326060   8.3318854
  67.0624083  91.0476161   9.1999325  66.6754098  92.6019847  15.1784524
  66.6642739  92.2072646  14.3065028  66.8374737  91.8685920  15.7718296
  59.5985563  94.7971664   8.0479430  60.3906855  94.4562488   7.6325729
  59.8382213  94.9066639   8.9681584  63.3961359  95.3856959  14.1263708
  63.1051225  96.2902590  14.0110375  64.0318343  95.4273487  14.8407778
  64.3217566  92.7633808  10.7165068  64.9181138  92.5389830  10.0022031
  64.3792538  92.0218553  11.3190516  71.8619725  82.8705829  11.7217589
  71.5303049  83.7401240  11.4978804  71.2665338  82.5542113  12.4011620
  68.3551244  95.0718375  11.1213502  68.0551967  95.9743413  11.0129309
  68.0102304  94.8050558  11.9734655  61.8063726  91.5232171   7.1550206
  60.8814222  91.3908386   7.3627898  62.0548139  92.3026391   7.6520149
  71.7548388  87.5900915   8.8010939  70.8465265  87.5216323   8.5069700
  71.7035984  88.0672860   9.6292765  59.1672537  91.1665445   7.9893995
  59.2964918  91.4199924   8.9033407  58.4869988  91.7593153   7.6698651
  65.8289254  89.0090560  16.7445837  65.0522588  89.5684480  16.7348701
  66.4679817  89.4947343  17.2660707  73.6210034  85.7917353  10.5788813
  72.9784415  86.0849886   9.9328608  73.1164963  85.6770274  11.3842010
  64.0835626  91.8176014  16.3063804  64.8250310  92.3561058  16.0298627
  63.3772612  92.4442302  16.4635355  69.5590966  93.9605154  14.9035965
  69.9674322  93.5187565  14.1590597  68.8368227  93.3857782  15.1570158
  65.9122036  88.8977761  12.2769522  66.7583231  89.3217175  12.4204171
  65.8520673  88.2411385  12.9708085  69.0621481  86.5582129  13.9350696
  68.8182413  87.3124190  13.3984971  69.3381412  86.9367477  14.7697943
  71.0159944  93.1020742  12.6127961  71.2276839  93.7452502  11.9362342
  70.9689692  92.2683058  12.1449891  68.6186173  85.7138562   9.5164533
  67.7570652  86.0119816   9.8081271  68.6448607  85.9308961   8.5845566
  62.3271823  93.8052234   8.8618102  62.8973180  94.2339503   8.2235587
  62.9179935  93.5234819   9.5602288  62.8196990  88.9715662  17.1079114
  62.1895650  89.6531943  17.3414510  62.7133078  88.8598743  16.1632252
  58.1141962  88.6387458   8.0345038  57.3241016  88.8944986   7.5585148
  58.6053210  89.4535796   8.1397078  60.0656708  89.0032037   4.9928514
  59.2687871  89.1150731   5.5112010  59.8382300  89.3418689   4.1269405
  65.8962375  95.5276740  12.9411029  65.9606808  95.9897148  13.7769201
  65.1873299  94.8974105  13.0693339  56.3979665  88.8917948  10.4660029
  56.6487704  89.7764958  10.7317604  56.9339214  88.7122550   9.6935120
  62.0977733  83.2736428  19.4704365  61.7044678  82.7202626  20.1452009
  62.9143873  83.5847006  19.8610882  65.0145694  84.6894307  17.0624621
  65.7555407  85.2901460  16.9829084  65.2463616  83.9471945  16.5042664
  60.1587032  89.8750674  15.3402851  60.0440547  88.9735931  15.6409950
  59.3031549  90.1214371  14.9887667  67.2378869  97.8168414  16.9390351
  66.7942723  97.0304793  16.6211256  67.8996083  98.0047565  16.2734242
  61.9965990  99.3464216  11.4651030  62.5473416  99.2181279  10.6928024
  61.1577466  99.6459105  11.1145923  69.3360107  98.0971214  14.9671753
  69.3178583  98.9180095  14.4752022  70.2580027  97.9725290  15.1921894
  65.7933162  95.6115344  15.8095261  66.3261498  94.8503632  15.5794569
  65.2647243  95.3188996  16.5519416  68.9602856  80.7175410  11.3388903
  68.6167126  81.6077051  11.2628013  69.3281819  80.5277067  10.4758488
  66.5100250  85.5533722   4.9046576  65.6541847  85.1640572   4.7252215
  66.9227202  85.6325682   4.0446362  68.0399397  83.0880065   9.3038136
  67.5364192  83.0510200   8.4905941  68.3330004  83.9972808   9.3634793
  64.2842283  83.1718795   8.3104318  65.1495280  82.9761603   7.9510207
  64.3519792  82.9429146   9.2373675  61.8904602  85.4021003   5.6820685
  62.4648354  85.1796184   4.9493878  62.4775584  85.4709697   6.4349286
  64.1927270  82.2762251   4.4095754  63.5391682  81.9611269   3.7852369
  64.1507744  81.6537992   5.1355577  67.4265010  88.7644185   8.7343402
  66.5087571  88.9859132   8.5765090  67.8425154  88.8390495   7.8755109
  70.7590522  79.9768969   6.4406641  71.0649399  79.1166332   6.1532556
  71.4843127  80.5686589   6.2405634  57.0514878  90.3799656   4.8288238
  56.8539278  89.7869016   4.1039305  56.4961542  90.0751866   5.5464177
  65.0311602  90.2722762   6.9482832  65.0860212  89.3196598   6.8725308
  64.2202804  90.4282201   7.4324130  62.9703962  88.8899822   4.7073210
  62.1571827  89.1893992   5.1138403  63.4662956  88.4955511   5.4247693
  68.5678173  89.3541646  13.5388104  68.9227561  89.5813119  14.3982570
  69.2150305  89.6860023  12.9165360  62.4618037  86.4618177  10.3234445
  63.1017416  86.3206936   9.6257409  61.6295567  86.1752691   9.9473047
  59.4646653  86.4318502   5.1007432  59.7253470  87.3463836   4.9916593
  60.2863825  85.9642945   5.2504045  60.9371578  87.8456259  12.2706257
  61.6094632  87.6373622  11.6218906  60.1101365  87.6478345  11.8311489
  66.8397150  84.4718200  14.2871918  66.1925065  85.1708150  14.1936394
  67.6098166  84.9054344  14.6548166  70.2475948  94.7367053  17.3622471
  70.0961455  94.5077604  16.4452555  70.2380628  95.6937654  17.3753816
  67.0161285  92.3098965  12.3468737  67.9453345  92.4610125  12.1737705
  66.5952315  92.3982986  11.4917384  65.8149616  96.3349630  10.1167275
  65.6760702  95.9668414  10.9893213  65.0264213  96.8497269   9.9451233
  61.3399076  91.1198862  13.0308694  61.2018874  90.3879101  13.6320233
  62.2503999  91.0307763  12.7492882  63.9681376  90.8318822  12.5192374
  64.6780995  90.1912014  12.4778992  63.9250684  91.0831717  13.4418554
  71.9568155  97.7686175  15.4398953  71.8980701  97.0845395  14.7729536
  72.3587673  98.5105165  14.9879579  62.6810310  87.8184040  14.3388013
  62.1447667  87.3674778  14.9909609  62.0927019  87.9529948  13.5958477
  71.9585562  95.7325759  13.6712932  71.0712341  95.3951681  13.7939331
  72.5284113  95.0008790  13.9081698  53.6114709  92.0649851   6.9955984
  54.2985749  91.7511581   6.4076999  53.4562838  92.9691215   6.7223235
  58.4149431  86.9540047  11.4241008  58.3307620  86.3465717  10.6891417
  57.5932138  87.4449066  11.4250504  68.5873145  85.4393611   6.7911203
  69.0841845  84.6863573   6.4712273  67.8160127  85.4757928   6.2254412
  65.1708114  87.5810994   6.5182887  64.8005902  87.0282034   7.2063793
  65.6667207  86.9769127   5.9657887  62.9997313  98.0408489  13.6137905
  63.7006772  98.6744972  13.7667299  62.5292428  98.3823220  12.8533544
  71.0292140  82.4063204   8.9390561  70.1155220  82.6367431   9.1072768
  71.4585242  82.4901648   9.7904594  70.7998599  90.5953096  11.4390456
  70.1470049  90.8429004  10.7842908  71.1778979  89.7817235  11.1052933
  66.8486172  91.3372907  17.9256493  66.1726809  91.2367037  18.5958868
  67.6713806  91.1812121  18.3892490  58.5965031  97.5744844  10.5469008
  59.1818468  96.8288532  10.6796912  58.3989869  97.8848801  11.4305672
  53.1882685  90.1450444   9.2673451  53.2266785  89.6114035  10.0610569
  52.6822978  89.6185650   8.6484428  60.5673448  84.9914985  12.7635993
  60.6314774  85.8529816  12.3513391  60.5040568  84.3788986  12.0308352
  60.0425720  87.0638117  16.4109028  60.6697759  86.6815194  17.0246552
  59.1853639  86.8452319  16.7764720  70.4419829  97.4701092  18.0162763
  70.9859733  98.0831051  17.5217718  69.8606674  98.0280671  18.5329776
  56.8191263  88.8714546   2.3427382  57.1144704  87.9625225   2.2894436
  55.9179299  88.8502286   2.0208385  60.3485510  86.9470543   8.3254931
  59.6272096  87.5606511   8.1862404  61.1378766  87.4828308   8.2471577
  63.1511824  84.2824969  14.5995583  63.6746225  84.5287266  15.3621892
  62.9324157  85.1145004  14.1798720  58.5479105  86.5528644   2.4666708
  58.2191811  85.6726023   2.2841813  58.9018475  86.4976313   3.3543097
  64.3564369  85.2238664  12.2845253  64.0161189  84.4246478  12.6865933
  63.6503375  85.5240375  11.7122086  65.0080840  82.3087977  10.7372576
  65.8306910  81.8348455  10.6151467  65.2518904  83.0878461  11.2371263
  62.5319419  89.0007098   8.5464555  62.3864000  89.3147401   9.4388836
  62.0544623  89.6191998   7.9935454  64.3915802  85.9909646   8.5945444
  64.3777371  85.0950739   8.2577742  65.1088230  85.9980309   9.2283730
  66.2441933  86.4246986  10.6398572  65.9859711  87.3464056  10.6382902
  65.7126973  86.0277420  11.3299036  57.0065081  91.5412442  11.4852216
  56.4618549  92.3172250  11.6172490  57.8844431  91.8883246  11.3271338
  63.7952698  84.8724026   3.8633015  63.9168609  83.9440672   4.0623902
  63.5054740  84.8862712   2.9511330  66.6643888  82.5578936   6.9999734
  66.6865585  82.6218269   6.0451714  67.0811947  81.7183445   7.1940241
  57.7931103  90.6682338  14.3782373  57.0512839  90.8164974  14.9647003
  57.4723847  90.9290604  13.5149122  65.7374766 100.2098316  14.1762763
  66.0461892  99.9647463  15.0485463  66.5350248 100.4144955  13.6881633
  56.4396322  96.4734093   7.3681701  55.6028230  96.0456268   7.1865702
  56.4119967  96.6666537   8.3052492  63.2793778  86.3856023  18.0722947
  63.3281933  87.2618146  17.6900717  63.8216292  85.8433416  17.4994590
  73.7648623  96.9297146  17.3524084  72.9744167  96.9121285  16.8128584
  73.5281978  97.4685440  18.1073121  73.8846498  93.7789613  14.6656813
  73.9344503  93.6139620  15.6072336  73.7760422  92.9116872  14.2754694
  71.1750261  89.7620541  15.9816120  72.0760123  89.6227006  15.6900117
  71.2498235  89.9274996  16.9214297  65.5093066  87.1387396  14.8269306
  64.6396375  87.4320962  14.5551894  65.7452546  87.7227841  15.5476569
  75.3864695  96.1986554  14.9098834  75.0949503  96.5616535  15.7462295
  74.7736826  95.4853563  14.7312166  73.6351883  91.3219169  13.3778892
  74.1106005  91.5146815  12.5697744  72.7117449  91.3778355  13.1322276
  68.2132100  83.3567012  12.3434726  68.7314044  84.0928039  12.0181215
  67.8587233  83.6631006  13.1781485  68.4644694  79.7767295   7.8635623
  68.7446448  79.1090484   8.4896049  69.2495301  79.9696391   7.3510287
  72.3353552  88.1984929  11.6107198  73.2870975  88.2983027  11.6319422
  72.1657003  87.4063198  12.1205282  70.3567932  85.2840512  11.7966599
  69.7617864  85.5645525  11.1013087  70.0717628  85.7734413  12.5683340
  74.9636119  88.2102092  10.7707781  74.4475167  87.4260549  10.5837710
  75.8476067  87.8820809  10.9354300  72.6246845  81.9543108   6.7303593
  72.4271667  81.6458196   7.6146925  73.2346551  82.6804747   6.8601523
  66.5363653  94.3404848  18.2277359  67.4566663  94.5183447  18.4217405
  66.5013237  93.3960893  18.0757058  55.7545818  89.5343441   7.1530633
  55.4348603  88.6808750   6.8605007  55.2079247  89.7492020   7.9088601
  59.5325726  92.2505882  10.8700140  59.7511736  93.1822990  10.8888174
  59.9451500  91.8913857  11.6554944  66.4529944  82.7573968   2.8575828
  65.6430672  82.4121053   3.2331074  67.1414361  82.4481512   3.4463440
  68.3820492  81.8352015   4.4800125  68.9351531  82.2547468   5.1390148
  68.6190578  80.9087763   4.5223081  64.4053591  87.8239088  20.2602889
  64.3050318  88.7733445  20.1914980  64.1875133  87.4957327  19.3878959
  55.6234078  93.1546353   9.1223755  54.9297550  92.7400306   8.6093709
  56.3707069  93.1966889   8.5257174  70.2102866  83.3457597   6.1900109
  70.7102644  83.4574132   5.3814428  70.8538474  83.0418650   6.8300918
  64.2684861  91.2536227  19.0767950  63.7851943  92.0536587  19.2831839
  64.3545800  91.2644172  18.1235394  57.5370821  93.0864607   6.9989770
  57.5141509  93.1852294   6.0471653  57.8471458  93.9329758   7.3206936
  60.1958199  95.1440762  11.1136384  61.1501452  95.1124704  11.0466316
  59.9970722  94.6831386  11.9286610  60.7857581  93.7141878  13.6807182
  61.6050470  94.2085956  13.7042019  61.0594389  92.7973846  13.6524749
  56.0392495  88.0480012  14.3799379  56.6851359  87.5378966  14.8686604
  55.8309646  88.7848693  14.9542804  68.5645887  95.1160859  19.8791519
  69.4337047  95.2901511  19.5178154  68.0852639  95.9355276  19.7567249
  62.7332068 102.2357960  11.5580953  63.6359314 102.2681570  11.8747448
  62.5069438 101.3058411  11.5727289  68.3748225  78.9062833   4.3869212
  67.6080621  78.3521320   4.5325894  68.7858930  78.9784702   5.2483363
  60.3789986  85.1947629  18.4774393  61.2421448  84.8384434  18.6877718
  59.8055397  84.8561524  19.1649797  72.9371487  98.6028345  19.4704365
  72.5438433  98.0494544  20.1452009  73.7537627  98.9138924  19.8610882
  75.8539448 100.0186225  17.0624621  76.5949161 100.6193378  16.9829084
  76.0857371  99.2763862  16.5042664  70.8819475 102.3930035  16.4109028
  71.5091514 102.0107112  17.0246552  70.0247394 102.1744237  16.7764720
  74.1187532 101.7147941  18.0722947  74.1675687 102.5910064  17.6900717
  74.6610046 101.1725334  17.4994590  75.2447346 103.1531006  20.2602889
  75.1444073 104.1025363  20.1914980  75.0268888 102.8249245  19.3878959
  66.8786250 103.3771929  14.3799379  67.5245113 102.8670883  14.8686604
  66.6703401 104.1140611  14.9542804  71.2183741 100.5239546  18.4774393
  72.0815202 100.1676351  18.6877718  70.6449151 100.1853441  19.1649797
  50.2780647  44.1164462   2.1644259  50.2193193  43.4323682   1.4974842
  50.6800166  44.8583452   1.7124885  48.7632321  43.8179380   4.7408070
  49.3072225  44.4309338   4.2463024  48.1819166  44.3758958   5.2575083
  52.0861115  43.2775434   4.0769391  51.2956659  43.2599573   3.5373890
  51.8494470  43.8163727   4.8318427  53.7077187  42.5464842   1.6344141
  53.4161996  42.9094822   2.4707602  53.0949319  41.8331850   1.4557473
  46.8858380  41.4639146   6.6036826  47.7549539  41.6379799   6.2423461
  46.4065131  42.2833563   6.4812555  58.5450855  53.1727772  -3.9917899
  59.1829265  53.0534520  -4.6954559  58.4271698  54.1208616  -3.9329947
  55.3540562  53.1255200  -4.0556375  55.0159073  53.0096265  -4.9435840
  56.2230330  52.7246366  -4.0755368  55.8360345  54.2790052   1.9029831
  55.8248986  53.8842850   1.0310335  55.9980984  53.5456125   2.4963602
  48.7591809  56.4741868  -5.2275263  49.5513101  56.1332693  -5.6428964
  48.9988460  56.5836844  -4.3073110  52.5567606  57.0627164   0.8509015
  52.2657472  57.9672795   0.7355681  53.1924590  57.1043692   1.5653084
  53.4823813  54.4404013  -2.5589625  54.0787385  54.2160035  -3.2732662
  53.5398784  53.6988758  -1.9564178  63.5000551  50.8354459  -6.0131713
  64.2325723  50.2653676  -5.7793883  62.7439907  50.4476060  -5.5725207
  61.0225971  44.5476034  -1.5537104  60.6909296  45.4171444  -1.7775889
  60.4271585  44.2312318  -0.8743074  57.5157491  56.7488580  -2.1541191
  57.2158214  57.6513618  -2.2625384  57.1708550  56.4820763  -1.3020038
  60.9154635  49.2671120  -4.4743754  60.0071512  49.1986528  -4.7684993
  60.8642231  49.7443065  -3.6461929  52.4978271  63.5132900  -9.1870224
  52.4202300  64.4640725  -9.1081743  51.8939914  63.1678772  -8.5295297
  54.9895501  50.6860765   3.4691143  54.2128835  51.2454685   3.4594008
  55.6286064  51.1717548   3.9906013  62.7816281  47.4687558  -2.6965880
  62.1390661  47.7620091  -3.3426086  62.2771210  47.3540478  -1.8912683
  53.2441873  53.4946219   3.0309110  53.9856557  54.0331263   2.7543934
  52.5378858  54.1212507   3.1880662  58.7197212  55.6375359   1.6281272
  59.1280569  55.1957770   0.8835904  57.9974474  55.0627987   1.8815465
  55.0728283  50.5747966  -0.9985171  55.9189478  50.9987379  -0.8550522
  55.0126920  49.9181590  -0.3046608  59.0426027  56.1976550  -4.6166439
  58.4134890  56.3622264  -5.3190372  58.6551689  56.6118159  -3.8455475
  62.9215259  57.1330988  -7.2622076  62.2366297  57.5129889  -7.8125042
  63.0059108  57.7426314  -6.5290128  58.2227728  48.2352334   0.6596002
  57.9788660  48.9894395   0.1230278  58.4987658  48.6137682   1.4943249
  60.1766191  54.7790947  -0.6626732  60.3883086  55.4222706  -1.3392351
  60.1295939  53.9453263  -1.1304802  51.4878070  55.4822439  -4.4136591
  52.0579427  55.9109708  -5.0519107  52.0786182  55.2005024  -3.7152405
  51.9803237  50.6485867   3.8324420  51.3501897  51.3302148   4.0659817
  51.8739324  50.5368948   2.8877558  61.2912019  57.6562902  -2.4904375
  62.1129462  57.2543089  -2.7721693  61.2874421  57.5531136  -1.5388259
  55.0568622  57.2046945  -0.3343664  55.1213055  57.6667353   0.5014508
  54.3479546  56.5744310  -0.2061354  69.3818012  54.0001651  -6.1419403
  68.6281720  53.4309049  -6.2975399  69.5165553  53.9664315  -5.1948769
  51.2583979  44.9506633   6.1949671  50.8650925  44.3972831   6.8697316
  52.0750120  45.2617211   6.5856189  50.0340922  59.5056247  -7.8114006
  50.2107550  60.4274212  -7.9993022  50.8297755  59.1914666  -7.3819626
  54.1751940  46.3664512   3.7869928  54.9161654  46.9671665   3.7074390
  54.4069863  45.6242150   3.2287970  49.3193278  51.5520879   2.0648158
  49.2046793  50.6506136   2.3655256  48.4637796  51.7984576   1.7132974
  56.3985116  59.4938619   3.6635658  55.9548970  58.7074998   3.3456563
  57.0602330  59.6817770   2.9979549  51.1572237  61.0234421  -1.8103663
  51.7079662  60.8951484  -2.5826669  50.3183713  61.3229310  -2.1608771
  58.4966354  59.7741419   1.6917059  58.4784829  60.5950300   1.1997329
  59.4186274  59.6495494   1.9167201  54.9539408  57.2885549   2.5340568
  55.4867745  56.5273837   2.3039876  54.4253489  56.9959201   3.2764722
  61.2984967  54.6120562  -4.8373574  60.6408641  55.3019823  -4.7493445
  62.1025366  55.0016994  -4.4939588  60.1090426  52.9664934  -6.7869632
  60.6222308  53.5994926  -6.2847922  60.7591650  52.3666130  -7.1526272
  56.5871257  50.4414390  -4.5411292  55.6693818  50.6629337  -4.6989604
  57.0031400  50.5160700  -5.3999584  60.8752222  57.9470936  -8.6590490
  60.4214549  57.1061846  -8.6025299  60.2446189  58.5832334  -8.3215709
  59.3185161  59.7847433  -7.7240671  59.6108136  60.3452490  -8.4428306
  59.8283782  60.0775994  -6.9687512  54.2818786  60.5627784  -6.6347218
  54.2394965  60.7888630  -7.5638686  55.1981485  60.3291158  -6.4861417
  57.7284420  51.0311851   0.2633411  58.0833808  51.2583324   1.1227877
  58.3756551  51.3630228  -0.3589334  63.4582157  54.1530287  -9.0317260
  63.3200056  54.3431883  -9.9596071  63.1018376  54.9149670  -8.5749209
  63.4851537  56.2206814  -4.0205988  63.9188043  56.1282103  -3.1722934
  64.1983117  56.1964315  -4.6585972  57.2179432  59.8208908  -2.4872888
  57.2716454  60.3899844  -1.7195172  56.3494213  59.9910793  -2.8518851
  50.0977825  49.5226464  -1.0048437  50.7700879  49.3143826  -1.6535788
  49.2707612  49.3248550  -1.4443204  64.3467086  56.2630515  -1.4873103
  64.5402976  57.1676325  -1.2413828  64.2467705  55.8037934  -0.6534518
  56.0003397  46.1488405   1.0117224  55.3531312  46.8478355   0.9181701
  56.7704412  46.5824549   1.3793472  59.4082195  56.4137257   4.0867778
  59.2567701  56.1847809   3.1697861  59.3986875  57.3707859   4.0999123
  56.1767531  53.9869170  -0.9285956  57.1059591  54.1380330  -1.1016989
  55.7558561  54.0753191  -1.7837309  54.9755863  58.0119835  -3.1587418
  54.8366949  57.6438619  -2.2861480  54.1870459  58.5267474  -3.3303461
  55.5704015  63.1128931 -11.8161882  55.7455771  62.6416974 -11.0016259
  54.8836803  63.7394697 -11.5880621  56.5261078  57.3901437  -5.7698581
  56.1910911  57.3502207  -4.8740931  56.0265024  56.7246153  -6.2428170
  50.5005322  52.7969067  -0.2445999  50.3625120  52.0649306   0.3565540
  51.4110246  52.7077967  -0.5261812  53.1287623  52.5089027  -0.7562320
  53.8387242  51.8682219  -0.7975701  53.0856931  52.7601922   0.1663861
  61.1174402  59.4456380   2.1644259  61.0586948  58.7615600   1.4974842
  61.5193920  60.1875370   1.7124885  51.8416557  49.4954245   1.0633320
  51.3053914  49.0444983   1.7154916  51.2533265  49.6300153   0.3203784
  50.1365100  66.2618294  -5.0422022  50.3761699  66.8936818  -4.3643003
  49.2934297  65.9106334  -4.7556662  61.1191809  57.4095964   0.3958239
  60.2318588  57.0721886   0.5184638  61.6890360  56.6778995   0.6327004
  54.6492962  62.0697416  -2.6380518  54.5763134  62.8752388  -2.1261213
  54.2070355  62.2689382  -3.4632496  54.4382742  61.3069186  -9.1277696
  53.6550264  61.8490867  -9.0339472  55.1375487  61.8243166  -8.7283455
  65.6009149  52.8204181  -4.8425199  65.5899026  53.7028897  -5.2131266
  64.7326529  52.4675732  -5.0370662  57.1091646  61.9684250  -0.4822359
  57.8219618  62.6031715  -0.5546458  56.6181675  62.0648116  -1.2982357
  52.1603559  59.7178694   0.3383212  52.8613019  60.3515177   0.4912606
  51.6898674  60.0593425  -0.4221149  59.9604845  52.2723301  -1.8364238
  59.3076296  52.5199209  -2.4911785  60.3385225  51.4587439  -2.1701761
  56.9212019  62.3082994  -7.7336068  57.1034414  61.4904650  -7.2708315
  57.7445005  62.5250687  -8.1711178  57.2554185  61.2351180 -10.4721019
  57.7841951  60.7243634 -11.0850857  57.5182404  60.9193710  -9.6075486
  56.0092418  53.0143112   4.6501799  55.3333055  52.9137242   5.3204174
  56.8320052  52.8582326   5.1137796  47.7571277  59.2515049  -2.7285686
  48.3424714  58.5058737  -2.5957781  47.5596116  59.5619006  -1.8449022
  50.6109933  62.2866296  -7.7123243  49.9420308  62.7712424  -8.1959203
  50.4722802  62.5335517  -6.7979865  54.7515201  64.3210040  -1.1140585
  55.3033509  64.4841661  -0.3491500  55.0921395  64.9114478  -1.7860560
  49.2031967  48.7408322   3.1354334  49.8304006  48.3585399   3.7491858
  48.3459886  48.5222524   3.5010027  59.6026076  59.1471297   4.7408070
  60.1465980  59.7601256   4.2463024  59.0212920  59.7050876   5.2575083
  57.8883589  62.2692015  -4.1276903  57.7634728  61.4681755  -4.6365957
  58.5462680  62.7638209  -4.6162933  59.9518497  60.0701035  -2.4997353
  59.0048832  59.9506387  -2.5719026  60.3001270  59.1823533  -2.4171091
  52.3118070  45.9595174   1.3240889  52.8352472  46.2057471   2.0867199
  52.0930404  46.7915209   0.9044027  56.9564930  59.8653752  -6.2993000
  56.8089893  58.9370459  -6.1185430  57.7818424  59.8873842  -6.7835925
  60.5599052  60.6882310  -5.2128128  61.4845600  60.4825172  -5.3503676
  60.3914355  60.4398711  -4.3038786  53.5170615  46.9008869  -0.9909440
  53.1767436  46.1016682  -0.5888760  52.8109622  47.2010580  -1.5632607
  55.4048180  48.1017191  -2.6356121  55.1465957  49.0234261  -2.6371791
  54.8733220  47.7047625  -1.9455657  60.3494368  61.2067978  -9.8566036
  60.5231246  60.6414400 -10.6092184  60.8423260  62.0068873 -10.0386546
  46.1671328  53.2182647  -1.7902477  45.6224796  53.9942455  -1.6582203
  47.0450678  53.5653451  -1.9483356  66.2033759  53.9704401  -8.2375736
  66.6464905  53.2211726  -8.6356613  65.3260270  53.9614537  -8.6202004
  61.3369541  60.5234742 -12.7569138  62.0320445  61.1441435 -12.5381823
  61.6792691  59.6730093 -12.4816760  46.9537350  52.3452543   1.1027680
  46.2119086  52.4935178   1.6892310  46.6330094  52.6060809   0.2394429
  63.2360964  57.9734448 -11.2281807  63.7612288  58.3121720 -11.9532487
  63.1483316  57.0381463 -11.4118672  54.8981013  61.8868521   0.9008070
  55.2068139  61.6417668   1.7730769  55.6956495  62.0915160   0.4126940
  54.9201625  64.0406431  -6.8686554  54.4806615  63.5482810  -6.1753697
  55.6709742  63.4979399  -7.1094479  47.3993964  60.2317972  -6.8661926
  48.2251984  59.9321744  -7.2463282  47.0488016  59.4625594  -6.4172137
  52.3675497  59.5844440  -4.7964252  51.7455506  58.9215145  -5.0962024
  53.0380364  59.6105572  -5.4790604  52.4400024  48.0626228   4.7968254
  52.4888180  48.9388351   4.4146023  52.9822538  47.5203621   4.2239897
  62.9254870  58.6067351   4.0769391  62.1350414  58.5891490   3.5373890
  62.6888225  59.1455645   4.8318427  63.0452745  55.4559818   1.3902119
  63.0950750  55.2909825   2.3317642  62.9366668  54.5887077   1.0000000
  60.3356507  51.4390746   2.7061426  61.2366370  51.2997211   2.4145424
  60.4104482  51.6045201   3.6459604  54.6699313  48.8157600   1.5514612
  53.8002622  49.1091167   1.2797201  54.9058793  49.3998045   2.2721876
  64.5470942  57.8756759   1.6344141  64.2555750  58.2386740   2.4707602
  63.9343073  57.1623768   1.4557473  65.7466624  55.4409639  -5.8453289
  66.5813516  55.8799443  -5.6815728  65.8825753  54.9648292  -6.6645043
  62.7958130  52.9989374   0.1024199  63.2712252  53.1917020  -0.7056950
  61.8723695  53.0548560  -0.1432417  57.3738347  45.0337217  -0.9319967
  57.8920290  45.7698244  -1.2573479  57.0193479  45.3401211  -0.0973208
  61.4959799  49.8755134  -1.6647495  62.4477222  49.9753232  -1.6435271
  61.3263249  49.0833402  -1.1549411  59.5174179  46.9610717  -1.4788094
  58.9224111  47.2415730  -2.1741606  59.2323875  47.4504618  -0.7071353
  63.9747877  53.0961254  -2.5505196  63.9424197  52.1577254  -2.3645512
  64.5848501  53.1745290  -3.2839371  64.1242365  49.8872297  -2.5046913
  63.6081414  49.1030754  -2.6916984  65.0082314  49.5591014  -2.3400393
  69.7924427  54.1577260  -3.4099159  70.5227815  53.8962549  -2.8491456
  69.1831372  53.4205982  -3.3697091  67.8739724  52.2985123  -2.8124708
  67.1472887  52.1641088  -3.4208216  67.4587011  52.6061952  -2.0067990
  55.6969900  56.0175053   4.9522665  56.6172910  56.1953652   5.1462712
  55.6619483  55.0731098   4.8002365  48.6931973  53.9276087  -2.4054554
  48.9117983  54.8593195  -2.3866520  49.1057747  53.5684062  -1.6199750
  53.5659838  49.5009293   6.9848195  53.4656565  50.4503650   6.9160286
  53.3481380  49.1727532   6.1124265  53.4291108  52.9306432   5.8013257
  52.9458190  53.7306792   6.0077146  53.5152047  52.9414377   4.8480701
  49.3564446  56.8210967  -2.1618309  50.3107699  56.7894909  -2.2288378
  49.1576969  56.3601590  -1.3468083  49.9463828  55.3912083   0.4052488
  50.7656717  55.8856161   0.4287326  50.2200636  54.4744051   0.3770056
  65.4917519  48.5196975  -5.4591276  66.0862010  48.2792711  -6.1697968
  65.5644102  47.8004106  -4.8317740  47.7114674  62.3630586  -5.1448111
  47.5769142  61.6030987  -5.7110113  47.2946737  63.0871486  -5.6119322
  67.7988592  51.8263176  -6.6847855  67.2388149  51.8956365  -5.9116293
  67.1932095  51.6504161  -7.4048359  50.8683800  63.2599903  -4.9329669
  50.7516184  64.2045336  -5.0350978  50.0476247  62.9573465  -4.5443870
  45.1998742  49.7250217   1.1044685  45.8457606  49.2149171   1.5931911
  44.9915893  50.4618898   1.6788111  57.7252134  56.7931064   6.6036826
  58.5943294  56.9671716   6.2423461  57.2458886  57.6125481   6.4812555
  51.8938314  63.9128165  -1.7173740  52.7965561  63.9451775  -1.4007245
  51.6675685  62.9828616  -1.7027404  53.6491916  62.6659152  -5.0563662
  52.6987547  62.6661013  -5.1699289  53.9524403  61.9191886  -5.5727627
  49.5396233  46.8717834   5.2019700  50.4027695  46.5154639   5.4123024
  48.9661644  46.5331729   5.8895104  69.3844610  68.5019690  -3.9917899
  70.0223020  68.3826437  -4.6954559  69.2665453  69.4500534  -3.9329947
  66.1934316  68.4547118  -4.0556375  65.8552828  68.3388183  -4.9435840
  67.0624084  68.0538283  -4.0755368  66.6754099  69.6081970   1.9029831
  66.6642740  69.2134768   1.0310335  66.8374739  68.8748042   2.4963602
  59.5985564  71.8033786  -5.2275263  60.3906856  71.4624611  -5.6428964
  59.8382214  71.9128761  -4.3073110  63.3961360  72.3919082   0.8509015
  63.1051226  73.2964713   0.7355681  64.0318345  72.4335609   1.5653084
  64.3217567  69.7695930  -2.5589625  64.9181139  69.5451953  -3.2732662
  64.3792539  69.0280676  -1.9564178  71.8619726  59.8767951  -1.5537104
  71.5303051  60.7463362  -1.7775889  71.2665339  59.5604235  -0.8743074
  68.3551245  72.0780497  -2.1541191  68.0551969  72.9805536  -2.2625384
  68.0102305  71.8112680  -1.3020038  61.8063727  68.5294294  -6.1204487
  60.8814223  68.3970508  -5.9126795  62.0548140  69.3088513  -5.6234545
  71.7548389  64.5963037  -4.4743754  70.8465267  64.5278446  -4.7684993
  71.7035985  65.0734982  -3.6461929  59.1672538  68.1727568  -5.2860698
  59.2964919  68.4262047  -4.3721286  58.4869989  68.7655276  -5.6056043
  65.8289255  66.0152683   3.4691143  65.0522589  66.5746603   3.4594008
  66.4679818  66.5009466   3.9906013  73.6210036  62.7979476  -2.6965880
  72.9784416  63.0912009  -3.3426086  73.1164964  62.6832396  -1.8912683
  64.0835627  68.8238136   3.0309110  64.8250312  69.3623180   2.7543934
  63.3772613  69.4504425   3.1880662  69.5590967  70.9667277   1.6281272
  69.9674323  70.5249687   0.8835904  68.8368228  70.3919904   1.8815465
  65.9122037  65.9039884  -0.9985171  66.7583232  66.3279297  -0.8550522
  65.8520675  65.2473508  -0.3046608  69.0621482  63.5644252   0.6596002
  68.8182414  64.3186312   0.1230278  69.3381413  63.9429600   1.4943249
  71.0159945  70.1082864  -0.6626732  71.2276840  70.7514624  -1.3392351
  70.9689693  69.2745181  -1.1304802  68.6186174  62.7200685  -3.7590160
  67.7570653  63.0181938  -3.4673422  68.6448609  62.9371084  -4.6909127
  62.3271825  70.8114357  -4.4136591  62.8973182  71.2401625  -5.0519107
  62.9179936  70.5296942  -3.7152405  62.8196991  65.9777784   3.8324420
  62.1895652  66.6594065   4.0659817  62.7133079  65.8660866   2.8877558
  58.1141964  65.6449581  -5.2409656  57.3241017  65.9007109  -5.7169545
  58.6053211  66.4597918  -5.1357615  60.0656709  66.0094160  -8.2826179
  59.2687872  66.1212854  -7.7642683  59.8382301  66.3480812  -9.1485288
  65.8962377  72.5338863  -0.3343664  65.9606809  72.9959270   0.5014508
  65.1873300  71.9036228  -0.2061354  56.3979666  65.8980071  -2.8094665
  56.6487705  66.7827081  -2.5437089  56.9339215  65.7184673  -3.5819573
  62.0977734  60.2798550   6.1949671  61.7044679  59.7264749   6.8697316
  62.9143874  60.5909129   6.5856189  65.0145695  61.6956429   3.7869928
  65.7555408  62.2963583   3.7074390  65.2463618  60.9534067   3.2287970
  60.1587033  66.8812797   2.0648158  60.0440548  65.9798054   2.3655256
  59.3031551  67.1276493   1.7132974  67.2378871  74.8230537   3.6635658
  66.7942725  74.0366916   3.3456563  67.8996084  75.0109687   2.9979549
  61.9965992  76.3526339  -1.8103663  62.5473417  76.2243402  -2.5826669
  61.1577468  76.6521228  -2.1608771  69.3360109  75.1033337   1.6917059
  69.3178584  75.9242218   1.1997329  70.2580029  74.9787412   1.9167201
  65.7933163  72.6177466   2.5340568  66.3261500  71.8565755   2.3039876
  65.2647244  72.3251118   3.2764722  68.9602858  57.7237532  -1.9365790
  68.6167127  58.6139174  -2.0126680  69.3281820  57.5339190  -2.7996205
  66.5100251  62.5595844  -8.3708117  65.6541848  62.1702695  -8.5502478
  66.9227203  62.6387805  -9.2308331  68.0399398  60.0942188  -3.9716557
  67.5364194  60.0572323  -4.7848752  68.3330005  61.0034930  -3.9119901
  64.2842284  60.1780917  -4.9650376  65.1495281  59.9823726  -5.3244486
  64.3519793  59.9491269  -4.0381019  61.8904603  62.4083125  -7.5934009
  62.4648355  62.1858307  -8.3260816  62.4775586  62.4771820  -6.8405407
  64.1927271  59.2824374  -8.8658939  63.5391683  58.9673391  -9.4902324
  64.1507745  58.6600115  -8.1399116  67.4265011  65.7706308  -4.5411292
  66.5087573  65.9921255  -4.6989604  67.8425155  65.8452618  -5.3999584
  70.7590523  56.9831092  -6.8348053  71.0649400  56.1228455  -7.1222138
  71.4843128  57.5748712  -7.0349059  57.0514879  67.3861778  -8.4466455
  56.8539279  66.7931139  -9.1715388  56.4961543  67.0813988  -7.7290516
  65.0311603  67.2784885  -6.3271862  65.0860213  66.3258721  -6.4029385
  64.2202805  67.4344324  -5.8430563  62.9703963  65.8961944  -8.5681483
  62.1571829  66.1956115  -8.1616291  63.4662957  65.5017633  -7.8507001
  68.5678175  66.3603769   0.2633411  68.9227562  66.5875242   1.1227877
  69.2150306  66.6922146  -0.3589334  62.4618038  63.4680300  -2.9520248
  63.1017417  63.3269059  -3.6497285  61.6295568  63.1814813  -3.3281646
  59.4646654  63.4380625  -8.1747261  59.7253472  64.3525958  -8.2838101
  60.2863827  62.9705067  -8.0250648  60.9371580  64.8518382  -1.0048437
  61.6094633  64.6435744  -1.6535788  60.1101366  64.6540468  -1.4443204
  66.8397152  61.4780323   1.0117224  66.1925067  62.1770273   0.9181701
  67.6098167  61.9116467   1.3793472  70.2475950  71.7429175   4.0867778
  70.0961456  71.5139727   3.1697861  70.2380629  72.6999777   4.0999123
  67.0161286  69.3161088  -0.9285956  67.9453346  69.4672247  -1.1016989
  66.5952316  69.4045109  -1.7837309  65.8149618  73.3411752  -3.1587418
  65.6760703  72.9730537  -2.2861480  65.0264214  73.8559392  -3.3303461
  61.3399077  68.1260985  -0.2445999  61.2018875  67.3941224   0.3565540
  62.2504000  68.0369885  -0.5261812  63.9681377  67.8380944  -0.7562320
  64.6780996  67.1974137  -0.7975701  63.9250686  68.0893839   0.1663861
  71.9568156  74.7748298   2.1644259  71.8980702  74.0907518   1.4974842
  72.3587675  75.5167288   1.7124885  62.6810311  64.8246162   1.0633320
  62.1447668  64.3736901   1.7154916  62.0927020  64.9592071   0.3203784
  71.9585563  72.7387882   0.3958239  71.0712342  72.4013803   0.5184638
  72.5284115  72.0070913   0.6327004  53.6114711  69.0711973  -6.2798710
  54.2985750  68.7573703  -6.8677694  53.4562839  69.9753338  -6.5531458
  58.4149433  63.9602170  -1.8513686  58.3307621  63.3527839  -2.5863276
  57.5932139  64.4511188  -1.8504189  68.5873147  62.4455733  -6.4843491
  69.0841846  61.6925696  -6.8042421  67.8160128  62.4820050  -7.0500281
  65.1708115  64.5873116  -6.7571806  64.8005903  64.0344157  -6.0690901
  65.6667208  63.9831250  -7.3096806  62.9997314  75.0470611   0.3383212
  63.7006773  75.6807094   0.4912606  62.5292429  75.3885343  -0.4221149
  71.0292141  59.4125327  -4.3364132  70.1155221  59.6429554  -4.1681925
  71.4585243  59.4963771  -3.4850100  70.7998600  67.6015219  -1.8364238
  70.1470050  67.8491126  -2.4911785  71.1778980  66.7879357  -2.1701761
  66.8486173  68.3435030   4.6501799  66.1726810  68.2429159   5.3204174
  67.6713807  68.1874244   5.1137796  58.5965032  74.5806967  -2.7285686
  59.1818469  73.8350654  -2.5957781  58.3989870  74.8910923  -1.8449022
  53.1882687  67.1512567  -4.0081242  53.2266786  66.6176157  -3.2144124
  52.6822980  66.6247772  -4.6270265  60.5673449  61.9977107  -0.5118700
  60.6314775  62.8591938  -0.9241302  60.5040569  61.3851109  -1.2446342
  60.0425722  64.0700240   3.1354334  60.6697760  63.6877317   3.7491858
  59.1853640  63.8514442   3.5010027  70.4419830  74.4763215   4.7408070
  70.9859734  75.0893173   4.2463024  69.8606675  75.0342793   5.2575083
  56.8191264  65.8776669 -10.9327311  57.1144705  64.9687347 -10.9860257
  55.9179300  65.8564408 -11.2546309  60.3485511  63.9532665  -4.9499762
  59.6272097  64.5668633  -5.0892289  61.1378767  64.4890430  -5.0283116
  63.1511825  61.2887092   1.3240889  63.6746227  61.5349388   2.0867199
  62.9324158  62.1207127   0.9044027  58.5479106  63.5590767 -10.8087986
  58.2191812  62.6788145 -10.9912880  58.9018477  63.5038435  -9.9211597
  64.3564370  62.2300787  -0.9909440  64.0161190  61.4308600  -0.5888760
  63.6503376  62.5302498  -1.5632607  65.0080842  59.3150099  -2.5382117
  65.8306911  58.8410578  -2.6603227  65.2518905  60.0940583  -2.0383431
  62.5319420  66.0069220  -4.7290138  62.3864001  66.3209523  -3.8365857
  62.0544624  66.6254120  -5.2819240  64.3915803  62.9971768  -4.6809249
  64.3777372  62.1012861  -5.0176951  65.1088231  63.0042432  -4.0470963
  66.2441934  63.4309108  -2.6356121  65.9859712  64.3526179  -2.6371791
  65.7126974  63.0339543  -1.9455657  57.0065083  68.5474565  -1.7902477
  56.4618551  69.3234372  -1.6582203  57.8844432  68.8945369  -1.9483356
  63.7952699  61.8786148  -9.4121679  63.9168610  60.9502795  -9.2130791
  63.5054742  61.8924834 -10.3243363  66.6643890  59.5641059  -6.2754959
  66.6865586  59.6280392  -7.2302979  67.0811949  58.7245567  -6.0814453
  57.7931104  67.6744461   1.1027680  57.0512840  67.8227096   1.6892310
  57.4723849  67.9352726   0.2394429  65.7374767  77.2160439   0.9008070
  66.0461894  76.9709586   1.7730769  66.5350249  77.4207077   0.4126940
  56.4396323  73.4796216  -5.9072992  55.6028231  73.0518390  -6.0888991
  56.4119969  73.6728659  -4.9702201  63.2793779  63.3918146   4.7968254
  63.3281934  64.2680269   4.4146023  63.8216293  62.8495539   4.2239897
  73.7648624  73.9359269   4.0769391  72.9744168  73.9183408   3.5373890
  73.5281979  74.4747563   4.8318427  73.8846499  70.7851735   1.3902119
  73.9344504  70.6201743   2.3317642  73.7760423  69.9178994   1.0000000
  71.1750262  66.7682663   2.7061426  72.0760125  66.6289128   2.4145424
  71.2498236  66.9337118   3.6459604  65.5093067  64.1449518   1.5514612
  64.6396377  64.4383084   1.2797201  65.7452548  64.7289963   2.2721876
  75.3864696  73.2048677   1.6344141  75.0949505  73.5678657   2.4707602
  74.7736828  72.4915685   1.4557473  73.6351885  68.3281292   0.1024199
  74.1106006  68.5208938  -0.7056950  72.7117450  68.3840477  -0.1432417
  68.2132101  60.3629135  -0.9319967  68.7314045  61.0990162  -1.2573479
  67.8587234  60.6693128  -0.0973208  68.4644695  56.7829418  -5.4119071
  68.7446449  56.1152607  -4.7858644  69.2495302  56.9758513  -5.9244407
  72.3353554  65.2047052  -1.6647495  73.2870976  65.3045149  -1.6435271
  72.1657004  64.4125320  -1.1549411  70.3567933  62.2902635  -1.4788094
  69.7617865  62.5707648  -2.1741606  70.0717630  62.7796536  -0.7071353
  74.9636120  65.2164215  -2.5046913  74.4475168  64.4322671  -2.6916984
  75.8476068  64.8882931  -2.3400393  72.6246847  58.9605230  -6.5451100
  72.4271668  58.6520318  -5.6607768  73.2346552  59.6866869  -6.4153170
  66.5363655  71.3466970   4.9522665  67.4566664  71.5245569   5.1462712
  66.5013238  70.4023016   4.8002365  55.7545820  66.5405564  -6.1224060
  55.4348604  65.6870872  -6.4149686  55.2079248  66.7554142  -5.3666093
  59.5325727  69.2568005  -2.4054554  59.7511737  70.1885113  -2.3866520
  59.9451501  68.8975979  -1.6199750  66.4529945  59.7636090 -10.4178865
  65.6430673  59.4183175 -10.0423619  67.1414362  59.4543634  -9.8291254
  68.3820493  58.8414137  -8.7954569  68.9351532  59.2609591  -8.1364545
  68.6190580  57.9149885  -8.7531613  64.4053593  64.8301211   6.9848195
  64.3050320  65.7795568   6.9160286  64.1875135  64.5019450   6.1124265
  55.6234080  70.1608476  -4.1530939  54.9297551  69.7462428  -4.6660984
  56.3707071  70.2029012  -4.7497520  70.2102867  60.3519720  -7.0854584
  70.7102645  60.4636255  -7.8940265  70.8538475  60.0480773  -6.4453776
  64.2684863  68.2598350   5.8013257  63.7851944  69.0598710   6.0077146
  64.3545802  68.2706295   4.8480701  57.5370822  70.0926729  -6.2764924
  57.5141510  70.1914417  -7.2283041  57.8471459  70.9391880  -5.9547758
  60.1958200  72.1502884  -2.1618309  61.1501454  72.1186827  -2.2288378
  59.9970724  71.6893508  -1.3468083  60.7857582  70.7204000   0.4052488
  61.6050471  71.2148079   0.4287326  61.0594390  69.8035969   0.3770056
  56.0392497  65.0542134   1.1044685  56.6851360  64.5441088   1.5931911
  55.8309648  65.7910816   1.6788111  68.5645889  72.1222982   6.6036826
  69.4337048  72.2963634   6.2423461  68.0852640  72.9417399   6.4812555
  62.7332069  79.2420083  -1.7173740  63.6359316  79.2743693  -1.4007245
  62.5069439  78.3120534  -1.7027404  68.3748226  55.9124956  -8.8885482
  67.6080622  55.3583442  -8.7428799  68.7858931  55.9846824  -8.0271330
  60.3789988  62.2009751   5.2019700  61.2421449  61.8446556   5.4123024
  59.8055398  61.8623646   5.8895104  72.9371488  75.6090468   6.1949671
  72.5438434  75.0556667   6.8697316  73.7537629  75.9201046   6.5856189
  75.8539449  77.0248347   3.7869928  76.5949163  77.6255500   3.7074390
  76.0857372  76.2825985   3.2287970  70.8819476  79.3992157   3.1354334
  71.5091515  79.0169235   3.7491858  70.0247395  79.1806359   3.5010027
  74.1187533  78.7210063   4.7968254  74.1675689  79.5972186   4.4146023
  74.6610047  78.1787456   4.2239897  75.2447347  80.1593128   6.9848195
  75.1444074  81.1087485   6.9160286  75.0268889  79.8311367   6.1124265
  66.8786251  80.3834052   1.1044685  67.5245115  79.8733006   1.5931911
  66.6703402  81.1202734   1.6788111  71.2183742  77.5301669   5.2019700
  72.0815204  77.1738474   5.4123024  70.6449153  77.1915564   5.8895104
  71.9568157  51.7810420 -11.1110434  71.8980704  51.0969640 -11.7779851
  72.3587676  52.5229410 -11.5629808  70.4419831  51.4825338  -8.5346624
  70.9859735  52.0955296  -9.0291669  69.8606676  52.0404916  -8.0179611
  73.7648626  50.9421392  -9.1985302  72.9744169  50.9245530  -9.7380803
  73.5281980  51.4809685  -8.4436266  75.3864698  50.2110799 -11.6410552
  75.0949506  50.5740780 -10.8047091  74.7736829  49.4977808 -11.8197220
  68.5645890  49.1285104  -6.6717867  69.4337050  49.3025757  -7.0331232
  68.0852641  49.9479521  -6.7942138  72.9371490  52.6152591  -7.0805022
  72.5438435  52.0618789  -6.4057378  73.7537630  52.9263169  -6.6898505
  75.8539451  54.0310470  -9.4884766  76.5949164  54.6317623  -9.5680303
  76.0857373  53.2888107 -10.0466723  70.8819477  56.4054280 -10.1400359
  71.5091516  56.0231357  -9.5262835  70.0247396  56.1868482  -9.7744667
  74.1187535  55.7272186  -8.4786440  74.1675690  56.6034309  -8.8608670
  74.6610049  55.1849579  -9.0514796  75.2447348  57.1655251  -6.2906498
  75.1444075  58.1149608  -6.3594407  75.0268890  56.8373490  -7.1630428
  66.8786252  57.3896175 -12.1710008  67.5245116  56.8795129 -11.6822783
  66.6703403  58.1264856 -11.5966583  71.2183743  54.5363792  -8.0734994
  72.0815205  54.1800596  -7.8631669  70.6449154  54.1977686  -7.3859589
   4.3455480  99.9877407  46.9599367   3.5919188  99.4184805  46.8043371
   4.4803021  99.9540072  47.9070002   0.7104092 101.4285396  47.2565482
   1.5450984 101.8675200  47.4203042   0.8463221 100.9524049  46.4373727
   4.7561895 100.1453017  49.6919611   5.4865283  99.8838305  50.2527315
   4.1468840  99.4081739  49.7321679   2.8377192  98.2860880  50.2894063
   2.1110355  98.1516845  49.6810554   2.4224479  98.5937708  51.0950781
   0.4554987  94.5072732  47.6427494   1.0499478  94.2668468  46.9320802
   0.5281570  93.7879862  48.2701030   2.7626060  97.8138933  46.4170915
   2.2025618  97.8832122  47.1902477   2.1569563  97.6379917  45.6970412
   3.9240326 103.7113289  51.1652980   3.5804595 104.6014931  51.0892090
   4.2919288 103.5214947  50.3022565   5.7227991 102.9706848  46.2670718
   6.0286868 102.1104212  45.9796633   6.4480596 103.5624468  46.0669711
   3.4282163 102.7705174  47.6899700   3.7083917 102.1028363  48.3160126
   4.2132770 102.9634270  47.1774364   7.5884315 104.9480987  46.5567670
   7.3909136 104.6396075  47.4411002   8.1984020 105.6742626  46.6865600
   3.3385694 101.9000712  44.2133289   2.5718090 101.3459199  44.3589971
   3.7496399 101.9722581  45.0747440   4.3455481  76.9939530  33.6844674
   3.5919189  76.4246928  33.5288678   4.4803022  76.9602194  34.6315308
   0.7104093  78.4347518  33.9810788   1.5450985  78.8737322  34.1448349
   0.8463222  77.9586171  33.1619034   4.7561896  77.1515140  36.4164918
   5.4865284  76.8900428  36.9772621   4.1468841  76.4143862  36.4566986
   2.8377193  75.2923002  37.0139369   2.1110357  75.1578967  36.4055861
   2.4224480  75.5999831  37.8196087   0.4554988  71.5134854  34.3672801
   1.0499479  71.2730590  33.6566109   0.5281572  70.7941985  34.9946337
   2.7626061  74.8201055  33.1416222   2.2025619  74.8894245  33.9147784
   2.1569564  74.6442040  32.4215718   4.3482079  91.4957569  35.8346178
   4.9860489  91.3764317  35.1309518   4.2302922  92.4438413  35.8934130
   1.1571786  91.4484997  35.7707702   0.8190297  91.3326062  34.8828237
   2.0261554  91.0476162  35.7508709   1.6391569  92.6019849  41.7293908
   1.6280209  92.2072647  40.8574412   1.8012208  91.8685922  42.3227679
   3.9023348  89.2209023  32.9099386   4.6886437  88.8028446  32.5589803
   4.1662052  90.1255115  33.0781034   9.3031775  89.1584256  33.8132364
  10.0356947  88.5883473  34.0470194   8.5471131  88.7705857  34.2538870
   0.9207895  91.5811498  31.0095707   0.5566102  91.0542119  31.7208628
   1.7775010  91.1909967  30.8362192   6.8257195  82.8705830  38.2726973
   6.4940520  83.7401241  38.0488188   6.2302809  82.5542114  38.9521003
   3.3188715  95.0718376  37.6722886   3.0189438  95.9743415  37.5638693
   2.9739774  94.8050560  38.5244039   6.7185859  87.5900917  35.3520323
   5.8102736  87.5216325  35.0579084   6.6673454  88.0672861  36.1802148
   8.5847505  85.7917355  37.1298197   7.9421885  86.0849888  36.4837991
   8.0802433  85.6770275  37.9351394   6.2387669  89.5380528  27.8184056
   7.1505525  89.7707915  27.6431754   5.7297316  90.1217572  27.2559135
   4.5228436  93.9605156  41.4545349   4.9311792  93.5187566  40.7099981
   3.8005698  93.3857783  41.7079542   0.8759506  88.8977763  38.8278906
   1.7220702  89.3217176  38.9713555   0.8158144  88.2411387  39.5217469
   4.8457251  94.5206347  35.2097638   4.2166113  94.6852061  34.5073705
   4.4582913  94.9347956  35.9808602   8.7246483  95.4560784  32.5642001
   8.0397521  95.8359686  32.0139035   8.8090332  96.0656111  33.2973949
   4.0258952  86.5582131  40.4860079   3.7819884  87.3124192  39.9494355
   4.3018882  86.9367479  41.3207326   5.9797414  93.1020743  39.1637345
   6.1914310  93.7452503  38.4871726   5.9327163  92.2683060  38.6959275
   3.5823643  85.7138564  36.0673917   2.7208122  86.0119818  36.3590655
   3.6086078  85.9308963  35.1354950   7.0943242  95.9792699  37.3359702
   7.9160686  95.5772886  37.0542384   7.0905645  95.8760933  38.2875818
  15.1849235  92.3231447  33.6844674  14.4312944  91.7538845  33.5288678
  15.3196777  92.2894112  34.6315308   2.2016340  97.8168416  43.4899735
   1.7580194  97.0304795  43.1720640   2.8633553  98.0047567  42.8243626
   4.2997578  98.0971216  41.5181136   4.2816053  98.9180097  41.0261406
   5.2217498  97.9725291  41.7431278   3.9240327  80.7175412  37.8898287
   3.5804596  81.6077053  37.8137397   4.2919290  80.5277069  37.0267872
   1.4737721  85.5533723  31.4555960   0.6179317  85.1640574  31.2761599
   1.8864673  85.6325684  30.5955746   3.0036867  83.0880067  35.8547520
   2.5001663  83.0510202  35.0415325   3.2967474  83.9972809  35.9144176
   8.8624884  93.4616377  28.3323895   8.0854327  93.1227537  27.8879057
   9.5416365  93.4669000  27.6578860   3.6776913  88.5811115  28.2230503
   3.3727048  88.8957264  29.0740646   4.6307355  88.6592535  28.2657836
   7.1016191  92.9350359  34.9890503   6.4439865  93.6249620  35.0770632
   7.9056590  93.3246790  35.3324489   5.9121650  91.2894731  33.0394445
   6.4253531  91.9224723  33.5416155   6.5622873  90.6895927  32.6737805
   2.3902480  88.7644187  35.2852785   1.4725042  88.9859134  35.1274473
   2.8062624  88.8390497  34.4264493   3.1737528  90.1635602  30.4155466
   3.9209347  90.6757000  30.1062588   3.4429118  89.8419655  31.2759859
   6.6783446  96.2700733  31.1673587   6.2245773  95.4291643  31.2238778
   6.0477413  96.9062131  31.5048368   5.6216365  87.1992719  32.3974255
   4.8839122  86.6870105  32.7284497   5.8743139  86.7593100  31.5857532
   5.1216385  98.1077229  32.1023406   5.4139359  98.6682286  31.3835771
   5.6315006  98.4005790  32.8576565   5.7227993  79.9768971  32.9916024
   6.0286869  79.1166334  32.7041939   6.4480597  80.5686591  32.7915018
   3.5315644  89.3541648  40.0897488   3.8865032  89.5813121  40.9491954
   4.1787775  89.6860025  39.4674743   9.2613381  92.4760084  30.7946817
   9.1231280  92.6661680  29.8668006   8.9049600  93.2379467  31.2514868
   9.2882761  94.5436611  35.8058089   9.7219267  94.4511900  36.6541143
  10.0014341  94.5194111  35.1678105   3.0210655  98.1438705  37.3391189
   3.0747678  98.7129641  38.1068905   2.1525437  98.3140590  36.9745226
  10.1498310  94.5860312  38.3390974  10.3434200  95.4906122  38.5850249
  10.0498928  94.1267731  39.1729559   1.8034621  84.4718202  40.8381301
   1.1562536  85.1708152  40.7445778   2.5735636  84.9054346  41.2057549
   5.2113419  94.7367054  43.9131855   5.0598925  94.5077606  42.9961938
   5.2018098  95.6937656  43.9263200   1.9798755  92.3098967  38.8978121
   2.9090815  92.4610127  38.7247088   1.5589785  92.3982988  38.0426768
   2.3292302  95.7131234  34.0565496   1.9942135  95.6732004  34.9523146
   1.8296248  95.0475950  33.5835907   6.9205625  97.7686177  41.9908336
   6.8618172  97.0845397  41.3238919   7.3225144  98.5105167  41.5388962
   6.9223033  95.7325761  40.2222316   6.0349811  95.3951683  40.3448715
   7.4921584  95.0008792  40.4591082   3.5510616  85.4393613  33.3420586
   4.0479315  84.6863575  33.0221656   2.7797597  85.4757929  32.7763796
  11.4040373  91.1433978  34.9838878  11.3930250  92.0258694  34.6132811
  10.5357753  90.7905529  34.7893415   2.9122870 100.2914047  39.3441718
   3.6250842 100.9261512  39.2717619   2.4212898 100.3877913  38.5281720
   4.6340397  94.1965300  30.9159010   3.6996675  94.3166762  30.7463714
   4.8117065  93.2937767  30.6519019   8.0212948  90.0382619  31.4509044
   8.4873400  90.8710611  31.3769346   8.4720448  89.5727601  32.1554302
   6.0889179  96.3826440  28.4495196   6.3649023  96.2683035  29.3589070
   5.2193678  95.9843925  28.4107369   5.9929611  82.4063206  35.4899945
   5.0792690  82.6367433  35.6582152   6.4222712  82.4901650  36.3413977
   5.7636069  90.5953098  37.9899839   5.1107519  90.8429006  37.3352292
   6.1416449  89.7817236  37.6562316   1.8123642  91.3372909  44.4765876
   1.1364279  91.2367038  45.1468251   2.6351276  91.1812123  44.9401873
   0.5546425 102.6439837  38.7123492   1.1064733 102.8071458  39.4772577
   0.8952619 103.2344274  38.0403517   5.4057299  97.4701094  44.5672147
   5.9497203  98.0831052  44.0727101   4.8244144  98.0280673  45.0839160
   3.6914812 100.5921812  35.6987174   3.5665952  99.7911552  35.1898120
   4.3493903 101.0868005  35.2101144   5.7549721  98.3930832  37.3266724
   4.8080056  98.2736183  37.2545051   6.1032494  97.5053330  37.4092986
   2.7596154  98.1883548  33.5271077   2.6121116  97.2600256  33.7078647
   3.5849648  98.2103639  33.0428152   6.3630276  99.0112107  34.6135949
   7.2876823  98.8054969  34.4760401   6.1945579  98.7628508  35.5225291
   2.7557668  86.0421386  28.5203194   2.9721283  86.9246024  28.2192022
   2.2751735  85.6507599  27.7908836   1.2079403  86.4246987  37.1907956
   0.9497181  87.3464058  37.1892286   0.6764444  86.0277422  37.8808420
   6.1525592  99.5297775  29.9698041   6.3262470  98.9644197  29.2171893
   6.6454483 100.3298669  29.7877531   1.6281359  82.5578938  33.5509118
   1.6503056  82.6218271  32.5961098   2.0449418  81.7183447  33.7449624
  12.0064983  92.2934198  31.5888341  12.4496129  91.5441523  31.1907464
  11.1291494  92.2844334  31.2062073   9.0392188  96.2964245  28.5982270
   9.5643512  96.6351517  27.8731590   8.9514540  95.3611260  28.4145405
   0.7012236 100.2098318  40.7272147   1.0099363  99.9647465  41.5994846
   1.4987718 100.4144957  40.2391017   8.7286094  96.9297148  43.9033468
   7.9381637  96.9121287  43.3637967   8.4919448  97.4685442  44.6582504
   8.8483969  93.7789615  41.2166196   8.8981974  93.6139622  42.1581719
   8.7397892  92.9116874  40.8264077   6.1387731  89.7620543  42.5325503
   7.0397594  89.6227007  42.2409501   6.2135706  89.9274997  43.4723681
  10.3502166  96.1986556  41.4608218  10.0586974  96.5616537  42.2971679
   9.7374297  95.4853564  41.2821550  11.5497848  93.7639436  33.9810788
  12.3844739  94.2029240  34.1448349  11.6856977  93.2878089  33.1619034
   8.5989354  91.3219171  39.9288276   9.0743475  91.5146817  39.1207127
   7.6754919  91.3778357  39.6831660   3.1769570  83.3567014  38.8944110
   3.6951514  84.0928041  38.5690598   2.8224703  83.6631008  39.7290869
   3.4282164  79.7767297  34.4145006   3.7083918  79.1090486  35.0405433
   4.2132771  79.9696392  33.9019670   7.2991023  88.1984931  38.1616582
   8.2508446  88.2983028  38.1828806   7.1294473  87.4063199  38.6714666
   5.3205402  85.2840514  38.3475983   4.7255334  85.5645527  37.6522471
   5.0355099  85.7734415  39.1192724   9.7779101  91.4191050  37.2758881
   9.7455421  90.4807051  37.4618565  10.3879724  91.4975087  36.5424706
   9.9273589  88.2102094  37.3217164   9.4112638  87.4260551  37.1347093
  10.8113538  87.8820811  37.4863684   7.5884316  81.9543109  33.2812977
   7.3909137  81.6458198  34.1656309   8.1984022  82.6804748  33.4110907
  15.5955650  92.4807057  36.4164918  16.3259039  92.2192345  36.9772621
  14.9862596  91.7435779  36.4566986  13.6770948  90.6214920  37.0139369
  12.9504111  90.4870885  36.4055861  13.2618234  90.9291749  37.8196087
   1.5001124  94.3404850  44.7786742   2.4204133  94.5183449  44.9726789
   1.4650707  93.3960895  44.6266442   1.4167414  82.7573970  29.4085212
   0.6068143  82.4121055  29.7840458   2.1051831  82.4481513  29.9972823
   3.3457963  81.8352016  31.0309508   3.8989001  82.2547470  31.6899532
   3.5828049  80.9087764  31.0732464   6.7236770  83.9452542  30.5388173
   6.1435439  84.6037346  30.1566225   6.4572702  83.1229886  30.1275590
   5.1740336  83.3457599  32.7409493   5.6740114  83.4574134  31.9323812
   5.8175944  83.0418652  33.3810301   5.5061648  86.1052632  29.5944521
   4.6187503  86.3902283  29.3764716   5.9215637  85.9446395  28.7471798
   8.8576184  86.1299153  33.3098860   9.6336574  86.6195605  33.5823477
   8.1324318  86.5557207  33.7670730  11.2948743  86.8426772  34.3672801
  11.8893233  86.6022508  33.6566109  11.3675326  86.1233903  34.9946337
   5.4802672  91.6207168  29.8094811   5.4237873  92.0775719  28.9702444
   6.0331014  90.8597852  29.6317654   9.2907477  87.4096900  30.6344931
   9.0344412  87.0093535  31.4653138   8.6660345  88.1240694  30.5095070
  13.6019815  90.1492973  33.1416222  13.0419373  90.2186162  33.9147784
  12.9963319  89.9733958  32.4215718   6.2137451  92.8111949  27.1047340
   6.1586255  92.6456221  26.1635784   5.5883506  93.5187982  27.2609530
   3.5283358  95.1160861  46.4300903   4.3974518  95.2901513  46.0687538
   3.0490109  95.9355278  46.3076632   3.3385696  78.9062835  30.9378595
   2.5718092  78.3521321  31.0835278   3.7496401  78.9784703  31.7992747
  15.1875834 106.8249487  35.8346178  15.8254244 106.7056234  35.1309518
  15.0696677 107.7730331  35.8934130  11.9965540 106.7776915  35.7707702
  11.6584052 106.6617980  34.8828237  12.8655308 106.3768080  35.7508709
  12.4785323 107.9311767  41.7293908  12.4673964 107.5364565  40.8574412
  12.6405962 107.1977839  42.3227679  14.7417102 104.5500941  32.9099386
  15.5280191 104.1320364  32.5589803  15.0055807 105.4547033  33.0781034
  20.1425529 104.4876174  33.8132364  20.8750701 103.9175391  34.0470194
  19.3864885 104.0997774  34.2538870  11.7601649 106.9103415  31.0095707
  11.3959856 106.3834036  31.7208628  12.6168765 106.5201884  30.8362192
  17.6650950  98.1997748  38.2726973  17.3334274  99.0693159  38.0488188
  17.0696563  97.8834032  38.9521003  17.5579613 102.9192834  35.3520323
  16.6496490 102.8508243  35.0579084  17.5067209 103.3964779  36.1802148
  11.6320479 104.3382480  43.2955220  10.8553813 104.8976400  43.2858085
  12.2711042 104.8239263  43.8170090  19.4241259 101.1209273  37.1298197
  18.7815640 101.4141806  36.4837991  18.9196188 101.0062193  37.9351394
  17.0781423 104.8672446  27.8184056  17.9899279 105.0999833  27.6431754
  16.5691070 105.4509490  27.2559135  11.7153261 104.2269680  38.8278906
  12.5614456 104.6509094  38.9713555  11.6551898 103.5703305  39.5217469
  14.8652706 101.8874049  40.4860079  14.6213638 102.6416109  39.9494355
  15.1412637 102.2659396  41.3207326  16.8191169 108.4312661  39.1637345
  17.0308064 109.0744421  38.4871726  16.7720917 107.5974978  38.6959275
  14.4217398 101.0430482  36.0673917  13.5601877 101.3411735  36.3590655
  14.4479833 101.2600881  35.1354950   8.6228215 104.3007581  43.6588497
   7.9926875 104.9823862  43.8923894   8.5164303 104.1890663  42.7141635
  26.0242990 107.6523365  33.6844674  25.2706698 107.0830763  33.5288678
  26.1590531 107.6186030  34.6315308   7.9008958  98.6028347  46.0213748
   7.5075903  98.0494546  46.6961393   8.7175098  98.9138926  46.4120266
  10.8176919 100.0186226  43.6134005  11.5586632 100.6193379  43.5338467
  11.0494841  99.2763864  43.0552047  14.7634082  96.0467329  37.8898287
  14.4198351  96.9368971  37.8137397  15.1313044  95.8568987  37.0267872
  12.3131475 100.8825641  31.4555960  11.4573072 100.4932492  31.2761599
  12.7258427 100.9617602  30.5955746  13.8430622  98.4171984  35.8547520
  13.3395417  98.3802120  35.0415325  14.1361229  99.3264727  35.9144176
  10.0873508  98.5010714  34.8613702  10.9526505  98.3053523  34.5019591
  10.1551017  98.2721066  35.7883058  19.7018638 108.7908295  28.3323895
  18.9248081 108.4519454  27.8879057  20.3810119 108.7960918  27.6578860
  14.5170667 103.9103032  28.2230503  14.2120803 104.2249182  29.0740646
  15.4701110 103.9884452  28.2657836  17.9409945 108.2642276  34.9890503
  17.2833620 108.9541538  35.0770632  18.7450344 108.6538708  35.3324489
   7.6935827 100.7312922  32.2330068   8.2679579 100.5088104  31.5003261
   8.2806809 100.8001617  32.9858670  16.7515404 106.6186649  33.0394445
  17.2647286 107.2516641  33.5416155  17.4016628 106.0187844  32.6737805
   9.9958495  97.6054171  30.9605138   9.3422907  97.2903188  30.3361753
   9.9538969  96.9829911  31.6864961  13.2296235 104.0936104  35.2852785
  12.3118796 104.3151051  35.1274473  13.6456379 104.1682415  34.4264493
  14.0131283 105.4927520  30.4155466  14.7603102 106.0048917  30.1062588
  14.2822872 105.1711573  31.2759859  16.4610120 102.5284636  32.3974255
  15.7232877 102.0162023  32.7284497  16.7136893 102.0885018  31.5857532
  16.5621747  95.3060888  32.9916024  16.8680624  94.4458252  32.7041939
  17.2874352  95.8978509  32.7915018  10.8342827 105.6014681  33.4992215
  10.8891437 104.6488518  33.4234692  10.0234029 105.7574121  33.9833514
   8.7735187 104.2191741  31.2582594   7.9603052 104.5185912  31.6647786
   9.2694181 103.8247430  31.9757076  14.3709399 104.6833566  40.0897488
  14.7258786 104.9105039  40.9491954  15.0181530 105.0151942  39.4674743
  20.1007135 107.8052002  30.7946817  19.9625034 107.9953598  29.8668006
  19.7443354 108.5671384  31.2514868   8.2649262 101.7910097  36.8743829
   8.9048641 101.6498856  36.1766792   7.4326792 101.5044610  36.4982431
  20.1276515 109.8728529  35.8058089  20.5613022 109.7803818  36.6541143
  20.8408096 109.8486029  35.1678105   5.2677878 101.7610422  31.6516816
   5.5284695 102.6755755  31.5425976   6.0895050 101.2934864  31.8013429
   6.7402803 103.1748179  38.8215640   7.4125857 102.9665541  38.1728289
   5.9132590 102.9770265  38.3820873  20.9892065 109.9152229  38.3390974
  21.1827955 110.8198040  38.5850249  20.8892683 109.4559648  39.1729559
  12.6428375  99.8010120  40.8381301  11.9956290 100.5000069  40.7445778
  13.4129391 100.2346264  41.2057549  12.8192510 107.6390885  38.8978121
  13.7484570 107.7902044  38.7247088  12.3983540 107.7274906  38.0426768
   9.7712601 106.1610741  39.0701757  10.4812220 105.5203933  39.0288376
   9.7281909 106.4123636  39.9927938   8.4841535 103.1475959  40.8897397
   7.9478892 102.6966698  41.5418993   7.8958244 103.2821868  40.1467861
   4.2180656 102.2831967  37.9750391   4.1338845 101.6757636  37.2400801
   3.3963363 102.7740985  37.9759888  14.3904370 100.7685530  33.3420586
  14.8873070 100.0155493  33.0221656  13.6191352 100.8049847  32.7763796
  22.2434128 106.4725896  34.9838878  22.2324004 107.3550611  34.6132811
  21.3751507 106.1197447  34.7893415  10.9739339 102.9102913  33.0692271
  10.6037127 102.3573954  33.7573176  11.4698432 102.3061047  32.5167271
  18.8606702 105.3674537  31.4509044  19.3267155 106.2002528  31.3769346
  19.3114203 104.9019518  32.1554302  16.8323365  97.7355124  35.4899945
  15.9186445  97.9659351  35.6582152  17.2616467  97.8193568  36.3413977
  16.6029824 105.9245016  37.9899839  15.9501274 106.1720923  37.3352292
  16.9810204 105.1109154  37.6562316  12.6517397 106.6664827  44.4765876
  11.9758034 106.5658956  45.1468251  13.4745031 106.5104041  44.9401873
   6.3704673 100.3206904  39.3145377   6.4345999 101.1821735  38.9022775
   6.3071793  99.7080906  38.5817735   5.8456945 102.3930037  42.9618411
   6.4728984 102.0107114  43.5755936   4.9884864 102.1744239  43.3274104
   6.1516735 102.2762462  34.8764315   5.4303321 102.8898430  34.7371788
   6.9409991 102.8120227  34.7980961   8.9543049  99.6116889  41.1504966
   9.4777450  99.8579185  41.9131276   8.7355382 100.4436924  40.7308104
  10.1595594 100.5530584  38.8354637   9.8192414  99.7538397  39.2375317
   9.4534600 100.8532295  38.2631470  10.8112065  97.6379896  37.2881960
  11.6338135  97.1640375  37.1660850  11.0550129  98.4170380  37.7880646
  13.5951423 101.3713304  28.5203194  13.8115037 102.2537942  28.2192022
  13.1145490 100.9799517  27.7908836   8.3350644 104.3299017  35.0973939
   8.1895225 104.6439320  35.9898220   7.8575848 104.9483917  34.5444837
  10.1947027 101.3201565  35.1454828  10.1808596 100.4242658  34.8087126
  10.9119455 101.3272229  35.7793114  12.0473158 101.7538905  37.1907956
  11.7890936 102.6755976  37.1892286  11.5158198 101.3569340  37.8808420
   9.5983923 100.2015945  30.4142398   9.7199834  99.2732591  30.6133286
   9.3085965 100.2154631  29.5020714  12.4675113  97.8870856  33.5509118
  12.4896810  97.9510189  32.5961098  12.8843172  97.0475364  33.7449624
  22.8458738 107.6226115  31.5888341  23.2889884 106.8733440  31.1907464
  21.9685248 107.6136252  31.2062073   9.0825003 101.7147943  44.6232331
   9.1313158 102.5910065  44.2410100   9.6247517 101.1725336  44.0503974
  19.6877723 109.1081532  41.2166196  19.7375728 108.9431540  42.1581719
  19.5791647 108.2408791  40.8264077  16.9781486 105.0912460  42.5325503
  17.8791348 104.9518925  42.2409501  17.0529460 105.2566915  43.4723681
  11.3124291 102.4679315  41.3778689  10.4427600 102.7612881  41.1061278
  11.5483771 103.0519760  42.0985953  22.3891602 109.0931354  33.9810788
  23.2238494 109.5321158  34.1448349  22.5250731 108.6170007  33.1619034
  19.4383108 106.6511088  39.9288276  19.9137230 106.8438735  39.1207127
  18.5148674 106.7070274  39.6831660  14.0163325  98.6858932  38.8944110
  14.5345269  99.4219959  38.5690598  13.6618458  98.9922925  39.7290869
  14.2675919  95.1059214  34.4145006  14.5477673  94.4382404  35.0405433
  15.0526526  95.2988310  33.9019670  18.1384777 103.5276848  38.1616582
  19.0902200 103.6274946  38.1828806  17.9688228 102.7355117  38.6714666
  16.1599157 100.6132432  38.3475983  15.5649089 100.8937444  37.6522471
  15.8748854 101.1026333  39.1192724  20.6172855 106.7482968  37.2758881
  20.5849175 105.8098969  37.4618565  21.2273479 106.8267005  36.5424706
  20.7667344 103.5394012  37.3217164  20.2506392 102.7552468  37.1347093
  21.6507292 103.2112728  37.4863684  18.4278071  97.2835027  33.2812977
  18.2302892  96.9750115  34.1656309  19.0377776  98.0096666  33.4110907
  26.4349405 107.8098975  36.4164918  27.1652793 107.5484263  36.9772621
  25.8256350 107.0727697  36.4566986  24.5164702 105.9506838  37.0139369
  23.7897866 105.8162803  36.4055861  24.1011989 106.2583666  37.8196087
  12.2561169  98.0865887  29.4085212  11.4461897  97.7412972  29.7840458
  12.9445586  97.7773431  29.9972823  14.1851717  97.1643934  31.0309508
  14.7382756  97.5839387  31.6899532  14.4221804  96.2379682  31.0732464
  10.2084816 103.1531008  46.8112272  10.1081543 104.1025365  46.7424363
   9.9906358 102.8249247  45.9388342  17.5630524  99.2744459  30.5388173
  16.9829193  99.9329263  30.1566225  17.2966457  98.4521804  30.1275590
  16.0134091  98.6749517  32.7409493  16.5133869  98.7866051  31.9323812
  16.6569699  98.3710570  33.3810301  16.3455402 101.4344550  29.5944521
  15.4581257 101.7194200  29.3764716  16.7609391 101.2738313  28.7471798
  19.6969938 101.4591071  33.3098860  20.4730329 101.9487523  33.5823477
  18.9718073 101.8849125  33.7670730  22.1342497 102.1718690  34.3672801
  22.7286988 101.9314426  33.6566109  22.2069081 101.4525820  34.9946337
  16.3196426 106.9499086  29.8094811  16.2631627 107.4067637  28.9702444
  16.8724768 106.1889770  29.6317654  20.1301232 102.7388817  30.6344931
  19.8738166 102.3385453  31.4653138  19.5054100 103.4532611  30.5095070
  24.4413570 105.4784891  33.1416222  23.8813128 105.5478080  33.9147784
  23.8357073 105.3025875  32.4215718  17.0531205 108.1403867  27.1047340
  16.9980009 107.9748138  26.1635784  16.4277261 108.8479900  27.2609530
   1.8423720 103.3771931  40.9308763   2.4882584 102.8670885  41.4195988
   1.6340871 104.1140613  41.5052188  10.3627331  97.6411976  26.6832659
  10.3506001  98.5853816  26.8400930  11.2550753  97.4582121  26.3892120
  14.1779450  94.2354752  30.9378595  13.4111846  93.6813239  31.0835278
  14.5890155  94.3076621  31.7992747   6.1821211 100.5239548  45.0283777
   7.0452673 100.1676353  45.2387101   5.6086622 100.1853443  45.7159181
  25.6027836 111.3759247  37.8898287  25.2592105 112.2660889  37.8137397
  25.9706799 111.1860905  37.0267872  27.4015502 110.6352806  32.9916024
  27.7074378 109.7750170  32.7041939  28.1268106 111.2270426  32.7915018
  25.1069673 110.4351132  34.4145006  25.3871427 109.7674321  35.0405433
  25.8920280 110.6280228  33.9019670  29.2671825 112.6126945  33.2812977
  29.0696646 112.3042033  34.1656309  29.8771531 113.3388584  33.4110907
  25.0173205 109.5646670  30.9378595  24.2505601 109.0105157  31.0835278
  25.4283910 109.6368539  31.7992747   4.3455482  54.0001652  20.4089980
   3.5919191  53.4309050  20.2533985   4.4803023  53.9664317  21.3560615
   0.7104095  55.4409641  20.7056095   1.5450986  55.8799445  20.8693655
   0.8463223  54.9648294  19.8864341   4.7561897  54.1577262  23.1410225
   5.4865286  53.8962550  23.7017928   4.1468843  53.4205984  23.1812293
   2.8377194  52.2985125  23.7384676   2.1110358  52.1641090  23.1301167
   2.4224481  52.6061953  24.5441394   0.4554989  48.5196977  21.0918107
   1.0499480  48.2792713  20.3811416   0.5281573  47.8004108  21.7191644
   2.7626062  51.8263178  19.8661529   2.2025620  51.8956367  20.6393091
   2.1569565  51.6504162  19.1461025   4.3482081  68.5019692  22.5591484
   4.9860490  68.3826439  21.8554824   4.2302923  69.4500536  22.6179437
   1.1571787  68.4547120  22.4953009   0.8190298  68.3388185  21.6073544
   2.0261555  68.0538285  22.4754015   1.6391570  69.6081972  28.4539215
   1.6280211  69.2134770  27.5819718   1.8012209  68.8748044  29.0472986
   3.9023349  66.2271146  19.6344692   4.6886438  65.8090569  19.2835109
   4.1662053  67.1317238  19.8026341   9.3031776  66.1646379  20.5377671
  10.0356948  65.5945596  20.7715500   8.5471132  65.7767979  20.9784177
   0.9207896  68.5873620  17.7341013   0.5566103  68.0604241  18.4453935
   1.7775012  68.1972089  17.5607499   6.8257196  59.8767953  24.9972280
   6.4940521  60.7463364  24.7733495   6.2302810  59.5604237  25.6766310
   3.3188716  72.0780499  24.3968192   3.0189439  72.9805538  24.2883999
   2.9739776  71.8112682  25.2489345   6.7185860  64.5963039  22.0765630
   5.8102737  64.5278448  21.7824391   6.6673456  65.0734984  22.9047455
   8.5847506  62.7979478  23.8543504   7.9421886  63.0912011  23.2083298
   8.0802435  62.6832398  24.6596700   6.2387670  66.5442651  14.5429363
   7.1505526  66.7770037  14.3677060   5.7297317  67.1279695  13.9804441
   4.5228438  70.9667279  28.1790655   4.9311794  70.5249689  27.4345288
   3.8005699  70.3919906  28.4324848   0.8759508  65.9039885  25.5524212
   1.7220703  66.3279299  25.6958861   0.8158145  65.2473510  26.2462775
   4.8457252  71.5268469  21.9342944   4.2166115  71.6914183  21.2319012
   4.4582914  71.9410079  22.7053908   8.7246484  72.4622907  19.2887308
   8.0397522  72.8421808  18.7384341   8.8090333  73.0718234  20.0219256
   4.0258953  63.5644254  27.2105386   3.7819885  64.3186314  26.6739662
   4.3018883  63.9429601  28.0452633   5.9797416  70.1082866  25.8882652
   6.1914311  70.7514626  25.2117033   5.9327164  69.2745183  25.4204582
   3.5823645  62.7200687  22.7919224   2.7208124  63.0181940  23.0835961
   3.6086079  62.9371086  21.8600256   7.0943244  72.9854821  24.0605009
   7.9160687  72.5835009  23.7787690   7.0905646  72.8823056  25.0121125
  15.1849237  69.3293570  20.4089980  14.4312945  68.7600968  20.2533985
  15.3196778  69.2956234  21.3560615   2.2016341  74.8230539  30.2145042
   1.7580195  74.0366917  29.8965946   2.8633555  75.0109689  29.5488933
   4.2997579  75.1033339  28.2426443   4.2816055  75.9242220  27.7506712
   5.2217499  74.9787414  28.4676584   3.9240328  57.7237534  24.6143593
   3.5804598  58.6139176  24.5382704   4.2919291  57.5339192  23.7513178
   1.4737722  62.5595846  18.1801267   0.6179318  62.1702696  18.0006905
   1.8864674  62.6387807  17.3201052   3.0036869  60.0942189  22.5792826
   2.5001664  60.0572324  21.7660632   3.2967476  61.0034932  22.6389483
   8.8624885  70.4678500  15.0569202   8.0854328  70.1289659  14.6124364
   9.5416366  70.4731123  14.3824167   3.6776914  65.5873237  14.9475809
   3.3727050  65.9019387  15.7985953   4.6307356  65.6654657  14.9903142
   7.1016192  69.9412481  21.7135810   6.4439866  70.6311743  21.8015938
   7.9056591  70.3308913  22.0569796   5.9121651  68.2956854  19.7639751
   6.4253533  68.9286846  20.2661461   6.5622875  67.6958049  19.3983111
   2.3902482  65.7706309  22.0098092   1.4725043  65.9921256  21.8519780
   2.8062625  65.8452620  21.1509799   3.1737529  67.1697725  17.1400772
   3.9209348  67.6819122  16.8307894   3.4429119  66.8481778  18.0005166
   6.6783447  73.2762855  17.8918894   6.2245774  72.4353765  17.9484085
   6.0477414  73.9124254  18.2293674   5.6216367  64.2054841  19.1219562
   4.8839123  63.6932228  19.4529804   5.8743140  63.7655223  18.3102838
   5.1216386  75.1139352  18.8268712   5.4139361  75.6744409  18.1081078
   5.6315007  75.4067913  19.5821871   5.7227994  56.9831093  19.7161331
   6.0286871  56.1228457  19.4287246   6.4480599  57.5748714  19.5160325
   3.5315645  66.3603771  26.8142795   3.8865033  66.5875244  27.6737260
   4.1787777  66.6922147  26.1920050   9.2613382  69.4822206  17.5192124
   9.1231281  69.6723802  16.5913313   8.9049601  70.2441589  17.9760175
   9.2882762  71.5498734  22.5303395   9.7219268  71.4574023  23.3786449
  10.0014343  71.5256234  21.8923411   3.0210657  75.1500828  24.0636496
   3.0747679  75.7191764  24.8314212   2.1525438  75.3202713  23.6990533
  10.1498311  71.5922434  25.0636281  10.3434201  72.4968245  25.3095556
  10.0498930  71.1329853  25.8974866   1.8034622  61.4780325  27.5626608
   1.1562537  62.1770274  27.4691084   2.5735638  61.9116469  27.9302856
   5.2113420  71.7429177  30.6377161   5.0598926  71.5139729  29.7207245
   5.2018100  72.6999778  30.6508506   1.9798756  69.3161090  25.6223428
   2.9090816  69.4672249  25.4492395   1.5589786  69.4045110  24.7672074
   2.3292303  72.7193357  20.7810803   1.9942136  72.6794127  21.6768453
   1.8296249  72.0538073  20.3081213   6.9205627  74.7748299  28.7153643
   6.8618173  74.0907520  28.0484226   7.3225145  75.5167289  28.2634269
   6.9223034  72.7387883  26.9467623   6.0349813  72.4013805  27.0694022
   7.4921585  72.0070915  27.1836388   3.5510617  62.4455735  20.0665893
   4.0479317  61.6925698  19.7466963   2.7797599  62.4820052  19.5009102
  11.4040375  68.1496101  21.7084184  11.3930251  69.0320816  21.3378117
  10.5357754  67.7967652  21.5138721   2.9122871  77.2976170  26.0687025
   3.6250843  77.9323635  25.9962926   2.4212900  77.3940036  25.2527026
   4.6340398  71.2027422  17.6404316   3.6996677  71.3228885  17.4709021
   4.8117066  70.2999889  17.3764326   8.0212949  67.0444742  18.1754350
   8.4873401  67.8772733  18.1014653   8.4720450  66.5789723  18.8799609
   6.0889180  73.3888563  15.1740502   6.3649024  73.2745158  16.0834377
   5.2193679  72.9906048  15.1352676   5.9929612  59.4125329  22.2145252
   5.0792692  59.6429556  22.3827459   6.4222713  59.4963773  23.0659284
   5.7636070  67.6015221  24.7145146   5.1107521  67.8491128  24.0597599
   6.1416450  66.7879359  24.3807623   1.8123643  68.3435032  31.2011183
   1.1364280  68.2429161  31.8713558   2.6351277  68.1874245  31.6647180
   0.5546426  79.6501959  25.4368799   1.1064734  79.8133581  26.2017884
   0.8952620  80.2406397  24.7648824   5.4057301  74.4763217  31.2917453
   5.9497205  75.0893175  30.7972408   4.8244145  75.0342795  31.8084466
   3.6914814  77.5983935  22.4232481   3.5665953  76.7973675  21.9143427
   4.3493905  78.0930128  21.9346451   5.7549722  75.3992955  24.0512031
   4.8080057  75.2798306  23.9790358   6.1032495  74.5115453  24.1338293
   2.7596155  75.1945671  20.2516383   2.6121118  74.2662378  20.4323953
   3.5849649  75.2165762  19.7673459   6.3630277  76.0174230  21.3381256
   7.2876825  75.8117091  21.2005707   6.1945580  75.7690631  22.2470598
   2.7557670  63.0483509  15.2448501   2.9721284  63.9308147  14.9437329
   2.2751737  62.6569722  14.5154143   1.2079405  63.4309110  23.9153262
   0.9497182  64.3526181  23.9137593   0.6764445  63.0339545  24.6053726
   6.1525593  76.5359897  16.6943348   6.3262471  75.9706320  15.9417200
   6.6454485  77.3360792  16.5122837   1.6281360  59.5641061  20.2754425
   1.6503057  59.6280394  19.3206404   2.0449419  58.7245569  20.4694931
  12.0064984  69.2996320  18.3133647  12.4496131  68.5503645  17.9152771
  11.1291495  69.2906457  17.9307379   9.0392189  73.3026367  15.3227577
   9.5643513  73.6413640  14.5976897   8.9514541  72.3673382  15.1390711
   0.7012238  77.2160441  27.4517453   1.0099364  76.9709588  28.3240153
   1.4987720  77.4207079  26.9636323   8.7286095  73.9359271  30.6278775
   7.9381639  73.9183410  30.0883274   8.4919450  74.4747564  31.3827811
   8.8483970  70.7851737  27.9411503   8.8981975  70.6201745  28.8827026
   8.7397893  69.9178996  27.5509384   6.1387732  66.7682665  29.2570810
   7.0397595  66.6289130  28.9654808   6.2135707  66.9337120  30.1968987
  10.3502167  73.2048679  28.1853525  10.0586975  73.5678659  29.0216986
   9.7374298  72.4915687  28.0066857  11.5497849  70.7701558  20.7056095
  12.3844741  71.2091363  20.8693655  11.6856978  70.2940212  19.8864341
   8.5989355  68.3281293  26.6533583   9.0743477  68.5208940  25.8452434
   7.6754920  68.3840479  26.4076966   3.1769572  60.3629137  25.6189417
   3.6951515  61.0990164  25.2935905   2.8224704  60.6693130  26.4536176
   3.4282166  56.7829419  21.1390313   3.7083920  56.1152608  21.7650740
   4.2132773  56.9758515  20.6264977   7.2991024  65.2047053  24.8861888
   8.2508447  65.3045151  24.9074112   7.1294475  64.4125322  25.3959973
   5.3205404  62.2902637  25.0721289   4.7255336  62.5707649  24.3767778
   5.0355100  62.7796538  25.8438030   9.7779102  68.4253173  24.0004188
   9.7455422  67.4869174  24.1863872  10.3879726  68.5037210  23.2670013
   9.9273590  65.2164217  24.0462471   9.4112639  64.4322673  23.8592400
  10.8113539  64.8882933  24.2108991   7.5884317  58.9605232  20.0058284
   7.3909138  58.6520320  20.8901616   8.1984023  59.6866871  20.1356214
  15.5955652  69.4869180  23.1410225  16.3259040  69.2254468  23.7017928
  14.9862597  68.7497902  23.1812293  13.6770949  67.6277043  23.7384676
  12.9504112  67.4933007  23.1301167  13.2618236  67.9353871  24.5441394
   1.5001125  71.3466972  31.5032049   2.4204135  71.5245571  31.6972095
   1.4650708  70.4023018  31.3511748   1.4167416  59.7636092  16.1330518
   0.6068144  59.4183177  16.5085765   2.1051833  59.4543636  16.7218130
   3.3457964  58.8414139  17.7554815   3.8989003  59.2609592  18.4144838
   3.5828050  57.9149887  17.7977771   6.7236771  60.9514664  17.2633479
   6.1435440  61.6099468  16.8811532   6.4572704  60.1292009  16.8520897
   5.1740337  60.3519722  19.4654800   5.6740116  60.4636256  18.6569119
   5.8175945  60.0480775  20.1055608   5.5061649  63.1114755  16.3189828
   4.6187504  63.3964405  16.1010022   5.9215638  62.9508518  15.4717104
   8.8576185  63.1361275  20.0344167   9.6336575  63.6257728  20.3068784
   8.1324319  63.5619330  20.4916036  11.2948744  63.8488895  21.0918107
  11.8893235  63.6084631  20.3811416  11.3675327  63.1296025  21.7191644
   5.4802673  68.6269290  16.5340118   5.4237874  69.0837842  15.6947750
   6.0331015  67.8659975  16.3562961   9.2907479  64.4159022  17.3590237
   9.0344413  64.0155658  18.1898445   8.6660347  65.1302816  17.2340376
  13.6019817  67.1555096  19.8661529  13.0419375  67.2248285  20.6393091
  12.9963320  66.9796080  19.1461025   6.2137452  69.8174072  13.8292647
   6.1586256  69.6518343  12.8881091   5.5883507  70.5250105  13.9854837
   3.5283359  72.1222984  33.1546210   4.3974519  72.2963636  32.7932845
   3.0490111  72.9417400  33.0321939   3.3385697  55.9124957  17.6623902
   2.5718093  55.3583444  17.8080584   3.7496402  55.9846826  18.5238054
  15.1875835  83.8311609  22.5591484  15.8254245  83.7118357  21.8554824
  15.0696678  84.7792453  22.6179437  11.9965541  83.7839038  22.4953009
  11.6584053  83.6680102  21.6073544  12.8655309  83.3830203  22.4754015
  12.4785324  84.9373889  28.4539215  12.4673965  84.5426688  27.5819718
  12.6405964  84.2039962  29.0472986   9.1992585  87.7211001  27.4018399
   8.9082451  88.6256632  27.2865065   9.8349570  87.7627529  28.1162468
  10.1248792  85.0987850  23.9919758  10.7212365  84.8743872  23.2776721
  10.1823764  84.3572595  24.5945206  14.7417103  81.5563063  19.6344692
  15.5280193  81.1382487  19.2835109  15.0055808  82.4609156  19.8026341
  20.1425531  81.4938297  20.5377671  20.8750703  80.9237513  20.7715500
  19.3864886  81.1059897  20.9784177  11.7601650  83.9165538  17.7341013
  11.3959858  83.3896159  18.4453935  12.6168766  83.5264007  17.5607499
  17.6650951  75.2059871  24.9972280  17.3334276  76.0755282  24.7733495
  17.0696564  74.8896155  25.6766310  14.1582470  87.4072417  24.3968192
  13.8583194  88.3097455  24.2883999  13.8133530  87.1404600  25.2489345
   7.6094952  83.8586213  20.4304897   6.6845448  83.7262428  20.6382588
   7.8579365  84.6380433  20.9274839  17.5579614  79.9254957  22.0765630
  16.6496492  79.8570365  21.7824391  17.5067210  80.4026902  22.9047455
  11.6320480  81.3444602  30.0200527  10.8553814  81.9038523  30.0103391
  12.2711043  81.8301385  30.5415397  19.4241261  78.1271395  23.8543504
  18.7815641  78.4203928  23.2083298  18.9196189  78.0124316  24.6596700
  17.0781424  81.8734568  14.5429363  17.9899280  82.1061955  14.3677060
  16.5691071  82.4571613  13.9804441   9.8866852  84.1530056  29.5818494
  10.6281537  84.6915100  29.3053317   9.1803838  84.7796345  29.7390046
  15.3622192  86.2959196  28.1790655  15.7705548  85.8541607  27.4345288
  14.6399454  85.7211824  28.4324848  11.7153262  81.2331803  25.5524212
  12.5614457  81.6571217  25.6958861  11.6551900  80.5765427  26.2462775
  15.6851007  86.8560387  21.9342944  15.0559869  87.0206101  21.2319012
  15.2976669  87.2701996  22.7053908  19.5640239  87.7914825  19.2887308
  18.8791277  88.1713726  18.7384341  19.6484088  88.4010151  20.0219256
  14.8652707  78.8936171  27.2105386  14.6213639  79.6478232  26.6739662
  15.1412638  79.2721519  28.0452633  16.8191170  85.4374784  25.8882652
  17.0308065  86.0806544  25.2117033  16.7720918  84.6037100  25.4204582
  14.4217399  78.0492604  22.7919224  13.5601878  78.3473858  23.0835961
  14.4479834  78.2663003  21.8600256  11.2378969  86.5934795  19.1993029
  11.7017314  86.8722498  18.4097652  10.9735767  85.6918240  19.0166120
   8.1303050  86.1406276  22.1372793   8.7004407  86.5693545  21.4990277
   8.7211161  85.8588861  22.8356978   8.6228216  81.3069704  30.3833804
   7.9926877  81.9885985  30.6169201   8.5164304  81.1952786  29.4386942
  17.9336998  88.3146739  24.0605009  18.7554442  87.9126926  23.7787690
  17.9299401  88.2114973  25.0121125  11.6993602  87.8630782  26.2165719
  11.7638034  88.3251190  27.0523891  10.9904525  87.2328147  26.3448029
   2.2010892  81.2271990  23.7414719   2.4518930  82.1119000  24.0072295
   2.7370440  81.0476592  22.9689811  26.0242991  84.6585488  20.4089980
  25.2706700  84.0892886  20.2533985  26.1590532  84.6248152  21.3560615
   7.9008959  75.6090470  32.7459055   7.5075904  75.0556668  33.4206699
   8.7175099  75.9201048  33.1365572  10.8176920  77.0248349  30.3379311
  11.5586633  77.6255502  30.2583774  11.0494843  76.2825987  29.7797354
   5.9618258  82.2104716  28.6157541   5.8471773  81.3089973  28.9164640
   5.1062776  82.4568413  28.2642358  13.0410096  90.1522456  30.2145042
  12.5973950  89.3658835  29.8965946  13.7027309  90.3401607  29.5488933
   7.7997217  91.6818258  24.7405720   8.3504642  91.5535321  23.9682714
   6.9608693  91.9813147  24.3900613  15.1391334  90.4325256  28.2426443
  15.1209809  91.2534137  27.7506712  16.0611254  90.3079332  28.4676584
  11.5964388  87.9469386  29.0849951  12.1292725  87.1857674  28.8549259
  11.0678469  87.6543038  29.8274106  14.7634083  73.0529452  24.6143593
  14.4198352  73.9431094  24.5382704  15.1313045  72.8631109  23.7513178
  12.3131477  77.8887764  18.1801267  11.4573073  77.4994614  18.0006905
  12.7258428  77.9679725  17.3201052  13.8430623  75.4234107  22.5792826
  13.3395419  75.3864242  21.7660632  14.1361230  76.3326850  22.6389483
  10.0873509  75.5072837  21.5859008  10.9526506  75.3115645  21.2264898
  10.1551018  75.2783188  22.5128365  19.7018640  85.7970418  15.0569202
  18.9248082  85.4581577  14.6124364  20.3810121  85.8023041  14.3824167
  14.5170669  80.9165155  14.9475809  14.2120804  81.2311304  15.7985953
  15.4701111  80.9946575  14.9903142  17.9409947  85.2704399  21.7135810
  17.2833621  85.9603660  21.8015938  18.7450346  85.6600831  22.0569796
   7.6935828  77.7375045  18.9575375   8.2679580  77.5150226  18.2248568
   8.2806811  77.8063739  19.7103976  16.7515405  83.6248772  19.7639751
  17.2647287  84.2578763  20.2661461  17.4016629  83.0249967  19.3983111
   9.9958496  74.6116294  17.6850444   9.3422908  74.2965311  17.0607059
   9.9538970  73.9892034  18.4110267  13.2296236  81.0998227  22.0098092
  12.3118798  81.3213174  21.8519780  13.6456380  81.1744538  21.1509799
  14.0131284  82.4989643  17.1400772  14.7603103  83.0111040  16.8307894
  14.2822874  82.1773695  18.0005166  17.5177202  88.6054773  17.8918894
  17.0639529  87.7645683  17.9484085  16.8871168  89.2416171  18.2293674
  16.4610121  79.5346759  19.1219562  15.7232878  79.0224145  19.4529804
  16.7136895  79.0947141  18.3102838  15.9610141  90.4431270  18.8268712
  16.2533115  91.0036327  18.1081078  16.4708761  90.7359831  19.5821871
  16.5621748  72.3123011  19.7161331  16.8680625  71.4520374  19.4287246
  17.2874353  72.9040631  19.5160325  10.8342828  82.6076804  20.2237522
  10.8891438  81.6550640  20.1479998  10.0234030  82.7636243  20.7078820
   8.7735188  81.2253864  17.9827901   7.9603054  81.5248034  18.3893093
   9.2694182  80.8309553  18.7002383  14.3709400  81.6895688  26.8142795
  14.7258787  81.9167161  27.6737260  15.0181531  82.0214065  26.1920050
  20.1007137  84.8114124  17.5192124  19.9625035  85.0015720  16.5913313
  19.7443356  85.5733507  17.9760175   8.2649263  78.7972219  23.5989136
   8.9048642  78.6560978  22.9012099   7.4326793  78.5106733  23.2227738
  20.1276516  86.8790651  22.5303395  20.5613023  86.7865940  23.3786449
  20.8408097  86.8548152  21.8923411  13.8604411  90.4792745  24.0636496
  13.9141434  91.0483682  24.8314212  12.9919193  90.6494630  23.6990533
   5.2677879  78.7672544  18.3762123   5.5284697  79.6817878  18.2671283
   6.0895052  78.2996987  18.5258735   6.7402805  80.1810302  25.5460947
   7.4125858  79.9727664  24.8973596   5.9132591  79.9832387  25.1066179
  20.9892066  86.9214352  25.0636281  21.1827956  87.8260162  25.3095556
  20.8892684  86.4621771  25.8974866  12.6428377  76.8072242  27.5626608
  11.9956292  77.5062192  27.4691084  13.4129392  77.2408386  27.9302856
  16.0507175  87.0721095  30.6377161  15.8992681  86.8431646  29.7207245
  16.0411854  88.0291696  30.6508506  12.8192511  84.6453007  25.6223428
  13.7484571  84.7964167  25.4492395  12.3983541  84.7337028  24.7672074
  11.6180843  88.6703672  23.3921965  11.4791928  88.3022456  24.2647903
  10.8295439  89.1851311  23.2205923  13.1686058  88.0485274  20.7810803
  12.8335891  88.0086044  21.6768453  12.6690004  87.3829990  20.3081213
   7.1430302  83.4552904  26.3063384   7.0050100  82.7233143  26.9074923
   8.0535225  83.3661805  26.0247572   9.7712603  83.1672864  25.7947064
  10.4812221  82.5266056  25.7533682   9.7281911  83.4185759  26.7173245
  17.7599381  90.1040217  28.7153643  17.7011927  89.4199437  28.0484226
  18.1618900  90.8459207  28.2634269   8.4841537  80.1538082  27.6142703
   7.9478894  79.7028820  28.2664300   7.8958245  80.2883991  26.8713168
  17.7616788  88.0679801  26.9467623  16.8743567  87.7305723  27.0694022
  18.3315340  87.3362832  27.1836388   4.2180658  79.2894089  24.6995698
   4.1338846  78.6819759  23.9646108   3.3963364  79.7803108  24.7005194
  11.2917942  92.7281253  23.9128866  11.2188113  93.5336225  24.4248171
  10.8495335  92.9273219  23.0876887  14.3904372  77.7747653  20.0665893
  14.8873071  77.0217615  19.7466963  13.6191353  77.8111970  19.5009102
  22.2434129  83.4788018  21.7084184  22.2324005  84.3612734  21.3378117
  21.3751508  83.1259569  21.5138721  13.7516625  92.6268087  26.0687025
  14.4644598  93.2615552  25.9962926  13.2606654  92.7231953  25.2527026
  15.4734152  86.5319340  17.6404316  14.5390431  86.6520803  17.4709021
  15.6510821  85.6291807  17.3764326  10.9739340  79.9165036  19.7937577
  10.6037128  79.3636076  20.4818483  11.4698433  79.3123169  19.2412578
  18.8606704  82.3736659  18.1754350  19.3267156  83.2064651  18.1014653
  19.3114204  81.9081641  18.8799609   8.8028539  90.3762531  26.8892595
   9.5037998  91.0099014  27.0421990   8.3323654  90.7177262  26.1288235
  16.9282935  88.7180481  15.1740502  17.2042779  88.6037075  16.0834377
  16.0587433  88.3197966  15.1352676  16.8323366  74.7417246  22.2145252
  15.9186446  74.9721473  22.3827459  17.2616468  74.8255690  23.0659284
  16.6029825  82.9307138  24.7145146  15.9501275  83.1783046  24.0597599
  16.9810205  82.1171277  24.3807623  12.6517398  83.6726949  31.2011183
  11.9758035  83.5721079  31.8713558  13.4745032  83.5166163  31.6647180
  11.3940181  94.9793877  25.4368799  11.9458489  95.1425498  26.2017884
  11.7346374  95.5698315  24.7648824   6.3704674  77.3269027  26.0390684
   6.4346001  78.1883858  25.6268081   6.3071794  76.7143028  25.3063042
   5.8456947  79.3992159  29.6863718   6.4728985  79.0169237  30.3001242
   4.9884865  79.1806361  30.0519410  16.2451055  89.8055134  31.2917453
  16.7890959  90.4185093  30.7972408  15.6637900  90.3634713  31.8084466
  14.5308568  92.9275852  22.4232481  14.4059708  92.1265592  21.9143427
  15.1887659  93.4222046  21.9346451   6.1516736  79.2824585  21.6009621
   5.4303322  79.8960553  21.4617095   6.9409992  79.8182350  21.5226267
  16.5943476  90.7284872  24.0512031  15.6473812  90.6090224  23.9790358
  16.9426250  89.8407371  24.1338293   8.9543050  76.6179011  27.8750273
   9.4777452  76.8641308  28.6376582   8.7355383  77.4499046  27.4553410
  13.5989910  90.5237589  20.2516383  13.4514872  89.5954296  20.4323953
  14.4243403  90.5457679  19.7673459  17.2024032  91.3466147  21.3381256
  18.1270579  91.1409009  21.2005707  17.0339335  91.0982549  22.2470598
  10.1595595  77.5592707  25.5599944   9.8192415  76.7600520  25.9620623
   9.4534601  77.8594417  24.9876777  10.8112067  74.6442019  24.0127267
  11.6338136  74.1702497  23.8906157  11.0550130  75.4232503  24.5125953
  13.5951424  78.3775426  15.2448501  13.8115038  79.2600064  14.9437329
  13.1145491  77.9861640  14.5154143   8.3350645  81.3361140  21.8219245
   8.1895226  81.6501443  22.7143527   7.8575849  81.9546040  21.2690144
  10.1947028  78.3263688  21.8700135  10.1808597  77.4304781  21.5332433
  10.9119456  78.3334351  22.5038421  12.0473159  78.7601028  23.9153262
  11.7890937  79.6818098  23.9137593  11.5158199  78.3631462  24.6053726
  16.9919348  91.8651815  16.6943348  17.1656225  91.2998237  15.9417200
  17.4848239  92.6652710  16.5122837   2.8096308  83.8766484  24.7606906
   2.2649776  84.6526292  24.8927181   3.6875657  84.2237288  24.6026028
   9.5983924  77.2078068  17.1387705   9.7199835  76.2794714  17.3378592
   9.3085967  77.2216754  16.2266020  12.4675115  74.8932978  20.2754425
  12.4896811  74.9572311  19.3206404  12.8843174  74.0537487  20.4694931
  22.8458739  84.6288238  18.3133647  23.2889885  83.8795563  17.9152771
  21.9685249  84.6198374  17.9307379   3.5962329  83.0036380  27.6537063
   2.8544066  83.1519016  28.2401694   3.2755074  83.2644646  26.7903813
  19.8785943  88.6318285  15.3227577  20.4037268  88.9705558  14.5976897
  19.7908296  87.6965300  15.1390711  11.5405992  92.5452358  27.4517453
  11.8493119  92.3001505  28.3240153  12.3381474  92.7498997  26.9636323
   9.0825004  78.7210065  31.3477637   9.1313159  79.5972188  30.9655407
   9.6247518  78.1787458  30.7749281  19.5679849  89.2651188  30.6278775
  18.7775393  89.2475327  30.0883274  19.3313204  89.8039482  31.3827811
  19.6877725  86.1143655  27.9411503  19.7375729  85.9493662  28.8827026
  19.5791648  85.2470914  27.5509384  16.9781487  82.0974583  29.2570810
  17.8791350  81.9581048  28.9654808  17.0529461  82.2629038  30.1968987
  11.3124292  79.4741438  28.1023996  10.4427602  79.7675004  27.8306585
  11.5483773  80.0581883  28.8231260  21.1895921  88.5340596  28.1853525
  20.8980730  88.8970577  29.0216986  20.5768053  87.8207605  28.0066857
  22.3891604  86.0993476  20.7056095  23.2238495  86.5383280  20.8693655
  22.5250732  85.6232129  19.8864341  19.4383110  83.6573211  26.6533583
  19.9137231  83.8500857  25.8452434  18.5148675  83.7132397  26.4076966
  14.0163326  75.6921055  25.6189417  14.5345270  76.4282081  25.2935905
  13.6618459  75.9985048  26.4536176  14.2675920  72.1121337  21.1390313
  14.5477674  71.4444526  21.7650740  15.0526527  72.3050433  20.6264977
  18.1384779  80.5338971  24.8861888  19.0902201  80.6337069  24.9074112
  17.9688229  79.7417240  25.3959973  16.1599158  77.6194554  25.0721289
  15.5649090  77.8999567  24.3767778  15.8748855  78.1088455  25.8438030
  20.6172856  83.7545091  24.0004188  20.5849176  82.8161091  24.1863872
  21.2273480  83.8329127  23.2670013  20.7667345  80.5456134  24.0462471
  20.2506394  79.7614591  23.8592400  21.6507293  80.2174851  24.2108991
  18.4278072  74.2897150  20.0058284  18.2302893  73.9812238  20.8901616
  19.0377777  75.0158789  20.1356214  26.4349406  84.8161098  23.1410225
  27.1652795  84.5546386  23.7017928  25.8256352  84.0789820  23.1812293
  24.5164703  82.9568960  23.7384676  23.7897867  82.8224925  23.1301167
  24.1011990  83.2645789  24.5441394  12.3394880  86.6758890  31.5032049
  13.2597889  86.8537489  31.6972095  12.3044463  85.7314935  31.3511748
   5.3356952  84.5859925  24.1454830   5.5542962  85.5177032  24.1642864
   5.7482726  84.2267899  24.9309634  12.2561170  75.0928010  16.1330518
  11.4461898  74.7475095  16.5085765  12.9445587  74.7835554  16.7218130
  14.1851718  74.1706057  17.7554815  14.7382757  74.5901510  18.4144838
  14.4221805  73.2441805  17.7977771  10.2084818  80.1593130  33.5357579
  10.1081545  81.1087487  33.4669670   9.9906360  79.8311369  32.6633649
  17.5630525  76.2806582  17.2633479  16.9829195  76.9391386  16.8811532
  17.2966458  75.4583926  16.8520897  16.0134092  75.6811640  19.4654800
  16.5133870  75.7928174  18.6569119  16.6569700  75.3772692  20.1055608
  10.0716088  83.5890269  32.3522641   9.5883169  84.3890629  32.5586530
  10.1577027  83.5998214  31.3990085   5.9989425  87.4794804  24.3891074
   6.9532679  87.4478746  24.3221006   5.8001949  87.0185428  25.2041300
   6.5888807  86.0495920  26.9561872   7.4081696  86.5439999  26.9796709
   6.8625615  85.1327888  26.9279440  16.3455404  78.4406672  16.3189828
  15.4581259  78.7256323  16.1010022  16.7609393  78.2800436  15.4717104
  19.6969940  78.4653193  20.0344167  20.4730330  78.9549646  20.3068784
  18.9718074  78.8911247  20.4916036  22.1342498  79.1780812  21.0918107
  22.7286989  78.9376548  20.3811416  22.2069082  78.4587943  21.7191644
  16.3196427  83.9561208  16.5340118  16.2631629  84.4129760  15.6947750
  16.8724770  83.1951893  16.3562961  20.1301233  79.7450940  17.3590237
  19.8738167  79.3447576  18.1898445  19.5054101  80.4594734  17.2340376
  24.4413571  82.4847013  19.8661529  23.8813129  82.5540203  20.6393091
  23.8357074  82.3087998  19.1461025  17.0531207  85.1465989  13.8292647
  16.9980010  84.9810261  12.8881091  16.4277262  85.8542022  13.9854837
   1.8423722  80.3834054  27.6554069   2.4882585  79.8733008  28.1441294
   1.6340873  81.1202735  28.2297494  14.3677114  87.4514901  33.1546210
  15.2368273  87.6255554  32.7932845  13.8883865  88.2709318  33.0321939
  10.3627332  74.6474098  13.4077965  10.3506002  75.5915938  13.5646236
  11.2550754  74.4644244  13.1137427   8.5363294  94.5712002  24.8335643
   9.4390541  94.6035612  25.1502138   8.3100664  93.6412453  24.8481979
  14.1779451  71.2416875  17.6623902  13.4111847  70.6875362  17.8080584
  14.5890156  71.3138744  18.5238054   6.1821213  77.5301671  31.7529083
   7.0452674  77.1738476  31.9632408   5.6086623  77.1915566  32.4404488
  26.0269589  99.1603527  22.5591484  26.6647999  99.0410275  21.8554824
  25.9090432 100.1084371  22.6179437  22.8359296  99.1130955  22.4953009
  22.4977807  98.9972020  21.6073544  23.7049064  98.7122120  22.4754015
  23.3179079 100.2665807  28.4539215  23.3067720  99.8718605  27.5819718
  23.4799718  99.5331880  29.0472986  20.0386340 103.0502919  27.4018399
  19.7476206 103.9548550  27.2865065  20.6743324 103.0919446  28.1162468
  20.9642547 100.4279767  23.9919758  21.5606119 100.2035790  23.2776721
  21.0217518  99.6864513  24.5945206  25.5810858  96.8854981  19.6344692
  26.3673947  96.4674404  19.2835109  25.8449562  97.7901073  19.8026341
  30.9819285  96.8230214  20.5377671  31.7144457  96.2529431  20.7715500
  30.2258641  96.4351815  20.9784177  22.5995405  99.2457456  17.7341013
  22.2353612  98.7188077  18.4453935  23.4562521  98.8555925  17.5607499
  28.5044705  90.5351788  24.9972280  28.1728030  91.4047199  24.7733495
  27.9090319  90.2188072  25.6766310  24.9976225 102.7364334  24.3968192
  24.6976948 103.6389373  24.2883999  24.6527284 102.4696518  25.2489345
  18.4488706  99.1878131  20.4304897  17.5239203  99.0554345  20.6382588
  18.6973120  99.9672350  20.9274839  28.3973369  95.2546875  22.0765630
  27.4890246  95.1862283  21.7824391  28.3460965  95.7318819  22.9047455
  22.4714235  96.6736520  30.0200527  21.6947569  97.2330440  30.0103391
  23.1104798  97.1593303  30.5415397  30.2635015  93.4563313  23.8543504
  29.6209395  93.7495846  23.2083298  29.7589944  93.3416233  24.6596700
  27.9175179  97.2026486  14.5429363  28.8293035  97.4353873  14.3677060
  27.4084826  97.7863530  13.9804441  20.7260607  99.4821973  29.5818494
  21.4675291 100.0207017  29.3053317  20.0197592 100.1088262  29.7390046
  26.2015946 101.6251114  28.1790655  26.6099303 101.1833524  27.4345288
  25.4793208 101.0503741  28.4324848  22.5547017  96.5623721  25.5524212
  23.4008212  96.9863134  25.6958861  22.4945654  95.9057345  26.2462775
  26.5244761 102.1852305  21.9342944  25.8953624 102.3498019  21.2319012
  26.1370423 102.5993914  22.7053908  30.4033993 103.1206742  19.2887308
  29.7185031 103.5005644  18.7384341  30.4877842 103.7302069  20.0219256
  25.7046462  94.2228089  27.2105386  25.4607394  94.9770150  26.6739662
  25.9806392  94.6013437  28.0452633  27.6584925 100.7666701  25.8882652
  27.8701820 101.4098461  25.2117033  27.6114673  99.9329018  25.4204582
  25.2611154  93.3784522  22.7919224  24.3995633  93.6765776  23.0835961
  25.2873588  93.5954921  21.8600256  22.0772723 101.9226713  19.1993029
  22.5411069 102.2014416  18.4097652  21.8129521 101.0210157  19.0166120
  18.9696804 101.4698194  22.1372793  19.5398161 101.8985463  21.4990277
  19.5604916 101.1880779  22.8356978  19.4621971  96.6361622  30.3833804
  18.8320631  97.3177902  30.6169201  19.3558058  96.5244703  29.4386942
  28.7730753 103.6438657  24.0605009  29.5948196 103.2418844  23.7787690
  28.7693155 103.5406891  25.0121125  22.5387356 103.1922700  26.2165719
  22.6031789 103.6543107  27.0523891  21.8298280 102.5620065  26.3448029
  13.0404646  96.5563908  23.7414719  13.2912684  97.4410918  24.0072295
  13.5764194  96.3768510  22.9689811  36.8636746  99.9877405  20.4089980
  36.1100454  99.4184803  20.2533985  36.9984287  99.9540070  21.3560615
  18.7402713  90.9382387  32.7459055  18.3469659  90.3848586  33.4206699
  19.5568854  91.2492966  33.1365572  21.6570674  92.3540267  30.3379311
  22.3980388  92.9547420  30.2583774  21.8888597  91.6117904  29.7797354
  16.8012012  97.5396634  28.6157541  16.6865527  96.6381891  28.9164640
  15.9456530  97.7860331  28.2642358  23.8803850 105.4814374  30.2145042
  23.4367704 104.6950753  29.8965946  24.5421064 105.6693525  29.5488933
  18.6390971 107.0110176  24.7405720  19.1898396 106.8827239  23.9682714
  17.8002447 107.3105065  24.3900613  25.9785088 105.7617174  28.2426443
  25.9603563 106.5826055  27.7506712  26.9005008 105.6371249  28.4676584
  22.4358142 103.2761304  29.0849951  22.9686479 102.5149592  28.8549259
  21.9072223 102.9834955  29.8274106  25.6027837  88.3821369  24.6143593
  25.2592107  89.2723011  24.5382704  25.9706800  88.1923027  23.7513178
  23.1525231  93.2179681  18.1801267  22.2966827  92.8286532  18.0006905
  23.5652183  93.2971642  17.3201052  24.6824378  90.7526025  22.5792826
  24.1789173  90.7156160  21.7660632  24.9754985  91.6618767  22.6389483
  20.9267264  90.8364754  21.5859008  21.7920260  90.6407563  21.2264898
  20.9944772  90.6075106  22.5128365  30.5412394 101.1262335  15.0569202
  29.7641837 100.7873495  14.6124364  31.2203875 101.1314958  14.3824167
  25.3564423  96.2457073  14.9475809  25.0514559  96.5603222  15.7985953
  26.3094865  96.3238493  14.9903142  28.7803701 100.5996317  21.7135810
  28.1227375 101.2895578  21.8015938  29.5844100 100.9892748  22.0569796
  18.5329583  93.0666962  18.9575375  19.1073335  92.8442144  18.2248568
  19.1200565  93.1355657  19.7103976  27.5909160  98.9540689  19.7639751
  28.1041042  99.5870681  20.2661461  28.2410384  98.3541885  19.3983111
  20.8352250  89.9408211  17.6850444  20.1816663  89.6257228  17.0607059
  20.7932724  89.3183952  18.4110267  24.0689991  96.4290145  22.0098092
  23.1512552  96.6505092  21.8519780  24.4850134  96.5036455  21.1509799
  24.8525038  97.8281560  17.1400772  25.5996857  98.3402958  16.8307894
  25.1216628  97.5065613  18.0005166  28.3570956 103.9346691  17.8918894
  27.9033283 103.0937601  17.9484085  27.7264923 104.5708089  18.2293674
  27.3003876  94.8638677  19.1219562  26.5626632  94.3516063  19.4529804
  27.5530649  94.4239058  18.3102838  26.8003895 105.7723187  18.8268712
  27.0926870 106.3328244  18.1081078  27.3102516 106.0651748  19.5821871
  27.4015503  87.6414929  19.7161331  27.7074380  86.7812292  19.4287246
  28.1268108  88.2332549  19.5160325  21.6736583  97.9368722  20.2237522
  21.7285192  96.9842558  20.1479998  20.8627785  98.0928161  20.7078820
  19.6128943  96.5545781  17.9827901  18.7996808  96.8539952  18.3893093
  20.1087937  96.1601470  18.7002383  25.2103154  97.0187606  26.8142795
  25.5652542  97.2459079  27.6737260  25.8575285  97.3505983  26.1920050
  30.9400891 100.1406042  17.5192124  30.8018790 100.3307638  16.5913313
  30.5837110 100.9025425  17.9760175  19.1043017  94.1264137  23.5989136
  19.7442397  93.9852896  22.9012099  18.2720548  93.8398650  23.2227738
  30.9670271 102.2082569  22.5303395  31.4006777 102.1157858  23.3786449
  31.6801852 102.1840069  21.8923411  24.6998166 105.8084663  24.0636496
  24.7535188 106.3775599  24.8314212  23.8312947 105.9786548  23.6990533
  16.1071634  94.0964462  18.3762123  16.3678451  95.0109795  18.2671283
  16.9288806  93.6288905  18.5258735  17.5796559  95.5102219  25.5460947
  18.2519613  95.3019581  24.8973596  16.7526346  95.3124305  25.1066179
  31.8285820 102.2506270  25.0636281  32.0221710 103.1552080  25.3095556
  31.7286439 101.7913689  25.8974866  23.4822131  92.1364160  27.5626608
  22.8350046  92.8354110  27.4691084  24.2523147  92.5700304  27.9302856
  26.8900929 102.4013012  30.6377161  26.7386435 102.1723564  29.7207245
  26.8805609 103.3583614  30.6508506  23.6586265  99.9744925  25.6223428
  24.5878325 100.1256085  25.4492395  23.2377295 100.0628946  24.7672074
  22.4574597 103.9995589  23.3921965  22.3185683 103.6314374  24.2647903
  21.6689193 104.5143229  23.2205923  24.0079812 103.3777192  20.7810803
  23.6729645 103.3377962  21.6768453  23.5083758 102.7121908  20.3081213
  17.9824056  98.7844822  26.3063384  17.8443854  98.0525061  26.9074923
  18.8928980  98.6953722  26.0247572  20.6106357  98.4964781  25.7947064
  21.3205976  97.8557974  25.7533682  20.5675665  98.7477676  26.7173245
  28.5993136 105.4332135  28.7153643  28.5405682 104.7491355  28.0484226
  29.0012654 106.1751125  28.2634269  19.3235291  95.4829999  27.6142703
  18.7872648  95.0320738  28.2664300  18.7351999  95.6175908  26.8713168
  28.6010543 103.3971719  26.9467623  27.7137322 103.0597641  27.0694022
  29.1709094 102.6654750  27.1836388  15.0574412  94.6186007  24.6995698
  14.9732601  94.0111677  23.9646108  14.2357119  95.1095025  24.7005194
  22.1311696 108.0573171  23.9128866  22.0581868 108.8628143  24.4248171
  21.6889089 108.2565137  23.0876887  25.2298126  93.1039571  20.0665893
  25.7266826  92.3509533  19.7466963  24.4585108  93.1403887  19.5009102
  33.0827884  98.8079936  21.7084184  33.0717760  99.6904652  21.3378117
  32.2145263  98.4551487  21.5138721  24.5910380 107.9560005  26.0687025
  25.3038352 108.5907470  25.9962926  24.1000409 108.0523871  25.2527026
  26.3127907 101.8611258  17.6404316  25.3784186 101.9812720  17.4709021
  26.4904575 100.9583725  17.3764326  21.8133095  95.2456954  19.7937577
  21.4430882  94.6927994  20.4818483  22.3092187  94.6415087  19.2412578
  29.7000458  97.7028577  18.1754350  30.1660910  98.5356569  18.1014653
  30.1507959  97.2373559  18.8799609  19.6422293 105.7054449  26.8892595
  20.3431753 106.3390932  27.0421990  19.1717408 106.0469180  26.1288235
  27.7676689 104.0472398  15.1740502  28.0436533 103.9328993  16.0834377
  26.8981188 103.6489883  15.1352676  27.6717121  90.0709164  22.2145252
  26.7580201  90.3013391  22.3827459  28.1010222  90.1547608  23.0659284
  27.4423579  98.2599056  24.7145146  26.7895030  98.5074963  24.0597599
  27.8203959  97.4463194  24.3807623  23.4911152  99.0018867  31.2011183
  22.8151789  98.9012996  31.8713558  24.3138786  98.8458081  31.6647180
  22.2333935 110.3085795  25.4368799  22.7852243 110.4717416  26.2017884
  22.5740129 110.8990232  24.7648824  17.2098429  92.6560944  26.0390684
  17.2739755  93.5175775  25.6268081  17.1465549  92.0434946  25.3063042
  16.6850701  94.7284077  29.6863718  17.3122740  94.3461154  30.3001242
  15.8278620  94.5098279  30.0519410  27.0844810 105.1347052  31.2917453
  27.6284714 105.7477010  30.7972408  26.5031654 105.6926630  31.8084466
  25.3702323 108.2567770  22.4232481  25.2453462 107.4557510  21.9143427
  26.0281414 108.7513963  21.9346451  16.9910491  94.6116503  21.6009621
  16.2697077  95.2252470  21.4617095  17.7803747  95.1474267  21.5226267
  27.4337231 106.0576790  24.0512031  26.4867566 105.9382141  23.9790358
  27.7820004 105.1699288  24.1338293  19.7936804  91.9470929  27.8750273
  20.3171206  92.1933226  28.6376582  19.5749138  92.7790964  27.4553410
  24.4383664 105.8529506  20.2516383  24.2908627 104.9246214  20.4323953
  25.2637158 105.8749597  19.7673459  28.0417786 106.6758065  21.3381256
  28.9664334 106.4700926  21.2005707  27.8733089 106.4274466  22.2470598
  20.9989349  92.8884624  25.5599944  20.6586170  92.0892437  25.9620623
  20.2928356  93.1886335  24.9876777  21.6505821  89.9733937  24.0127267
  22.4731890  89.4994415  23.8906157  21.8943885  90.7524420  24.5125953
  24.4345179  93.7067344  15.2448501  24.6508793  94.5891982  14.9437329
  23.9539246  93.3153557  14.5154143  19.1744400  96.6653057  21.8219245
  19.0288981  96.9793360  22.7143527  18.6969604  97.2837958  21.2690144
  21.0340783  93.6555605  21.8700135  21.0202352  92.7596699  21.5332433
  21.7513211  93.6626269  22.5038421  22.8866914  94.0892945  23.9153262
  22.6284691  95.0110016  23.9137593  22.3551954  93.6923380  24.6053726
  27.8313102 107.1943733  16.6943348  28.0049980 106.6290155  15.9417200
  28.3241994 107.9944627  16.5122837  13.6490062  99.2058402  24.7606906
  13.1043530  99.9818210  24.8927181  14.5269412  99.5529206  24.6026028
  20.4377679  92.5369986  17.1387705  20.5593590  91.6086632  17.3378592
  20.1479721  92.5508671  16.2266020  23.3068869  90.2224896  20.2754425
  23.3290566  90.2864229  19.3206404  23.7236928  89.3829405  20.4694931
  33.6852493  99.9580156  18.3133647  34.1283640  99.2087481  17.9152771
  32.8079004  99.9490292  17.9307379  14.4356084  98.3328298  27.6537063
  13.6937820  98.4810933  28.2401694  14.1148828  98.5936564  26.7903813
  30.7179698 103.9610202  15.3227577  31.2431022 104.2997475  14.5976897
  30.6302050 103.0257218  15.1390711  22.3799747 107.8744276  27.4517453
  22.6886873 107.6293423  28.3240153  23.1775229 108.0790915  26.9636323
  19.9218758  94.0501983  31.3477637  19.9706914  94.9264106  30.9655407
  20.4641273  93.5079376  30.7749281  30.4073604 104.5943106  30.6278775
  29.6169148 104.5767245  30.0883274  30.1706959 105.1331400  31.3827811
  30.5271479 101.4435573  27.9411503  30.5769484 101.2785580  28.8827026
  30.4185402 100.5762832  27.5509384  27.8175241  97.4266501  29.2570810
  28.7185104  97.2872965  28.9654808  27.8923216  97.5920955  30.1968987
  22.1518047  94.8033355  28.1023996  21.2821356  95.0966921  27.8306585
  22.3877527  95.3873800  28.8231260  32.0289676 103.8632514  28.1853525
  31.7374484 104.2262495  29.0216986  31.4161807 103.1499522  28.0066857
  33.2285358 101.4285394  20.7056095  34.0632250 101.8675198  20.8693655
  33.3644487 100.9524047  19.8864341  30.2776864  98.9865129  26.6533583
  30.7530986  99.1792775  25.8452434  29.3542429  99.0424314  26.4076966
  24.8557081  91.0212972  25.6189417  25.3739024  91.7573999  25.2935905
  24.5012213  91.3276966  26.4536176  25.1069675  87.4413255  21.1390313
  25.3871429  86.7736444  21.7650740  25.8920282  87.6342350  20.6264977
  28.9778533  95.8630889  24.8861888  29.9295956  95.9628986  24.9074112
  28.8081984  95.0709157  25.3959973  26.9992913  92.9486472  25.0721289
  26.4042845  93.2291485  24.3767778  26.7142609  93.4380373  25.8438030
  31.4566611  99.0837008  24.0004188  31.4242931  98.1453009  24.1863872
  32.0667235  99.1621045  23.2670013  31.6061099  95.8748052  24.0462471
  31.0900148  95.0906508  23.8592400  32.4901048  95.5466768  24.2108991
  29.2671826  89.6189067  20.0058284  29.0696647  89.3104156  20.8901616
  29.8771532  90.3450706  20.1356214  37.2743161 100.1453015  23.1410225
  38.0046549  99.8838303  23.7017928  36.6650106  99.4081737  23.1812293
  35.3558458  98.2860878  23.7384676  34.6291621  98.1516843  23.1301167
  34.9405745  98.5937706  24.5441394  23.1788634 102.0050808  31.5032049
  24.0991644 102.1829407  31.6972095  23.1438217 101.0606853  31.3511748
  16.1750707  99.9151842  24.1454830  16.3936717 100.8468950  24.1642864
  16.5876481  99.5559817  24.9309634  23.0954925  90.4219928  16.1330518
  22.2855653  90.0767012  16.5085765  23.7839342  90.1127471  16.7218130
  25.0245473  89.4997974  17.7554815  25.5776512  89.9193428  18.4144838
  25.2615559  88.5733722  17.7977771  21.0478572  95.4885048  33.5357579
  20.9475299  96.4379405  33.4669670  20.8300114  95.1603287  32.6633649
  28.4024280  91.6098499  17.2633479  27.8222949  92.2683304  16.8811532
  28.1360213  90.7875844  16.8520897  26.8527846  91.0103557  19.4654800
  27.3527625  91.1220092  18.6569119  27.4963454  90.7064610  20.1055608
  20.9109842  98.9182187  32.3522641  20.4276924  99.7182547  32.5586530
  20.9970781  98.9290132  31.3990085  16.8383180 102.8086721  24.3891074
  17.7926433 102.7770664  24.3221006  16.6395703 102.3477345  25.2041300
  17.4282562 101.3787838  26.9561872  18.2475451 101.8731916  26.9796709
  17.7019370 100.4619806  26.9279440  27.1849158  93.7698590  16.3189828
  26.2975013  94.0548240  16.1010022  27.6003147  93.6092353  15.4717104
  30.5363694  93.7945111  20.0344167  31.3124084  94.2841563  20.3068784
  29.8111828  94.2203165  20.4916036  32.9736253  94.5072730  21.0918107
  33.5680744  94.2668466  20.3811416  33.0462836  93.7879861  21.7191644
  27.1590182  99.2853126  16.5340118  27.1025383  99.7421677  15.6947750
  27.7118524  98.5243810  16.3562961  30.9694988  95.0742858  17.3590237
  30.7131922  94.6739493  18.1898445  30.3447856  95.7886652  17.2340376
  35.2807326  97.8138931  19.8661529  34.7206884  97.8832120  20.6393091
  34.6750829  97.6379916  19.1461025  27.8924961 100.4757907  13.8292647
  27.8373765 100.3102178  12.8881091  27.2671016 101.1833940  13.9854837
  12.6817476  95.7125971  27.6554069  13.3276340  95.2024925  28.1441294
  12.4734627  96.4494653  28.2297494  25.2070868 102.7806819  33.1546210
  26.0762028 102.9547471  32.7932845  24.7277620 103.6001236  33.0321939
  21.2021087  89.9766016  13.4077965  21.1899756  90.9207856  13.5646236
  22.0944508  89.7936161  13.1137427  19.3757048 109.9003920  24.8335643
  20.2784295 109.9327530  25.1502138  19.1494419 108.9704371  24.8481979
  25.0173206  86.5708793  17.6623902  24.2505602  86.0167279  17.8080584
  25.4283911  86.6430661  18.5238054  17.0214967  92.8593588  31.7529083
  17.8846429  92.5030393  31.9632408  16.4480378  92.5207483  32.4404488
  36.8663344 114.4895445  22.5591484  37.5041754 114.3702192  21.8554824
  36.7484187 115.4376289  22.6179437  33.6753050 114.4422873  22.4953009
  33.3371562 114.3263938  21.6073544  34.5442818 114.0414038  22.4754015
  34.1572833 115.5957725  28.4539215  34.1461474 115.2010523  27.5819718
  34.3193473 114.8623797  29.0472986  36.4204612 112.2146899  19.6344692
  37.2067702 111.7966322  19.2835109  36.6843317 113.1192991  19.8026341
  41.8213040 112.1522132  20.5377671  42.5538212 111.5821349  20.7715500
  41.0652395 111.7643732  20.9784177  33.4389159 114.5749373  17.7341013
  33.0747367 114.0479994  18.4453935  34.2956275 114.1847842  17.5607499
  39.3438460 105.8643706  24.9972280  39.0121785 106.7339117  24.7733495
  38.7484073 105.5479990  25.6766310  39.2367123 110.5838792  22.0765630
  38.3284001 110.5154201  21.7824391  39.1854719 111.0610737  22.9047455
  33.3107989 112.0028438  30.0200527  32.5341323 112.5622358  30.0103391
  33.9498552 112.4885221  30.5415397  41.1028770 108.7855231  23.8543504
  40.4603150 109.0787764  23.2083298  40.5983698 108.6708151  24.6596700
  38.7568933 112.5318404  14.5429363  39.6686789 112.7645791  14.3677060
  38.2478580 113.1155448  13.9804441  33.3940771 111.8915638  25.5524212
  34.2401966 112.3155052  25.6958861  33.3339409 111.2349263  26.2462775
  36.5440216 109.5520007  27.2105386  36.3001148 110.3062067  26.6739662
  36.8200147 109.9305354  28.0452633  38.4978679 116.0958619  25.8882652
  38.7095574 116.7390379  25.2117033  38.4508427 115.2620936  25.4204582
  36.1004908 108.7076440  22.7919224  35.2389387 109.0057693  23.0835961
  36.1267343 108.9246839  21.8600256  30.3015725 111.9653539  30.3833804
  29.6714386 112.6469820  30.6169201  30.1951813 111.8536621  29.4386942
  47.7030500 115.3169323  20.4089980  46.9494209 114.7476721  20.2533985
  47.8378041 115.2831987  21.3560615  29.5796468 106.2674305  32.7459055
  29.1863413 105.7140504  33.4206699  30.3962608 106.5784884  33.1365572
  32.4964429 107.6832184  30.3379311  33.2374142 108.2839337  30.2583774
  32.7282352 106.9409822  29.7797354  36.4421592 103.7113287  24.6143593
  36.0985861 104.6014929  24.5382704  36.8100554 103.5214945  23.7513178
  33.9918986 108.5471599  18.1801267  33.1360582 108.1578449  18.0006905
  34.4045937 108.6263560  17.3201052  35.5218132 106.0817942  22.5792826
  35.0182928 106.0448077  21.7660632  35.8148739 106.9910685  22.6389483
  31.7661018 106.1656672  21.5859008  32.6314015 105.9699481  21.2264898
  31.8338527 105.9367024  22.5128365  41.3806149 116.4554253  15.0569202
  40.6035591 116.1165412  14.6124364  42.0597630 116.4606876  14.3824167
  36.1958178 111.5748990  14.9475809  35.8908313 111.8895140  15.7985953
  37.1488620 111.6530410  14.9903142  39.6197456 115.9288234  21.7135810
  38.9621130 116.6187496  21.8015938  40.4237855 116.3184666  22.0569796
  29.3723337 108.3958880  18.9575375  29.9467089 108.1734061  18.2248568
  29.9594320 108.4647574  19.7103976  38.4302914 114.2832607  19.7639751
  38.9434796 114.9162599  20.2661461  39.0804138 113.6833802  19.3983111
  31.6746005 105.2700129  17.6850444  31.0210417 104.9549146  17.0607059
  31.6326479 104.6475869  18.4110267  34.9083745 111.7582062  22.0098092
  33.9906307 111.9797009  21.8519780  35.3243889 111.8328373  21.1509799
  35.6918793 113.1573478  17.1400772  36.4390612 113.6694875  16.8307894
  35.9610382 112.8357531  18.0005166  38.1397630 110.1930594  19.1219562
  37.4020387 109.6807981  19.4529804  38.3924404 109.7530976  18.3102838
  38.2409257 102.9706846  19.7161331  38.5468134 102.1104210  19.4287246
  38.9661862 103.5624467  19.5160325  32.5130337 113.2660639  20.2237522
  32.5678947 112.3134476  20.1479998  31.7021539 113.4220079  20.7078820
  30.4522697 111.8837699  17.9827901  29.6390563 112.1831870  18.3893093
  30.9481691 111.4893388  18.7002383  36.0496909 112.3479524  26.8142795
  36.4046296 112.5750997  27.6737260  36.6969040 112.6797900  26.1920050
  41.7794646 115.4697960  17.5192124  41.6412544 115.6599556  16.5913313
  41.4230865 116.2317342  17.9760175  29.9436772 109.4556055  23.5989136
  30.5836151 109.3144814  22.9012099  29.1114302 109.1690568  23.2227738
  41.8064025 117.5374487  22.5303395  42.2400532 117.4449776  23.3786449
  42.5195606 117.5131987  21.8923411  26.9465388 109.4256380  18.3762123
  27.2072206 110.3401713  18.2671283  27.7682561 108.9580822  18.5258735
  28.4190314 110.8394137  25.5460947  29.0913367 110.6311499  24.8973596
  27.5920100 110.6416223  25.1066179  42.6679575 117.5798187  25.0636281
  42.8615465 118.4843998  25.3095556  42.5680193 117.1205606  25.8974866
  34.3215886 107.4656078  27.5626608  33.6743801 108.1646027  27.4691084
  35.0916901 107.8992222  27.9302856  34.4980020 115.3036843  25.6223428
  35.4272080 115.4548002  25.4492395  34.0771050 115.3920863  24.7672074
  31.4500112 113.8256699  25.7947064  32.1599730 113.1849891  25.7533682
  31.4069420 114.0769594  26.7173245  30.1629045 110.8121917  27.6142703
  29.6266403 110.3612655  28.2664300  29.5745754 110.9467826  26.8713168
  25.8968167 109.9477925  24.6995698  25.8126355 109.3403594  23.9646108
  25.0750873 110.4386943  24.7005194  36.0691881 108.4331488  20.0665893
  36.5660580 107.6801451  19.7466963  35.2978862 108.4695805  19.5009102
  43.9221638 114.1371854  21.7084184  43.9111514 115.0196569  21.3378117
  43.0539017 113.7843405  21.5138721  32.6526849 110.5748871  19.7937577
  32.2824637 110.0219912  20.4818483  33.1485942 109.9707005  19.2412578
  40.5394213 113.0320495  18.1754350  41.0054665 113.8648486  18.1014653
  40.9901713 112.5665476  18.8799609  38.5110875 105.4001082  22.2145252
  37.5973955 105.6305309  22.3827459  38.9403977 105.4839526  23.0659284
  38.2817334 113.5890974  24.7145146  37.6288784 113.8366881  24.0597599
  38.6597714 112.7755112  24.3807623  34.3304907 114.3310785  31.2011183
  33.6545544 114.2304914  31.8713558  35.1532541 114.1749999  31.6647180
  28.0492183 107.9852862  26.0390684  28.1133509 108.8467693  25.6268081
  27.9859303 107.3726864  25.3063042  27.5244456 110.0575995  29.6863718
  28.1516494 109.6753072  30.3001242  26.6672374 109.8390197  30.0519410
  27.8304245 109.9408420  21.6009621  27.1090831 110.5544388  21.4617095
  28.6197501 110.4766185  21.5226267  30.6330559 107.2762847  27.8750273
  31.1564961 107.5225143  28.6376582  30.4142892 108.1082882  27.4553410
  31.8383104 108.2176542  25.5599944  31.4979924 107.4184355  25.9620623
  31.1322110 108.5178253  24.9876777  32.4899576 105.3025854  24.0127267
  33.3125645 104.8286332  23.8906157  32.7337639 106.0816338  24.5125953
  35.2738933 109.0359262  15.2448501  35.4902547 109.9183900  14.9437329
  34.7933000 108.6445475  14.5154143  30.0138154 111.9944975  21.8219245
  29.8682735 112.3085278  22.7143527  29.5363358 112.6129875  21.2690144
  31.8734537 108.9847523  21.8700135  31.8596106 108.0888616  21.5332433
  32.5906965 108.9918187  22.5038421  33.7260668 109.4184863  23.9153262
  33.4678446 110.3401934  23.9137593  33.1945708 109.0215298  24.6053726
  31.2771433 107.8661903  17.1387705  31.3987344 106.9378549  17.3378592
  30.9873476 107.8800589  16.2266020  34.1462624 105.5516814  20.2754425
  34.1684320 105.6156147  19.3206404  34.5630683 104.7121322  20.4694931
  44.5246248 115.2872073  18.3133647  44.9677394 114.5379398  17.9152771
  43.6472758 115.2782210  17.9307379  30.7612513 109.3793901  31.3477637
  30.8100668 110.2556023  30.9655407  31.3035027 108.8371294  30.7749281
  41.3665234 116.7727490  27.9411503  41.4163238 116.6077498  28.8827026
  41.2579157 115.9054749  27.5509384  38.6568996 112.7558418  29.2570810
  39.5578859 112.6164883  28.9654808  38.7316970 112.9212873  30.1968987
  32.9911801 110.1325273  28.1023996  32.1215111 110.4258839  27.8306585
  33.2271282 110.7165718  28.8231260  44.0679113 116.7577311  20.7056095
  44.9026004 117.1967116  20.8693655  44.2038241 116.2815965  19.8864341
  41.1170619 114.3157046  26.6533583  41.5924740 114.5084693  25.8452434
  40.1936184 114.3716232  26.4076966  35.6950835 106.3504890  25.6189417
  36.2132779 107.0865917  25.2935905  35.3405968 106.6568883  26.4536176
  35.9463429 102.7705172  21.1390313  36.2265183 102.1028361  21.7650740
  36.7314036 102.9634268  20.6264977  39.8172288 111.1922806  24.8861888
  40.7689710 111.2920904  24.9074112  39.6475738 110.4001075  25.3959973
  37.8386667 108.2778390  25.0721289  37.2436599 108.5583402  24.3767778
  37.5536364 108.7672291  25.8438030  42.2960365 114.4128926  24.0004188
  42.2636685 113.4744927  24.1863872  42.9060989 114.4912963  23.2670013
  42.4454854 111.2039970  24.0462471  41.9293902 110.4198426  23.8592400
  43.3294802 110.8758686  24.2108991  40.1065581 104.9480985  20.0058284
  39.9090402 104.6396073  20.8901616  40.7165286 105.6742624  20.1356214
  48.1136915 115.4744933  23.1410225  48.8440304 115.2130221  23.7017928
  47.5043861 114.7373655  23.1812293  46.1952212 113.6152796  23.7384676
  45.4685376 113.4808760  23.1301167  45.7799499 113.9229624  24.5441394
  33.9348679 105.7511845  16.1330518  33.1249407 105.4058930  16.5085765
  34.6233096 105.4419389  16.7218130  35.8639227 104.8289892  17.7554815
  36.4170266 105.2485345  18.4144838  36.1009314 103.9025640  17.7977771
  31.8872327 110.8176966  33.5357579  31.7869054 111.7671323  33.4669670
  31.6693869 110.4895205  32.6633649  39.2418034 106.9390417  17.2633479
  38.6616704 107.5975221  16.8811532  38.9753967 106.1167762  16.8520897
  37.6921601 106.3395475  19.4654800  38.1921379 106.4512009  18.6569119
  38.3357209 106.0356528  20.1055608  38.0242913 109.0990508  16.3189828
  37.1368768 109.3840158  16.1010022  38.4396902 108.9384271  15.4717104
  41.3757449 109.1237029  20.0344167  42.1517839 109.6133481  20.3068784
  40.6505583 109.5495083  20.4916036  43.8130007 109.8364648  21.0918107
  44.4074498 109.5960384  20.3811416  43.8856591 109.1171778  21.7191644
  37.9983936 114.6145043  16.5340118  37.9419138 115.0713595  15.6947750
  38.5512279 113.8535728  16.3562961  41.8088742 110.4034775  17.3590237
  41.5525676 110.0031411  18.1898445  41.1841610 111.1178569  17.2340376
  46.1201080 113.1430849  19.8661529  45.5600638 113.2124038  20.6393091
  45.5144583 112.9671833  19.1461025  38.7318716 115.8049825  13.8292647
  38.6767519 115.6394096  12.8881091  38.1064771 116.5125858  13.9854837
  23.5211231 111.0417889  27.6554069  24.1670094 110.5316843  28.1441294
  23.3128382 111.7786571  28.2297494  32.0414841 105.3057934  13.4077965
  32.0293511 106.2499774  13.5646236  32.9338263 105.1228079  13.1137427
  35.8566960 101.9000710  17.6623902  35.0899356 101.3459197  17.8080584
  36.2677665 101.9722579  18.5238054  27.8608722 108.1885506  31.7529083
  28.7240183 107.8322311  31.9632408  27.2874132 107.8499401  32.4404488
  47.2815346 119.0405205  24.6143593  46.9379616 119.9306847  24.5382704
  47.6494309 118.8506862  23.7513178  49.0803012 118.2998764  19.7161331
  49.3861889 117.4396127  19.4287246  49.8055617 118.8916384  19.5160325
  46.7857184 118.0997090  21.1390313  47.0658937 117.4320279  21.7650740
  47.5707791 118.2926186  20.6264977  50.9459335 120.2772903  20.0058284
  50.7484156 119.9687991  20.8901616  51.5559041 121.0034542  20.1356214
  46.6960715 117.2292628  17.6623902  45.9293111 116.6751115  17.8080584
  47.1071420 117.3014497  18.5238054   6.9205628  51.7810422  15.4398950
   6.8618174  51.0969642  14.7729533   7.3225146  52.5229412  14.9879576
   5.4057302  51.4825339  18.0162760   5.9497206  52.0955298  17.5217715
   4.8244147  52.0404918  18.5329773   8.7286096  50.9421393  17.3524081
   7.9381640  50.9245532  16.8128581   8.4919451  51.4809687  18.1073118
  10.3502168  50.2110801  14.9098831  10.0586976  50.5740782  15.7462292
   9.7374299  49.4977810  14.7312163   3.5283361  49.1285106  19.8791516
   4.3974520  49.3025758  19.5178151   3.0490112  49.9479523  19.7567246
  15.1875836  60.8373732   9.2836791  15.8254246  60.7180479   8.5800131
  15.0696679  61.7854576   9.3424743  11.9965543  60.7901160   9.2198316
  11.6584054  60.6742225   8.3318851  12.8655311  60.3892325   9.1999322
  12.4785326  61.9436012  15.1784521  12.4673966  61.5488810  14.3065025
  12.6405965  61.2102085  15.7718293   9.1992587  64.7273124  14.1263705
   8.9082453  65.6318755  14.0110372   9.8349571  64.7689651  14.8407775
  10.1248794  62.1049972  10.7165065  10.7212366  61.8805995  10.0022028
  10.1823765  61.3634718  11.3190513  20.1425532  58.5000419   7.2622978
  20.8750704  57.9299636   7.4960807  19.3864888  58.1122020   7.7029483
  17.6650952  52.2121993  11.7217586  17.3334277  53.0817404  11.4978801
  17.0696566  51.8958277  12.4011617  14.1582472  64.4134539  11.1213499
  13.8583195  65.3159578  11.0129306  13.8133531  64.1466722  11.9734652
  17.5579616  56.9317079   8.8010936  16.6496493  56.8632488   8.5069697
  17.5067211  57.4089024   9.6292762  11.6320481  58.3506725  16.7445834
  10.8553815  58.9100645  16.7348698  12.2711044  58.8363508  17.2660704
  19.4241262  55.1333518  10.5788810  18.7815642  55.4266051   9.9328605
  18.9196190  55.0186438  11.3842007   9.8866854  61.1592178  16.3063801
  10.6281538  61.6977222  16.0298624   9.1803839  61.7858467  16.4635352
  15.3622193  63.3021319  14.9035962  15.7705549  62.8603729  14.1590594
  14.6399455  62.7273946  15.1570155  11.7153263  58.2393926  12.2769519
  12.5614459  58.6633339  12.4204168  11.6551901  57.5827550  12.9708082
  15.6851008  63.8622509   8.6588251  15.0559870  64.0268224   7.9564319
  15.2976670  64.2764119   9.4299215  19.5640240  64.7976947   6.0132615
  18.8791278  65.1775849   5.4629648  19.6484089  65.4072274   6.7464562
  14.8652709  55.8998294  13.9350693  14.6213641  56.6540354  13.3984968
  15.1412639  56.2783642  14.7697940  16.8191171  62.4436906  12.6127958
  17.0308067  63.0868666  11.9362339  16.7720920  61.6099223  12.1449888
   8.1303051  63.1468399   8.8618099   8.7004408  63.5755667   8.2235584
   8.7211163  62.8650984   9.5602285   8.6228217  58.3131827  17.1079110
   7.9926878  58.9948107  17.3414507   8.5164305  58.2014908  16.1632249
  17.9336999  65.3208862  10.7850316  18.7554443  64.9189049  10.5032997
  17.9299402  65.2177096  11.7366431  11.6993603  64.8692905  12.9411026
  11.7638035  65.3313312  13.7769198  10.9904527  64.2390270  13.0693336
  26.0242992  61.6647610   7.1335287  25.2706701  61.0955008   6.9779291
  26.1590534  61.6310275   8.0805922   7.9008960  52.6152592  19.4704362
   7.5075906  52.0618791  20.1452006   8.7175100  52.9263171  19.8610879
  10.8176921  54.0310471  17.0624618  11.5586634  54.6317625  16.9829081
  11.0494844  53.2888109  16.5042661   5.9618259  59.2166839  15.3402848
   5.8471774  58.3152096  15.6409947   5.1062777  59.4630536  14.9887664
  13.0410097  67.1584579  16.9390348  12.5973951  66.3720958  16.6211253
  13.7027310  67.3463730  16.2734239   7.7997218  68.6880381  11.4651027
   8.3504643  68.5597444  10.6928021   6.9608694  68.9875270  11.1145920
  15.1391335  67.4387379  14.9671750  15.1209810  68.2596260  14.4752019
  16.0611255  67.3141454  15.1921891  11.5964389  64.9531508  15.8095258
  12.1292726  64.1919797  15.5794566  11.0678470  64.6605160  16.5519413
  17.9409948  62.2766521   8.4381116  17.2833622  62.9665783   8.5261245
  18.7450347  62.6662953   8.7815103  16.7515407  60.6310894   6.4885058
  17.2647288  61.2640886   6.9906768  17.4016630  60.0312090   6.1228418
  13.2296237  58.1060350   8.7343399  12.3118799  58.3275297   8.5765087
  13.6456381  58.1806660   7.8755106  17.5177203  65.6116896   4.6164201
  17.0639530  64.7707805   4.6729391  16.8871170  66.2478294   4.9538981
  15.9610142  67.4493392   5.5514019  16.2533116  68.0098449   4.8326385
  16.4708763  67.7421953   6.3067178  14.3709401  58.6957811  13.5388101
  14.7258789  58.9229284  14.3982567  15.0181532  59.0276188  12.9165357
  20.1007138  61.8176247   4.2437430  19.9625037  62.0077843   3.3158620
  19.7443357  62.5795630   4.7005481  20.1276518  63.8852774   9.2548702
  20.5613024  63.7928063  10.1031756  20.8408098  63.8610274   8.6168718
  13.8604412  67.4854868  10.7881802  13.9141435  68.0545804  11.5559518
  12.9919194  67.6556753  10.4235840   6.7402806  57.1872424  12.2706254
   7.4125859  56.9789786  11.6218903   5.9132592  56.9894510  11.8311486
  20.9892067  63.9276474  11.7881587  21.1827957  64.8322285  12.0340862
  20.8892685  63.4683894  12.6220172  12.6428378  53.8134365  14.2871915
  11.9956293  54.5124315  14.1936391  13.4129393  54.2470509  14.6548163
  16.0507176  64.0783217  17.3622468  15.8992682  63.8493769  16.4452552
  16.0411855  65.0353819  17.3753813  12.8192512  61.6515130  12.3468734
  13.7484572  61.8026290  12.1737702  12.3983542  61.7399151  11.4917381
  11.6180844  65.6765794  10.1167272  11.4791930  65.3084579  10.9893210
  10.8295440  66.1913434   9.9451230  13.1686059  65.0547397   7.5056110
  12.8335892  65.0148167   8.4013760  12.6690005  64.3892113   7.0326520
   7.1430303  60.4615027  13.0308691   7.0050101  59.7295266  13.6320230
   8.0535227  60.3723927  12.7492879   9.7712604  60.1734986  12.5192371
  10.4812222  59.5328179  12.4778989   9.7281912  60.4247881  13.4418551
  17.7599382  67.1102340  15.4398950  17.7011929  66.4261560  14.7729533
  18.1618901  67.8521330  14.9879576   8.4841538  57.1600204  14.3388010
   7.9478895  56.7090943  14.9909606   7.8958246  57.2946113  13.5958474
  17.7616790  65.0741924  13.6712929  16.8743568  64.7367845  13.7939328
  18.3315341  64.3424955  13.9081695  11.2917943  69.7343376  10.6374173
  11.2188115  70.5398348  11.1493477  10.8495336  69.9335342   9.8122194
  22.2434130  60.4850141   8.4329491  22.2324007  61.3674856   8.0623424
  21.3751510  60.1321692   8.2384028  13.7516627  69.6330210  12.7932331
  14.4644599  70.2677675  12.7208233  13.2606655  69.7294076  11.9772333
   8.8028540  67.3824654  13.6137902   9.5038000  68.0161136  13.7667296
   8.3323655  67.7239385  12.8533541  16.6029826  59.9369261  11.4390452
  15.9501276  60.1845168  10.7842905  16.9810206  59.1233399  11.1052930
  12.6517399  60.6789072  17.9256490  11.9758036  60.5783201  18.5958865
  13.4745033  60.5228286  18.3892487  11.3940182  71.9855999  12.1614106
  11.9458490  72.1487621  12.9263191  11.7346376  72.5760437  11.4894130
   5.8456948  56.4054282  16.4109024   6.4728987  56.0231359  17.0246549
   4.9884867  56.1868484  16.7764717  16.2451056  66.8117257  18.0162760
  16.7890960  67.4247215  17.5217715  15.6637901  67.3696835  18.5329773
  14.5308569  69.9337975   9.1477788  14.4059709  69.1327715   8.6388733
  15.1887660  70.4284168   8.6591758  16.5943478  67.7346995  10.7757338
  15.6473813  67.6152346  10.7035664  16.9426251  66.8469493  10.8583599
   8.9543051  53.6241134  14.5995580   9.4777453  53.8703431  15.3621889
   8.7355384  54.4561169  14.1798717  13.5989911  67.5299711   6.9761690
  13.4514873  66.6016419   7.1569260  14.4243405  67.5519802   6.4918765
  17.2024033  68.3528270   8.0626563  18.1270580  68.1471131   7.9251014
  17.0339336  68.1044671   8.9715904  10.1595596  54.5654829  12.2845250
   9.8192416  53.7662642  12.6865930   9.4534602  54.8656540  11.7122083
  12.0473160  55.7663150  10.6398569  11.7890938  56.6880221  10.6382899
  11.5158201  55.3693585  11.3299033  16.9919349  68.8713937   3.4188654
  17.1656227  68.3060360   2.6662507  17.4848240  69.6714832   3.2368144
   2.8096309  60.8828607  11.4852213   2.2649777  61.6588415  11.6172487
   3.6875659  61.2299411  11.3271334  22.8458740  61.6350360   5.0378954
  23.2889886  60.8857686   4.6398077  21.9685251  61.6260497   4.6552686
   3.5962331  60.0098503  14.3782370   2.8544067  60.1581138  14.9647000
   3.2755075  60.2706768  13.5149119  19.8785945  65.6380407   2.0472883
  20.4037269  65.9767680   1.3222203  19.7908297  64.7027423   1.8636018
  11.5405993  69.5514481  14.1762760  11.8493120  69.3063628  15.0485459
  12.3381475  69.7561120  13.6881630   9.0825005  55.7272188  18.0722944
   9.1313161  56.6034311  17.6900714   9.6247519  55.1849581  17.4994587
  19.5679851  66.2713311  17.3524081  18.7775394  66.2537450  16.8128581
  19.3313205  66.8101605  18.1073118  19.6877726  63.1205777  14.6656810
  19.7375731  62.9555785  15.6072333  19.5791649  62.2533036  14.2754691
  16.9781488  59.1036705  15.9816116  17.8791351  58.9643170  15.6900114
  17.0529463  59.2691160  16.9214294  11.3124294  56.4803560  14.8269303
  10.4427603  56.7737126  14.5551891  11.5483774  57.0644005  15.5476566
  21.1895923  65.5402719  14.9098831  20.8980731  65.9032699  15.7462292
  20.5768054  64.8269727  14.7312163  22.3891605  63.1055599   7.4301401
  23.2238496  63.5445403   7.5938962  22.5250734  62.6294252   6.6109647
  19.4383111  60.6635334  13.3778889  19.9137232  60.8562980  12.5697741
  18.5148676  60.7194519  13.1322273  14.0163327  52.6983177  12.3434723
  14.5345271  53.4344204  12.0181212  13.6618460  53.0047170  13.1781482
  18.1384780  57.5401094  11.6107195  19.0902203  57.6399191  11.6319419
  17.9688230  56.7479362  12.1205279  16.1599159  54.6256677  11.7966596
  15.5649091  54.9061690  11.1013084  15.8748856  55.1150578  12.5683337
  20.6172858  60.7607213  10.7249495  20.5849178  59.8223214  10.9109178
  21.2273481  60.8391250   9.9915319  20.7667346  57.5518257  10.7707778
  20.2506395  56.7676713  10.5837707  21.6507295  57.2236973  10.9354297
  26.4349407  61.8223220   9.8655531  27.1652796  61.5608508  10.4263235
  25.8256353  61.0851942   9.9057599  24.5164705  59.9631083  10.4629982
  23.7897868  59.8287048   9.8546474  24.1011991  60.2707911  11.2686701
  12.3394881  63.6821012  18.2277356  13.2597891  63.8599611  18.4217402
  12.3044464  62.7377058  18.0757055   5.3356954  61.5922047  10.8700137
   5.5542963  62.5239155  10.8888170   5.7482727  61.2330022  11.6554941
  10.2084819  57.1655253  20.2602886  10.1081546  58.1149610  20.1914977
   9.9906361  56.8373492  19.3878956  10.0716089  60.5952392  19.0767947
   9.5883171  61.3952752  19.2831836  10.1577028  60.6060337  18.1235391
   5.9989426  64.4856926  11.1136381   6.9532680  64.4540869  11.0466313
   5.8001950  64.0247550  11.9286607   6.5888809  63.0558042  13.6807179
   7.4081698  63.5502121  13.7042016   6.8625616  62.1390011  13.6524746
  22.1342500  56.1842935   7.8163414  22.7286990  55.9438671   7.1056722
  22.2069083  55.4650066   8.4436950  24.4413572  59.4909136   6.5906835
  23.8813130  59.5602325   7.3638397  23.8357076  59.3150120   5.8706332
   1.8423723  57.3896176  14.3799376   2.4882586  56.8795130  14.8686601
   1.6340874  58.1264858  14.9542801  14.3677115  64.4577024  19.8791516
  15.2368275  64.6317676  19.5178151  13.8883866  65.2771441  19.7567246
   8.5363295  71.5774125  11.5580950   9.4390542  71.6097735  11.8747445
   8.3100665  70.6474576  11.5727286   6.1821214  54.5363793  18.4774390
   7.0452675  54.1800598  18.6877715   5.6086624  54.1977688  19.1649794
  26.0269591  76.1665650   9.2836791  26.6648001  76.0472397   8.5800131
  25.9090434  77.1146494   9.3424743  22.8359297  76.1193078   9.2198316
  22.4977809  76.0034143   8.3318851  23.7049065  75.7184243   9.1999322
  23.3179080  77.2727930  15.1784521  23.3067721  76.8780728  14.3065025
  23.4799719  76.5394002  15.7718293  20.0386341  80.0565041  14.1263705
  19.7476207  80.9610672  14.0110372  20.6743326  80.0981569  14.8407775
  20.9642548  77.4341890  10.7165065  21.5606120  77.2097912  10.0022028
  21.0217520  76.6926635  11.3190513  25.5810859  73.8917104   6.3589999
  26.3673948  73.4736527   6.0080416  25.8449564  74.7963196   6.5271647
  30.9819286  73.8292337   7.2622978  31.7144458  73.2591554   7.4960807
  30.2258642  73.4413937   7.7029483  22.5995406  76.2519578   4.4586320
  22.2353613  75.7250199   5.1699241  23.4562522  75.8618047   4.2852805
  28.5044707  67.5413911  11.7217586  28.1728031  68.4109322  11.4978801
  27.9090320  67.2250195  12.4011617  24.9976226  79.7426457  11.1213499
  24.6976949  80.6451496  11.0129306  24.6527286  79.4758640  11.9734652
  18.4488708  76.1940254   7.1550203  17.5239204  76.0616468   7.3627895
  18.6973121  76.9734473   7.6520146  28.3973370  72.2608997   8.8010936
  27.4890247  72.1924406   8.5069697  28.3460966  72.7380942   9.6292762
  22.4714236  73.6798643  16.7445834  21.6947570  74.2392563  16.7348698
  23.1104799  74.1655426  17.2660704  30.2635016  70.4625435  10.5788810
  29.6209397  70.7557969   9.9328605  29.7589945  70.3478356  11.3842007
  27.9175180  74.2088609   1.2674669  28.8293036  74.4415995   1.0922367
  27.4084827  74.7925653   0.7049748  20.7260608  76.4884096  16.3063801
  21.4675292  77.0269140  16.0298624  20.0197594  77.1150385  16.4635352
  26.2015948  78.6313237  14.9035962  26.6099304  78.1895647  14.1590594
  25.4793209  78.0565864  15.1570155  22.5547018  73.5685843  12.2769519
  23.4008213  73.9925257  12.4204168  22.4945655  72.9119468  12.9708082
  26.5244762  79.1914427   8.6588251  25.8953625  79.3560141   7.9564319
  26.1370424  79.6056037   9.4299215  30.4033994  80.1268865   6.0132615
  29.7185032  80.5067766   5.4629648  30.4877844  80.7364192   6.7464562
  25.7046463  71.2290212  13.9350693  25.4607395  71.9832272  13.3984968
  25.9806394  71.6075559  14.7697940  27.6584926  77.7728824  12.6127958
  27.8701821  78.4160584  11.9362339  27.6114674  76.9391141  12.1449888
  25.2611155  70.3846645   9.5164530  24.3995634  70.6827898   9.8081268
  25.2873590  70.6017044   8.5845563  22.0772724  78.9288835   5.9238336
  22.5411070  79.2076538   5.1342958  21.8129522  78.0272280   5.7411427
  18.9696805  78.4760317   8.8618099  19.5398162  78.9047585   8.2235584
  19.5604917  78.1942901   9.5602285  19.4621972  73.6423744  17.1079110
  18.8320632  74.3240025  17.3414507  19.3558060  73.5306826  16.1632249
  28.7730754  80.6500779  10.7850316  29.5948198  80.2480967  10.5032997
  28.7693157  80.5469014  11.7366431  22.5387357  80.1984823  12.9411026
  22.6031790  80.6605230  13.7769198  21.8298281  79.5682188  13.0693336
  13.0404647  73.5626031  10.4660025  13.2912686  74.4473041  10.7317601
  13.5764196  73.3830632   9.6935117  36.8636747  76.9939528   7.1335287
  36.1100455  76.4246926   6.9779291  36.9984288  76.9602192   8.0805922
  18.7402715  67.9444510  19.4704362  18.3469660  67.3910709  20.1452006
  19.5568855  68.2555089  19.8610879  21.6570676  69.3602389  17.0624618
  22.3980389  69.9609542  16.9829081  21.8888598  68.6180027  16.5042661
  16.8012014  74.5458756  15.3402848  16.6865529  73.6444014  15.6409947
  15.9456531  74.7922453  14.9887664  23.8803851  82.4876497  16.9390348
  23.4367706  81.7012875  16.6211253  24.5421065  82.6755647  16.2734239
  18.6390973  84.0172298  11.4651027  19.1898398  83.8889362  10.6928021
  17.8002448  84.3167187  11.1145920  25.9785089  82.7679297  14.9671750
  25.9603565  83.5888178  14.4752019  26.9005009  82.6433372  15.1921891
  22.4358144  80.2823426  15.8095258  22.9686480  79.5211714  15.5794566
  21.9072225  79.9897078  16.5519413  25.6027839  65.3883492  11.3388900
  25.2592108  66.2785134  11.2628010  25.9706801  65.1985150  10.4758485
  23.1525232  70.2241804   4.9046573  22.2966829  69.8348654   4.7252212
  23.5652184  70.3033765   4.0446359  24.6824379  67.7588147   9.3038133
  24.1789174  67.7218282   8.4905938  24.9754986  68.6680890   9.3634790
  20.9267265  67.8426877   8.3104315  21.7920262  67.6469686   7.9510204
  20.9944774  67.6137229   9.2373672  30.5412395  78.1324458   1.7814508
  29.7641838  77.7935617   1.3369670  31.2203876  78.1377081   1.1069473
  25.3564424  73.2519195   1.6721116  25.0514560  73.5665344   2.5231259
  26.3094867  73.3300615   1.7148449  28.7803702  77.6058439   8.4381116
  28.1227377  78.2957700   8.5261245  29.5844101  77.9954871   8.7815103
  18.5329584  70.0729085   5.6820682  19.1073336  69.8504266   4.9493875
  19.1200566  70.1417779   6.4349283  27.5909161  75.9602812   6.4885058
  28.1041043  76.5932804   6.9906768  28.2410385  75.3604007   6.1228418
  20.8352252  66.9470334   4.4095751  20.1816664  66.6319351   3.7852366
  20.7932726  66.3246074   5.1355574  24.0689992  73.4352267   8.7343399
  23.1512553  73.6567214   8.5765087  24.4850136  73.5098578   7.8755106
  24.8525040  74.8343683   3.8646079  25.5996859  75.3465080   3.5553201
  25.1216629  74.5127736   4.7250472  28.3570957  80.9408813   4.6164201
  27.9033284  80.0999723   4.6729391  27.7264924  81.5770212   4.9538981
  27.3003877  71.8700799   5.8464868  26.5626634  71.3578185   6.1775111
  27.5530650  71.4301181   5.0348145  26.8003897  82.7785310   5.5514019
  27.0926871  83.3390367   4.8326385  27.3102517  83.0713871   6.3067178
  27.4015504  64.6477051   6.4406637  27.7074381  63.7874415   6.1532553
  28.1268109  65.2394671   6.2405631  21.6736584  74.9430844   6.9482829
  21.7285194  73.9904681   6.8725305  20.8627786  75.0990283   7.4324127
  19.6128944  73.5607904   4.7073207  18.7996809  73.8602075   5.1138400
  20.1087938  73.1663593   5.4247690  25.2103156  74.0249729  13.5388101
  25.5652543  74.2521202  14.3982567  25.8575287  74.3568105  12.9165357
  30.9400892  77.1468164   4.2437430  30.8018791  77.3369760   3.3158620
  30.5837111  77.9087547   4.7005481  19.1043019  71.1326260  10.3234442
  19.7442398  70.9915019   9.6257406  18.2720549  70.8460773   9.9473044
  30.9670272  79.2144691   9.2548702  31.4006779  79.1219981  10.1031756
  31.6801853  79.1902192   8.6168718  24.6998167  82.8146786  10.7881802
  24.7535189  83.3837722  11.5559518  23.8312948  82.9848671  10.4235840
  16.1071635  71.1026585   5.1007429  16.3678452  72.0171918   4.9916590
  16.9288807  70.6351027   5.2504042  17.5796560  72.5164342  12.2706254
  18.2519614  72.3081704  11.6218903  16.7526347  72.3186428  11.8311486
  31.8285822  79.2568392  11.7881587  32.0221712  80.1614203  12.0340862
  31.7286440  78.7975811  12.6220172  23.4822132  69.1426283  14.2871915
  22.8350047  69.8416232  14.1936391  24.2523148  69.5762427  14.6548163
  26.8900930  79.4075135  17.3622468  26.7386437  79.1785687  16.4452552
  26.8805610  80.3645736  17.3753813  23.6586267  76.9807048  12.3468734
  24.5878327  77.1318207  12.1737702  23.2377297  77.0691068  11.4917381
  22.4574598  81.0057712  10.1167272  22.3185684  80.6376496  10.9893210
  21.6689195  81.5205351   9.9451230  24.0079814  80.3839315   7.5056110
  23.6729646  80.3440085   8.4013760  23.5083759  79.7184031   7.0326520
  17.9824058  75.7906945  13.0308691  17.8443856  75.0587184  13.6320230
  18.8928981  75.7015845  12.7492879  20.6106358  75.5026904  12.5192371
  21.3205977  74.8620096  12.4778989  20.5675666  75.7539799  13.4418551
  28.5993137  82.4394257  15.4398950  28.5405683  81.7553478  14.7729533
  29.0012655  83.1813247  14.9879576  19.3235292  72.4892122  14.3388010
  18.7872649  72.0382860  14.9909606  18.7352001  72.6238031  13.5958474
  28.6010544  80.4033841  13.6712929  27.7137323  80.0659763  13.7939328
  29.1709095  79.6716873  13.9081695  15.0574413  71.6248130  11.4241004
  14.9732602  71.0173799  10.6891414  14.2357120  72.1157148  11.4250501
  22.1311698  85.0635294  10.6374173  22.0581869  85.8690265  11.1493477
  21.6889091  85.2627260   9.8122194  25.2298127  70.1101693   6.7911200
  25.7266827  69.3571656   6.4712270  24.4585109  70.1466010   6.2254409
  33.0827885  75.8142059   8.4329491  33.0717761  76.6966774   8.0623424
  32.2145264  75.4613610   8.2384028  24.5910381  84.9622128  12.7932331
  25.3038353  85.5969593  12.7208233  24.1000410  85.0585994  11.9772333
  26.3127908  78.8673380   4.3649623  25.3784187  78.9874843   4.1954327
  26.4904577  77.9645847   4.1009633  21.8133096  72.2519076   6.5182884
  21.4430884  71.6990117   7.2063790  22.3092189  71.6477210   5.9657884
  29.7000459  74.7090700   4.8999657  30.1660912  75.5418691   4.8259960
  30.1507960  74.2435681   5.6044916  19.6422295  82.7116571  13.6137902
  20.3431754  83.3453054  13.7667296  19.1717410  83.0531303  12.8533541
  27.7676691  81.0534521   1.8985809  28.0436534  80.9391116   2.8079683
  26.8981189  80.6552006   1.8597982  27.6717122  67.0771287   8.9390558
  26.7580202  67.3075514   9.1072765  28.1010224  67.1609731   9.7904591
  27.4423581  75.2661179  11.4390452  26.7895031  75.5137086  10.7842905
  27.8203961  74.4525317  11.1052930  23.4911154  76.0080990  17.9256490
  22.8151791  75.9075119  18.5958865  24.3138788  75.8520203  18.3892487
  22.2333937  87.3147917  12.1614106  22.7852245  87.4779539  12.9263191
  22.5740130  87.9052355  11.4894130  17.2098430  69.6623067  12.7635990
  17.2739756  70.5237898  12.3513388  17.1465550  69.0497069  12.0308349
  16.6850702  71.7346199  16.4109024  17.3122741  71.3523277  17.0246549
  15.8278621  71.5160401  16.7764717  27.0844811  82.1409175  18.0162760
  27.6284715  82.7539133  17.5217715  26.5031656  82.6988753  18.5329773
  25.3702324  85.2629893   9.1477788  25.2453463  84.4619633   8.6388733
  26.0281415  85.7576086   8.6591758  16.9910492  71.6178625   8.3254928
  16.2697078  72.2314593   8.1862401  17.7803748  72.1536390   8.2471574
  27.4337232  83.0638913  10.7757338  26.4867568  82.9444264  10.7035664
  27.7820005  82.1761411  10.8583599  19.7936806  68.9533052  14.5995580
  20.3171207  69.1995348  15.3621889  19.5749139  69.7853086  14.1798717
  24.4383666  82.8591629   6.9761690  24.2908628  81.9308336   7.1569260
  25.2637159  82.8811720   6.4918765  28.0417787  83.6820188   8.0626563
  28.9664335  83.4763049   7.9251014  27.8733091  83.4336589   8.9715904
  20.9989351  69.8946747  12.2845250  20.6586171  69.0954560  12.6865930
  20.2928357  70.1948458  11.7122083  21.6505822  66.9796059  10.7372573
  22.4731892  66.5056537  10.6151464  21.8943886  67.7586543  11.2371259
  24.4345180  70.7129467   1.9693807  24.6508794  71.5954104   1.6682635
  23.9539247  70.3215680   1.2399449  19.1744401  73.6715180   8.5464552
  19.0288982  73.9855483   9.4388833  18.6969605  74.2900080   7.9935450
  21.0340784  70.6617728   8.5945441  21.0202353  69.7658821   8.2577739
  21.7513212  70.6688392   9.2283727  22.8866915  71.0955068  10.6398569
  22.6284693  72.0172139  10.6382899  22.3551955  70.6985503  11.3299033
  27.8313104  84.2005855   3.4188654  28.0049981  83.6352278   2.6662507
  28.3241995  85.0006750   3.2368144  13.6490063  76.2120524  11.4852213
  13.1043531  76.9880332  11.6172487  14.5269413  76.5591329  11.3271334
  20.4377680  69.5432108   3.8633012  20.5593591  68.6148754   4.0623899
  20.1479722  69.5570794   2.9511327  23.3068870  67.2287019   6.9999731
  23.3290567  67.2926352   6.0451711  23.7236929  66.3891527   7.1940238
  33.6852495  76.9642278   5.0378954  34.1283641  76.2149603   4.6398077
  32.8079005  76.9552414   4.6552686  14.4356085  75.3390421  14.3782370
  13.6937821  75.4873056  14.9647000  14.1148830  75.5998686  13.5149119
  30.7179699  80.9672325   2.0472883  31.2431023  81.3059598   1.3222203
  30.6302052  80.0319340   1.8636018  22.3799748  84.8806399  14.1762760
  22.6886874  84.6355546  15.0485459  23.1775230  85.0853037  13.6881630
  19.9218760  71.0564105  18.0722944  19.9706915  71.9326228  17.6900714
  20.4641274  70.5141499  17.4994587  30.4073605  81.6005229  17.3524081
  29.6169149  81.5829368  16.8128581  30.1706960  82.1393522  18.1073118
  30.5271480  78.4497695  14.6656810  30.5769485  78.2847703  15.6072333
  30.4185404  77.5824954  14.2754691  27.8175243  74.4328623  15.9816116
  28.7185105  74.2935088  15.6900114  27.8923217  74.5983078  16.9214294
  22.1518048  71.8095478  14.8269303  21.2821357  72.1029044  14.5551891
  22.3877528  72.3935923  15.5476566  32.0289677  80.8694637  14.9098831
  31.7374485  81.2324617  15.7462292  31.4161808  80.1561645  14.7312163
  33.2285359  78.4347516   7.4301401  34.0632251  78.8737320   7.5938962
  33.3644488  77.9586170   6.6109647  30.2776865  75.9927251  13.3778889
  30.7530987  76.1854898  12.5697741  29.3542431  76.0486437  13.1322273
  24.8557082  68.0275095  12.3434723  25.3739026  68.7636122  12.0181212
  24.5012215  68.3339088  13.1781482  25.1069676  64.4475377   7.8635620
  25.3871430  63.7798566   8.4896046  25.8920283  64.6404473   7.3510284
  28.9778534  72.8693011  11.6107195  29.9295957  72.9691109  11.6319419
  28.8081985  72.0771280  12.1205279  26.9992914  69.9548595  11.7966596
  26.4042846  70.2353607  11.1013084  26.7142611  70.4442495  12.5683337
  31.4566612  76.0899131  10.7249495  31.4242932  75.1515132  10.9109178
  32.0667236  76.1683168   9.9915319  31.6061101  72.8810174  10.7707778
  31.0900149  72.0968631  10.5837707  32.4901049  72.5528891  10.9354297
  29.2671828  66.6251190   6.7303590  29.0696649  66.3166278   7.6146922
  29.8771533  67.3512829   6.8601520  37.2743162  77.1515138   9.8655531
  38.0046550  76.8900426  10.4263235  36.6650107  76.4143860   9.9057599
  35.3558459  75.2923000  10.4629982  34.6291623  75.1578965   9.8546474
  34.9405746  75.5999829  11.2686701  23.1788636  79.0112930  18.2277356
  24.0991645  79.1891529  18.4217402  23.1438219  78.0668975  18.0757055
  16.1750708  76.9213965  10.8700137  16.3936718  77.8531073  10.8888170
  16.5876482  76.5621939  11.6554941  23.0954926  67.4282050   2.8575825
  22.2855654  67.0829135   3.2331071  23.7839343  67.1189594   3.4463437
  25.0245474  66.5060097   4.4800122  25.5776513  66.9255550   5.1390145
  25.2615561  65.5795845   4.5223078  21.0478573  72.4947171  20.2602886
  20.9475300  73.4441528  20.1914977  20.8300115  72.1665409  19.3878956
  28.4024281  68.6160622   3.9878786  27.8222950  69.2745426   3.6056838
  28.1360214  67.7937967   3.5766203  26.8527848  68.0165680   6.1900106
  27.3527626  68.1282214   5.3814425  27.4963456  67.7126733   6.8300915
  20.9109843  75.9244309  19.0767947  20.4276925  76.7244670  19.2831836
  20.9970782  75.9352254  18.1235391  16.8383181  79.8148844  11.1136381
  17.7926434  79.7832786  11.0466313  16.6395705  79.3539468  11.9286607
  17.4282563  78.3849960  13.6807179  18.2475452  78.8794039  13.7042016
  17.7019371  77.4681928  13.6524746  27.1849159  70.7760712   3.0435134
  26.2975014  71.0610363   2.8255329  27.6003148  70.6154476   2.1962411
  30.5363695  70.8007233   6.7589473  31.3124086  71.2903686   7.0314090
  29.8111830  71.2265288   7.2161343  32.9736254  71.5134853   7.8163414
  33.5680745  71.2730589   7.1056722  33.0462838  70.7941983   8.4436950
  27.1590183  76.2915248   3.2585424  27.1025384  76.7483800   2.4193057
  27.7118525  75.5305933   3.0808267  30.9694989  72.0804980   4.0835544
  30.7131923  71.6801616   4.9143752  30.3447857  72.7948774   3.9585683
  35.2807327  74.8201053   6.5906835  34.7206885  74.8894243   7.3638397
  34.6750830  74.6442038   5.8706332  27.8924962  77.4820030   0.5537954
  27.8373766  77.3164301  -0.3873602  27.2671018  78.1896063   0.7100143
  12.6817477  72.7188094  14.3799376  13.3276341  72.2087048  14.8686601
  12.4734628  73.4556776  14.9542801  25.2070870  79.7868941  19.8791516
  26.0762029  79.9609594  19.5178151  24.7277621  80.6063358  19.7567246
  21.2021088  66.9828139   0.1323272  21.1899758  67.9269979   0.2891543
  22.0944510  66.7998284  -0.1617267  19.3757050  86.9066042  11.5580950
  20.2784296  86.9389653  11.8747445  19.1494420  85.9766493  11.5727286
  25.0173207  63.5770915   4.3869209  24.2505603  63.0229402   4.5325891
  25.4283912  63.6492784   5.2483360  17.0214968  69.8655711  18.4774390
  17.8846430  69.5092516  18.6877715  16.4480379  69.5269606  19.1649794
  36.8663345  91.4957567   9.2836791  37.5041755  91.3764315   8.5800131
  36.7484188  92.4438411   9.3424743  33.6753052  91.4484996   9.2198316
  33.3371563  91.3326060   8.3318851  34.5442820  91.0476161   9.1999322
  34.1572835  92.6019847  15.1784521  34.1461475  92.2072646  14.3065025
  34.3193474  91.8685920  15.7718293  30.8780096  95.3856959  14.1263705
  30.5869962  96.2902590  14.0110372  31.5137080  95.4273487  14.8407775
  31.8036303  92.7633808  10.7165065  32.3999875  92.5389830  10.0022028
  31.8611274  92.0218553  11.3190513  36.4204614  89.2209021   6.3589999
  37.2067703  88.8028444   6.0080416  36.6843318  90.1255113   6.5271647
  41.8213041  89.1584254   7.2622978  42.5538213  88.5883471   7.4960807
  41.0652397  88.7705855   7.7029483  33.4389161  91.5811496   4.4586320
  33.0747368  91.0542117   5.1699241  34.2956276  91.1909965   4.2852805
  39.3438461  82.8705829  11.7217586  39.0121786  83.7401240  11.4978801
  38.7484075  82.5542113  12.4011617  35.8369981  95.0718375  11.1213499
  35.5370704  95.9743413  11.0129306  35.4921040  94.8050558  11.9734652
  29.2882462  91.5232171   7.1550203  28.3632959  91.3908386   7.3627895
  29.5366875  92.3026391   7.6520146  39.2367125  87.5900915   8.8010936
  38.3284002  87.5216323   8.5069697  39.1854720  88.0672860   9.6292762
  33.3107990  89.0090560  16.7445834  32.5341324  89.5684480  16.7348698
  33.9498553  89.4947343  17.2660704  41.1028771  85.7917353  10.5788810
  40.4603151  86.0849886   9.9328605  40.5983699  85.6770274  11.3842007
  38.7568935  89.5380526   1.2674669  39.6686791  89.7707913   1.0922367
  38.2478582  90.1217571   0.7049748  31.5654363  91.8176014  16.3063801
  32.3069047  92.3561058  16.0298624  30.8591348  92.4442302  16.4635352
  37.0409702  93.9605154  14.9035962  37.4493058  93.5187565  14.1590594
  36.3186964  93.3857782  15.1570155  33.3940772  88.8977761  12.2769519
  34.2401967  89.3217175  12.4204168  33.3339410  88.2411385  12.9708082
  37.3638517  94.5206345   8.6588251  36.7347379  94.6852059   7.9564319
  36.9764179  94.9347954   9.4299215  41.2427749  95.4560783   6.0132615
  40.5578787  95.8359684   5.4629648  41.3271598  96.0656109   6.7464562
  36.5440218  86.5582129  13.9350693  36.3001150  87.3124190  13.3984968
  36.8200148  86.9367477  14.7697940  38.4978680  93.1020742  12.6127958
  38.7095576  93.7452502  11.9362339  38.4508429  92.2683058  12.1449888
  36.1004909  85.7138562   9.5164530  35.2389388  86.0119816   9.8081268
  36.1267344  85.9308961   8.5845563  32.9166479  94.2580753   5.9238336
  33.3804824  94.5368456   5.1342958  32.6523277  93.3564197   5.7411427
  29.8090560  93.8052234   8.8618099  30.3791917  94.2339503   8.2235584
  30.3998672  93.5234819   9.5602285  30.3015726  88.9715662  17.1079110
  29.6714387  89.6531943  17.3414507  30.1951814  88.8598743  16.1632249
  39.6124508  95.9792697  10.7850316  40.4341952  95.5772884  10.5032997
  39.6086911  95.8760931  11.7366431  33.3781112  95.5276740  12.9411026
  33.4425544  95.9897148  13.7769198  32.6692036  94.8974105  13.0693336
  23.8798402  88.8917948  10.4660025  24.1306440  89.7764958  10.7317601
  24.4157950  88.7122550   9.6935117  47.7030501  92.3231446   7.1335287
  46.9494210  91.7538844   6.9779291  47.8378043  92.2894110   8.0805922
  29.5796469  83.2736428  19.4704362  29.1863415  82.7202626  20.1452006
  30.3962609  83.5847006  19.8610879  32.4964430  84.6894307  17.0624618
  33.2374143  85.2901460  16.9829081  32.7282353  83.9471945  16.5042661
  27.6405768  89.8750674  15.3402848  27.5259283  88.9735931  15.6409947
  26.7850286  90.1214371  14.9887664  34.7197606  97.8168414  16.9390348
  34.2761460  97.0304793  16.6211253  35.3814819  98.0047565  16.2734239
  29.4784727  99.3464216  11.4651027  30.0292152  99.2181279  10.6928021
  28.6396203  99.6459105  11.1145920  36.8178844  98.0971214  14.9671750
  36.7997319  98.9180095  14.4752019  37.7398764  97.9725290  15.1921891
  33.2751898  95.6115344  15.8095258  33.8080235  94.8503632  15.5794566
  32.7465979  95.3188996  16.5519413  36.4421593  80.7175410  11.3388900
  36.0985862  81.6077051  11.2628010  36.8100556  80.5277067  10.4758485
  33.9918987  85.5533722   4.9046573  33.1360583  85.1640572   4.7252212
  34.4045939  85.6325682   4.0446359  35.5218133  83.0880065   9.3038133
  35.0182929  83.0510200   8.4905938  35.8148740  83.9972808   9.3634790
  31.7661019  83.1718795   8.3104315  32.6314016  82.9761603   7.9510204
  31.8338528  82.9429146   9.2373672  41.3806150  93.4616376   1.7814508
  40.6035593  93.1227535   1.3369670  42.0597631  93.4668999   1.1069473
  36.1958179  88.5811113   1.6721116  35.8908314  88.8957262   2.5231259
  37.1488621  88.6592533   1.7148449  39.6197457  92.9350357   8.4381116
  38.9621131  93.6249618   8.5261245  40.4237856  93.3246789   8.7815103
  29.3723338  85.4021003   5.6820682  29.9467090  85.1796184   4.9493875
  29.9594321  85.4709697   6.4349283  38.4302916  91.2894729   6.4885058
  38.9434797  91.9224721   6.9906768  39.0804139  90.6895925   6.1228418
  31.6746006  82.2762251   4.4095751  31.0210418  81.9611269   3.7852366
  31.6326480  81.6537992   5.1355574  34.9083746  88.7644185   8.7343399
  33.9906308  88.9859132   8.5765087  35.3243890  88.8390495   7.8755106
  35.6918794  90.1635601   3.8646079  36.4390613  90.6756998   3.5553201
  35.9610384  89.8419653   4.7250472  39.1964712  96.2700731   4.6164201
  38.7427039  95.4291641   4.6729391  38.5658678  96.9062129   4.9538981
  38.1397631  87.1992717   5.8464868  37.4020388  86.6870103   6.1775111
  38.3924405  86.7593099   5.0348145  37.6397651  98.1077228   5.5514019
  37.9320625  98.6682285   4.8326385  38.1496272  98.4005789   6.3067178
  38.2409259  79.9768969   6.4406637  38.5468135  79.1166332   6.1532553
  38.9661863  80.5686589   6.2405631  32.5130338  90.2722762   6.9482829
  32.5678948  89.3196598   6.8725305  31.7021540  90.4282201   7.4324127
  30.4522698  88.8899822   4.7073207  29.6390564  89.1893992   5.1138400
  30.9481693  88.4955511   5.4247690  36.0496910  89.3541646  13.5388101
  36.4046298  89.5813119  14.3982567  36.6969041  89.6860023  12.9165357
  41.7794647  92.4760082   4.2437430  41.6412546  92.6661678   3.3158620
  41.4230866  93.2379465   4.7005481  29.9436773  86.4618177  10.3234442
  30.5836152  86.3206936   9.6257406  29.1114304  86.1752691   9.9473044
  41.8064027  94.5436609   9.2548702  42.2400533  94.4511898  10.1031756
  42.5195607  94.5194110   8.6168718  35.5391921  98.1438703  10.7881802
  35.5928944  98.7129640  11.5559518  34.6706703  98.3140588  10.4235840
  26.9465390  86.4318502   5.1007429  27.2072207  87.3463836   4.9916590
  27.7682562  85.9642945   5.2504042  28.4190315  87.8456259  12.2706254
  29.0913368  87.6373622  11.6218903  27.5920101  87.6478345  11.8311486
  42.6679576  94.5860310  11.7881587  42.8615466  95.4906120  12.0340862
  42.5680194  94.1267729  12.6220172  34.3215887  84.4718200  14.2871915
  33.6743802  85.1708150  14.1936391  35.0916902  84.9054344  14.6548163
  37.7294685  94.7367053  17.3622468  37.5780191  94.5077604  16.4452552
  37.7199364  95.6937654  17.3753813  34.4980021  92.3098965  12.3468734
  35.4272081  92.4610125  12.1737702  34.0771051  92.3982986  11.4917381
  33.2968353  96.3349630  10.1167272  33.1579439  95.9668414  10.9893210
  32.5082949  96.8497269   9.9451230  34.8473568  95.7131232   7.5056110
  34.5123401  95.6732002   8.4013760  34.3477514  95.0475948   7.0326520
  28.8217812  91.1198862  13.0308691  28.6837610  90.3879101  13.6320230
  29.7322736  91.0307763  12.7492879  31.4500113  90.8318822  12.5192371
  32.1599731  90.1912014  12.4778989  31.4069421  91.0831717  13.4418551
  39.4386891  97.7686175  15.4398950  39.3799438  97.0845395  14.7729533
  39.8406410  98.5105165  14.9879576  30.1629047  87.8184040  14.3388010
  29.6266404  87.3674778  14.9909606  29.5745755  87.9529948  13.5958474
  39.4404299  95.7325759  13.6712929  38.5531077  95.3951681  13.7939328
  40.0102850  95.0008790  13.9081695  25.8968168  86.9540047  11.4241004
  25.8126357  86.3465717  10.6891414  25.0750874  87.4449066  11.4250501
  32.9705452 100.3927211  10.6374173  32.8975624 101.1982183  11.1493477
  32.5282845 100.5919177   9.8122194  36.0691882  85.4393611   6.7911200
  36.5660581  84.6863573   6.4712270  35.2978863  85.4757928   6.2254409
  43.9221639  91.1433976   8.4329491  43.9111515  92.0258692   8.0623424
  43.0539019  90.7905527   8.2384028  35.4304136 100.2914045  12.7932331
  36.1432108 100.9261510  12.7208233  34.9394164 100.3877911  11.9772333
  37.1521663  94.1965298   4.3649623  36.2177941  94.3166761   4.1954327
  37.3298331  93.2937765   4.1009633  32.6526851  87.5810994   6.5182884
  32.2824638  87.0282034   7.2063790  33.1485943  86.9769127   5.9657884
  40.5394214  90.0382617   4.8999657  41.0054666  90.8710609   4.8259960
  40.9901714  89.5727599   5.6044916  30.4816049  98.0408489  13.6137902
  31.1825509  98.6744972  13.7667296  30.0111164  98.3823220  12.8533541
  38.6070445  96.3826439   1.8985809  38.8830289  96.2683033   2.8079683
  37.7374944  95.9843924   1.8597982  38.5110877  82.4063204   8.9390558
  37.5973956  82.6367431   9.1072765  38.9403978  82.4901648   9.7904591
  38.2817335  90.5953096  11.4390452  37.6288785  90.8429004  10.7842905
  38.6597715  89.7817235  11.1052930  34.3304908  91.3372907  17.9256490
  33.6545545  91.2367037  18.5958865  35.1532542  91.1812121  18.3892487
  33.0727691 102.6439835  12.1614106  33.6245999 102.8071456  12.9263191
  33.4133884 103.2344273  11.4894130  28.0492184  84.9914985  12.7635990
  28.1133511  85.8529816  12.3513388  27.9859305  84.3788986  12.0308349
  27.5244457  87.0638117  16.4109024  28.1516496  86.6815194  17.0246549
  26.6672376  86.8452319  16.7764717  37.9238565  97.4701092  18.0162760
  38.4678469  98.0831051  17.5217715  37.3425410  98.0280671  18.5329773
  36.2096078 100.5921810   9.1477788  36.0847218  99.7911550   8.6388733
  36.8675169 101.0868004   8.6591758  27.8304247  86.9470543   8.3254928
  27.1090832  87.5606511   8.1862401  28.6197502  87.4828308   8.2471574
  38.2730987  98.3930830  10.7757338  37.3261322  98.2736182  10.7035664
  38.6213760  97.5053328  10.8583599  30.6330560  84.2824969  14.5995580
  31.1564962  84.5287266  15.3621889  30.4142893  85.1145004  14.1798717
  35.2777420  98.1883547   6.9761690  35.1302382  97.2600254   7.1569260
  36.1030913  98.2103637   6.4918765  38.8811542  99.0112105   8.0626563
  39.8058089  98.8054967   7.9251014  38.7126845  98.7628507   8.9715904
  31.8383105  85.2238664  12.2845250  31.4979925  84.4246478  12.6865930
  31.1322111  85.5240375  11.7122083  32.4899577  82.3087977  10.7372573
  33.3125646  81.8348455  10.6151464  32.7337640  83.0878461  11.2371259
  35.2738934  86.0421384   1.9693807  35.4902549  86.9246022   1.6682635
  34.7933001  85.6507598   1.2399449  30.0138156  89.0007098   8.5464552
  29.8682736  89.3147401   9.4388833  29.5363359  89.6191998   7.9935450
  31.8734539  85.9909646   8.5945441  31.8596107  85.0950739   8.2577739
  32.5906967  85.9980309   9.2283727  33.7260669  86.4246986  10.6398569
  33.4678447  87.3464056  10.6382899  33.1945710  86.0277420  11.3299033
  38.6706858  99.5297773   3.4188654  38.8443736  98.9644195   2.6662507
  39.1635749 100.3298668   3.2368144  24.4883818  91.5412442  11.4852213
  23.9437286  92.3172250  11.6172487  25.3663168  91.8883246  11.3271334
  31.2771435  84.8724026   3.8633012  31.3987346  83.9440672   4.0623899
  30.9873477  84.8862712   2.9511327  34.1462625  82.5578936   6.9999731
  34.1684322  82.6218269   6.0451711  34.5630684  81.7183445   7.1940238
  44.5246249  92.2934196   5.0378954  44.9677395  91.5441521   4.6398077
  43.6472760  92.2844332   4.6552686  25.2749840  90.6682338  14.3782370
  24.5331576  90.8164974  14.9647000  24.9542584  90.9290604  13.5149119
  41.5573454  96.2964243   2.0472883  42.0824778  96.6351516   1.3222203
  41.4695806  95.3611258   1.8636018  33.2193502 100.2098316  14.1762760
  33.5280629  99.9647463  15.0485459  34.0168984 100.4144955  13.6881630
  30.7612514  86.3856023  18.0722944  30.8100670  87.2618146  17.6900714
  31.3035028  85.8433416  17.4994587  41.2467360  96.9297146  17.3524081
  40.4562903  96.9121285  16.8128581  41.0100714  97.4685440  18.1073118
  41.3665235  93.7789613  14.6656810  41.4163240  93.6139620  15.6072333
  41.2579158  92.9116872  14.2754691  38.6568997  89.7620541  15.9816116
  39.5578860  89.6227006  15.6900114  38.7316972  89.9274996  16.9214294
  32.9911802  87.1387396  14.8269303  32.1215112  87.4320962  14.5551891
  33.2271283  87.7227841  15.5476566  42.8683432  96.1986554  14.9098831
  42.5768240  96.5616535  15.7462292  42.2555563  95.4853563  14.7312163
  44.0679114  93.7639434   7.4301401  44.9026005  94.2029238   7.5938962
  44.2038243  93.2878087   6.6109647  41.1170620  91.3219169  13.3778889
  41.5924741  91.5146815  12.5697741  40.1936185  91.3778355  13.1322273
  35.6950836  83.3567012  12.3434723  36.2132780  84.0928039  12.0181212
  35.3405969  83.6631006  13.1781482  35.9463430  79.7767295   7.8635620
  36.2265184  79.1090484   8.4896046  36.7314037  79.9696391   7.3510284
  39.8172289  88.1984929  11.6107195  40.7689712  88.2983027  11.6319419
  39.6475739  87.4063198  12.1205279  37.8386668  85.2840512  11.7966596
  37.2436600  85.5645525  11.1013084  37.5536365  85.7734413  12.5683337
  42.2960367  91.4191049  10.7249495  42.2636687  90.4807049  10.9109178
  42.9060990  91.4975085   9.9915319  42.4454855  88.2102092  10.7707778
  41.9293904  87.4260549  10.5837707  43.3294804  87.8820809  10.9354297
  40.1065582  81.9543108   6.7303590  39.9090403  81.6458196   7.6146922
  40.7165288  82.6804747   6.8601520  48.1136916  92.4807056   9.8655531
  48.8440305  92.2192344  10.4263235  47.5043862  91.7435777   9.9057599
  46.1952214  90.6214918  10.4629982  45.4685377  90.4870883   9.8546474
  45.7799500  90.9291747  11.2686701  34.0182390  94.3404848  18.2277356
  34.9385399  94.5183447  18.4217402  33.9831973  93.3960893  18.0757055
  27.0144463  92.2505882  10.8700137  27.2330472  93.1822990  10.8888170
  27.4270236  91.8913857  11.6554941  33.9348680  82.7573968   2.8575825
  33.1249409  82.4121053   3.2331071  34.6233097  82.4481512   3.4463437
  35.8639229  81.8352015   4.4800122  36.4170267  82.2547468   5.1390145
  36.1009315  80.9087763   4.5223078  31.8872328  87.8239088  20.2602886
  31.7869055  88.7733445  20.1914977  31.6693870  87.4957327  19.3878956
  39.2418036  83.9452540   3.9878786  38.6616705  84.6037344   3.6056838
  38.9753968  83.1229884   3.5766203  37.6921602  83.3457597   6.1900106
  38.1921380  83.4574132   5.3814425  38.3357210  83.0418650   6.8300915
  31.7503598  91.2536227  19.0767947  31.2670680  92.0536587  19.2831836
  31.8364537  91.2644172  18.1235391  27.6776935  95.1440762  11.1136381
  28.6320189  95.1124704  11.0466313  27.4789459  94.6831386  11.9286607
  28.2676318  93.7141878  13.6807179  29.0869207  94.2085956  13.7042016
  28.5413125  92.7973846  13.6524746  38.0242914  86.1052630   3.0435134
  37.1368769  86.3902281   2.8255329  38.4396903  85.9446394   2.1962411
  41.3757450  86.1299151   6.7589473  42.1517840  86.6195604   7.0314090
  40.6505584  86.5557205   7.2161343  43.8130009  86.8426770   7.8163414
  44.4074499  86.6022506   7.1056722  43.8856592  86.1233901   8.4436950
  37.9983938  91.6207166   3.2585424  37.9419139  92.0775717   2.4193057
  38.5512280  90.8597851   3.0808267  41.8088743  87.4096898   4.0835544
  41.5525678  87.0093534   4.9143752  41.1841611  88.1240692   3.9585683
  46.1201081  90.1492971   6.5906835  45.5600639  90.2186160   7.3638397
  45.5144585  89.9733956   5.8706332  38.7318717  92.8111947   0.5537954
  38.6767521  92.6456219  -0.3873602  38.1064772  93.5187980   0.7100143
  23.5211232  88.0480012  14.3799376  24.1670095  87.5378966  14.8686601
  23.3128383  88.7848693  14.9542801  36.0464624  95.1160859  19.8791516
  36.9155784  95.2901511  19.5178151  35.5671375  95.9355276  19.7567246
  32.0414842  82.3120056   0.1323272  32.0293512  83.2561896   0.2891543
  32.9338264  82.1290202  -0.1617267  30.2150804 102.2357960  11.5580950
  31.1178051 102.2681570  11.8747445  29.9888174 101.3058411  11.5727286
  35.8566962  78.9062833   4.3869209  35.0899358  78.3521320   4.5325891
  36.2677667  78.9784702   5.2483360  27.8608723  85.1947629  18.4774390
  28.7240184  84.8384434  18.6877715  27.2874133  84.8561524  19.1649794
  47.7057100 106.8249485   9.2836791  48.3435510 106.7056232   8.5800131
  47.5877943 107.7730329   9.3424743  44.5146806 106.7776913   9.2198316
  44.1765318 106.6617978   8.3318851  45.3836574 106.3768078   9.1999322
  44.9966589 107.9311765  15.1784521  44.9855230 107.5364563  14.3065025
  45.1587228 107.1977838  15.7718293  41.7173850 110.7148877  14.1263705
  41.4263716 111.6194508  14.0110372  42.3530834 110.7565404  14.8407775
  42.6430057 108.0925725  10.7165065  43.2393629 107.8681748  10.0022028
  42.7005029 107.3510471  11.3190513  50.1832216  98.1997746  11.7217586
  49.8515540  99.0693157  11.4978801  49.5877829  97.8834030  12.4011617
  46.6763735 110.4010292  11.1213499  46.3764458 111.3035331  11.0129306
  46.3314795 110.1342475  11.9734652  40.1276217 106.8524089   7.1550203
  39.2026713 106.7200303   7.3627895  40.3760630 107.6318308   7.6520146
  50.0760879 102.9192832   8.8010936  49.1677756 102.8508241   8.5069697
  50.0248475 103.3964777   9.6292762  44.1501745 104.3382478  16.7445834
  43.3735079 104.8976398  16.7348698  44.7892308 104.8239261  17.2660704
  51.9422525 101.1209271  10.5788810  51.2996906 101.4141804   9.9328605
  51.4377454 101.0062191  11.3842007  42.4048117 107.1467931  16.3063801
  43.1462801 107.6852975  16.0298624  41.6985103 107.7734220  16.4635352
  47.8803457 109.2897072  14.9035962  48.2886813 108.8479482  14.1590594
  47.1580718 108.7149699  15.1570155  44.2334527 104.2269679  12.2769519
  45.0795722 104.6509092  12.4204168  44.1733164 103.5703303  12.9708082
  47.3833972 101.8874047  13.9350693  47.1394904 102.6416108  13.3984968
  47.6593903 102.2659395  14.7697940  49.3372435 108.4312659  12.6127958
  49.5489330 109.0744419  11.9362339  49.2902183 107.5974976  12.1449888
  46.9398664 101.0430480   9.5164530  46.0783143 101.3411734   9.8081268
  46.9661098 101.2600879   8.5845563  40.6484314 109.1344152   8.8618099
  41.2185671 109.5631420   8.2235584  41.2392426 108.8526737   9.5602285
  41.1409481 104.3007580  17.1079110  40.5108141 104.9823860  17.3414507
  41.0345569 104.1890661  16.1632249  44.2174866 110.8568658  12.9411026
  44.2819299 111.3189065  13.7769198  43.5085790 110.2266023  13.0693336
  34.7192156 104.2209866  10.4660025  34.9700195 105.1056876  10.7317601
  35.2551705 104.0414468   9.6935117  40.4190224  98.6028345  19.4704362
  40.0257169  98.0494544  20.1452006  41.2356364  98.9138924  19.8610879
  43.3358185 100.0186225  17.0624618  44.0767898 100.6193378  16.9829081
  43.5676107  99.2763862  16.5042661  38.4799523 105.2042592  15.3402848
  38.3653038 104.3027849  15.6409947  37.6244040 105.4506289  14.9887664
  45.5591360 113.1460332  16.9390348  45.1155215 112.3596711  16.6211253
  46.2208574 113.3339483  16.2734239  40.3178481 114.6756134  11.4651027
  40.8685907 114.5473197  10.6928021  39.4789957 114.9751023  11.1145920
  47.6572598 113.4263132  14.9671750  47.6391074 114.2472013  14.4752019
  48.5792518 113.3017207  15.1921891  44.1145653 110.9407261  15.8095258
  44.6473989 110.1795550  15.5794566  43.5859734 110.6480913  16.5519413
  47.2815348  96.0467327  11.3388900  46.9379617  96.9368969  11.2628010
  47.6494310  95.8568985  10.4758485  44.8312741 100.8825639   4.9046573
  43.9754338 100.4932490   4.7252212  45.2439693 100.9617600   4.0446359
  46.3611888  98.4171983   9.3038133  45.8576683  98.3802118   8.4905938
  46.6542495  99.3264725   9.3634790  42.6054774  98.5010712   8.3104315
  43.4707771  98.3053521   7.9510204  42.6732283  98.2721064   9.2373672
  40.2117093 100.7312920   5.6820682  40.7860845 100.5088102   4.9493875
  40.7988075 100.8001615   6.4349283  42.5139761  97.6054169   4.4095751
  41.8604173  97.2903186   3.7852366  42.4720235  96.9829910   5.1355574
  45.7477501 104.0936103   8.7343399  44.8300062 104.3151050   8.5765087
  46.1637645 104.1682413   7.8755106  49.0803013  95.3060887   6.4406637
  49.3861890  94.4458250   6.1532553  49.8055618  95.8978507   6.2405631
  43.3524093 105.6014680   6.9482829  43.4072703 104.6488516   6.8725305
  42.5415295 105.7574119   7.4324127  41.2916453 104.2191739   4.7073207
  40.4784318 104.5185910   5.1138400  41.7875447 103.8247428   5.4247690
  46.8890665 104.6833564  13.5388101  47.2440052 104.9105037  14.3982567
  47.5362796 105.0151941  12.9165357  40.7830528 101.7910095  10.3234442
  41.4229907 101.6498854   9.6257406  39.9508058 101.5044608   9.9473044
  37.7859144 101.7610420   5.1007429  38.0465961 102.6755753   4.9916590
  38.6076316 101.2934863   5.2504042  39.2584069 103.1748177  12.2706254
  39.9307123 102.9665539  11.6218903  38.4313856 102.9770263  11.8311486
  45.1609641  99.8010118  14.2871915  44.5137556 100.5000068  14.1936391
  45.9310657 100.2346262  14.6548163  48.5688439 110.0658970  17.3622468
  48.4173946 109.8369522  16.4452552  48.5593119 111.0229572  17.3753813
  45.3373776 107.6390883  12.3468734  46.2665836 107.7902043  12.1737702
  44.9164806 107.7274904  11.4917381  44.1362107 111.6641547  10.1167272
  43.9973193 111.2960332  10.9893210  43.3476704 112.1789187   9.9451230
  39.6611567 106.4490780  13.0308691  39.5231365 105.7171019  13.6320230
  40.5716490 106.3599680  12.7492879  42.2893867 106.1610739  12.5192371
  42.9993486 105.5203932  12.4778989  42.2463175 106.4123634  13.4418551
  50.2780646 113.0978093  15.4398950  50.2193192 112.4137313  14.7729533
  50.6800164 113.8397083  14.9879576  41.0022801 103.1475957  14.3388010
  40.4660158 102.6966696  14.9909606  40.4139510 103.2821866  13.5958474
  50.2798053 111.0617677  13.6712929  49.3924832 110.7243598  13.7939328
  50.8496604 110.3300708  13.9081695  36.7361922 102.2831965  11.4241004
  36.6520111 101.6757635  10.6891414  35.9144629 102.7740983  11.4250501
  46.9085636 100.7685529   6.7911200  47.4054336 100.0155491   6.4712270
  46.1372618 100.8049845   6.2254409  43.4920605 102.9102912   6.5182884
  43.1218393 102.3573952   7.2063790  43.9879698 102.3061045   5.9657884
  41.3209804 113.3700407  13.6137902  42.0219263 114.0036890  13.7667296
  40.8504919 113.7115138  12.8533541  49.3504631  97.7355122   8.9390558
  48.4367711  97.9659349   9.1072765  49.7797733  97.8193566   9.7904591
  49.1211090 105.9245014  11.4390452  48.4682540 106.1720921  10.7842905
  49.4991470 105.1109152  11.1052930  45.1698663 106.6664825  17.9256490
  44.4939300 106.5658954  18.5958865  45.9926297 106.5104039  18.3892487
  38.8885939 100.3206902  12.7635990  38.9527265 101.1821733  12.3513388
  38.8253059  99.7080904  12.0308349  38.3638211 102.3930035  16.4109024
  38.9910250 102.0107112  17.0246549  37.5066130 102.1744237  16.7764717
  48.7632320 112.7993010  18.0162760  49.3072224 113.4122968  17.5217715
  48.1819165 113.3572588  18.5329773  38.6698001 102.2762461   8.3254928
  37.9484587 102.8898428   8.1862401  39.4591257 102.8120225   8.2471574
  41.4724315  99.6116887  14.5995580  41.9958716  99.8579184  15.3621889
  41.2536648 100.4436922  14.1798717  42.6776860 100.5530582  12.2845250
  42.3373680  99.7538395  12.6865930  41.9715866 100.8532293  11.7122083
  43.3293331  97.6379895  10.7372573  44.1519401  97.1640373  10.6151464
  43.5731395  98.4170378  11.2371259  40.8531910 104.3299015   8.5464552
  40.7076491 104.6439318   9.4388833  40.3757114 104.9483916   7.9935450
  42.7128293 101.3201563   8.5945441  42.6989862 100.4242656   8.2577739
  43.4300721 101.3272227   9.2283727  44.5654424 101.7538903  10.6398569
  44.3072202 102.6755974  10.6382899  44.0339464 101.3569338  11.3299033
  35.3277572 106.8704360  11.4852213  34.7831040 107.6464168  11.6172487
  36.2056922 107.2175164  11.3271334  42.1165189 100.2015943   3.8633012
  42.2381100  99.2732590   4.0623899  41.8267231 100.2154629   2.9511327
  44.9856379  97.8870854   6.9999731  45.0078076  97.9510187   6.0451711
  45.4024438  97.0475363   7.1940238  36.1143594 105.9974256  14.3782370
  35.3725330 106.1456891  14.9647000  35.7936338 106.2582521  13.5149119
  44.0587257 115.5390234  14.1762760  44.3674383 115.2939381  15.0485459
  44.8562739 115.7436873  13.6881630  41.6006269 101.7147941  18.0722944
  41.6494424 102.5910064  17.6900714  42.1428783 101.1725334  17.4994587
  52.0861114 112.2589064  17.3524081  51.2956658 112.2413203  16.8128581
  51.8494469 112.7977358  18.1073118  52.2058989 109.1081530  14.6656810
  52.2556994 108.9431538  15.6072333  52.0972913 108.2408789  14.2754691
  49.4962752 105.0912458  15.9816116  50.3972614 104.9518923  15.6900114
  49.5710726 105.2566913  16.9214294  43.8305557 102.4679313  14.8269303
  42.9608866 102.7612879  14.5551891  44.0665037 103.0519758  15.5476566
  53.7077186 111.5278472  14.9098831  53.4161994 111.8908453  15.7462292
  53.0949317 110.8145480  14.7312163  51.9564374 106.6511087  13.3778889
  52.4318496 106.8438733  12.5697741  51.0329940 106.7070272  13.1322273
  46.5344591  98.6858930  12.3434723  47.0526535  99.4219957  12.0181212
  46.1799724  98.9922923  13.1781482  46.7857185  95.1059213   7.8635620
  47.0658939  94.4382402   8.4896046  47.5707792  95.2988308   7.3510284
  50.6566043 103.5276847  11.6107195  51.6083466 103.6274944  11.6319419
  50.4869494 102.7355115  12.1205279  48.6780423 100.6132430  11.7966596
  48.0830355 100.8937443  11.1013084  48.3930119 101.1026331  12.5683337
  53.2848610 103.5394010  10.7707778  52.7687658 102.7552466  10.5837707
  54.1688558 103.2112726  10.9354297  50.9459337  97.2835025   6.7303590
  50.7484158  96.9750114   7.6146922  51.5559042  98.0096664   6.8601520
  44.8576145 109.6696765  18.2277356  45.7779154 109.8475364  18.4217402
  44.8225728 108.7252811  18.0757055  37.8538217 107.5797800  10.8700137
  38.0724227 108.5114908  10.8888170  38.2663991 107.2205775  11.6554941
  44.7742435  98.0865885   2.8575825  43.9643163  97.7412970   3.2331071
  45.4626852  97.7773429   3.4463437  46.7032983  97.1643932   4.4800122
  47.2564022  97.5839386   5.1390145  46.9403070  96.2379680   4.5223078
  42.7266082 103.1531006  20.2602886  42.6262809 104.1025363  20.1914977
  42.5087624 102.8249245  19.3878956  48.5315357  98.6749515   6.1900106
  49.0315135  98.7866050   5.3814425  49.1750965  98.3710568   6.8300915
  42.5897352 106.5828145  19.0767947  42.1064434 107.3828505  19.2831836
  42.6758291 106.5936090  18.1235391  38.5170690 110.4732679  11.1136381
  39.4713943 110.4416622  11.0466313  38.3183214 110.0123303  11.9286607
  39.1070072 109.0433795  13.6807179  39.9262961 109.5377874  13.7042016
  39.3806880 108.1265764  13.6524746  34.3604986 103.3771929  14.3799376
  35.0063850 102.8670883  14.8686601  34.1522137 104.1140611  14.9542801
  46.8858378 110.4452777  19.8791516  47.7549538 110.6193429  19.5178151
  46.4065130 111.2647194  19.7567246  41.0544559 117.5649878  11.5580950
  41.9571805 117.5973488  11.8747445  40.8281929 116.6350329  11.5727286
  46.6960716  94.2354751   4.3869209  45.9293112  93.6813237   4.5325891
  47.1071421  94.3076619   5.2483360  38.7002477 100.5239546  18.4774390
  39.5633939 100.1676351  18.6877715  38.1267888 100.1853441  19.1649794
  51.2583978 113.9320263  19.4704362  50.8650924 113.3786462  20.1452006
  52.0750118 114.2430842  19.8610879  54.1751939 115.3478142  17.0624618
  54.9161652 115.9485295  16.9829081  54.4069862 114.6055780  16.5042661
  49.2031966 117.7221953  16.4109024  49.8304005 117.3399030  17.0246549
  48.3459885 117.5036154  16.7764717  52.4400023 117.0439859  18.0722944
  52.4888178 117.9201981  17.6900714  52.9822537 116.5017252  17.4994587
  53.5659837 118.4822924  20.2602886  53.4656564 119.4317281  20.1914977
  53.3481379 118.1541162  19.3878956  45.1998741 118.7063847  14.3799376
  45.8457604 118.1962801  14.8686601  44.9915892 119.4432529  14.9542801
  49.5396232 115.8531464  18.4774390  50.4027693 115.4968269  18.6877715
  48.9661642 115.5145359  19.1649794  28.5993138  59.4456380   2.1644256
  28.5405684  58.7615600   1.4974839  29.0012657  60.1875370   1.7124882
  27.0844812  59.1471297   4.7408067  27.6284716  59.7601256   4.2463021
  26.5031657  59.7050876   5.2575080  30.4073606  58.6067351   4.0769388
  29.6169150  58.5891490   3.5373887  30.1706961  59.1455645   4.8318424
  32.0289678  57.8756759   1.6344138  31.7374487  58.2386740   2.4707599
  31.4161810  57.1623768   1.4557470  25.2070871  56.7931064   6.6036823
  26.0762030  56.9671716   6.2423458  24.7277622  57.6125481   6.4812552
  36.8663346  68.5019690  -3.9917902  37.5041756  68.3826437  -4.6954562
  36.7484189  69.4500534  -3.9329950  33.6753053  68.4547118  -4.0556378
  33.3371564  68.3388183  -4.9435843  34.5442821  68.0538283  -4.0755372
  34.1572836  69.6081970   1.9029828  34.1461477  69.2134768   1.0310332
  34.3193475  68.8748042   2.4963599  30.8780097  72.3919082   0.8509012
  30.5869963  73.2964713   0.7355678  31.5137081  72.4335609   1.5653081
  31.8036304  69.7695930  -2.5589628  32.3999876  69.5451953  -3.2732666
  31.8611275  69.0280676  -1.9564181  41.8213042  66.1646377  -6.0131716
  42.5538214  65.5945594  -5.7793886  41.0652398  65.7767978  -5.5725210
  39.3438462  59.8767951  -1.5537107  39.0121787  60.7463362  -1.7775892
  38.7484076  59.5604235  -0.8743077  35.8369982  72.0780497  -2.1541194
  35.5370705  72.9805536  -2.2625387  35.4921042  71.8112680  -1.3020042
  39.2367126  64.5963037  -4.4743757  38.3284003  64.5278446  -4.7684996
  39.1854722  65.0734982  -3.6461932  33.3107992  66.0152683   3.4691140
  32.5341326  66.5746603   3.4594005  33.9498555  66.5009466   3.9906010
  41.1028772  62.7979476  -2.6965883  40.4603152  63.0912009  -3.3426089
  40.5983701  62.6832396  -1.8912687  31.5654364  68.8238136   3.0309107
  32.3069048  69.3623180   2.7543931  30.8591349  69.4504425   3.1880659
  37.0409704  70.9667277   1.6281269  37.4493060  70.5249687   0.8835901
  36.3186965  70.3919904   1.8815462  33.3940774  65.9039884  -0.9985174
  34.2401969  66.3279297  -0.8550525  33.3339411  65.2473508  -0.3046611
  37.3638518  71.5268467  -4.6166442  36.7347381  71.6914182  -5.3190375
  36.9764180  71.9410077  -3.8455478  41.2427750  72.4622905  -7.2622079
  40.5578788  72.8421807  -7.8125045  41.3271599  73.0718232  -6.5290131
  36.5440219  63.5644252   0.6595999  36.3001151  64.3186312   0.1230275
  36.8200149  63.9429600   1.4943246  38.4978682  70.1082864  -0.6626735
  38.7095577  70.7514624  -1.3392354  38.4508430  69.2745181  -1.1304805
  29.8090561  70.8114357  -4.4136594  30.3791918  71.2401625  -5.0519110
  30.3998673  70.5296942  -3.7152408  30.3015728  65.9777784   3.8324417
  29.6714388  66.6594065   4.0659814  30.1951815  65.8660866   2.8877555
  39.6124510  72.9854820  -2.4904378  40.4341953  72.5835007  -2.7721696
  39.6086912  72.8823054  -1.5388262  33.3781113  72.5338863  -0.3343667
  33.4425546  72.9959270   0.5014504  32.6692037  71.9036228  -0.2061358
  47.7030503  69.3293568  -6.1419406  46.9494211  68.7600966  -6.2975402
  47.8378044  69.2956233  -5.1948772  29.5796470  60.2798550   6.1949668
  29.1863416  59.7264749   6.8697312  30.3962611  60.5909129   6.5856186
  32.4964431  61.6956429   3.7869925  33.2374145  62.2963583   3.7074387
  32.7282354  60.9534067   3.2287967  27.6405769  66.8812797   2.0648154
  27.5259284  65.9798054   2.3655253  26.7850287  67.1276493   1.7132971
  34.7197607  74.8230537   3.6635655  34.2761461  74.0366916   3.3456560
  35.3814821  75.0109687   2.9979546  29.4784728  76.3526339  -1.8103666
  30.0292153  76.2243402  -2.5826673  28.6396204  76.6521228  -2.1608774
  36.8178845  75.1033337   1.6917056  36.7997320  75.9242218   1.1997325
  37.7398765  74.9787412   1.9167197  33.2751899  72.6177466   2.5340565
  33.8080236  71.8565755   2.3039873  32.7465980  72.3251118   3.2764719
  39.6197458  69.9412479  -4.8373577  38.9621132  70.6311741  -4.7493448
  40.4237857  70.3308911  -4.4939591  38.4302917  68.2956852  -6.7869635
  38.9434799  68.9286844  -6.2847926  39.0804141  67.6958048  -7.1526275
  34.9083748  65.7706308  -4.5411295  33.9906309  65.9921255  -4.6989607
  35.3243891  65.8452618  -5.3999587  39.1964713  73.2762854  -8.6590493
  38.7427040  72.4353763  -8.6025302  38.5658680  73.9124252  -8.3215712
  37.6397652  75.1139350  -7.7240674  37.9320627  75.6744407  -8.4428309
  38.1496273  75.4067911  -6.9687515  36.0496911  66.3603769   0.2633408
  36.4046299  66.5875242   1.1227874  36.6969042  66.6922146  -0.3589337
  41.7794648  69.4822205  -9.0317263  41.6412547  69.6723801  -9.9596074
  41.4230867  70.2441588  -8.5749212  41.8064028  71.5498732  -4.0205992
  42.2400534  71.4574021  -3.1722937  42.5195609  71.5256232  -4.6585976
  35.5391923  75.1500826  -2.4872891  35.5928945  75.7191762  -1.7195175
  34.6706704  75.3202711  -2.8518854  28.4190316  64.8518382  -1.0048440
  29.0913370  64.6435744  -1.6535791  27.5920103  64.6540468  -1.4443207
  42.6679577  71.5922432  -1.4873106  42.8615467  72.4968243  -1.2413831
  42.5680196  71.1329851  -0.6534521  34.3215888  61.4780323   1.0117221
  33.6743803  62.1770273   0.9181698  35.0916904  61.9116467   1.3793469
  37.7294686  71.7429175   4.0867774  37.5780192  71.5139727   3.1697858
  37.7199366  72.6999777   4.0999119  34.4980022  69.3161088  -0.9285959
  35.4272082  69.4672247  -1.1016992  34.0771052  69.4045109  -1.7837313
  33.2968354  73.3411752  -3.1587421  33.1579440  72.9730537  -2.2861483
  32.5082950  73.8559392  -3.3303464  34.8473569  72.7193355  -5.7698584
  34.5123402  72.6794125  -4.8740934  34.3477515  72.0538071  -6.2428173
  28.8217813  68.1260985  -0.2446003  28.6837611  67.3941224   0.3565537
  29.7322737  68.0369885  -0.5261815  31.4500114  67.8380944  -0.7562323
  32.1599733  67.1974137  -0.7975704  31.4069422  68.0893839   0.1663858
  39.4386893  74.7748298   2.1644256  39.3799439  74.0907518   1.4974839
  39.8406411  75.5167288   1.7124882  30.1629048  64.8246162   1.0633317
  29.6266405  64.3736901   1.7154913  29.5745756  64.9592071   0.3203781
  39.4404300  72.7387882   0.3958236  38.5531079  72.4013803   0.5184635
  40.0102851  72.0070913   0.6327001  32.9705453  77.3989334  -2.6380521
  32.8975625  78.2044305  -2.1261216  32.5282846  77.5981300  -3.4632499
  43.9221641  68.1496099  -4.8425202  43.9111517  69.0320814  -5.2131269
  43.0539020  67.7967650  -5.0370665  35.4304137  77.2976168  -0.4822362
  36.1432109  77.9323633  -0.5546461  34.9394166  77.3940034  -1.2982360
  30.4816050  75.0470611   0.3383209  31.1825510  75.6807094   0.4912603
  30.0111165  75.3885343  -0.4221152  38.2817336  67.6015219  -1.8364241
  37.6288787  67.8491126  -2.4911788  38.6597716  66.7879357  -2.1701764
  34.3304909  68.3435030   4.6501796  33.6545546  68.2429159   5.3204171
  35.1532543  68.1874244   5.1137793  33.0727692  79.6501957  -1.1140588
  33.6246000  79.8133579  -0.3491503  33.4133886  80.2406395  -1.7860563
  27.5244458  64.0700240   3.1354331  28.1516497  63.6877317   3.7491855
  26.6672377  63.8514442   3.5010024  37.9238567  74.4763215   4.7408067
  38.4678471  75.0893173   4.2463021  37.3425411  75.0342793   5.2575080
  36.2096080  77.5983933  -4.1276906  36.0847219  76.7973673  -4.6365960
  36.8675171  78.0930126  -4.6162936  38.2730988  75.3992953  -2.4997356
  37.3261323  75.2798304  -2.5719029  38.6213761  74.5115451  -2.4171094
  30.6330561  61.2887092   1.3240886  31.1564963  61.5349388   2.0867196
  30.4142895  62.1207127   0.9044024  35.2777421  75.1945669  -6.2993003
  35.1302384  74.2662377  -6.1185433  36.1030915  75.2165760  -6.7835928
  38.8811543  76.0174228  -5.2128131  39.8058091  75.8117089  -5.3503679
  38.7126846  75.7690629  -4.3038789  31.8383106  62.2300787  -0.9909443
  31.4979927  61.4308600  -0.5888763  31.1322113  62.5302498  -1.5632610
  33.7260671  63.4309108  -2.6356125  33.4678448  64.3526179  -2.6371794
  33.1945711  63.0339543  -1.9455660  38.6706859  76.5359895  -9.8566039
  38.8443737  75.9706318 -10.6092187  39.1635751  77.3360790 -10.0386549
  24.4883819  68.5474565  -1.7902480  23.9437287  69.3234372  -1.6582206
  25.3663169  68.8945369  -1.9483359  44.5246250  69.2996318  -8.2375739
  44.9677397  68.5503644  -8.6356616  43.6472761  69.2906455  -8.6202007
  25.2749841  67.6744461   1.1027676  24.5331577  67.8227096   1.6892307
  24.9542585  67.9352726   0.2394426  41.5573455  73.3026365 -11.2281810
  42.0824779  73.6413638 -11.9532490  41.4695807  72.3673381 -11.4118676
  33.2193504  77.2160439   0.9008066  33.5280630  76.9709586   1.7730766
  34.0168986  77.4207077   0.4126937  30.7612515  63.3918146   4.7968251
  30.8100671  64.2680269   4.4146020  31.3035030  62.8495539   4.2239894
  41.2467361  73.9359269   4.0769388  40.4562905  73.9183408   3.5373887
  41.0100716  74.4747563   4.8318424  41.3665236  70.7851735   1.3902116
  41.4163241  70.6201743   2.3317639  41.2579159  69.9178994   0.9999997
  38.6568998  66.7682663   2.7061423  39.5578861  66.6289128   2.4145421
  38.7316973  66.9337118   3.6459601  32.9911804  64.1449518   1.5514609
  32.1215113  64.4383084   1.2797198  33.2271284  64.7289963   2.2721873
  42.8683433  73.2048677   1.6344138  42.5768241  73.5678657   2.4707599
  42.2555564  72.4915685   1.4557470  44.0679115  70.7701557  -5.8453292
  44.9026007  71.2091361  -5.6815732  44.2038244  70.2940210  -6.6645046
  41.1170621  68.3281292   0.1024196  41.5924743  68.5208938  -0.7056953
  40.1936186  68.3840477  -0.1432420  35.6950838  60.3629135  -0.9319970
  36.2132781  61.0990162  -1.2573482  35.3405970  60.6693128  -0.0973211
  39.8172290  65.2047052  -1.6647499  40.7689713  65.3045149  -1.6435274
  39.6475741  64.4125320  -1.1549414  37.8386670  62.2902635  -1.4788098
  37.2436602  62.5707648  -2.1741609  37.5536366  62.7796536  -0.7071356
  42.2960368  68.4253171  -2.5505199  42.2636688  67.4869172  -2.3645515
  42.9060992  68.5037208  -3.2839374  42.4454856  65.2164215  -2.5046916
  41.9293905  64.4322671  -2.6916987  43.3294805  64.8882931  -2.3400396
  48.1136918  69.4869178  -3.4099162  48.8440306  69.2254466  -2.8491459
  47.5043863  68.7497900  -3.3697094  46.1952215  67.6277041  -2.8124711
  45.4685378  67.4933006  -3.4208219  45.7799502  67.9353869  -2.0067993
  34.0182391  71.3466970   4.9522662  34.9385401  71.5245569   5.1462709
  33.9831974  70.4023016   4.8002361  27.0144464  69.2568005  -2.4054557
  27.2330474  70.1885113  -2.3866523  27.4270238  68.8975979  -1.6199753
  31.8872329  64.8301211   6.9848192  31.7869056  65.7795568   6.9160283
  31.6693871  64.5019450   6.1124262  31.7503599  68.2598350   5.8013254
  31.2670681  69.0598710   6.0077143  31.8364538  68.2706295   4.8480698
  27.6776937  72.1502884  -2.1618312  28.6320190  72.1186827  -2.2288381
  27.4789460  71.6893508  -1.3468086  28.2676319  70.7204000   0.4052485
  29.0869208  71.2148079   0.4287323  28.5413127  69.8035969   0.3770053
  43.8130010  63.8488893  -5.4591279  44.4074501  63.6084629  -6.1697971
  43.8856593  63.1296023  -4.8317743  46.1201083  67.1555094  -6.6847858
  45.5600641  67.2248283  -5.9116296  45.5144586  66.9796078  -7.4048362
  23.5211233  65.0542134   1.1044682  24.1670097  64.5441088   1.5931908
  23.3128384  65.7910816   1.6788108  36.0464625  72.1222982   6.6036823
  36.9155785  72.2963634   6.2423458  35.5671377  72.9417399   6.4812552
  30.2150805  79.2420083  -1.7173743  31.1178052  79.2743693  -1.4007248
  29.9888176  78.3120534  -1.7027408  27.8608724  62.2009751   5.2019697
  28.7240186  61.8446556   5.4123021  27.2874135  61.8623646   5.8895101
  47.7057101  83.8311608  -3.9917902  48.3435511  83.7118355  -4.6954562
  47.5877944  84.7792452  -3.9329950  44.5146807  83.7839036  -4.0556378
  44.1765319  83.6680101  -4.9435843  45.3836575  83.3830201  -4.0755372
  44.9966590  84.9373888   1.9029828  44.9855231  84.5426686   1.0310332
  45.1587230  84.2039960   2.4963599  41.7173851  87.7210999   0.8509012
  41.4263717  88.6256630   0.7355678  42.3530836  87.7627527   1.5653081
  42.6430058  85.0987848  -2.5589628  43.2393630  84.8743870  -3.2732666
  42.7005030  84.3572593  -1.9564181  50.1832217  75.2059869  -1.5537107
  49.8515542  76.0755280  -1.7775892  49.5877830  74.8896153  -0.8743077
  46.6763736  87.4072415  -2.1541194  46.3764460  88.3097454  -2.2625387
  46.3314796  87.1404598  -1.3020042  40.1276218  83.8586212  -6.1204490
  39.2026714  83.7262426  -5.9126798  40.3760631  84.6380431  -5.6234548
  50.0760880  79.9254955  -4.4743757  49.1677758  79.8570363  -4.7684996
  50.0248476  80.4026900  -3.6461932  44.1501746  81.3444601   3.4691140
  43.3735080  81.9038521   3.4594005  44.7892309  81.8301384   3.9906010
  51.9422527  78.1271393  -2.6965883  51.2996907  78.4203927  -3.3426089
  51.4377455  78.0124314  -1.8912687  42.4048118  84.1530054   3.0309107
  43.1462803  84.6915098   2.7543931  41.6985104  84.7796343   3.1880659
  47.8803458  86.2959194   1.6281269  48.2886814  85.8541605   0.8835901
  47.1580719  85.7211822   1.8815462  44.2334528  81.2331801  -0.9985174
  45.0795723  81.6571215  -0.8550525  44.1733166  80.5765426  -0.3046611
  47.3833973  78.8936170   0.6595999  47.1394905  79.6478230   0.1230275
  47.6593904  79.2721517   1.4943246  49.3372436  85.4374782  -0.6626735
  49.5489331  86.0806542  -1.3392354  49.2902184  84.6037099  -1.1304805
  46.9398665  78.0492603  -3.7590163  46.0783144  78.3473856  -3.4673425
  46.9661100  78.2663001  -4.6909130  40.6484316  86.1406275  -4.4136594
  41.2185673  86.5693543  -5.0519110  41.2392427  85.8588859  -3.7152408
  41.1409482  81.3069702   3.8324417  40.5108143  81.9885983   4.0659814
  41.0345570  81.1952784   2.8877555  44.2174868  87.8630781  -0.3343667
  44.2819300  88.3251188   0.5014504  43.5085791  87.2328146  -0.2061358
  34.7192158  81.2271989  -2.8094668  34.9700196  82.1118999  -2.5437092
  35.2551706  81.0476590  -3.5819576  40.4190225  75.6090468   6.1949668
  40.0257170  75.0556667   6.8697312  41.2356365  75.9201046   6.5856186
  43.3358186  77.0248347   3.7869925  44.0767899  77.6255500   3.7074387
  43.5676109  76.2825985   3.2287967  38.4799524  82.2104714   2.0648154
  38.3653039  81.3089972   2.3655253  37.6244042  82.4568411   1.7132971
  45.5591362  90.1522455   3.6635655  45.1155216  89.3658833   3.3456560
  46.2208575  90.3401605   2.9979546  40.3178483  91.6818256  -1.8103666
  40.8685908  91.5535320  -2.5826673  39.4789959  91.9813145  -2.1608774
  47.6572600  90.4325255   1.6917056  47.6391075  91.2534136   1.1997325
  48.5792520  90.3079330   1.9167197  44.1145654  87.9469384   2.5340565
  44.6473991  87.1857672   2.3039873  43.5859735  87.6543036   3.2764719
  47.2815349  73.0529450  -1.9365794  46.9379618  73.9431092  -2.0126683
  47.6494311  72.8631108  -2.7996209  44.8312743  77.8887762  -8.3708120
  43.9754339  77.4994612  -8.5502481  45.2439694  77.9679723  -9.2308335
  46.3611889  75.4234105  -3.9716560  45.8576685  75.3864240  -4.7848755
  46.6542496  76.3326848  -3.9119904  42.6054775  75.5072835  -4.9650379
  43.4707772  75.3115644  -5.3244489  42.6732284  75.2783187  -4.0381022
  40.2117094  77.7375043  -7.5934012  40.7860846  77.5150224  -8.3260819
  40.7988077  77.8063737  -6.8405410  42.5139762  74.6116292  -8.8658942
  41.8604174  74.2965309  -9.4902328  42.4720236  73.9892032  -8.1399119
  45.7477502  81.0998225  -4.5411295  44.8300064  81.3213172  -4.6989607
  46.1637646  81.1744536  -5.3999587  49.0803014  72.3123009  -6.8348056
  49.3861891  71.4520373  -7.1222141  49.8055619  72.9040629  -7.0349062
  43.3524094  82.6076802  -6.3271865  43.4072704  81.6550639  -6.4029388
  42.5415296  82.7636241  -5.8430566  41.2916454  81.2253862  -8.5681486
  40.4784320  81.5248033  -8.1616294  41.7875448  80.8309551  -7.8507004
  46.8890666  81.6895687   0.2633408  47.2440053  81.9167160   1.1227874
  47.5362797  82.0214063  -0.3589337  40.7830529  78.7972218  -2.9520251
  41.4229908  78.6560977  -3.6497288  39.9508059  78.5106731  -3.3281649
  37.7859145  78.7672543  -8.1747264  38.0465963  79.6817876  -8.2838104
  38.6076318  78.2996985  -8.0250651  39.2584071  80.1810300  -1.0048440
  39.9307124  79.9727662  -1.6535791  38.4313857  79.9832386  -1.4443207
  45.1609643  76.8072241   1.0117221  44.5137558  77.5062190   0.9181698
  45.9310658  77.2408385   1.3793469  48.5688441  87.0721093   4.0867774
  48.4173947  86.8431645   3.1697858  48.5593120  88.0291694   4.0999119
  45.3373777  84.6453006  -0.9285959  46.2665837  84.7964165  -1.1016992
  44.9164807  84.7337026  -1.7837313  44.1362109  88.6703670  -3.1587421
  43.9973194  88.3022454  -2.2861483  43.3476705  89.1851309  -3.3303464
  39.6611568  83.4552903  -0.2446003  39.5231366  82.7233142   0.3565537
  40.5716491  83.3661803  -0.5261815  42.2893869  83.1672862  -0.7562323
  42.9993487  82.5266054  -0.7975704  42.2463177  83.4185757   0.1663858
  50.2780647  90.1040215   2.1644256  50.2193193  89.4199435   1.4974839
  50.6800166  90.8459205   1.7124882  41.0022802  80.1538080   1.0633317
  40.4660160  79.7028818   1.7154913  40.4139511  80.2883989   0.3203781
  50.2798054  88.0679799   0.3958236  49.3924833  87.7305721   0.5184635
  50.8496606  87.3362831   0.6327001  36.7361924  79.2894088  -1.8513689
  36.6520112  78.6819757  -2.5863279  35.9144630  79.7803106  -1.8504193
  46.9085638  77.7747651  -6.4843494  47.4054337  77.0217613  -6.8042424
  46.1372619  77.8111968  -7.0500285  43.4920606  79.9165034  -6.7571809
  43.1218394  79.3636075  -6.0690904  43.9879699  79.3123168  -7.3096809
  41.3209805  90.3762529   0.3383209  42.0219264  91.0099012   0.4912603
  40.8504920  90.7177261  -0.4221152  49.3504632  74.7417245  -4.3364135
  48.4367712  74.9721471  -4.1681928  49.7797734  74.8255689  -3.4850103
  49.1211091  82.9307137  -1.8364241  48.4682541  83.1783044  -2.4911788
  49.4991471  82.1171275  -2.1701764  45.1698664  83.6726948   4.6501796
  44.4939301  83.5721077   5.3204171  45.9926298  83.5166161   5.1137793
  38.8885940  77.3269025  -0.5118703  38.9527266  78.1883856  -0.9241305
  38.8253060  76.7143027  -1.2446345  38.3638213  79.3992157   3.1354331
  38.9910251  79.0169235   3.7491855  37.5066131  79.1806359   3.5010024
  48.7632321  89.8055133   4.7408067  49.3072225  90.4185091   4.2463021
  48.1819166  90.3634711   5.2575080  38.6698002  79.2824583  -4.9499765
  37.9484588  79.8960551  -5.0892292  39.4591258  79.8182348  -5.0283120
  41.4724316  76.6179010   1.3240886  41.9958718  76.8641306   2.0867196
  41.2536649  77.4499044   0.9044024  42.6776861  77.5592705  -0.9909443
  42.3373681  76.7600518  -0.5888763  41.9715867  77.8594416  -1.5632610
  43.3293333  74.6442017  -2.5382120  44.1519402  74.1702495  -2.6603230
  43.5731396  75.4232501  -2.0383434  40.8531911  81.3361138  -4.7290142
  40.7076492  81.6501441  -3.8365860  40.3757115  81.9546038  -5.2819243
  42.7128294  78.3263686  -4.6809252  42.6989863  77.4304779  -5.0176954
  43.4300722  78.3334350  -4.0470966  44.5654425  78.7601026  -2.6356125
  44.3072203  79.6818097  -2.6371794  44.0339465  78.3631461  -1.9455660
  35.3277574  83.8766482  -1.7902480  34.7831042  84.6526290  -1.6582206
  36.2056923  84.2237287  -1.9483359  42.1165190  77.2078066  -9.4121682
  42.2381101  76.2794712  -9.2130794  41.8267233  77.2216752 -10.3243366
  44.9856381  74.8932976  -6.2754962  45.0078077  74.9572310  -7.2302982
  45.4024440  74.0537485  -6.0814456  36.1143595  83.0036378   1.1027676
  35.3725331  83.1519014   1.6892307  35.7936340  83.2644644   0.2394426
  44.0587258  92.5452357   0.9008066  44.3674385  92.3001503   1.7730766
  44.8562740  92.7498995   0.4126937  41.6006270  78.7210063   4.7968251
  41.6494425  79.5972186   4.4146020  42.1428784  78.1787456   4.2239894
  52.0861115  89.2651187   4.0769388  51.2956659  89.2475326   3.5373887
  51.8494470  89.8039480   4.8318424  52.2058991  86.1143653   1.3902116
  52.2556995  85.9493660   2.3317639  52.0972914  85.2470912   0.9999997
  49.4962753  82.0974581   2.7061423  50.3972616  81.9581046   2.4145421
  49.5710727  82.2629036   3.6459601  43.8305558  79.4741436   1.5514609
  42.9608868  79.7675002   1.2797198  44.0665039  80.0581881   2.2721873
  53.7077187  88.5340595   1.6344138  53.4161996  88.8970575   2.4707599
  53.0949319  87.8207603   1.4557470  51.9564376  83.6573209   0.1024196
  52.4318497  83.8500856  -0.7056953  51.0329941  83.7132395  -0.1432420
  46.5344592  75.6921053  -0.9319970  47.0526536  76.4282080  -1.2573482
  46.1799725  75.9985046  -0.0973211  46.7857186  72.1121335  -5.4119074
  47.0658940  71.4444524  -4.7858647  47.5707793  72.3050431  -5.9244410
  50.6566045  80.5338969  -1.6647499  51.6083467  80.6337067  -1.6435274
  50.4869495  79.7417238  -1.1549414  48.6780424  77.6194553  -1.4788098
  48.0830356  77.8999565  -2.1741609  48.3930121  78.1088453  -0.7071356
  53.2848611  80.5456132  -2.5046916  52.7687660  79.7614589  -2.6916987
  54.1688559  80.2174849  -2.3400396  50.9459338  74.2897148  -6.5451103
  50.7484159  73.9812236  -5.6607771  51.5559043  75.0158787  -6.4153173
  44.8576146  86.6758888   4.9522662  45.7779155  86.8537487   5.1462709
  44.8225729  85.7314933   4.8002361  37.8538218  84.5859923  -2.4054557
  38.0724228  85.5177031  -2.3866523  38.2663992  84.2267897  -1.6199753
  44.7742436  75.0928008 -10.4178868  43.9643164  74.7475093 -10.0423622
  45.4626853  74.7835552  -9.8291257  46.7032984  74.1706055  -8.7954572
  47.2564023  74.5901508  -8.1364549  46.9403071  73.2441803  -8.7531616
  42.7266084  80.1593128   6.9848192  42.6262811  81.1087485   6.9160283
  42.5087626  79.8311367   6.1124262  48.5315358  75.6811638  -7.0854587
  49.0315136  75.7928172  -7.8940268  49.1750966  75.3772691  -6.4453779
  42.5897354  83.5890267   5.8013254  42.1064435  84.3890627   6.0077143
  42.6758293  83.5998212   4.8480698  38.5170691  87.4794802  -2.1618312
  39.4713945  87.4478744  -2.2288381  38.3183215  87.0185426  -1.3468086
  39.1070073  86.0495918   0.4052485  39.9262962  86.5439997   0.4287323
  39.3806881  85.1327886   0.3770053  34.3604988  80.3834052   1.1044682
  35.0063851  79.8733006   1.5931908  34.1522139  81.1202734   1.6788108
  46.8858380  87.4514899   6.6036823  47.7549539  87.6255552   6.2423458
  46.4065131  88.2709316   6.4812552  41.0544560  94.5712000  -1.7173743
  41.9571807  94.6035611  -1.4007248  40.8281930  93.6412451  -1.7027408
  46.6960717  71.2416873  -8.8885485  45.9293113  70.6875360  -8.7428802
  47.1071422  71.3138742  -8.0271333  38.7002479  77.5301669   5.2019697
  39.5633940  77.1738474   5.4123021  38.1267889  77.1915564   5.8895101
  51.2583979  90.9382386   6.1949668  50.8650925  90.3848584   6.8697312
  52.0750120  91.2492964   6.5856186  54.1751940  92.3540265   3.7869925
  54.9161654  92.9547418   3.7074387  54.4069863  91.6117903   3.2287967
  49.2031967  94.7284075   3.1354331  49.8304006  94.3461152   3.7491855
  48.3459886  94.5098277   3.5010024  52.4400024  94.0501981   4.7968251
  52.4888180  94.9264104   4.4146020  52.9822538  93.5079374   4.2239894
  53.5659838  95.4885046   6.9848192  53.4656565  96.4379403   6.9160283
  53.3481380  95.1603285   6.1124262  45.1998742  95.7125970   1.1044682
  45.8457606  95.2024924   1.5931908  44.9915893  96.4494651   1.6788108
  49.5396233  92.8593587   5.2019697  50.4027695  92.5030392   5.4123021
  48.9661644  92.5207482   5.8895101  50.2780648  67.1102338 -11.1110437
  50.2193195  66.4261558 -11.7779854  50.6800167  67.8521328 -11.5629811
  48.7632322  66.8117255  -8.5346627  49.3072226  67.4247213  -9.0291672
  48.1819167  67.3696834  -8.0179614  52.0861117  66.2713309  -9.1985306
  51.2956660  66.2537448  -9.7380806  51.8494471  66.8101603  -8.4436269
  53.7077189  65.5402717 -11.6410555  53.4161997  65.9032698 -10.8047094
  53.0949320  64.8269725 -11.8197223  46.8858381  64.4577022  -6.6717870
  47.7549541  64.6317674  -7.0331235  46.4065132  65.2771439  -6.7942141
  51.2583981  67.9444508  -7.0805025  50.8650926  67.3910707  -6.4057381
  52.0750121  68.2555087  -6.6898508  54.1751942  69.3602387  -9.4884769
  54.9161655  69.9609541  -9.5680306  54.4069864  68.6180025 -10.0466726
  49.2031968  71.7346198 -10.1400362  49.8304007  71.3523275  -9.5262838
  48.3459887  71.5160400  -9.7744670  52.4400026  71.0564104  -8.4786443
  52.4888181  71.9326227  -8.8608673  52.9822540  70.5141497  -9.0514799
  53.5659839  72.4947169  -6.2906501  53.4656566  73.4441526  -6.3594410
  53.3481381  72.1665408  -7.1630431  45.1998743  72.7188092 -12.1710011
  45.8457607  72.2087046 -11.6822786  44.9915894  73.4556774 -11.5966586
  49.5396234  69.8655709  -8.0734997  50.4027696  69.5092514  -7.8631672
  48.9661645  69.5269604  -7.3859592
 121.9905088 121.9905088 121.9905088 109.4712190 109.4712190 109.4712190
