default_name
127276
  76.3147017  33.1098648  48.1674015  75.8407004  33.2559633  47.2875839
  75.7107649  33.4170121  48.9164150  76.6977536  32.1753876  48.1784961
  77.5202575  34.0395801  48.2155225  77.4133980  34.7854252  49.0031743
  78.8950986  33.3268463  48.3599893  79.6790147  34.0502242  48.1357122
  79.1047744  32.7700548  49.7606778  78.3214502  32.0462091  49.9855138
  80.0773689  32.2810790  49.8160254  79.0658972  33.5835050  50.4851683
  79.0539144  32.2620995  47.2781515  78.1488583  32.2721190  46.6708028
  79.1456274  31.2971450  47.7767017  80.2440634  32.4848603  46.4018359
  81.1496047  32.4745087  47.0084558  80.2989162  31.6932732  45.6545206
  80.1528365  33.4494844  45.9025585  77.6913552  34.9275349  47.0136362
  77.2014040  34.6822748  45.9046324  78.4911677  35.9322092  47.2541226
  79.0596062  35.9240254  48.0889340  78.5967339  37.0333383  46.3867753
  78.7158955  36.7039989  45.3545760  77.3011353  37.8615556  46.4930738
  76.5015104  37.1689411  46.7557225  77.4449992  38.5743574  47.3050570
  76.9313680  38.6001007  45.2386635  76.8808508  39.6663641  45.4591884
  77.6984637  38.4213880  44.4851862  75.6082656  38.1353575  44.7220408
  74.8285984  38.3897738  45.4400173  75.3984175  38.6235730  43.7703535
  75.6022745  36.7102255  44.5204378  76.3721147  36.1674200  44.8848656
  74.6132303  36.0766022  43.9237174  73.5830320  36.7662745  43.4367108
  73.5646698  37.7720569  43.5270694  72.8249440  36.2802912  42.9793023
  74.6716399  34.7620355  43.7664637  75.4745204  34.2512096  44.1049009
  73.9130075  34.2770480  43.3089020  79.8218283  37.8834631  46.8262588
  79.8281313  38.4441656  47.9238817  80.8168631  37.9980160  45.9409130
  80.7355514  37.5257414  45.0518436  81.9933155  38.7774183  46.1911948
  81.8626267  39.4147734  47.0657221  83.1356673  37.8224748  46.4555834
  82.8851857  37.4044937  47.4305962  83.0925369  37.0362595  45.7018557
  84.5503018  38.4098109  46.5001522  84.9024889  38.4770465  45.4708104
  84.6344437  39.7850474  47.1572022  84.2828329  39.7185120  48.1867854
  85.6684499  40.1298026  47.1484955  84.0122158  40.4902430  46.6061740
  85.4637866  37.4261543  47.2272280  85.4736006  36.4759216  46.6933170
  86.4752925  37.8303332  47.2671844  85.0956035  37.2688980  48.2410379
  82.2846253  39.6097426  44.9641236  82.7466631  39.0741393  43.9843479
  81.9527507  40.9170899  44.9978026  80.8252583  41.5324748  45.7171824
  81.1618043  41.8499742  46.7041126  80.0268133  40.7983255  45.8249289
  80.4215948  42.7029119  44.8330292  79.9974804  43.5100702  45.4302909
  79.6968917  42.3876326  44.0823591  81.6770326  43.1055216  44.2081113
  82.2619319  43.7098402  44.9015021  81.5387296  43.6540285  43.2763860
  82.3992493  41.7821576  43.9334499  82.0926038  41.3339488  42.9883702
  83.8784025  41.9814181  43.9319904  84.4601957  42.5037358  44.9265470
  84.4562191  41.5342155  42.8045172  83.8350970  41.2757186  42.0512006
  85.8749364  41.4539878  42.5770071  86.3928131  41.0666013  43.4544092
  86.1592192  40.5492744  41.3767617  85.5279618  40.8570090  40.5431468
  87.6260293  40.6499792  40.9678720  88.2579371  40.3419404  41.8008818
  87.8107889  39.9999879  40.1126083  87.8585333  41.6800405  40.6976594
  85.7916546  39.1032706  41.7209452  86.4945970  38.7703972  42.4845997
  84.7848755  39.1225519  42.1382262  85.8331556  38.1394343  40.5361739
  86.8398068  38.1192647  40.1186258  85.5592233  37.1390291  40.8712109
  85.1300864  38.4714210  39.7722509  86.3404364  42.8285327  42.2407779
  85.8463292  43.4037534  41.2653707  87.3590278  43.3090401  42.9634407
  87.7855461  42.7466944  43.6859009  87.9183269  44.6247368  42.6930266
  87.1292382  45.2704196  42.3076281  88.5469739  45.2922653  43.8792954
  89.5226049  44.8533474  44.0880885  88.7160613  46.7723658  43.5459834
  87.7407342  47.2121120  43.3375095  89.1722809  47.2860807  44.3921874
  89.3560730  46.8772364  42.6699190  87.6899279  45.1104644  45.1091724
  87.5786873  44.0470859  45.3211958  88.1637328  45.6021972  45.9587649
  86.7078281  45.5506895  44.9365958  89.0158176  44.5684235  41.7151575
  89.0796335  45.3884228  40.8263888  89.9766311  43.6912649  41.9593625
  90.0687656  43.2622591  42.8690683  91.0216483  43.4411711  40.9649823
  90.5947331  43.4570608  39.9621911  92.1198905  44.5443512  41.0565282
  91.7000319  45.3843801  41.6098540  92.9563912  44.1239548  41.6147697
  92.6147133  45.0322038  39.6788856  91.8086045  44.9742730  38.7231793
  93.8048622  45.4721072  39.5719295  91.6333254  41.9930490  41.0202866
  91.6003347  41.2766308  42.0562584  92.1967342  41.6118008  39.8782383
  92.1259125  42.2398044  39.0903962  92.8921169  40.3533728  39.6936227
  92.7343481  39.6998593  40.5516019  92.3440901  39.6592659  38.4420013
  92.8059983  38.6723955  38.4132469  91.2704553  39.5529526  38.5972620
  92.6010191  40.3870758  37.1032443  93.6483522  40.6889846  37.0965149
  92.4263877  39.6652075  36.3054272  91.7136322  41.6171417  36.8820829
  90.7284624  41.2774033  36.5625249  91.6240623  42.1510542  37.8281348
  92.2929195  42.5436163  35.8326087  91.6275201  43.3985852  35.7127238
  93.2702881  42.8889787  36.1696168  92.4379985  41.8407541  34.5270193
  91.5323960  41.5210293  34.2143536  92.8250717  42.4760362  33.8438714
  93.0548743  41.0487359  34.6377919  94.3864200  40.6596731  39.5399498
  94.7728592  41.4876056  38.6814340  95.2122810  40.1214739  40.4382995
  94.8650605  39.5914445  41.2248148  96.6490296  40.3891349  40.3620055
  96.8321963  41.0292803  39.4990090  97.2111436  41.0800013  41.6138540
  98.1848367  41.3423976  41.2001281  96.6739199  41.9896334  41.8822944
  97.4017622  40.2235297  42.8486673  96.3065253  39.7914770  43.5961201
  95.3044132  39.9703738  43.2064192  96.4741590  39.1397861  44.8238215
  95.6006967  38.8153087  45.3894007  97.7646648  38.9020554  45.3264077
  97.9474331  38.2392086  46.5481514  97.1204753  37.9871794  46.9655504
  98.8601453  39.3353970  44.5954558  99.8691595  39.1348583  44.9556988
  98.6700474  40.0327007  43.3909458  99.5277886  40.4404324  42.8560300
  97.3437454  39.1229243  40.0724377  97.7538177  38.4299990  40.9790717
  97.4224776  38.7822024  38.7983848  97.1595570  39.3960309  38.0406338
  97.9328380  37.4908436  38.4759892  97.2004182  36.7208320  38.7183578
  98.2290606  37.4276178  36.9879087  97.3622070  37.8415785  36.4728353
  99.0957226  38.0638559  36.8084705  98.5087707  36.0357451  36.4650228
  99.1718588  35.5329659  37.1690314  97.5636603  35.4957490  36.4078158
  99.1617328  36.0665620  35.0840214  99.5370265  37.0770808  34.9224502
  99.9979065  35.3675757  35.1022147  98.2111485  35.6914471  33.9539014
  98.7938901  35.1397435  33.2162457  97.4513591  35.0361841  34.3798706
  97.5521854  36.8532913  33.2970241  98.2560327  37.4603770  32.9018713
  96.9416096  36.5234084  32.5632160  97.0118073  37.3644022  33.9802928
  99.1836106  37.3731405  39.2678913 100.0986580  38.1644708  39.1397868
  99.1978892  36.3510583  40.0994784  98.4174745  35.7111193  40.0603597
 100.3003406  36.0321464  40.9724349 101.2408487  36.2725683  40.4767121
 100.2158864  36.8234735  42.2588259 100.5944672  37.8225825  42.0430552
  99.1712523  36.8891750  42.5630019 101.0275117  36.2078023  43.3751835
 100.7660545  35.0557508  43.7845921 101.9321205  36.8964623  43.8697048
  99.9757816  34.6148059  41.2552023  98.8433324  34.2154837  41.0523957
 100.9489066  33.8231259  41.7001132 101.8720856  34.2095321  41.8362385
 100.7360185  32.4048928  42.0092401 101.6497685  31.8349075  42.1773973
  99.8306170  32.2412577  43.2217461 100.3376982  32.6216323  44.1084721
  98.9074478  32.7990269  43.0644178  99.5047661  30.7643529  43.4171884
  98.9972228  30.3833610  42.5309909 100.4274720  30.2059657  43.5750479
  98.4278608  30.5532090  44.8565603  98.2249717  28.7849527  44.8340602
  99.1986755  28.3056718  44.9354992  97.5833927  28.4817726  45.6614409
  97.7684280  28.4830646  43.8914401 100.0844796  31.8434585  40.7625398
 100.4519867  32.2600346  39.6603901  99.0885271  30.9788909  40.9144068
  98.7989410  30.6117216  41.8096307  98.3813863  30.5404408  39.7329164
  99.0531271  30.2275717  38.9335564  97.6694652  29.7419497  39.9419135
  97.6179651  31.7801519  39.2823962  97.6550663  32.1837230  38.1244455
  96.9337612  32.3943813  40.2466432  96.9666080  31.9974896  41.1748121
  96.1551091  33.6097796  40.0418096  96.7918823  34.3550422  39.5651516
  94.9370211  33.3621056  39.1466398  94.3425436  32.5535298  39.5719654
  94.0947404  34.6055426  39.0484281  94.6884444  35.4144890  38.6227275
  93.2335888  34.4121031  38.4088203  93.7513239  34.8918421  40.0425097
  95.3752651  33.0078615  37.8359749  94.6122208  32.8525226  37.2745183
  95.6528286  34.1137878  41.3806887  95.6864936  33.3838112  42.3641326
  95.1581389  35.3429951  41.4248745  95.2018415  35.9730401  40.6366914
  94.5758979  35.8435020  42.6935748  93.8893273  35.0904930  43.0804822
  95.6519310  36.1626302  43.8032481  96.0303480  37.1681097  43.6190994
  95.0859740  36.0824933  45.2262096  94.7077585  35.0771045  45.4112701
  95.8732201  36.3118786  45.9443506  94.2740837  36.8014544  45.3358939
  96.8021282  35.1906929  43.7170490  97.2711546  35.2680828  42.7361683
  97.5350155  35.4248695  44.4891483  96.4325931  34.1757484  43.8634467
  93.7481115  37.0846623  42.4210939  94.0176027  37.8586609  41.4687044
  92.8044343  37.2879373  43.3436396  92.8681709  36.7498662  44.1959989
  91.6955733  38.1622266  43.1799002  91.8885287  39.0012359  42.5113713
  90.5251230  37.3525148  42.6222777  90.7663396  36.2948115  42.7280019
  89.2248084  37.6476235  43.3403793  88.9826770  38.7051230  43.2347001
  88.4251858  37.0472149  42.9065432  89.3293548  37.4032347  44.3974724
  90.3888474  37.6118816  41.1299266  91.3074097  37.3151383  40.6236771
  89.5537182  37.0334511  40.7348608  90.2076080  38.6732132  40.9601372
  91.3500775  38.8273444  44.5074559  91.3563039  38.2047562  45.5636998
  90.9337609  40.0744178  44.4055820  90.7902210  40.4541498  43.4807581
  90.6254475  40.9223993  45.5603738  90.9649930  40.4701635  46.4921951
  91.3634490  42.2195377  45.3580408  91.3878124  42.3450764  44.2755688
  90.8123631  43.0459765  45.8068205  92.7654969  42.2059199  45.8911687
  92.9731839  41.2312277  46.3326910  93.7531878  42.4722981  44.7611146
  93.5464086  43.4470834  44.3193739  94.7692095  42.4609226  45.1556664
  93.6512261  41.6996404  43.9990750  92.8298962  43.2416157  47.0276145
  92.1201329  42.9692744  47.8087456  93.8370547  43.2628695  47.4438852
  92.5781779  44.2273112  46.6362817  89.1387487  41.2971032  45.7346744
  88.4580475  41.6238441  44.7653105  88.7184335  41.5246687  46.9613386
  89.2238165  41.2354325  47.7865839  87.4741065  42.2218435  47.1340831
  87.5826108  43.1975497  46.6604552  86.7079666  41.6484188  46.6122467
  87.0544346  42.4146721  48.5518047  87.8456816  42.2072077  49.4693736
  85.8427663  42.9562214  48.7096796  85.4586792  43.5227090  47.9669360
  85.0352562  42.7500766  49.9144255  85.6784240  42.3891460  50.7170235
  84.3581485  44.0377769  50.3739850  85.1364380  44.7759225  50.5676488
  83.7187796  44.3886867  49.5639419  83.5197552  43.8401439  51.6343976
  82.5492495  43.4448711  51.3344329  84.0284974  43.1120631  52.2662060
  83.3218038  45.1368236  52.4118022  82.9889764  45.9041496  51.7128490
  82.5483563  44.9685605  53.1611792  84.6115105  45.5997873  53.1032292
  84.9936045  44.7461619  53.6630760  85.3165639  45.8611214  52.3141137
  84.4414769  46.7667074  54.0270171  83.7885230  46.5246106  54.7585498
  85.3334390  47.0043138  54.4369522  84.0878321  47.5579293  53.5083628
  83.9589735  41.7519553  49.6382978  83.2711208  41.8385771  48.6144666
  83.7012640  40.9280172  50.6488357  84.0963160  41.1432861  51.5530992
  82.8922526  39.7196788  50.5167526  82.8154748  39.4145796  49.4731440
  83.5769405  38.5954207  51.3075795  84.5769266  38.6789500  50.8819624
  83.5990291  38.9111782  52.3506084  83.1057597  37.1353448  51.2247178
  83.9551054  36.5066839  50.9573263  82.5340474  36.6747630  52.5562160
  81.6843148  37.3027032  52.8240672  82.2072136  35.6382648  52.4728384
  83.3001845  36.7526721  53.3276202  82.1262555  36.8800922  50.0937825
  82.5973586  37.1256934  49.1420255  81.8355879  35.8295622  50.0943337
  81.2413755  37.5014478  50.2316364  81.4837614  39.9674915  51.0526402
  81.2854808  39.9921247  52.2729709  80.5251148  40.1699489  50.1436905
  80.7215068  40.0099559  49.1659728  79.2281608  40.7862980  50.5078184
  79.3068957  41.2046888  51.5112372  78.8152759  41.9169182  49.5306138
  78.3195190  41.4271160  48.6925099  78.0950551  42.5339194  50.0679141
  79.9642256  42.8087693  49.0004381  80.8355013  42.1612034  49.0986109
  79.7912950  43.0270329  47.9466093  80.2157906  44.1339172  49.7683782
  79.3527514  44.6080852  50.5582156  81.2756583  44.7586032  49.5120094
  78.0418812  39.7839906  50.7117367  77.1890954  40.0179921  51.5513328
  78.0265028  38.6552268  50.0107233  78.6038521  38.5373929  49.1904293
  77.1070774  37.5675627  50.3784526  76.4752024  37.9050890  51.1999811
  76.2052070  37.1373445  49.2095565  75.6496056  38.0125320  48.8727284
  76.8459656  36.7817161  48.4026755  75.2802761  36.0955967  49.5832345
  74.7402436  35.8601543  48.8252558  77.8801084  36.3577456  50.9016433
  78.5944173  35.6983525  50.1556804  77.6993660  36.0511299  52.1815277
  77.4328580  36.7724119  52.8363752  77.8755621  34.6809205  52.6868464
  77.2020923  34.5673272  53.5363370  77.5684126  34.0063990  51.8876096
  79.2888578  34.3206098  53.1234418  80.1428898  35.1850439  53.2835420
  79.4813995  33.0356323  53.4170239  78.7183943  32.3861658  53.2900762
  80.7347903  32.5300003  53.9491448  81.3900597  33.3660693  54.1935008
  80.5000597  31.6978388  55.2268200  79.7387421  32.1952662  55.8277033
  80.1435907  30.7100516  54.9347476  81.6882725  31.5651212  55.9862747
  81.5091382  31.0437616  56.7722103  81.4052920  31.6894790  52.8823587
  80.7537309  31.1268520  52.0032473  82.7188195  31.6107103  52.9700279
  83.2063632  32.0189811  53.7547032  83.5030366  31.0826075  51.8744928
  82.9612442  30.3794398  51.2419461  84.0642730  32.2215792  51.0095238
  83.2318275  32.7828152  50.5850841  84.9343450  33.1547870  51.8387667
  85.7673223  32.5943246  52.2631857  85.3198357  33.9526788  51.2040492
  84.3400048  33.5867723  52.6439049  84.7833301  31.6547611  49.7838607
  85.8564449  31.6879647  49.9720706  84.4698210  30.6190673  49.6529033
  84.4679120  32.4375435  48.5326468  84.7815820  33.4733048  48.6626841
  84.9990685  32.0010659  47.6867985  83.3949571  32.4044092  48.3435181
  84.5921076  30.0996407  52.3448762  85.5874628  30.4841466  52.9804769
  84.3318351  28.8141757  52.0802406  83.5607563  28.5930749  51.4665214
  85.1098137  27.7120007  52.6391900  85.4568543  27.9804425  53.6369881
  84.2538458  26.4209321  52.7423106  84.0243142  26.0736833  51.7349216
  84.8329048  25.6598282  53.2652940  82.6399792  26.5312802  53.6248585
  82.3027903  25.2555949  53.4580385  86.2856607  27.4918471  51.6976885
  86.1702674  27.8220026  50.5058467  87.4333724  27.0472844  52.2545367
  87.4598527  26.9048442  53.2540910  88.6852462  26.8053923  51.4696633
  88.9400112  27.7119525  50.9207164  89.8732370  26.4279840  52.3753795
  90.0650125  27.2371908  53.0800112  89.6367411  25.5168259  52.9248889
  91.1128582  26.1967178  51.5177784  90.9219896  25.3872845  50.8131596
  91.3502636  27.1076492  50.9682834  92.2886628  25.8231790  52.4142031
  92.4804380  26.6323842  53.1188364  92.0521665  24.9120200  52.9637105
  93.5282844  25.5919150  51.5566011  93.3374164  24.7824825  50.8519813
  93.7656896  26.5028470  51.0071098  94.6616818  25.2318461  52.4206959
  94.4420699  24.3875409  52.9296350  95.4826777  25.0786822  51.8527112
  94.8389823  25.9819346  53.0734063  88.4345729  25.7028569  50.4454247
  87.7218419  24.7386118  50.7391932  88.9145563  25.9083260  49.2174462
  89.4916289  26.7198303  49.0484863  88.6381955  24.9961041  48.0856348
  89.2533789  25.3778209  47.2708092  89.0260996  24.0310788  48.4117574
  87.1917485  24.8108389  47.5788183  86.9412941  23.8882498  46.7882040
  86.2622973  25.7073513  47.9685438  86.5758485  26.5305845  48.4625803
  84.7907819  25.5465585  47.7147780  84.5109580  24.5097634  47.9014693
  83.9764880  26.4584980  48.6672652  84.2055706  26.2012788  49.7014116
  84.2390775  27.5007361  48.4859188  82.4863747  26.2582700  48.4121276
  82.2564312  26.5157496  47.3782363  82.2229225  25.2162935  48.5937311
  81.6501929  27.1384437  49.3300487  82.1920853  27.8844970  50.1425736
  80.3246336  27.0497635  49.1987030  79.7235111  27.6124223  49.7836545
  79.9289644  26.4204209  48.5149815  84.4018390  25.9086687  46.2766123
  84.2157022  27.0722558  45.9936298  84.2309018  24.9278636  45.3810745
  84.2807892  23.9599383  45.6652069  83.9690924  25.2300169  43.9462612
  84.8999597  25.5148215  43.4558822  83.3957017  24.0118677  43.2326494
  82.7178258  23.5205960  43.9306720  82.8308396  24.3784300  42.3755247
  84.4476029  23.0144122  42.7588853  85.3321136  23.1142730  43.3879875
  84.0426735  22.0074246  42.8594351  84.8536711  23.2314393  41.3137732
  86.0555012  23.2929111  40.9915519  83.8533009  23.3494879  40.4234867
  84.0651866  23.4953824  39.4467981  82.8943932  23.2917439  40.7353569
  82.9830991  26.3694371  43.7970870  82.0220543  26.4315099  44.5570493
  83.2339354  27.2646798  42.8301084  84.0160766  27.1036120  42.2117140
  82.4134491  28.4775691  42.6217248  81.4075038  28.2976255  43.0009260
  82.9997897  29.6947806  43.3464908  83.9980513  29.7565862  42.9131860
  82.4255476  30.5764816  43.0619748  83.1087412  29.6282578  44.8645430
  83.7225606  28.7716455  45.1430063  83.7445751  30.9005520  45.3967101
  83.1310365  31.7576153  45.1190204  83.8182778  30.8437606  46.4827320
  84.7414338  31.0147751  44.9708860  81.7664926  29.3650482  45.5671819
  81.3591241  28.4124708  45.2284390  81.9209458  29.3306494  46.6456355
  81.0666185  30.1651858  45.3262357  82.3318243  28.8212314  41.1702829
  82.9314738  28.1489532  40.3206609  81.6301796  29.9090644  40.8853124
  81.1294589  30.3974594  41.6139058  81.5512651  30.4258482  39.5299984
  82.3548617  30.0370092  38.9045898  80.2064335  30.0834552  38.8705707
  79.4083355  30.4449261  39.5190132  80.0651963  30.7196802  37.4844236
  80.8627332  30.3583070  36.8352355  79.0993587  30.4501769  37.0570758
  80.1328480  31.8039561  37.5731409  80.0505243  28.5690990  38.7781446
  80.0821542  28.1383150  39.7789077  79.0957665  28.3295186  38.3100224
  80.8620721  28.1556457  38.1793565  81.7106190  31.9184092  39.5732910
  81.6111019  32.5326687  40.6412028  82.0026519  32.4913175  38.4086525
  82.0225169  31.9311654  37.5684535  82.3220499  33.8961522  38.3028680
  81.8615674  34.4587655  39.1149772  83.8161292  34.0571537  38.3928387
  84.1687256  33.4028855  39.1901518  84.2386056  33.7310717  37.4424260
  84.2494166  35.4701840  38.6754999  83.6240508  36.1793960  38.1332482
  84.1959644  35.6819340  39.7433982  85.9179284  35.6376786  38.1346044
  85.6743942  35.4290463  36.3533201  85.0045104  36.2056656  35.9842439
  86.6346755  35.5057723  35.8433461  85.2371215  34.4498737  36.1580897
  81.8203796  34.4955057  37.0003715  82.1238252  34.0082605  35.8964386
  81.0693736  35.5751140  37.1369918  81.2168449  36.2326862  37.8892884
  79.9606107  35.7638506  36.2952049  79.6202862  34.8043728  35.9057426
  78.8130095  36.4099364  37.0752072  79.0469417  36.3064857  38.1347698
  78.7985552  37.4666627  36.8083354  77.4360385  35.7922263  36.7927710
  76.9097453  35.7923534  37.7472952  76.9397149  36.4765835  36.1047156
  77.4045703  34.1029364  36.0885095  76.0260805  34.2607309  34.9445919
  76.2466119  35.0392339  34.2142508  75.8708156  33.3130229  34.4289922
  75.1240558  34.5257194  35.4961658  80.3897626  36.5470631  35.0815711
  81.5517770  36.6291240  34.7928727  79.4523133  37.2248139  34.4483164
  79.6717312  38.6623405  34.6393167  80.7416699  38.8536813  34.7212929
  79.1747598  38.9820793  35.5552236  79.0633334  39.2873349  33.4054191
  79.6734020  40.1336814  33.0898039  78.0548542  39.6321727  33.6338003
  79.0378739  38.2282515  32.3776136  79.9668084  38.1310448  31.8157146
  78.2143741  38.4135188  31.6879587  78.7761058  36.9546951  33.1686797
  77.7184440  36.8577648  33.4137396  79.2365829  35.7096826  32.3700923
  78.4840888  35.2078716  31.5039010  80.4344083  35.2038459  32.6647591
  80.9352995  35.5368841  33.4761116  81.0842551  34.2147295  31.8069654
  80.6621484  34.2372160  30.8022667  82.5671086  34.5505705  31.7194533
  83.0324703  34.3769668  32.6897107  83.0263514  33.8999795  30.9751903
  82.8089403  35.9960892  31.3164395  81.9158422  36.6658989  30.7954474
  84.0177563  36.4858616  31.5646871  84.2328233  37.4411642  31.3172140
  84.7167007  35.9008863  31.9998668  80.9049875  32.7564707  32.2732597
  81.4304922  31.8170804  31.6611007  80.1891015  32.5871456  33.3792974
  79.8234318  33.3995663  33.8550679  79.8817973  31.2830421  33.9170112
  79.3672210  31.3973554  34.8710778  78.9709157  30.4770701  32.9564990
  79.2295527  30.8133011  31.9524299  79.2642845  29.4341968  33.0767073
  77.4757589  30.6077240  33.1629570  76.9708518  30.0382374  32.3826656
  77.2262599  30.1880667  34.1375030  77.0253847  32.0499144  33.1053716
  75.9363373  32.0382452  33.0613434  77.3458662  32.5173549  34.0364411
  77.5765529  32.8483838  31.9163194  77.3607868  33.8948382  32.1319090
  78.6551546  32.6913399  31.9237247  77.0344405  32.4967436  30.5785899
  76.0350544  32.6426041  30.5713836  77.4650878  33.0813483  29.8765356
  77.2346429  31.5272285  30.3784439  81.1482649  30.4959935  34.0916692
  81.1416304  29.3278885  33.7973962  82.2664429  31.1111889  34.4512085
  82.3469509  32.1155012  34.5217387  83.4733409  30.3019529  34.6446598
  83.4550478  29.4761440  33.9334606  84.7621619  31.0953334  34.4383368
  84.4504277  32.1372153  34.5118429  85.5678240  30.9067602  35.1478780
  85.3406161  30.9197272  33.0823773  86.1801139  29.8754858  32.7740003
  86.5165264  29.1904408  33.4355438  86.4691198  29.9179056  31.4841871
  87.1307761  29.1737512  31.0408540  85.8384740  30.9491820  30.9461760
  85.0984350  31.5724361  31.9183599  84.4718239  32.4268426  31.6625295
  83.4770825  29.6254438  36.0060452  83.4329466  30.2946652  37.0472717
  83.5175987  28.2910696  35.9804140  83.2881510  27.8042409  35.1257498
  83.8815196  27.5013027  37.1483711  83.1190433  27.6223768  37.9178320
  83.9966567  26.0191341  36.8050191  84.3556566  25.9200353  35.7806179
  84.7137463  25.5616472  37.4866262  82.7005332  25.3000493  36.9260143
  81.6375106  25.9029747  37.1671385  82.7635861  23.9944629  36.7541731
  81.9232821  23.4381706  36.8214616  83.6519034  23.5565897  36.5560311
  85.1962751  27.9539813  37.6935730  86.0257460  28.5096278  36.9610541
  85.4247429  27.6150745  38.9503652  84.7274825  27.1049794  39.4735576
  86.6522370  27.9515638  39.6045924  87.5202225  27.5330967  39.0950968
  86.8163987  29.4769498  39.6815510  86.6832454  29.8865789  38.6802652
  85.8063736  30.1066595  40.6240053  85.9392227  29.6978367  41.6256619
  85.9564401  31.1859718  40.6498031  84.7972665  29.8889179  40.2741583
  88.2164409  29.8267444  40.1085072  88.9277980  29.4271649  39.3857283
  88.3211899  30.9104949  40.1596161  88.4158218  29.3962845  41.0898595
  86.6143494  27.3777604  40.9935374  85.5812967  27.4255736  41.6397433
  87.7027721  26.7770701  41.4458869  88.4839881  26.5720960  40.8394328
  87.7666371  26.3208529  42.8464469  86.7726111  26.3651837  43.2914708
  88.3120313  24.8688192  42.9901213  87.6496321  24.1780619  42.4684116
  89.3106536  24.8107316  42.5571324  88.3754108  24.4973703  44.4523487
  89.0380344  25.1874534  44.9746667  87.3770136  24.5547815  44.8859456
  88.9100507  23.0739760  44.5931902  90.1576682  22.9355101  44.7021816
  88.0657379  22.1387067  44.5904414  88.6231947  27.3194335  43.5929688
  89.6210583  27.8347248  43.0457128  88.1954984  27.6610072  44.8082910
  87.2676048  27.4165681  45.1235091  89.0884672  28.3336739  45.7439673
  89.3896429  29.2986299  45.3362268  88.4814004  28.5580977  47.1451393
  88.0856898  27.6140770  47.5197555  89.5540091  29.0780470  48.1050623
  89.9498927  30.0223446  47.7313257  89.1156843  29.2331924  49.0909130
  90.3614598  28.3494418  48.1775843  87.3144617  29.5305224  47.0922215
  86.5385626  29.1325383  46.4382404  86.9090333  29.6672577  48.0947337
  87.6577360  30.4901325  46.7056828  90.2597849  27.4212352  45.9409146
  90.0735480  26.2202298  46.1993482  91.4587430  27.9719942  45.7464462
  91.5630899  28.7593640  45.1225393  92.6490935  27.4302546  46.3757070
  92.4991829  26.3710933  46.5849998  93.8769303  27.5816924  45.4639843
  94.1810925  28.6066097  45.6764206  94.6295108  26.8929371  45.8478317
  93.7379998  27.3936057  43.9470520  93.2774310  28.2770414  43.5048772
  95.1273216  27.1914201  43.3490379  95.5883693  26.3078385  43.7904191
  95.0431726  27.0564231  42.2707079  95.7441998  28.0653767  43.5582307
  92.8211181  26.2418697  43.5771219  91.8256121  26.4249593  43.9815295
  92.7620991  26.1578727  42.4919664  93.2162952  25.3145416  43.9918466
  92.8719490  28.1449844  47.7179061  92.7033416  27.5428097  48.7876202
  93.1379135  29.4518015  47.6522015  92.8373397  29.9833278  46.8476926
  93.8592478  30.1527713  48.7180720  93.9306266  29.4775897  49.5707935
  94.8598247  30.3786329  48.3493825  93.1943332  31.4421824  49.1634398
  92.9581154  32.3524499  48.3589528  93.0148658  31.5619705  50.4689035
  93.3865295  30.8657502  51.0991754  92.2732627  32.6464757  51.0214042
  92.0071425  33.3931052  50.2731906  91.0177387  32.1279344  51.6839232
  91.2885758  31.4026908  52.4512363  90.2516754  33.2863839  52.3253675
  89.9800741  34.0118626  51.5585468  89.3478560  32.9057634  52.8011189
  90.8804926  33.7681066  53.0741207  90.2048931  31.3758792  50.6294541
  90.0971864  32.0429143  49.7741388  90.7899727  30.5036486  50.3379149
  88.8429152  30.9334664  51.0951838  88.2570499  31.8052530  51.3864736
  88.3346057  30.4084671  50.2864215  88.9498363  30.2659887  51.9502517
  93.1122850  33.3890780  52.0168952  93.2001503  33.0008058  53.1843512
  93.7374945  34.4616355  51.5289377  93.5138568  34.7591529  50.5900187
  94.7710907  35.2172769  52.2789150  95.1877962  34.5679602  53.0488783
  95.9672353  35.7329777  51.3401153  95.3795181  36.5117137  50.8540516
  96.6301626  36.1856898  52.0774614  96.8385807  34.9602010  50.2434378
  97.3757667  34.1751456  50.7756222  96.0450375  34.3403123  49.0804863
  95.5079168  35.1248721  48.5475078  96.7317122  33.8416561  48.3964392
  95.3324053  33.6145525  49.4723134  97.9552593  35.8367489  49.6384531
  98.6305510  36.1629512  50.4294479  98.5124175  35.2586796  48.9012206
  97.5126942  36.7086443  49.1567544  94.1154150  36.4324761  52.9813844
  94.7749078  37.4723408  53.1238044  92.9101889  36.2254471  53.4893195
  92.5191860  35.2942128  53.4849868  92.1296954  37.2907829  54.0626786
  91.7097090  37.9184612  53.2767202  90.9824804  36.6964796  54.8781756
  90.1865655  36.4209915  54.1862760  91.3543592  35.8021001  55.3780670
  90.4753404  37.6023369  55.8455124  89.7594616  37.1850937  56.3303067
  92.9546181  38.1400565  54.9669588  93.6419339  37.6749007  55.8626780
  92.8865493  39.4240628  54.6486468  92.3060048  39.6949384  53.8678178
  93.5744314  40.4508636  55.3713946  93.3546386  41.4300296  54.9459253
  93.1131674  40.4351124  56.8111743  92.1043781  40.0244985  56.8540645
  93.7933617  39.7845583  57.3609153  93.1225528  41.7993145  57.4257071
  94.2225782  42.3718399  57.5625566  92.0312352  42.3065628  57.7529608
  95.0271287  40.0825192  55.2701861  95.4393330  39.4410494  54.3122028
  95.8055808  40.4481778  56.2734713  95.4744939  41.0140917  57.0417305
  97.1835596  40.0593579  56.2613240  97.6632172  40.2607589  55.3034799
  97.9863435  40.7501170  57.3647273  98.0012981  41.8251253  57.1851928
  97.5234547  40.5500685  58.3310682  99.4163379  40.2145379  57.3650946
 100.2565996  40.8154515  56.6436621  99.6547895  39.2096116  58.0868036
  97.1695147  38.5456754  56.4363733  97.9346709  37.8230641  55.8130765
  96.2757567  38.0754476  57.2984948  95.6679794  38.7175675  57.7867448
  96.1871135  36.6333042  57.6308058  97.1560253  36.1569278  57.7803873
  95.3332878  36.4402986  58.9193862  95.7878875  37.0176616  59.7244267
  93.8940413  36.9031958  58.7118750  93.4386008  36.3259291  57.9072397
  93.3276682  36.7538111  59.6311172  93.8863780  37.9609544  58.4488355
  95.3674945  35.0020251  59.4099973  96.3955860  34.7189933  59.6358800
  94.7597452  34.9100914  60.3101576  94.9717188  34.3441498  58.6362644
  95.6109187  35.7863244  56.4735371  94.9850410  36.3185755  55.5599131
  95.8790220  34.4812335  56.4824390  96.7026842  34.1347872  56.9532414
  95.0343524  33.5254274  55.7717922  94.4296390  34.0465040  55.0295658
  95.9019011  32.4729630  55.0502112  95.5915998  32.4939587  54.0055239
  96.9300330  32.8259543  55.1304729  95.8124564  31.0462533  55.5776816
  96.8235326  30.6557363  55.6931028  95.3337207  31.1082925  56.5549546
  95.0071752  30.1142960  54.6750249  95.4830886  28.9876433  54.4142681
  93.8915245  30.4895681  54.2451095  94.1075174  32.9100386  56.8170044
  94.4700986  32.8464693  57.9855252  92.8819488  32.5584981  56.4231227
  92.4758474  32.9847261  55.6024457  92.0671547  31.5976190  57.1868367
  92.6994711  31.0243310  57.8647865  90.9565570  32.2956645  58.0157464
  90.4609285  31.5459843  58.6325383  91.5419295  33.4006204  58.9205589
  92.0373512  34.1509577  58.3044007  90.7382680  33.8700625  59.4878784
  92.2641524  32.9622757  59.6092885  89.9804703  32.8609252  57.1347718
  89.2951243  33.2918206  57.6507470  91.4376873  30.5684985  56.2243904
  91.5336908  30.7118099  55.0041470  90.8749528  29.4977552  56.7818864
  90.8662944  29.4073183  57.7877917  90.2999830  28.4013643  55.9749127
  90.9371507  28.2157432  55.1102386  90.1907432  27.1018752  56.7936304
  90.3530105  27.3570019  57.8408548  89.1832858  26.7049532  56.6688006
  91.1937320  26.0649903  56.3694839  92.4019347  26.3942240  56.3640527
  90.7748654  24.9302854  56.0373553  88.9254982  28.7701999  55.4321145
  88.6128762  28.4859904  54.2778414  88.0817828  29.3192124  56.2982401
  88.3253128  29.3606949  57.2775622  86.8040681  29.8716581  55.8822090
  86.7653222  29.9543430  54.7960409  85.6128485  29.0028072  56.3550938
  84.7396952  29.2590639  55.7550637  85.9133715  27.5030238  56.2071587
  86.7861845  27.2459042  56.8073142  85.0550083  26.9245237  56.5486983
  86.1123873  27.2733391  55.1603835  85.3078445  29.2928576  57.7274699
  84.5688428  28.7504551  58.0125600  86.6740202  31.2466332  56.4840803
  87.2936940  31.5441377  57.4956388  85.8437320  32.0802643  55.8840347
  85.3160731  31.7962061  55.0710241  85.7036798  33.4477632  56.3524631
  85.6871842  33.5268305  57.4394661  86.8430050  34.3425070  55.8088709
  87.8007960  33.8790701  56.0454338  86.7189334  34.5080709  54.3037892
  85.7615214  34.9719028  54.0664643  87.5286178  35.1402646  53.9393133
  86.7775157  33.5309985  53.8242067  86.8752943  35.6892838  56.5153917
  87.0349051  35.5364848  57.5827618  87.6869163  36.2934623  56.1100058
  85.9272281  36.2043021  56.3603836  84.3551469  33.9806392  55.9197342
  83.8615127  33.6246156  54.8501626  83.7645496  34.8233364  56.7681523
  84.2967948  35.1728037  57.5521721  82.3638702  35.2380852  56.6384956
  81.8122039  34.5849927  55.9623050  81.7023987  35.1896289  58.0094253
  82.2382114  35.8457730  58.6953405  80.6670200  35.5199094  57.9257237
  81.7278623  34.1684743  58.3898122  82.3074016  36.6539308  56.0418496
  83.3443098  37.2997127  55.9211341  81.1020786  37.1368498  55.6562402
  79.7942690  36.6277280  56.0944435  79.6875508  36.7784186  57.1686892
  79.7248671  35.5636254  55.8686820  78.8186263  37.4479189  55.2965131
  77.8832523  37.5408822  55.8483576  78.6287940  36.9604964  54.3402263
  79.4592360  38.7581421  55.1002315  79.2416735  39.3921500  55.9597660
  79.1380510  39.2608980  54.1879945  80.9700899  38.4652094  55.0347566
  81.3609753  38.3966358  54.0195696  81.7061547  39.5387091  55.7820529
  81.9713821  39.4033524  56.9761626  81.9418607  40.6496665  55.1065520
  81.6862466  40.7182141  54.1318408  82.5739186  41.8052552  55.7400681
  82.1008089  42.7178327  55.3774820  82.4487419  41.7363500  56.8206615
  84.0446639  41.8548645  55.4192282  84.5317992  42.8214569  54.8329857
  84.7341554  40.7641264  55.7032718  84.2782027  39.9581537  56.1065266
  86.1584215  40.7487589  55.5859404  86.5857779  41.5614022  56.1733727
  86.7251915  39.4230047  56.1000208  86.1873852  38.6155350  55.6031745
  87.7786982  39.3812554  55.8234694  86.5887989  39.2672273  57.6267268
  86.7600250  40.2669439  58.0259123  85.5732450  38.9506502  57.8644838
  87.5871106  38.2903685  58.2527522  87.1337450  37.4278535  59.0528393
  88.8172939  38.4148587  57.9913074  86.6372795  41.0834276  54.1576541
  85.8442018  41.2687504  53.2094193  87.9462516  41.2667159  54.0619594
  88.5136162  41.0497311  54.8688759  88.6057986  41.7567430  52.8717660
  87.8699132  42.0184136  52.1114368  89.4193865  43.0108483  53.2189826
  89.7459351  42.8839138  54.2511419  90.2911068  43.1123354  52.5725276
  88.5980325  44.2760784  53.1243958  87.8937500  44.4866783  52.1366960
  88.7327532  45.1608720  54.1171146  88.2042537  46.0213442  54.0977319
  89.3624375  44.9649465  54.8821059  89.5321344  40.6783482  52.3388479
  90.7136500  40.6430017  52.6748784  89.0205020  39.8749674  51.4229044
  88.1249167  40.0795016  51.0031519  89.7318004  38.7208060  50.9725292
  90.3765660  38.3395212  51.7643615  88.7545935  37.6522625  50.5955367
  88.1793013  38.1307283  49.8029406  89.3156639  36.8144818  50.1815033
  87.8134961  37.1479936  51.6671866  88.2409805  36.2247278  52.0582597
  87.5837653  38.1275118  52.8142406  87.1558338  39.0509138  52.4239813
  86.8973838  37.6866890  53.5371904  88.5337272  38.3456917  53.3021651
  86.4936810  36.7791080  51.0066108  86.6642156  36.0012637  50.2623154
  85.7987153  36.4123524  51.7620010  86.0711287  37.6590278  50.5215441
  90.5535879  39.0285114  49.7412767  90.0556551  39.6110351  48.7683250
  91.7828323  38.5446187  49.7386300  92.3417553  38.5287785  50.5797326
  92.3762632  38.0640093  48.5132988  91.8848149  38.5326180  47.6606654
  93.8752217  38.3995410  48.4615712  94.3386104  37.8405127  49.2745027
  94.2376869  38.0188456  47.5066943  94.2368277  39.8789924  48.5901707
  93.8110498  40.4038718  47.7350008  93.7861218  40.2558232  49.5083019
  95.7695769  40.1164375  48.6315410  96.1946534  39.4674832  49.3972219
  96.1825047  39.8487686  47.6589448  96.1162146  41.5777315  48.9496484
  95.5508679  42.1946934  48.2511918  95.7702080  41.7695154  49.9653243
  97.5619982  41.9115532  48.8474481  97.8827124  41.7343199  47.9062624
  97.6990165  42.8867405  49.0718045  98.0859924  41.3402729  49.4948798
  92.1519485  36.5367840  48.4205847  92.1786901  35.8089075  49.4407527
  91.8891257  36.0654631  47.2052269  91.9856761  36.6731060  46.4042602
  91.5284696  34.6713372  46.9758322  91.7929389  34.0346024  47.8200620
  90.0154478  34.5053678  46.6556931  89.8011611  34.9998884  45.7082591
  89.6364872  33.0237404  46.5553970  89.8500716  32.5286165  47.5026745
  88.5736058  32.9344246  46.3308830  90.2158825  32.5529379  45.7612023
  89.1096557  35.2437374  47.6764194  89.6758830  36.1116919  48.0142693
  88.2327999  35.5763676  47.1209191  88.6671678  34.4283710  48.8797926
  89.5435270  34.0957579  49.4360865  88.0396547  35.0431731  49.5250406
  88.1004455  33.5604318  48.5427358  92.2676300  34.1789010  45.7626671
  92.0561007  34.6952012  44.6566683  93.1066736  33.1633084  45.9486989
  93.4359475  32.9132063  46.8701798  93.6664799  32.4607643  44.8004091
  93.8758563  33.1874789  44.0154589  94.9689558  31.7104167  45.1366295
  95.5052838  32.3099909  45.8721309  94.6854150  30.7571800  45.5827733
  95.8832070  31.4556642  43.9132830  95.5937136  30.4934573  43.4908470
  95.6795380  32.2454146  43.1901542  97.3774891  31.4389695  44.2425130
  97.6375938  30.4393144  44.5905565  97.9292251  31.6600195  43.3288261
  97.7647733  32.4122097  45.2736228  98.0073682  33.3342614  44.9403546
  97.8430281  32.1669695  46.5859183  97.5532757  30.9614716  47.0764000
  97.2702518  30.2201144  46.4515905  97.6181370  30.7951843  48.0705032
  98.1888041  33.1459605  47.4204142  98.3897358  34.0669879  47.0578745
  98.2484649  32.9627398  48.4118624  92.6489993  31.5207151  44.1711384
  92.0697866  30.6638542  44.8353154  92.4836603  31.6909721  42.8622887
  93.1093300  32.3331915  42.3973251  91.4919015  30.9803998  42.0536309
  90.7955520  30.4398904  42.6947598  90.6984779  31.9975403  41.2128400
  91.4376299  32.7856010  41.0689166  90.4636203  31.5404449  40.2515879
  89.4244748  32.5969215  41.8179417  88.6900124  31.8014806  41.9441942
  89.7108556  33.2434821  43.1698613  90.4449400  34.0393851  43.0443329
  88.7894229  33.6605514  43.5762057  90.1030950  32.4930880  43.8562704
  88.7870724  33.5840684  40.8358046  88.5330138  33.0649992  39.9116180
  87.8827526  34.0033834  41.2768056  89.4911383  34.3874181  40.6189647
  92.1967496  30.0328663  41.0898433  93.2483473  30.3944123  40.5594399
  91.6179876  28.8483130  40.8279045  90.8507952  28.5224682  41.3982906
  92.0633620  27.9988202  39.6964791  92.8836758  28.4871054  39.1703973
  92.5421481  26.6533900  40.1959414  93.4899551  26.8158343  40.7091402
  91.8017814  26.2889262  40.9080673  92.7336782  25.6224400  39.0906183
  92.6323394  26.1312738  38.1320155  93.7402030  25.2137154  39.1798043
  91.7176113  24.4913064  39.1743972  90.7325542  24.9045257  38.9575765
  91.9742052  23.7492451  38.4183522  91.7001644  23.8301928  40.5506496
  92.3349674  24.4170054  41.2145597  90.6747966  23.8476183  40.9199955
  92.1919963  22.4166825  40.5109636  93.1422588  22.4003540  40.1691533
  92.1618554  22.0235189  41.4408097  91.6036518  21.8726591  39.8961560
  90.9575325  27.7343581  38.7316947  89.9874182  27.1093810  39.1100276
  91.1479355  28.0817980  37.4615084  92.0489595  28.4014575  37.1358199
  90.0458082  28.0083969  36.4966532  89.5451958  27.0470082  36.6116237
  89.3412510  28.8121718  36.7102991  90.5266050  28.1432524  35.0780072
  91.7199501  28.3191820  34.8546010  89.6196113  27.9908257  34.1089301
  88.6909384  27.6588915  34.3268422  89.9815231  28.1791817  32.6864053
  90.9829356  27.8027063  32.4777468  88.9438512  27.5164874  31.6748173
  87.9355818  27.7503685  32.0165668  89.1321225  28.0371713  30.2391379
  90.1400791  27.8032342  29.8965048  88.4054881  27.5606786  29.5810665
  88.9843574  29.1169630  30.2214024  89.0071436  25.9532396  31.7129679
  89.4782498  25.6967045  32.6618354  87.9717253  25.6126795  31.7181940
  89.7586044  25.2756566  30.5735957  90.7942916  25.6153928  30.5680151
  89.7320493  24.1948351  30.7122281  89.2877681  25.5313699  29.6243730
  90.1707071  29.6937846  32.4442784  90.8708422  30.0835395  31.5108808
  89.6517778  30.5331578  33.3527436  89.1165962  30.1704140  34.1286926
  89.7602540  32.0025350  33.2004269  90.3640899  32.2444108  32.3257969
  88.3641063  32.6146891  33.0172853  87.7364942  31.8508402  32.5582241
  87.9830654  32.8479868  34.0115086  88.3432586  33.8781658  32.1539094
  87.5316904  34.5289561  32.4793781  89.2990252  34.3633162  32.3519962
  88.2102228  33.6091660  30.6579369  87.0735547  33.3352828  30.1992861
  89.2267747  33.7298257  29.9341514  90.5029873  32.6982648  34.3657189
  89.9291646  32.8495666  35.4749765  91.7342197  33.1892252  34.0768444
  91.9811787  33.3107782  33.1050752  92.7970379  33.3892678  35.1083833
  92.3522892  33.5141841  36.0956491  93.6967892  32.1723829  35.1336764
  94.2445712  32.1414174  34.1918298  94.3994243  32.2926291  35.9582641
  92.9195473  30.8697105  35.3133253  92.4375703  30.6934635  34.3516933
  93.6240487  30.0638531  35.5191670  91.8439133  30.9135037  36.4300847
  92.2094701  30.9861969  37.6190675  90.6216520  30.8276959  36.1266030
  93.6247658  34.7146941  35.0455995  94.3039823  35.0891521  35.9760296
  93.5197566  35.4278409  33.9542262  93.6248958  34.9651183  33.0626361
  93.2975102  36.8637879  33.9631516  92.7683937  37.1529807  34.8711727
  94.6405288  37.6073302  33.9198525  94.4969962  38.4986497  34.5306284
  95.3539335  36.9436994  34.4084708  95.1842746  38.0159215  32.5332557
  94.5568087  38.7414656  32.0155945  96.0891369  38.5079233  32.8899876
  95.5756124  36.8514589  31.5364374  94.8212643  36.6310793  30.5385382
  96.7212370  36.3028342  31.6139562  92.4320664  36.8002544  32.6669589
  92.0879646  35.6955127  32.2726015  91.9633212  37.9323569  32.2038899
  92.3263609  38.8156658  32.5326252  90.9189993  37.9498999  31.2231385
  91.0249179  38.8484242  30.6152450  90.9555073  36.7402243  30.3101155
  91.8715093  36.8007136  29.7224246  90.9881528  35.8531002  30.9426068
  89.7524960  36.6518818  29.3705819  90.0914413  36.1008293  28.4933373
  88.9609044  36.0912259  29.8677205  89.2177336  38.0118577  28.9401998
  90.0241524  38.9497901  28.8091558  87.9897827  38.1453782  28.7639648
  89.5840637  37.9735017  32.0464701  88.5136944  37.7050570  31.5246616
  89.6779476  38.2766844  33.3455729  90.6127699  38.4135610  33.7026041
  88.5595594  38.4287009  34.2640351  87.6379509  38.2003618  33.7286863
  88.6895230  37.4989805  35.4772245  87.7119819  37.3567227  35.9379592
  89.2273016  36.1686919  35.0209271  90.2050981  36.3100896  34.5604694
  89.3227618  35.5015979  35.8776497  88.5439112  35.7299898  34.2938664
  89.6232915  38.0333999  36.5593932  90.5979695  38.2006878  36.1010065
  89.2172520  38.9838494  36.9056258  89.7724503  37.0997880  37.7240604
  90.1789037  36.1492130  37.3786584  90.4487946  37.5384364  38.4577123
  88.7981851  36.9323728  38.1832765  88.6742101  39.8892308  34.6550771
  89.7607333  40.3290930  34.9650859  87.5907456  40.6397579  34.6595309
  86.6776688  40.2507107  34.4723614  87.6867635  42.0566917  34.9589857
  88.7229196  42.3387220  35.1459049  87.1761778  42.8478118  33.7710888
  86.1602729  42.4711699  33.6520199  87.1418431  43.8879828  34.0950725
  87.9063613  42.7555280  32.4485002  88.8198831  43.3464989  32.5143189
  88.2564808  41.3217605  32.1122619  87.3433690  40.7302284  32.0458128
  88.7799899  41.2895406  31.1567512  88.8985572  40.9116110  32.8917591
  87.0292714  43.3645171  31.3742346  86.8283684  44.4080202  31.6168019
  87.5390886  43.3072443  30.4125135  86.0882768  42.8171592  31.3192128
  86.8830661  42.5049137  36.1363168  85.9500524  41.8476859  36.5360143
  87.2363532  43.6419657  36.7038235  88.6219453  44.1925257  36.7481787
  88.7516650  44.9085706  35.9366661  89.3374046  43.3785058  36.6316081
  88.7018875  44.8348224  38.1014784  89.3749177  45.6917421  38.0728788
  89.0602195  44.1164938  38.8388410  87.2754985  45.2596255  38.4068468
  86.9767448  46.2107860  37.9662348  87.1500808  45.3055781  39.4886316
  86.4213389  44.1274860  37.8295622  86.3928709  43.3063074  38.5457700
  84.9790446  44.5819638  37.5103961  84.6850855  45.2636659  36.4845071
  84.1003750  44.2289211  38.4482275  84.4381112  43.8982087  39.3407872
  82.6663047  44.3003710  38.2389158  82.1576323  44.3269150  39.2025791
  82.4240529  45.2016789  37.6758372  82.1974522  43.1136075  37.4771300
  81.3146714  43.2285803  36.6244370  82.9775826  42.0454187  37.6035979
  83.9781521  42.1258246  37.4918180  82.4253361  40.7480836  37.8922907
  81.3923865  40.7293802  37.5447788  83.2006722  39.5821070  37.2111178
  84.2142229  39.4940973  37.6023574  82.6532002  38.6610998  37.4114182
  83.3254206  39.6933888  35.7057553  82.5774058  40.6212229  34.9659318
  81.8411074  41.2379930  35.4812563  82.7658484  40.7620438  33.5814970
  82.1972716  41.5115742  33.0310196  83.6735190  39.9497711  32.9134062
  83.8031681  40.0344589  31.8344627  84.4237122  39.0181934  33.6364000
  85.1490387  38.3902560  33.1190061  84.2466395  38.8894414  35.0205727
  84.8293530  38.1566343  35.5787291  82.4771644  40.5697360  39.3985888
  83.0548981  41.3957844  40.1395529  81.9994301  39.3826515  39.7780492
  81.9086520  38.7059978  39.0337384  81.6747309  38.9605864  41.1452542
  82.3166405  39.4984495  41.8429322  80.1894236  39.2487860  41.4828890
  79.8110845  38.4359253  42.1027416  80.0356984  40.5607363  42.2226924
  80.4134241  41.3741859  41.6032380  78.9823095  40.7323308  42.4441147
  80.6005300  40.5215813  43.1541060  79.3628223  39.3175032  40.1971852
  79.7125739  40.1889961  39.6437642  79.5863185  38.4138885  39.6300615
  77.8693713  39.4220825  40.4101394  77.6450448  40.3257604  40.9768348
  77.3662469  39.4653226  39.4441708  77.5187897  38.5506533  40.9631345
  81.8706716  37.4291692  41.1504167  81.8048646  36.7922156  40.1107165
  82.1420845  36.8354731  42.2899394  82.4439675  37.3409594  43.1105791
  82.0074315  35.4047461  42.3805962  82.3137682  34.9418817  41.4425057
  82.8745248  34.8724970  43.4834978  82.6541373  35.4927726  44.3522825
  82.6353447  33.8333609  43.7095270  84.3418273  34.9883587  43.1414738
  84.5341976  35.9819668  42.7367055  85.1975281  34.7717836  44.3828462
  85.0060359  33.7781410  44.7879437  86.2513020  34.8587657  44.1180908
  84.9484556  35.5232428  45.1320941  84.7245294  34.0144349  42.0393588
  84.1400575  34.2293474  41.1447613  85.7856659  34.1193864  41.8133593
  84.5227371  32.9950573  42.3683699  80.5493009  35.1227811  42.6677057
  79.8273518  36.0141587  43.1157966  80.0789027  33.9200796  42.3601936
  80.6245518  33.2631019  41.8209843  78.7269536  33.5347959  42.7591948
  78.4643820  34.0755071  43.6684730  77.6724255  33.8483472  41.6771125
  77.7932574  33.1396230  40.8578391  76.6805536  33.7322757  42.1139393
  77.7004879  35.5181761  40.9141145  76.6705200  35.3152120  40.0974935
  78.6891676  32.0696430  43.0783109  79.1992875  31.2400860  42.3236249
  78.0835602  31.7665292  44.2193520  78.0426961  32.4728062  44.9401864
  77.5031930  30.4375708  44.5065666  78.2922206  29.7316200  44.7657346
  76.5199271  30.5404047  45.6987405  77.0953473  30.5151818  46.6241348
  76.0160295  31.5029434  45.6109543  75.4756517  29.4164923  45.7154662
  75.8472207  28.2769855  46.0593423  74.2800557  29.6750182  45.4039655
  76.7716816  29.8593973  43.2701720  75.9127728  30.5238041  42.6824949
  77.0817310  28.6058515  42.9052362  78.1687997  27.7813728  43.4672029
  77.9981344  27.6416645  44.5346555  79.1205512  28.2905530  43.3155338
  78.0782979  26.5057110  42.7012013  77.4816929  25.7923386  43.2697622
  79.0822236  26.1061428  42.5577451  77.4408967  26.8271006  41.3912710
  76.8260993  26.0087593  41.0165170  78.2192579  27.0585685  40.6641699
  76.5641677  28.0711076  41.6372018  76.7763152  28.8236196  40.8777167
  75.0437423  27.7302558  41.6191807  74.4410284  27.6434248  40.5405546
  74.4196137  27.6065010  42.7872099  74.9257539  27.7139915  43.6546009
  73.0070106  27.2104864  42.8499628  72.7993395  26.4654652  42.0819033
  72.6765181  26.6105104  44.2131515  72.5728626  27.3762211  44.9819440
  71.7270849  26.0895314  44.0896300  73.7156719  25.6172283  44.6604727
  74.6497763  25.3050873  43.9144420  73.6096963  25.1697561  45.9064405
  74.2803738  24.5017225  46.2586088  72.8589151  25.4995588  46.4960662
  72.0797784  28.3788627  42.5160328  71.6157068  28.4908937  41.3816468
  71.8196036  29.2532484  43.4876977  71.9135525  28.9910134  44.4585251
  71.3290006  30.5868404  43.1781122  70.7447615  30.5502498  42.2586423
  70.4412192  31.1369642  44.3013331  70.6163277  30.5464918  45.2006543
  70.7091800  32.1762110  44.4917619  68.9522117  31.0714407  43.9556610
  68.3259843  29.9895965  43.9337198  68.3784135  32.2302458  43.6750771
  67.3970459  32.2600882  43.4381656  68.9244432  33.0795835  43.6991123
  72.5274666  31.4755480  42.9266483  73.2587766  31.8181408  43.8521929
  72.8394740  31.6487659  41.6448836  72.3547816  31.1008189  40.9485168
  73.9136512  32.5380790  41.2032778  74.5749868  32.7560722  42.0418560
  74.7454553  31.8837260  40.0747832  75.4647425  32.6720836  39.8529333
  75.2605938  31.0426848  40.5388760  74.0777252  31.4189361  38.7719874
  73.3582578  30.6390635  39.0215194  73.3654036  32.5533693  38.0483457
  74.0843610  33.3334692  37.7980595  72.9101745  32.1726339  37.1340658
  72.5909781  32.9673347  38.6940996  75.1152780  30.7849454  37.8574598
  75.5649964  29.9269499  38.3571563  74.6356456  30.4573012  36.9351240
  75.8895735  31.5157350  37.6239815  73.3192552  33.8858036  40.7657030
  72.1349394  34.1356149  40.9733553  74.1428778  34.7511309  40.1781620
  75.0401622  34.4355102  39.8385099  73.8207251  36.1675984  40.0649388
  73.1356888  36.4623877  40.8598751  75.0969015  36.9972768  40.1878887
  75.7507503  36.8475154  39.3287306  74.8707121  38.0585472  40.2910556
  76.0741327  36.5470096  41.6481957  77.0512125  37.4244187  41.4375616
  73.1036273  36.4605480  38.7573761  73.3573873  35.8041795  37.7410198
  72.1188210  37.3599981  38.8269185  71.8808783  37.7710248  39.7182881
  71.3876804  37.8072985  37.6382871  71.1441281  36.9396551  37.0251180
  70.0758755  38.5395264  38.0011579  70.2568170  39.4771577  38.5267117
  69.5503463  38.7422289  37.0679747  69.1403685  37.7440410  38.8550014
  68.7336345  36.4684329  38.5206099  69.0246272  35.9706820  37.6913530
  67.9132091  36.0141287  39.4512498  67.4910868  35.0118360  39.3783038
  67.7577282  36.9570235  40.3663843  68.4859713  38.0611112  40.0005575
  68.4525427  38.9630463  40.6117014  72.3070318  38.7692122  36.9557930
  73.1977676  39.3187182  37.6022904  72.0862513  38.9933808  35.6633069
  71.3825891  38.4649222  35.1676352  72.9078124  39.9340901  34.9053714
  72.9777598  40.8829933  35.4371508  74.3130702  39.3702388  34.7281398
  75.0361938  40.1795884  34.8288603  74.4959144  38.6222434  35.4996130
  74.4453732  38.7846220  33.4750317  75.3339085  38.4344386  33.3776842
  72.2673258  40.2836816  33.5507405  71.0342293  40.2714046  33.4274832
  73.0902218  40.6033964  32.5542784  74.0784276  40.4116737  32.6366859
  72.6051745  41.2331462  31.3237036  73.1911483  40.9156585  30.4611867
  71.5534340  41.0041194  31.1519829  72.7597646  42.7161869  31.5002879
  73.3846967  43.1190361  32.4514821  72.1508756  43.5242334  30.6236545
  71.4149355  43.1417685  30.0472762  72.6409826  44.9043131  30.3239612
  73.2147884  45.2781296  31.1719632  73.5542011  44.9153973  29.0609564
  74.1783492  45.8002655  29.1856426  74.1685198  44.0207933  29.1629181
  72.9039958  44.9369180  27.6569482  72.2115839  45.7774075  27.6095775
  73.6900875  45.0721265  26.9140616  72.1441617  43.6295316  27.3674609
  72.4289814  43.2689344  26.3790549  72.4208762  42.8886917  28.1175840
  70.6677781  43.8133113  27.4007737  70.3163870  44.5908722  26.8603826
  69.7831200  43.0372923  28.0641744  70.1713904  41.9869570  28.7899085
  71.1524620  41.7553262  28.8527239  69.4824186  41.4284101  29.2730677
  68.4830856  43.3272903  28.0135609  68.1670573  44.1246094  27.4801676
  67.8200137  42.7483806  28.5088364  71.5952474  46.0411700  30.2465318
  71.9545343  47.2000776  30.0929481  70.3080910  45.6945808  30.3047844
  70.0432388  44.7253646  30.2019615  69.2519604  46.6816685  30.5450092
  69.7095559  47.6637885  30.4260723  67.9997806  46.5906309  29.5918672
  67.3589447  45.7703908  29.9153418  67.2190296  47.8928383  29.6419665
  67.8591163  48.7135327  29.3181622  66.3546756  47.8244868  28.9814217
  66.8823087  48.0761658  30.6623148  68.3676227  46.3655080  28.2159159
  67.5749404  46.3176077  27.6765083  68.7725545  46.4331287  31.9284567
  68.8081892  45.2981603  32.3915365  68.2817019  47.4960974  32.5728125
  68.4991543  48.4104409  32.2029617  67.5368951  47.4133140  33.8720213
  66.7295777  46.6880057  33.7707015  68.4576272  46.9736487  35.0559854
  67.9271376  46.7282670  35.9760223  68.9932973  46.0935199  34.7002737
  69.4936981  47.9874766  35.4174145  70.6603944  48.0651939  34.6968883
  70.8381853  47.3569418  33.8876485  71.5908480  49.0162872  34.9858719
  72.5232113  49.0460170  34.4220319  71.3603882  49.9347775  35.9809849
  72.1014341  50.6997932  36.2127214  70.1975449  49.8835756  36.6779296
  70.0093231  50.6069126  37.4713124  69.2558534  48.9210376  36.3855213
  68.3110917  48.9000984  36.9287403  66.7775349  48.7245527  34.2433851
  67.1066413  49.8308373  33.7798289  65.7861316  48.5458171  35.1236914
  65.6477294  47.6098167  35.4770289  64.9290637  49.6053614  35.6263339
  64.9290789  50.4564023  34.9452843  63.5031805  49.0698869  35.7382351
  63.6198392  48.1991440  36.3834458  62.8303503  49.7848237  36.2118013
  62.9162670  48.6316043  34.3888449  63.1238696  49.3605930  33.3834939
  62.1521809  47.6163988  34.3623998  65.3920355  50.0212541  37.0084524
  65.7567113  49.1733655  37.8373206  65.3171444  51.3008964  37.3110941
  65.0630339  52.0248103  36.6542259  65.6853400  51.6856906  38.6286806
  65.1853660  51.0159878  39.3284115  67.1706942  51.5588337  38.8204130
  67.6849773  52.2302765  38.1328247  67.4289869  51.8223253  39.8460627
  67.4768249  50.5317731  38.6215922  65.2498548  53.0487949  38.9366096
  64.9446496  53.8439725  38.0391061  65.3045972  53.3197239  40.2307494
  65.8697626  52.7091772  40.8033925  64.6672860  54.4481431  40.8587005
  63.9407130  54.8963707  40.1809964  63.9377970  53.9875787  42.1227117
  63.5387595  53.0006660  41.8884643  64.7075257  53.8952031  42.8889260
  62.8245923  54.8725385  42.6319242  63.2726368  55.7031010  43.1773808
  62.2494165  55.2591794  41.7906254  61.8653728  54.1182836  43.5811342
  62.2133310  53.0850915  44.1678286  60.6389445  54.6355781  43.7140321
  59.9678257  54.1865713  44.3207395  60.3896631  55.4728011  43.2070628
  65.7948825  55.3494541  41.2379914  66.6237548  54.9972545  42.0716492
  65.7786080  56.5507299  40.6962382  64.8972682  56.9664494  40.4306884
  66.9850373  57.2707677  40.4061985  67.8602029  56.9072477  40.9447498
  67.2363788  57.1685294  38.8909204  66.3975758  56.6290578  38.4510564
  67.3757310  58.5452988  38.2097744  68.2146781  59.0852114  38.6488220
  67.5514673  58.4073067  37.1429213  66.4596703  59.1177402  38.3555235
  68.4726655  56.2956574  38.6385088  69.3188175  56.8149969  39.0884133
  68.3034838  55.3553233  39.1631503  68.7750447  56.0097016  37.1614935
  68.9448090  56.9496012  36.6362615  69.6659388  55.3861674  37.0865803
  67.9294737  55.4899293  36.7109978  66.8725540  58.7355225  40.8869249
  66.4019924  59.5964269  40.1541129  67.3384311  59.0455877  42.0890348
  67.8140923  58.3780173  42.6791158  67.1284199  60.4006886  42.6030376
  66.7155187  61.3317760  42.2148519  67.1273763  60.4650388  44.1281864
  66.2404295  61.0399899  44.3943742  67.1195731  59.1582025  44.8730757
  68.0065167  58.5828526  44.6077372  67.1196408  59.3508974  45.9459080
  66.2268983  58.5925508  44.6061086  67.4800493  61.7713605  44.8021704
  66.7736082  62.5421223  44.4939998  67.4323617  61.6471110  45.8840150
  68.4888401  62.0681309  44.5151700  68.1884243  61.3705236  42.1067477
  69.3216295  61.3385404  42.5240727  67.7451352  62.3072250  41.3009493
  66.7682384  62.2856509  41.0453976  68.5576854  63.3691351  40.7883323
  69.4860444  63.0056779  40.3477106  67.7637083  64.1359170  39.7383304
  66.7840307  64.3801447  40.1490432  68.4628963  65.3851006  39.3526293
  69.4425356  65.1416367  38.9413716  67.8755232  65.9139371  38.6020126
  68.5854047  66.0194312  40.2305334  67.5311833  63.2336287  38.5389785
  66.5571387  62.7664065  38.6840342  67.4959915  63.8814944  37.6631183
  68.5811718  62.1588098  38.3306051  68.6166254  61.5102265  39.2059236
  68.3269532  61.5674814  37.4509444  69.5554792  62.6253149  38.1850099
  68.9271328  64.3270235  41.8878100  68.0495801  64.9968423  42.4726495
  70.2128425  64.3664341  42.2082212  70.8647789  63.7424449  41.7546621
  70.7095472  65.2360377  43.2558108  69.8416639  65.5573751  43.8316754
  71.6791894  64.4996438  44.1686109  71.8160385  65.0772432  45.0828054
  71.1415739  63.1376839  44.5122544  71.0048900  62.5592921  43.5985360
  71.8458392  62.6227515  45.1656729  70.1838124  63.2425524  45.0219551
  72.9945861  64.2688073  43.4893245  72.8331285  63.6432243  42.6114417
  73.4049009  65.2299112  43.1794526  73.9587121  63.5893818  44.4167247
  73.5492646  62.6279347  44.7266796  74.9072382  63.4313069  43.9034899
  74.1210352  64.2146211  45.2946922  71.3807701  66.4967415  42.7788396
  71.2585474  67.5388612  43.3989599  72.1221607  66.3917777  41.6942754
  72.2144116  65.5245751  41.1848162  72.8022655  67.5540429  41.1903794
  72.4412219  68.4621099  41.6732470  74.2707783  67.3948856  41.4991803
  74.3260458  66.9655485  42.4995375  74.6575612  66.6780677  40.7748384
  75.0970309  68.6578932  41.4474755  75.2728683  68.9097766  40.4016568
  74.5378006  69.4622696  41.9253241  76.4259618  68.4780403  42.1538107
  77.2775989  69.3747445  42.0553788  76.6313416  67.4368072  42.8086281
  72.6811166  67.7250508  39.7270089  73.0838679  66.8604828  38.9902175
  72.1225927  68.8328655  39.2948577  71.6002466  69.4419903  39.9082261
  72.0927784  69.0993273  37.8829220  73.1107912  69.0632812  37.4950433
  71.2674027  68.1129099  37.1414743  71.6639317  67.1093727  37.2956720
  70.2241093  68.1430265  37.4556907  71.2767875  68.3517867  35.6828750
  70.8820752  69.5511031  35.1356490  70.5609371  70.3502811  35.6631757
  70.9923236  69.4820464  33.8235474  70.7152018  70.3307932  33.1983024
  71.4591895  68.2880356  33.5063102  71.6486155  67.5643499  34.6534396
  72.0362197  66.5470858  34.5983216  71.7190749  70.5073466  37.5442834
  70.8100773  71.0602387  38.1073889  72.4328052  71.0819404  36.6084885
  73.2286765  70.5958638  36.2206513  72.1950566  72.4434479  36.1952381
  72.1161059  72.9863351  37.1371189  73.3945414  72.9745508  35.4276010
  74.3000575  72.8179948  36.0138007  73.4814207  72.4468326  34.4778297
  73.2106177  74.4655285  35.1653377  72.3054832  74.6228453  34.5787511
  73.1241224  74.9940089  36.1147212  74.4141248  74.9984133  34.3951239
  75.3196417  74.8418561  34.9813219  74.5010020  74.4706957  33.4453523
  74.2302011  76.4893918  34.1328629  73.3250663  76.6467097  33.5462772
  74.1437089  77.0178702  35.0822463  75.3903021  77.0030567  33.3904257
  75.4703731  76.5137850  32.5104816  75.2684916  77.9905245  33.2167322
  76.2290730  76.8577660  33.9339817  70.9410756  72.7002453  35.4118506
  70.3802454  73.7742741  35.4642859  70.5303308  71.7300587  34.6291382
  70.9959486  70.8344391  34.5950069  69.3953414  71.9476284  33.7560331
  68.8509656  72.8382036  34.0700873  69.8631521  72.1443329  32.3213543
  68.9993946  72.4192860  31.7160254  70.5890561  72.9573451  32.3081430
  70.4623366  70.9625472  31.7866146  70.7431831  71.1267492  30.8834187
  68.4916106  70.7266737  33.8901982  68.0276610  70.4637718  35.0081295
  68.3864896  69.8940207  32.8357605  69.1344718  69.8610645  32.1578698
  67.2518401  68.9581843  32.6744105  66.7924054  68.7148294  33.6324279
  66.1570814  69.4948425  31.6923972  66.1038984  68.8215979  30.8368191
  64.7787535  69.5763683  32.3658524  64.8310343  70.2498415  33.2213062
  64.0465627  69.9531443  31.6516834  64.4793025  68.5840476  32.7030879
  66.5410180  70.8334833  31.0903122  66.1073299  71.6175027  31.7110609
  67.6279233  70.9123716  31.1129630  66.0518368  70.9912592  29.6606180
  64.9649055  70.9129444  29.6372275  66.3536470  71.9663754  29.2783114
  66.4854975  70.2078114  29.0391297  67.5897275  67.6286492  32.0478018
  67.0662881  67.3496007  30.9443558  68.0934507  66.6976754  32.8545638
  68.3440642  66.9048654  33.8107879  68.3523436  65.3086353  32.3335820
  68.9734054  65.3660443  31.4396661  68.9958904  64.3400180  33.3443006
  69.7272995  63.7303301  32.8138087  69.6745451  65.0698283  34.4704843
  68.9436277  65.6794152  35.0017698  70.1142492  64.3482258  35.1589979
  70.4583593  65.7115783  34.0681272  67.9551605  63.3769361  33.8774128
  67.0628600  63.9387375  34.1536005  67.7047909  62.6595564  33.0958880
  68.4701454  62.6547917  35.0633112  68.7203120  63.3715311  35.8454884
  67.7074712  61.9682099  35.4307793  69.3622448  62.0923515  34.7877762
  67.1120942  64.5411350  31.7982365  66.0798956  64.5020894  32.4422454
  67.3190537  63.7537054  30.7403872  68.2495670  63.4053770  30.5589712
  66.2915113  63.5320165  29.7349262  65.4189139  63.0264105  30.1484908
  65.8661058  64.9260972  29.2472385  64.9592234  65.2207083  29.7753178
  66.6632948  65.6346352  29.4721021  65.5149026  65.1142763  27.5303603
  65.2115791  66.4077829  27.5914651  66.7354872  62.4937047  28.6159678
  67.8673784  62.5125477  28.1576313  65.8421754  61.5334565  28.2613972
  64.5142304  61.9278061  27.7188886  64.6321500  62.8352230  27.1266135
  63.8385164  62.1232723  28.5515365  64.0752704  60.7418917  26.8850839
  64.3888641  60.8691645  25.8489567  62.9917616  60.6300467  26.9250921
  64.7577231  59.5706878  27.5233164  64.8898170  58.8230100  26.7412497
  64.2458228  59.1198814  28.3735113  66.1286257  60.1147756  27.9639484
  66.5721873  59.6547882  28.8469903  67.0521297  59.9903652  26.8332480
  66.8692137  60.6550641  25.8277137  68.0004258  59.1044695  26.9409943
  67.9519692  58.3341222  27.5923900  69.1774370  59.2195730  26.0964324
  69.6408512  58.2345224  26.0414626  68.8421357  59.5187175  25.1033639
  70.2162591  60.2333949  26.5998137  71.1360939  60.6251713  25.8585201
  70.0599567  60.6405382  27.8649749  69.1392614  60.5876052  28.2768213
  71.1578982  61.1704638  28.6815706  71.5991279  62.0278416  28.1733198
  70.6690451  61.6228698  30.0848850  69.8359478  62.3176905  29.9787146
  70.3056549  60.6806911  30.4951860  71.7066143  62.2163565  31.0223698
  72.2883454  63.4602097  30.7175417  72.0013477  63.9569246  29.7907158
  73.2147534  64.0593528  31.5725329  73.6542989  65.0239256  31.3185630
  73.5392922  63.4354857  32.7994418  74.5026253  64.0770571  33.5853651
  74.8354376  64.8842306  33.1862328  72.9405228  62.1937179  33.1517498
  73.1875994  61.7027364  34.0930206  72.0230708  61.6018400  32.2719996
  71.5415148  60.6610114  32.5385432  72.1824608  60.0897500  28.8347408
  71.8904115  58.9581000  29.3105187  73.4007417  60.4819269  28.4945043
  73.5442189  61.3356333  27.9742169  74.5113143  59.6535295  28.7357807
  74.1936653  58.6260783  28.9133828  75.3948924  59.6779620  27.5379854
  74.8850797  60.5021715  27.0391178  76.4598089  59.8995124  27.6084724
  75.2186377  58.4473014  26.7228278  74.4584899  58.4698755  25.7601546
  75.6382318  57.3061135  27.2870236  75.5465947  56.4345923  26.7848750
  76.0441230  57.3229489  28.2117234  75.2603305  59.9807486  30.0038222
  75.4069234  61.1604147  30.3546989  75.6727800  58.9310220  30.7267278
  75.3910299  57.9996514  30.4560526  76.4786482  59.0894913  31.9519632
  77.2438723  59.8411286  31.7581262  75.6114063  59.5648057  33.1158742
  74.8459601  58.8183063  33.3278433  76.2340190  59.7069736  33.9991872
  75.1344375  60.5088346  32.8524174  77.1830752  57.8044799  32.3243517
  76.9070354  56.7691323  31.7673351  78.0852292  57.8948406  33.2892580
  78.2351777  58.7898944  33.7325339  78.7970451  56.7268963  33.8214142
  78.9544000  55.9558397  33.0672190  80.1763525  57.0773437  34.4739466
  80.0002131  57.5700151  35.4301626  81.0035045  55.8093906  34.6984717
  81.1804572  55.3163811  33.7425793  81.9584735  56.0736198  35.1526938
  80.4615222  55.1338395  35.3602780  80.9813099  58.1303518  33.6799098
  80.4065627  59.0541895  33.6143992  81.9255214  58.3257456  34.1882262
  81.1805203  57.7550382  32.6761390  77.9874890  56.1761369  34.9560842
  77.3097272  56.9190597  35.6396525  78.1907322  54.9103760  35.2519465
  78.9529116  54.3985265  34.8310048  77.3376430  54.2239487  36.1602936
  76.7631224  54.9397564  36.7482090  76.3564125  53.3258036  35.3818285
  75.4789813  53.9565531  35.2391094  76.8202908  53.1255832  34.4159979
  75.9323849  51.9973889  36.0319462  76.7849568  51.3186157  36.0540597
  75.4494237  52.2478804  37.4471280  74.5965126  52.9262507  37.4257912
  75.1506152  51.3035299  37.9021186  76.2534382  52.6942018  38.0323273
  74.8441787  51.3434503  35.2153187  75.2130888  51.1467072  34.2086922
  74.5517586  50.4041119  35.6846109  73.9808050  52.0066680  35.1621477
  78.1685448  53.4009871  37.0683892  78.6787601  52.3783479  36.6791895
  78.2755864  53.7916196  38.3103482  77.8268884  54.6232829  38.6668670
  79.1136105  53.0158498  39.2166522  79.8203009  52.4153776  38.6438339
  79.8944556  53.9375786  40.1373161  79.2036263  54.5667223  40.6985935
  80.5060155  53.3612134  40.8315046  80.8136446  54.8516867  39.4212274
  82.1436972  54.9618424  39.7530327  82.6003312  54.4645124  40.5041971
  82.7169626  55.8211723  38.9293047  83.7752300  56.0605922  39.0334548
  81.8079930  56.2552755  38.0681296  80.5986769  55.6941825  38.3790064
  79.7094134  55.9660756  37.8103363  78.3070368  52.0759802  40.0300555
  77.7589479  52.4800202  41.0357410  78.3511583  50.8107510  39.6972892
  78.8980532  50.4767255  38.9166278  77.6924769  49.8507740  40.5215343
  77.0799426  50.3394823  41.2792051  76.8288389  48.9528926  39.6827706
  77.4614585  48.3528560  39.0286690  76.0200780  48.0430786  40.5719755
  75.3868211  48.6424258  41.2260927  75.3958494  47.3944414  39.9573950
  76.6919526  47.4335888  41.1762980  75.9453790  49.8173505  38.8137223
  75.5465157  50.6175339  39.4371928  76.5683127  50.2455255  38.0284076
  74.8132467  49.0562709  38.1935567  74.1895644  48.6281604  38.9783126
  74.2141497  49.7301156  37.5810900  75.2113619  48.2561501  37.5695288
  78.7747151  48.9942946  41.0982531  79.5310534  48.3923933  40.3665112
  78.8772549  48.9660592  42.4109958  78.3765178  49.6568692  42.9514984
  79.8660627  48.1465053  43.0882643  80.0934052  48.6153595  44.0456515
  79.4152752  46.7101831  43.3432278  80.2741255  46.1935672  43.7716941
  78.5736191  46.6486263  44.0331016  79.0238981  45.9479219  42.1241922
  79.5185291  44.6949960  41.8552055  80.1863105  44.2061100  42.4341340
  78.9867580  44.2444041  40.7362535  79.2648199  43.2670100  40.3419423
  78.1489432  45.1538911  40.2808704  78.1384125  46.2192474  41.1427260
  77.4834783  47.0691289  40.9507268  81.2322460  48.2580523  42.4532978
  81.6786054  49.3480099  42.1541866  81.8805341  47.1310082  42.2122080
  81.4854275  46.2280783  42.4329062  83.1813093  47.1749212  41.6003376
  83.8467944  47.8142790  42.1803812  83.8196272  45.7981968  41.4709539
  84.8578263  45.9209335  41.1624438  83.7702093  45.0621170  42.7699021
  82.7322343  44.9385818  43.0788465  84.2323336  44.0821634  42.6506082
  84.3099487  45.6277490  43.5294035  83.1462736  45.0520740  40.4569299
  83.5497880  44.1847014  40.3766724  83.0708788  47.7369350  40.2165632
  83.8926413  48.5148785  39.8053815  82.0435218  47.3539635  39.4919258
  81.3632447  46.7027318  39.8569184  81.9115443  47.7852408  38.1164394
  82.8288759  47.5682335  37.5691646  80.7716872  47.0608688  37.4512197
  81.0014062  46.0037300  37.3178557  79.8514766  47.1624165  38.0265462
  80.4093501  47.7002502  35.8179211  79.4078345  46.8639061  35.5602520
  81.7374522  49.2551392  37.8860147  81.2731314  49.9615061  38.7359459
  82.1287156  49.6859971  36.6941005  82.5810866  49.0407045  36.0623908
  82.0231051  51.0544047  36.3024807  81.1314261  51.4635246  36.7774844
  83.2904119  51.8629270  36.7795587  84.0844999  51.1608486  37.0337448
  83.7663711  52.7848727  35.6900868  82.9729266  53.4875934  35.4356659
  84.6414336  53.3352633  36.0356828  84.0300758  52.2006637  34.8084639
  82.9820204  52.7707880  38.0098518  83.4491554  53.7309163  37.7906733
  81.8985418  52.8890917  38.0231899  83.4582817  52.2718151  39.3794237
  84.5417925  52.1537063  39.3670009  83.1808842  52.9946782  40.1466387
  82.9911803  51.3118800  39.5995165  81.8062732  51.1503545  34.7980245
  82.7673138  51.2598852  34.0342935  80.5680886  50.9968560  34.3534066
  79.8009820  50.7861100  34.9756870  80.3104879  51.0147066  32.9248611
  81.2544668  51.1658291  32.4012533  79.6773579  49.7187723  32.4248626
  80.2198027  48.8886322  32.8773230  78.6416290  49.7033086  32.7641655
  79.7167871  49.5827990  30.8960151  78.7215268  49.9062848  30.5911963
  80.4625113  50.2556220  30.4725723  79.9728059  48.1316111  30.3798697
  81.0438343  47.5199160  30.7193418  79.1443040  47.6372311  29.5613082
  79.4877562  52.1756587  32.4976705  78.6868828  52.6682053  33.2250368
  79.7562844  52.6528848  31.3024309  80.4641813  52.2165427  30.7292060
  79.0688420  53.7938559  30.7801428  79.0766554  54.6027163  31.5107474
  79.7578344  54.2779496  29.5105280  80.7570389  54.6095619  29.7928804
  79.8355579  53.4220865  28.8400375  79.0345561  55.4018163  28.8093873
  78.2336493  55.7394921  29.4671290  79.7325421  56.2211674  28.6374034
  78.4470443  54.9542708  27.4882431  79.2551949  54.6425413  26.5777453
  77.1915195  54.9297052  27.3523381  77.6760752  53.3329370  30.5003581
  77.4557734  52.1383242  30.3385147  76.7241006  54.2603740  30.5663207
  76.9951080  55.2238675  30.7017264  75.2815695  53.9345652  30.5414297
  75.0584293  53.1177104  29.8550946  74.7557969  53.5504057  31.9631841
  75.3710839  52.7361952  32.3460449  74.8130314  54.7229645  32.9253566
  74.1975695  55.5374561  32.5433737  74.4386653  54.4119355  33.9006573
  75.8440207  55.0627276  33.0239663  73.3544500  53.0096966  31.8873845
  73.3410250  52.1208889  31.2565575  73.0102399  52.7494292  32.8883240
  72.6950056  53.7663325  31.4622539  74.4396278  55.0889718  29.9486187
  74.9005424  56.2518415  29.8267389  73.2306675  54.7281933  29.5331541
  72.9667772  53.7575492  29.6243204  72.2535635  55.6623154  28.9809380
  72.5697422  56.6925550  29.1444518  72.1416217  55.4191158  27.4781543
  73.1024908  55.7115462  27.0546992  72.0040143  54.3445618  27.3577467
  71.0327166  56.1514455  26.7620197  70.0894352  55.9266281  27.2597929
  71.2333708  57.2206152  26.8306729  70.9417017  55.7409491  25.2815705
  71.9751518  55.2917548  24.7090127  69.8275770  55.8626516  24.6878132
  70.9227382  55.3760803  29.6415729  70.6024743  54.2249258  29.9334827
  70.1640163  56.4046795  29.9561610  70.4848508  57.3612548  29.9100288
  68.8448342  56.1518035  30.4717834  68.7663595  55.1048955  30.7649123
  68.4884676  57.0359452  31.6534887  67.6559369  56.5831958  32.1920154
  69.6735724  57.1907543  32.5914278  70.5064041  57.6438980  32.0536984
  69.3931630  57.8283308  33.4298594  69.9726173  56.2112609  32.9646085
  68.0254673  58.3996523  31.1886062  68.7655481  58.7787235  30.4838465
  67.0713406  58.2696578  30.6778781  67.8579594  59.3929744  32.3320878
  68.8118482  59.5238474  32.8430361  67.5244051  60.3517936  31.9352171
  67.1176419  59.0147802  33.0370694  67.9236368  56.3324557  29.3019984
  67.8577008  57.3910842  28.6868526  67.3288073  55.2162189  28.9287235
  67.1234520  54.5186891  29.6297091  66.9339806  54.9531152  27.5648749
  67.6356490  55.4355643  26.8844314  66.9152718  53.4456641  27.2637136
  66.3719545  53.2667663  26.3358655  68.3139626  52.9493772  27.1237232
  68.8578096  53.1275212  28.0514057  68.3011452  51.8805766  26.9101816
  68.8071008  53.4766388  26.3070773  66.2678304  52.7286614  28.3215269
  66.2650926  51.7906232  28.1173768  65.5584300  55.4568082  27.2908765
  65.3341341  56.0389678  26.2256768  64.5933788  55.0531018  28.1348548
  64.3961545  54.0698913  28.2552662  63.6833164  56.0256592  28.7505233
  64.1735269  56.9737571  28.5293825  62.2684925  56.0418707  28.1221743
  61.7615779  55.1024895  28.3428565  61.6949982  56.8701087  28.5383789
  62.3513635  56.1644428  27.0422633  63.6211901  55.9041960  30.2639987
  64.1206254  54.9401288  30.8908734  63.2540177  57.0529302  30.8141978
  63.5128388  57.8985367  30.3262832  62.5974449  57.1748401  32.0929031
  62.8918945  56.3554653  32.7486649  63.0018070  58.4999233  32.7521139
  62.2688844  58.6464505  33.5454950  63.9874917  58.3486571  33.1921642
  63.0305350  59.7378617  31.8484883  63.8879656  59.6289899  31.1843644
  61.7618439  59.9379907  31.0148383  60.9039922  60.0474096  31.6783266
  61.8652560  60.8351754  30.4045380  61.6118731  59.0740517  30.3673674
  63.2399533  60.9398997  32.7079959  64.1853737  60.8450393  33.2421132
  63.2636762  61.8335066  32.0842930  62.4239717  61.0202821  33.4261963
  61.0489925  57.0407406  31.9550906  60.4603982  57.2907848  30.8621228
  60.4413616  56.6959293  33.1066304  60.8198803  57.1096947  33.9466430
  59.2150570  55.8490177  33.2242171  58.8676986  55.5360937  32.2395751
  59.3973485  54.5871217  34.1397504  59.6293745  54.8956459  35.1591018
  58.1017106  53.8000908  34.1329016  57.8692489  53.4908033  33.1138808
  58.2084363  52.9180588  34.7643523  57.2945369  54.4247175  34.5155388
  60.5873195  53.7233859  33.7334382  61.1889237  54.3205005  33.0481446
  61.1579176  53.5282812  34.6414313  60.2228260  52.4008936  33.0687702
  59.6525707  52.5952158  32.1603938  61.1333359  51.8574592  32.8162825
  59.6215624  51.8029972  33.7536802  58.1035256  56.6262876  33.9292615
  57.1461568  57.0662680  33.3185100  58.2497015  56.7406503  35.2348877
  59.1042029  56.4249057  35.6710436  57.2773791  57.3316582  36.0384223
  56.5764994  57.8957951  35.4231041  56.5204236  56.2798105  36.7820262
  56.5274169  55.3239259  36.2582564  56.9001717  56.1416143  37.7943469
  54.8005889  56.7374202  36.9557765  54.4337539  55.6479947  37.6247177
  57.9753173  58.1757351  37.0132214  58.6791112  57.6797665  37.8649856
  57.6846313  59.4526942  36.9689130  57.2069815  59.8305768  36.1632116
  58.0485488  60.3606122  38.0418319  59.1245566  60.5328085  38.0674243
  57.3556768  61.6754764  37.7749958  57.1891512  61.6482565  36.6981357
  56.4022957  61.8086307  38.2863024  58.2694082  62.8220063  38.1119262
  58.7961472  62.5780777  39.0345018  59.2994215  63.0945845  36.9857931
  58.7734019  63.3390535  36.0629512  59.9383171  63.9302109  37.2715231
  59.9117716  62.2064086  36.8300007  57.3825105  64.0125082  38.4938158
  56.7679035  63.7471911  39.3540277  58.0098549  64.8674600  38.7460015
  56.7382207  64.2706188  37.6533584  57.6360330  59.8152400  39.4332977
  56.8589867  58.9106325  39.4771883  58.2017564  60.3090428  40.5466762
  59.1178470  60.7319218  40.5013923  57.5836773  60.1111877  41.8805775
  56.5059883  60.2585299  41.9511167  57.9415526  58.7491470  42.5318413
  57.0228983  58.1704955  42.6284643  58.9484015  57.9648570  41.7163510
  59.8675519  58.5427136  41.6196804  59.1644536  57.0203624  42.2157025
  58.5388423  57.7662523  40.7259374  58.2938410  58.8595137  44.0291512
  57.4430416  59.2687575  44.5739098  58.5335724  57.8707902  44.4203728
  59.1542625  59.5171160  44.1529851  57.8221040  61.2108962  42.8843703
  58.9679192  61.6301663  43.0975420  56.7417600  61.6437593  43.5436186
  55.8367526  61.2523607  43.3248305  56.8058367  62.7561064  44.4947579
  57.5693208  63.4625433  44.1689693  55.4583463  63.4987842  44.5958381
  55.3943838  64.2792863  43.8376663  54.7133293  62.7304152  44.3892981
  55.1894504  64.1198342  46.0076405  56.0990570  64.7730741  46.6026677
  54.0177104  64.0127851  46.4903028  57.2962978  62.2556710  45.8521140
  57.0164340  61.1139364  46.3043799  58.1210287  63.1086860  46.4472729
  58.2040488  64.0469129  46.0826671  58.9632177  62.7283895  47.5644288
  59.3376616  61.7149267  47.4202620  60.1712538  63.6914092  47.6741506
  59.7777042  64.7076704  47.6533851  60.6463266  63.5059265  48.6374793
  61.1881295  63.5233914  46.5714164  61.4025430  62.4622497  46.4445064
  60.7768102  63.9237814  45.6448063  62.4640007  64.2572977  46.9143858
  62.2091287  65.2997575  47.1052172  62.8725203  63.8117755  47.8214256
  63.5094709  64.1835681  45.7928346  63.4022787  63.1989985  45.3376060
  63.2363032  64.9502196  45.0677664  64.9436570  64.3857596  46.2228777
  65.1971137  63.6752045  46.8944213  65.5492534  64.3190339  45.4173340
  65.0432911  65.2981957  46.6443424  58.1486497  62.7105840  48.8561373
  58.2622780  61.8103989  49.6677064  57.3120407  63.7057453  49.0291008
  57.2389152  64.4630381  48.3648271  56.5192079  63.7643687  50.2084029
  57.1518985  63.9036809  51.0849837  55.5642833  64.9332278  50.1108919
  55.2157290  64.9781702  49.0791025  54.7228393  64.7164710  50.7689865
  56.1781758  66.2702494  50.4970011  56.7116399  66.1584483  51.4409382
  56.8769703  66.5795841  49.7197622  55.0846461  67.3313104  50.6515796
  55.1554457  68.0091792  49.8009444  54.1210461  66.8222572  50.6306232
  55.2114108  68.1289179  51.9506647  56.0759494  67.7432549  52.4909773
  55.3866588  69.1706172  51.6818714  53.9880040  68.0353629  52.8278627
  53.8256886  67.0702282  53.0773992  54.1322704  68.5801431  53.6660165
  53.1868691  68.3930729  52.3275375  55.7442633  62.4472358  50.4399325
  55.7841411  61.8841777  51.5307851  55.0973942  61.9345003  49.3871668
  55.1901373  62.3788224  48.4849052  54.1487642  60.8176389  49.5205297
  53.7751588  60.7864206  50.5440255  52.9321340  60.9687023  48.5486183
  52.4949135  59.9783409  48.4216468  52.2097727  61.6246348  49.0344648
  53.2749129  61.5018929  47.2757332  52.4856874  61.5671926  46.7330925
  54.8308201  59.4524939  49.3531737  54.9611646  58.7032988  50.3224502
  55.3347916  59.1804980  48.1377146  55.6854238  59.9466739  47.5808205
  55.4029464  57.8013012  47.5676304  56.4475153  57.5243172  47.4253108
  54.9339647  57.1038216  48.2616605  54.6768470  57.7255055  46.2154933
  54.6548298  56.6624470  45.5164147  54.0522865  58.8500807  45.8651849
  54.2925238  59.7327992  46.2931959  53.0248765  58.8352625  44.8795607
  52.3655491  57.9888355  45.0717786  52.1824499  60.1280189  44.8865231
  51.5490795  60.1035024  45.7732813  52.8715477  60.9696930  44.9560137
  51.3039649  60.2870078  43.6335013  51.9540990  60.6518967  42.8383394
  50.9454469  59.2893810  43.3799175  50.1161320  61.2286528  43.7902548
  49.5216573  61.5398569  42.7326548  49.7712445  61.6525344  44.9402922
  53.7271120  58.6857110  43.5839780  54.3205059  59.6318409  43.0938209
  53.6886218  57.4960083  43.0155741  53.4495672  56.6547610  43.5208020
  54.0367237  57.3802888  41.6202780  55.0914080  57.6173310  41.4804522
  53.7902799  55.9752290  41.1338230  53.1822046  55.4725657  41.8859356
  53.2288905  56.0472819  40.2022918  55.0591611  55.1819679  40.8982255
  54.8603514  54.4547849  40.1109641  55.8323422  55.8745333  40.5655904
  55.5361500  54.4512088  42.1605051  55.8510924  55.1903289  42.8971269
  54.7083117  53.8675767  42.5631922  56.7151606  53.5141795  41.8374090
  57.5634670  54.1497554  41.5834011  56.9373072  52.9598884  42.7492815
  56.4577007  52.5436162  40.7086033  56.2522575  53.0570381  39.8634461
  57.2767904  51.9707041  40.5638148  55.6719452  51.9542978  40.9439564
  53.2434370  58.3512451  40.7724873  52.3453328  59.0102143  41.2443625
  53.6298802  58.4935830  39.5274886  54.2815175  57.8661488  39.0782731
  53.1112188  59.5702496  38.7760479  52.5965727  60.2613768  39.4435671
  54.1956801  60.3119388  38.0646247  54.9128375  60.7114220  38.7817005
  54.7099962  59.6509979  37.3669600  53.6010878  61.3742643  37.3536047
  54.2802961  61.8667998  36.8870379  52.1636882  59.0924512  37.7658977
  52.1669153  57.9382474  37.3796709  51.4565571  60.0379740  37.1951707
  51.7835270  60.9935745  37.1993834  50.2128234  59.7441843  36.5283332
  49.7213668  58.8883977  36.9911494  49.2940299  60.9565138  36.6461542
  49.7171566  61.7544738  36.0359716  48.3190374  60.6741776  36.2489442
  49.1340273  61.4493667  38.0957555  48.2122335  62.0290209  38.1447254
  49.0435836  60.5694812  38.7327199  50.3004115  62.3076528  38.5771022
  50.9325382  61.7125139  39.2361352  50.8816267  62.6348027  37.7149761
  49.7878680  63.5167308  39.3273284  48.8244032  63.2819326  39.7797729
  50.4987026  63.7881458  40.1078073  49.6275022  64.6601185  38.3813974
  48.9685390  64.4089797  37.6583508  49.2852171  65.4669070  38.8834265
  50.5202412  64.8781252  37.9623636  50.5503117  59.4919624  35.1250090
  50.5170541  58.3628585  34.6476073  51.1411590  60.5201361  34.5632116
  51.1212776  61.4179376  35.0254415  51.7357063  60.4386211  33.2742062
  51.2412271  59.6950465  32.6491572  51.6425383  61.8257379  32.5669582
  52.6068522  62.0614643  32.1168115  50.5270348  61.7958155  31.4405491
  49.5622900  61.5605923  31.8900344  50.4733728  62.7705324  30.9556300
  50.7774987  61.0357202  30.7005332  51.3446230  62.8528949  33.5373673
  51.2886625  63.7035599  33.0959629  53.2038725  59.9272896  33.3568385
  53.7707752  59.7277568  34.4421205  53.7432115  59.6152992  32.1773736
  53.1102140  59.4855587  31.4011127  55.1950326  59.5570484  31.9140842
  55.6554161  58.8063582  32.5564317  55.4671702  59.1803638  30.4415117
  54.4863156  59.0384191  29.9877771  55.9490036  60.0521041  29.9987864
  56.3215031  57.9502990  30.1941558  57.3554133  58.1927682  30.4397963
  55.9717477  57.1500058  30.8463091  56.2369239  57.4887707  28.7223855
  55.2959380  57.8387453  28.2979303  57.0688387  57.9245754  28.1691302
  56.2973783  56.0439278  28.5917012  55.6454762  55.6168913  27.9492349
  57.1213497  55.2476016  29.2924962  58.0469618  55.7470724  30.1132265
  58.1384052  56.7475407  30.2171560  58.6520265  55.1224478  30.6268805
  57.0572056  53.9244366  29.1421469  56.3878738  53.5240396  28.5004482
  57.6782363  53.3285186  29.6706366  55.7130533  60.9145573  32.0797169
  54.9898857  61.8659223  31.8034211  57.0110919  61.0160197  32.3622523
  57.8572994  60.0857340  33.1320284  58.6343028  59.6661191  32.4930532
  57.2517624  59.2787341  33.5445514  58.4101988  60.9859196  34.1949442
  59.4571053  60.7279121  34.3546874  57.8505461  60.8174729  35.1150072
  58.2580977  62.4261019  33.7218627  59.2725174  62.8075470  33.6054526
  57.6941703  63.0892461  34.3778545  57.5773430  62.3393538  32.3597306
  56.7862253  63.0736011  32.2077041  58.5775745  62.4507420  31.2565064
  59.3255713  61.5072657  31.0120900  58.5363163  63.5710358  30.5452754
  57.7799149  64.2218743  30.7013695  59.4773037  63.8444325  29.4445729
  59.4234994  62.9827319  28.7792336  59.0064997  65.1004974  28.6674432
  57.9769977  64.9599222  28.3381052  59.0633815  65.9733111  29.3178745
  59.9039046  65.3127517  27.4528499  60.9335708  65.4538692  27.7814443
  59.8471860  64.4404824  26.8016731  59.4407719  66.5483564  26.6883802
  58.4112694  66.4077830  26.3590433  59.4976558  67.4211694  27.3388117
  60.2904358  66.7862871  25.5001625  61.0514546  66.1482081  25.3163010
  60.0976311  67.8019629  24.6634250  59.1171918  68.6833456  24.8389346
  58.4932688  68.5896774  25.6276338  59.0010747  69.4422828  24.1827099
  60.9215262  67.9215166  23.6262150  61.6650452  67.2504865  23.4958377
  60.7998878  68.6827866  22.9737038  61.0097134  63.9676718  29.9163010
  61.9365714  63.8971847  29.0828985  61.2373841  64.0439878  31.2425438
  60.4717690  63.8571514  31.8742281  62.5513037  64.3327808  31.8128621
  63.2424392  63.5113117  31.6241314  63.0865284  65.5584174  31.1737373
  64.0581053  65.8336263  31.5841000  63.1799609  65.3917189  30.1006194
  62.2185954  66.7188695  31.3418271  62.2320299  67.4352703  32.5279044
  62.8615132  67.0890823  33.3476632  61.4723623  68.5590532  32.6784737
  61.5004367  69.1221058  33.6113640  60.6765650  68.9757461  31.6556635
  60.0582765  69.8665822  31.7662540  60.6552851  68.2593027  30.4668570
  60.0305554  68.6060058  29.6436864  61.4122602  67.1230338  30.3227570
  61.3651487  66.5506312  29.3963469  62.5277844  64.6257290  33.3089110
  61.5377475  65.0271021  33.8526864  63.6594320  64.5867541  33.9433389
  64.5459854  64.4829383  33.4707454  63.6653063  64.7862944  35.3435286
  63.1352096  65.4005410  36.0714006  64.1624778  63.4988855  36.0501153
  63.3975908  63.2734281  36.7932277  64.4153378  62.3002444  35.2250926
  65.1805029  62.5248057  34.4819940  64.7571098  61.4850438  35.8628548
  63.4952791  62.0050104  34.7206816  64.7743323  63.5976119  37.4052987
  64.0513337  64.0238696  38.1007693  65.0641185  62.6039324  37.7469488
  65.6557259  64.2373541  37.3608459  64.6733490  65.8619123  35.5907324
  65.8332469  65.6348231  35.2404005  64.3125860  66.9339224  36.3351230
  63.3295530  67.0901464  36.5064110  65.3087543  67.9499026  36.8731453
  66.1569750  68.0232370  36.1925257  64.6698104  69.3287864  37.0061269
  64.1285086  69.3289687  37.9522196  65.4891863  70.0458335  37.0567893
  63.7250158  69.7186893  35.8825839  64.2630796  70.3781412  35.2016203
  63.4345257  68.8105616  35.3543590  62.4517553  70.4428138  36.4073889
  61.6320703  70.1754093  35.7405227  62.2491902  70.0539678  37.4053196
  62.5822577  71.9783257  36.4710237  61.6982620  72.3614188  36.9808195
  63.4694121  72.2075511  37.0613728  62.7001013  72.6256157  35.1163682
  61.8779469  72.4136896  34.5693314  62.7819776  73.6261581  35.2273240
  63.5194074  72.2710867  34.6439851  65.9487623  67.5844547  38.2513842
  65.9359513  66.4418727  38.7003201  66.5276075  68.5656979  38.9185761
  66.4879761  69.5282080  38.6150914  67.3182030  68.2442190  40.1168036
  68.0230728  67.4471266  39.8803686  68.1188063  69.4838383  40.6224865
  68.3932156  70.0365545  39.7239857  67.4074179  70.0689508  41.2052987
  69.3878967  69.2174933  41.4728781  69.1575696  68.9396987  42.5014112
  69.9061589  68.3937761  40.9819642  70.3237838  70.4497467  41.4912264
  71.0325461  70.7306594  40.5215393  70.2520137  71.2166149  42.5488077
  70.8395358  72.0354042  42.6159140  69.6094206  70.9862520  43.2931923
  66.3948099  67.7315007  41.1629749  65.1971682  67.7962741  41.0054801
  66.9434857  67.3644202  42.3003388  67.8728178  66.9707362  42.3384734
  66.1985745  67.5240879  43.5649144  66.7706279  67.0953448  44.3877348
  65.9503202  69.0379989  43.8646631  66.2512629  69.5342811  42.9420382
  64.8958849  69.2368356  44.0563144  66.8013101  69.5795225  45.0443420
  66.6931233  68.9747446  46.1466992  67.4942098  70.6594787  44.8841837
  64.8318873  66.8280444  43.5172209  63.9503364  67.1786978  44.3446145
  64.7559339  65.7544584  42.6758291  65.6462452  65.3242949  42.4699058
  63.5092645  65.1501656  42.0669845  62.6522794  65.3042471  42.7226785
  63.2292502  65.8190086  40.7410618  63.1677548  66.8846573  40.9617661
  64.1094136  65.6256987  40.1278378  61.9790903  65.3840260  39.9860808
  62.0480448  64.3440482  39.6670321  61.1229802  65.5038397  40.6500253
  61.7654425  66.2649708  38.7456354  62.6403325  67.0340234  38.3907246
  60.6515921  66.1314022  38.0766677  60.4869384  66.6988031  37.2574932
  59.9601537  65.4613411  38.3816797  63.7231515  63.6517126  41.8122907
  64.8224484  63.2358219  41.6464405  62.6898668  62.8343548  41.8050900
  61.7449732  63.1804210  41.8917713  62.8930383  61.3666286  41.6496032
  63.9493523  61.1452180  41.4970343  62.3898042  60.5557492  42.8586132
  61.3028421  60.6254379  42.9005204  62.8022338  59.0867975  42.7391617
  63.8891580  59.0162656  42.6976644  62.4355773  58.5344220  43.6043465
  62.3761265  58.6619942  41.8302743  62.9134760  61.1277033  44.1554067
  62.5738677  62.1579382  44.2621044  62.5416749  60.5347357  44.9910220
  64.0031966  61.1036281  44.1499175  62.1350511  60.8586844  40.4420511
  61.1243805  61.4365948  40.0816618  62.6354653  59.8008622  39.7932130
  63.5033727  59.3992183  40.1180486  61.9504738  59.1607718  38.6318130
  60.8820393  59.3691566  38.6876941  62.4828411  59.6882346  37.2958530
  61.9622784  59.2122165  36.4648774  62.3521347  60.7686423  37.2347380
  64.3004644  59.3703950  37.0179889  64.3610882  59.9472235  35.8211213
  62.2469589  57.6991333  38.7107031  63.0042742  57.2623378  39.5879625
  61.6241291  56.9331229  37.8280253  60.8864992  57.3156561  37.2538564
  61.9835701  55.5075454  37.6513647  62.8865153  55.2946419  38.2236070
  60.8647087  54.5086235  38.0589821  60.6751782  53.8178671  37.2373774
  61.3113307  53.7233808  39.2914223  61.5006169  54.4134715  40.1136426
  60.5282765  53.0219631  39.5794153  62.2241373  53.1737824  39.0615856
  59.5757838  55.2845420  38.3128960  59.8496250  56.1077346  38.9727942
  59.2722828  55.6816140  37.3442266  58.4355840  54.5159182  38.9182213
  58.7381997  54.1189022  39.8871908  57.5793055  55.1776420  39.0486359
  58.1608590  53.6927797  38.2586237  62.2719890  55.3537140  36.2043538
  61.6932599  56.0665721  35.3967681  63.3256234  54.6225029  35.8907268
  63.8115674  54.0435372  36.5606197  63.8276276  54.6914448  34.5850926
  63.0158912  54.7577487  33.8606708  64.6855056  55.9006478  34.4502800
  65.5081747  55.8444332  35.1631302  65.0856995  55.9517930  33.4376946
  64.0916495  56.7923190  34.6511698  64.5703030  53.4706036  34.2796978
  64.9876739  52.7543144  35.2016241  64.6013837  53.1644499  32.9804977
  64.1047559  53.7572597  32.3308543  65.2825756  52.0049746  32.4635916
  65.5513332  51.3412349  33.2853690  64.3924504  51.2426460  31.4943945
  63.4243834  51.1130897  31.9782960  64.2741523  51.8643593  30.6069385
  64.9506674  49.8650515  31.0856095  65.9285704  50.0468435  30.6397864
  65.0720901  49.2943014  32.0062631  64.0693165  49.0603261  30.0900204
  64.6389351  48.9261975  29.1704319  63.8640837  48.0866678  30.5349570
  62.7903572  49.7073271  29.7618286  62.8487301  50.5709476  29.2413946
  61.5882683  49.2618498  30.1204737  61.4679655  48.1035544  30.7646981
  62.2923442  47.5618110  30.9815249  60.5528398  47.7715663  31.0338237
  60.4936555  49.9663312  29.8026458  60.5851971  50.8329091  29.2919964
  59.5820364  49.6275485  30.0751815  66.5680380  52.4090575  31.7629680
  66.6692458  53.5003969  31.1981304  67.5490759  51.5093257  31.7954977
  67.3146421  50.5313180  31.8884543  68.9567369  51.8756850  31.6865914
  69.0649592  52.8288008  31.1689453  69.5480783  52.0135083  33.0975659
  68.8736097  51.4469182  33.7395682  70.5125335  51.5080027  33.0486760
  69.7371441  53.4140015  33.6698866  70.1768334  54.0516898  32.9029917
  68.4367294  53.9852113  34.1021943  67.9966200  53.3482713  34.8694687
  68.5950103  54.9846937  34.5072656  67.7624744  54.0426293  33.2476864
  70.6643322  53.4000513  34.8740742  71.6393676  53.0130272  34.5780715
  70.7776784  54.4139681  35.2577753  70.2418543  52.7631391  35.6512192
  69.7173047  50.7611300  30.9202908  69.6577795  49.6004084  31.3308505
  70.4122133  51.1099986  29.8156887  70.2695905  52.0321947  29.4292791
  71.3136828  50.1570788  29.0752865  71.2284562  49.1685119  29.5264749
  70.9493128  50.0486763  27.5716381  70.9456788  51.0603747  27.1659875
  71.7352179  49.4672915  27.0895129  69.5841415  49.3847800  27.3073015
  69.3281360  48.8335540  28.2121285  68.8695455  50.1948494  27.1615543
  69.5361516  48.4374135  26.1006869  69.8656132  47.4508651  26.4266872
  68.5050087  48.3787809  25.7522534  70.3860604  48.8723403  24.9844688
  71.2051921  48.3113746  24.7988885  70.1668916  49.9495295  24.2272941
  69.1103791  50.7349322  24.4314634  68.4585835  50.5171373  25.1716174
  68.9660325  51.5445703  23.8451617  71.0044176  50.2296934  23.2384932
  71.7977131  49.6285251  23.0670904  70.8453078  51.0430052  22.6611660
  72.7959034  50.5074538  29.2213024  73.2637503  51.5534470  28.7761041
  73.5310942  49.5776328  29.7902675  73.0836330  48.7477654  30.1524800
  74.9722724  49.6807663  29.8921450  75.2699039  50.7007382  30.1353978
  75.5121013  48.7324734  30.9907415  76.4989638  49.0764163  31.3004280
  74.5929540  48.7185810  32.1762997  73.6059502  48.3742780  31.8674657
  74.9901827  48.0463105  32.9368002  74.5139490  49.7250479  32.5872538
  75.6502974  47.3926920  30.4781171  75.9854195  46.8181917  31.1703908
  75.6067512  49.2638745  28.5665086  75.5116801  48.1019727  28.1705770
  76.3411134  50.1648169  27.9253846  76.5044858  51.0794071  28.3215330
  76.8387417  49.8934175  26.5614350  75.9452376  49.6908083  25.9709276
  77.5442015  51.1200987  25.9763190  78.4459190  51.3301049  26.5515606
  77.8133593  50.9244039  24.9383605  76.8762076  51.9802161  26.0219419
  77.7529823  48.6556565  26.4600307  78.3512181  48.4107791  25.3897812
  77.8639741  47.8911698  27.5529625  77.6519294  48.2768967  28.4620011
  78.2886243  46.4939579  27.4745728  78.3262305  46.2138707  26.4218449
  79.2875816  46.4228482  27.9048369  77.3635388  45.5348545  28.2094140
  76.2793298  45.1837971  27.6975355  77.8414956  45.0370230  29.3579139
  78.7292079  45.3745640  29.7016176  77.1396048  44.0096887  30.1355762
  76.0652877  44.1935725  30.1242338  77.4036753  42.5834202  29.5900336
  77.9919342  42.6819620  28.6777062  78.1628484  41.6734228  30.6012541
  77.5749489  41.5740277  31.5137202  78.3170487  40.6887597  30.1599377
  79.1284712  42.1198821  30.8386296  76.1562107  41.9820662  29.2575017
  76.3080284  41.0970060  28.9180607  77.5932137  44.0743904  31.5522955
  78.7657596  44.3231862  31.8360223  76.6849056  43.7821633  32.4443009
  75.7884372  43.4062783  32.1701584  76.9182754  44.0323452  33.8283896
  77.9400921  44.3829147  33.9736165  75.9297192  45.1193293  34.3011341
  74.9462200  44.8770788  33.8984627  75.8483432  45.2117950  35.8032130
  76.8314375  45.4544913  36.2066048  75.1392824  45.9913307  36.0818842
  75.5153738  44.2565325  36.2090506  76.3441533  46.4887877  33.7970348
  76.2121862  46.4941308  32.7150658  75.6743901  47.2211014  34.2478490
  77.7795682  46.8433743  34.1324934  78.4499948  46.1117166  33.6815999
  78.0099432  47.8350051  33.7430130  77.9121992  46.8386849  35.2143838
  76.7407360  42.7140930  34.5517076  76.5869721  41.6867950  33.9046864
  76.8579197  42.7140251  35.8776088  77.5756461  43.2668193  36.3241361
  76.0725703  41.7792998  36.7116292  75.2476671  41.3679713  36.1298708
  76.9489957  40.6317096  37.1912835  76.8306824  40.4544993  38.2602539
  76.7410811  39.7112520  36.6457293  78.6975571  40.9812438  36.9333344
  79.1443663  39.8340924  37.4366269  75.2691238  42.4296959  37.8960719
  75.7810155  42.5990920  39.0274648  73.9795621  42.6948116  37.6156842
  73.6308952  42.4125190  36.7107855  73.0582449  43.3403921  38.5395903
  73.5390501  44.1844541  39.0340445  71.8650396  43.8510375  37.7625662
  71.5641425  42.9975965  37.1549490  71.0476798  44.1287907  38.4280556
  72.2001471  45.0205044  36.8594034  73.2794684  45.0724376  36.7163323
  71.5162714  44.8307695  35.5071195  70.4368207  44.7792074  35.6493384
  71.7567608  45.6716569  34.8566012  71.8664411  43.9058325  35.0488914
  71.8231628  46.3482241  37.5339405  72.3769228  46.4524102  38.4669971
  72.0711140  47.1767027  36.8704312  70.7535873  46.3589640  37.7436831
  72.5288490  42.4116943  39.6021374  72.4968385  41.2012777  39.4063874
  72.0743271  43.0101789  40.7091861  72.5414307  43.8478031  41.0258865
  70.9410209  42.5071517  41.4931674  70.4579544  41.6913312  40.9554101
  71.4061095  41.9879112  42.8526699  71.8893386  42.8216856  43.3619921
  70.5118804  41.6956080  43.4031363  72.3697331  40.8066741  42.7843011
  73.1621888  41.0883073  42.0909054  72.7898867  40.6752953  43.7814520
  71.7329637  39.4977192  42.3242805  70.5072847  39.2853284  42.5756168
  72.4993132  38.6886760  41.7102629  69.9262041  43.6136857  41.7116951
  70.2573077  44.7822094  41.6558316  68.6932174  43.2417142  42.0239051
  68.4244613  42.2692083  41.9780592  67.6753407  44.2289757  42.4168768
  67.8015892  45.1282057  41.8139292  66.2373900  43.7009063  42.2203942
  65.5413822  44.5366368  42.2926991  66.0894184  43.0285999  40.8454744
  66.7848336  42.1924264  40.7725959  65.0692647  42.6634615  40.7269019
  66.3091153  43.7526465  40.0608788  65.9266564  42.7469232  43.2333280
  65.0319883  42.4234891  43.1046435  67.8874760  44.5836736  43.8618384
  68.2804825  43.7473736  44.6486582  67.6145709  45.8242706  44.1773614
  67.1816820  46.4502910  43.5134299  67.7960750  46.2761160  45.5047683
  68.8432976  46.1798520  45.7913994  67.3970866  47.7249735  45.6177732
  67.7838035  48.2586158  44.7495709  66.3134427  47.8352738  45.6583917
  67.9425275  48.4178572  46.8229854  68.5499619  47.7244007  47.8309847
  68.6453124  46.6414742  47.7517493  69.0350666  48.3737004  48.9292858
  69.5333248  47.8108822  49.7186369  68.8963151  49.7285480  49.0394904
  69.2797181  50.2484743  49.9174305  68.2764893  50.4303894  48.0479272
  68.1566005  51.5106683  48.1299297  67.8049472  49.7726719  46.9481442
  67.3093910  50.3280272  46.1518374  66.7436464  45.4101580  46.0842818
  66.0204810  44.7885445  45.3309496  66.6940464  45.2902938  47.3983067
  67.3369544  45.7987934  47.9883887  65.7043256  44.4415014  48.0317931
  65.6313352  44.6025896  49.1073498  64.3209879  44.6339458  47.4146059
  63.9748623  45.6494904  47.6068699  64.3760768  44.4669645  46.3388817
  63.3452227  43.6389172  48.0338189  63.6904637  42.6230703  47.8415574
  63.2892463  43.8055967  49.1095450  61.9636523  43.8311138  47.4174191
  61.6175265  44.8466586  47.6096809  62.0187420  43.6641305  46.3416956
  60.9878870  42.8360860  48.0366345  61.3331277  41.8202388  47.8443743
  60.9319099  43.0027686  49.1123587  59.6561447  43.0213499  47.4424638
  59.7077094  42.8665206  46.4457348  59.0098994  42.3623491  47.8525674
  59.3358707  43.9624632  47.6208717  66.1545309  43.0384385  47.8082184
  66.3715038  42.3053149  48.7542953  66.3259348  42.6551929  46.5549668
  66.1515764  43.2696680  45.7725865  66.7976016  41.3132889  46.2823003
  66.1138418  40.5898195  46.7263316  66.8743254  41.0550855  44.7910547
  65.9723183  41.4546317  44.3275407  67.7456109  41.5837156  44.4043871
  66.9945279  39.5932979  44.4727617  67.2706289  38.8067070  45.3959014
  66.8084574  39.2253519  43.3004356  68.1752044  41.2533571  46.8959481
  68.5570792  40.2790465  47.5179645  68.9039991  42.3410563  46.7112624
  68.4904511  43.0971259  46.1845405  70.2365605  42.5264614  47.2479292
  70.3138872  41.9978043  48.1980037  71.3005209  42.0007710  46.3155223
  70.8928778  41.7655132  45.3323742  72.0919539  42.7430748  46.2119903
  71.9398583  40.7692650  46.8126245  72.5508121  40.7653030  48.0397287
  72.5671833  41.6819166  48.6293484  73.1372653  39.6254281  48.5276661
  73.6220848  39.6331440  49.5038788  73.1123657  38.4712698  47.7818703
  73.5781427  37.5622083  48.1623424  72.4972237  38.4657756  46.5519304
  72.4743374  37.5544766  45.9543431  71.9099109  39.6145223  46.0765847
  71.4145460  39.6118156  45.1056541  70.3734225  44.0076394  47.3747416
  69.6206047  44.7220145  46.7271741  71.3349594  44.4764599  48.2509693
  72.2831797  43.9814541  49.3267353  73.2996302  43.9320296  48.9362409
  71.9776218  42.9928065  49.6692398  72.1240957  45.0304765  50.3901700
  73.1157824  45.3668632  50.6926607  71.6172717  44.5810643  51.2441369
  71.3196167  46.1492247  49.8224994  71.7833898  47.1014564  50.0799254
  70.2763806  46.1566498  50.1382571  71.4052161  45.9227392  48.3301602
  70.5815165  46.3172155  47.7351765  72.7068179  46.5058321  47.8353640
  72.7106140  47.3619398  46.9709017  73.8152267  46.0215439  48.3566854
  73.7808165  45.2982853  49.0608248  75.1078244  46.5796373  48.0065127
  75.1076792  47.6537471  48.1919511  76.2078250  45.9435605  48.8387080
  77.0924631  45.8908478  48.2040930  76.4001661  46.6168233  49.6740655
  75.8844068  44.5644602  49.3674884  75.0468729  44.1602846  48.7989112
  76.7530323  43.9178244  49.2431745  75.5082897  44.5902879  50.8260349
  75.5912871  45.6230932  51.4763369  75.1002426  43.4518016  51.3499353
  74.8358961  43.4136865  52.3239833  75.0537872  42.6227587  50.7749300
  75.4513071  46.4753932  46.5462707  76.2628588  47.2209839  46.0337725
  74.8446442  45.5238649  45.8841982  74.1807741  44.9266650  46.3561391
  75.1149762  45.2773028  44.4913620  76.0353120  45.7783079  44.1912372
  75.2745377  43.8103323  44.2644637  74.3152608  43.4208629  43.9235816
  76.0202162  43.6747509  43.4810855  75.7106910  43.0604449  45.5147198
  76.4417937  43.6754229  46.0394977  74.8341203  42.9198193  46.1471359
  76.4391023  41.4586761  45.1500231  76.0596403  41.2287560  43.3901040
  76.5108847  42.0352984  42.8122054  76.4606045  40.2727767  43.0533076
  74.9792163  41.2399168  43.2463657  74.0252420  45.7921925  43.5872132
  74.1170596  45.6737767  42.3618409  73.0156641  46.4116483  44.1837532
  72.9425974  46.4055884  45.1910883  71.9841457  47.1172632  43.4159600
  72.2663559  47.0219082  42.3674544  71.0525613  46.5792137  43.5913241
  71.7733905  48.5970021  43.7421869  70.7965101  49.1934949  43.3034272
  72.5722132  49.1462588  44.6441073  73.1576754  48.5881291  45.2489416
  72.5960506  50.5745772  44.8013216  71.6586612  50.9754096  44.4156614
  72.7636816  51.0341276  46.2670512  72.3633719  52.0468301  46.3148547
  72.1414035  50.3693598  46.8661787  74.2018899  51.0245941  46.8170830
  74.8633088  50.6658654  46.0284515  74.4708521  52.0480066  47.0785944
  74.3460591  50.1261571  48.0534358  73.8223909  49.1954761  47.8350247
  75.4096402  49.9232178  48.1787762  73.8247071  50.6741466  49.3006201
  73.3760274  51.5783852  49.2668815  73.9011641  50.0447927  50.4745920
  73.4084165  50.6226509  51.5756953  72.9794093  51.5349718  51.5146755
  73.4676084  50.1440253  52.4631149  74.4619045  48.8313257  50.5561342
  74.8285677  48.3909009  49.7244587  74.5155667  48.3621442  51.4489320
  73.7320824  50.9735854  43.9623984  74.5810557  50.1746745  43.6562926
  73.6166420  52.1440729  43.4126962  72.8605373  52.7650951  43.6631687
  74.5617352  52.5899909  42.4715385  75.5757828  52.3698831  42.8052435
  74.3144595  51.8665595  41.1725590  75.1955179  51.9187780  40.5329430
  74.0727318  50.8227059  41.3726524  73.1881404  52.4190021  40.3876466
  73.3486174  53.5227811  39.6130344  74.3076484  54.0397509  39.5798422
  72.2955772  53.9854028  38.8706001  72.4570681  54.8451455  38.2203203
  71.0476305  53.3879095  38.9314496  70.2120260  53.7735962  38.3474026
  70.8748353  52.3156548  39.7266890  69.8958491  51.8461587  39.8229155
  71.9585253  51.8090032  40.4275066  71.8454972  50.9062804  41.0278533
  74.4075918  54.0560302  42.2343939  73.3093562  54.5971317  42.3552981
  75.4361558  54.6558836  41.6895334  76.2328603  54.1356885  41.3507734
  75.4454205  56.0599110  41.5497249  74.4921165  56.5057172  41.8335690
  76.5315677  56.6455918  42.4228028  76.1103690  56.8580465  43.4054293
  77.7090833  55.6773677  42.5709282  78.1311246  55.4647893  41.5886903
  78.4731836  56.1279602  43.2043446  77.3621145  54.7493329  43.0253119
  76.9708467  57.8684561  41.8700940  77.6606612  58.2406626  42.4243671
  75.7263455  56.3090178  40.1172260  76.7728213  55.9566725  39.6475109
  74.8087897  56.9243028  39.3973499  73.8384003  56.9645043  39.6745278
  75.2090285  57.6127595  38.1671823  75.6295832  56.8822183  37.4761378
  74.0516857  58.3040302  37.4919982  73.3108231  58.4756546  38.2728739
  74.3915265  59.2616283  37.0975186  73.4275358  57.4885546  36.3727925
  74.1530421  57.3519684  35.5708664  73.0193968  56.1591600  36.9039708
  72.2934977  56.2949219  37.7056802  72.5707252  55.5699241  36.1042235
  73.8946968  55.6378435  37.2915008  72.2276613  58.1715961  35.7437857
  72.5329410  59.1306039  35.3252072  71.8245211  57.5415087  34.9509622
  71.4622713  58.3340912  36.5026483  76.1986011  58.6603796  38.5177495
  76.1421509  59.1663447  39.6225742  77.0760643  59.0100720  37.5717132
  76.9583836  58.6388090  36.6398257  78.2231279  59.9044916  37.8295647
  77.9250517  60.7121066  38.4981512  79.3528765  59.1235935  38.4839769
  78.9083511  58.2510507  38.9626893  80.0244906  58.7986904  37.6893244
  80.1299756  59.9164108  39.5060941  81.1929599  59.8134277  39.2880124
  79.8422534  60.9643969  39.4221706  79.8558265  59.4317324  40.9041092
  80.2735067  60.1498896  41.6097242  78.7768527  59.3694974  41.0456780
  80.4454493  58.1058270  41.1740590  79.9315864  57.3037045  40.8384348
  81.5906509  57.8986666  41.8439687  82.3290406  58.9322573  42.2737594
  82.0226929  59.8775336  42.0929175  83.1881610  58.7607461  42.7763484
  82.0201580  56.6486049  42.0713897  81.4796413  55.8635575  41.7372605
  82.8821562  56.4979888  42.5757433  78.6678267  60.4808345  36.4865353
  78.6636234  59.7860649  35.4989243  78.8412927  61.7854772  36.3943672
  78.7143791  62.3867094  37.1959357  79.1743682  62.4095240  35.0955596
  79.7300078  61.6962485  34.4867888  77.8947107  62.8365522  34.3181012
  77.2192856  61.9906659  34.1901300  77.4240988  63.5830506  34.9579173
  78.2070086  63.4682574  32.9246434  78.5889644  62.7444303  31.9632979
  77.9955018  64.6846766  32.7720225  80.0712203  63.5986022  35.3737216
  79.8710309  64.3037940  36.3837160  81.0878935  63.8023664  34.5292064
  81.1267155  63.3274332  33.6386837  82.1444496  64.7653426  34.8493987
  82.9730795  64.6504740  34.1506307  81.6097443  66.2061982  34.7462557
  80.7678386  66.2591712  35.4365368  82.4148837  66.8467463  35.1061844
  81.1650053  66.6766436  33.3656597  82.0749921  66.9395384  32.8262979
  80.6644125  65.8548041  32.8537166  80.2254866  67.8996446  33.4153809
  80.2260174  68.6741210  32.4428645  79.5119057  68.1129674  34.4311342
  82.5843665  64.5403259  36.3147678  82.7196727  65.5046130  37.0711596
  82.6029051  63.2872224  36.7735105  82.2144952  62.5335284  36.2247095
  83.1849517  62.9667531  38.0824284  83.2983284  61.8834505  38.1236625
  84.1681543  63.4360261  38.1169960  82.3712210  63.4278314  39.2905986
  82.5212059  62.8593603  40.3874605  81.4212744  64.3491646  39.0642965
  81.4331157  64.8855866  38.2086035  80.3233194  64.5851450  40.0234716
  80.7473039  64.8610505  40.9889831  79.4003274  65.6935696  39.5661690
  79.3076381  65.6091034  38.4834071  78.4294423  65.5152555  40.0284311
  79.8755973  67.0660191  39.9196798  79.0472731  67.6382166  40.3374954
  80.6743573  66.9922961  40.6576835  80.3984249  67.7664573  38.6758584
  81.4874759  67.7228884  38.6888425  80.0245298  67.2363391  37.7999151
  79.9487559  69.2231530  38.6185840  80.5295971  69.7235744  37.8437921
  78.8931451  69.2382156  38.3473678  80.1389303  69.9344402  39.9221427
  81.1170790  69.9209710  40.1734261  79.8275482  70.8910275  39.8322421
  79.6004544  69.4711502  40.6401295  79.4504742  63.3880951  40.1945235
  79.2182752  62.6287649  39.2624091  78.7813506  63.3723057  41.3260575
  79.1002139  63.9253004  42.1087595  77.6140022  62.5087075  41.5158918
  77.6931957  61.6409262  40.8610765  77.5208327  62.0172382  42.9778232
  77.2527577  62.8648908  43.6084746  76.4968906  60.9344785  43.1351477
  76.7645567  60.0862444  42.5051053  76.4614977  60.6157515  44.1769056
  75.5187603  61.3127395  42.8380276  78.8091256  61.4962935  43.3765110
  78.7624886  61.1877788  44.2843899  76.3389425  63.2178989  41.1110308
  75.9683541  64.2342703  41.6753164  75.6556778  62.6180938  40.1664467
  75.9159300  61.6851584  39.8800908  74.5875379  63.2581571  39.4844313
  74.4008294  64.2745867  39.8310005  74.9144392  63.2814310  38.0145338
  75.9820482  63.4626742  37.8901856  74.5453628  61.9457132  37.3661778
  73.4777430  61.7639843  37.4897223  74.7874074  61.9777169  36.3038732
  75.1076156  61.1424581  37.8423628  74.2122724  64.4508948  37.3413968
  73.1378622  64.3198029  37.4700761  74.5282145  65.3673728  37.8397422
  74.5367872  64.5424041  35.8615380  74.2206904  63.6264080  35.3624049
  74.0120124  65.3926376  35.4258619  75.6110437  64.6739758  35.7320709
  73.1986064  62.5765191  39.7188348  72.1545595  63.1444830  39.3449885
  73.2011172  61.3713636  40.3280603  74.0991547  60.9408308  40.4961959
  71.9763868  60.6425950  40.7613474  71.3203286  61.3062000  41.3246547
  71.2205090  60.1222439  39.5585513  71.8614830  59.4490027  38.9893424
  70.3333476  59.5835354  39.8914748  70.9213312  60.9587593  38.9270185
  72.3443765  59.4504847  41.6600831  73.4567551  58.9426856  41.6258791
  71.3816899  58.9472801  42.4127130  70.5717824  59.4925282  42.6712738
  71.5495568  57.6240235  43.0170875  72.2104776  57.0515181  42.3663030
  72.1373898  57.6698961  44.4256606  71.6211964  56.9572185  45.0688832
  73.6030324  57.3051917  44.3439756  74.1200141  58.0177445  43.7012478
  74.0409316  57.3324974  45.3417729  73.7058564  56.3021394  43.9299557
  72.0078847  59.0507916  45.0299097  72.8093539  59.1707113  45.7588590
  72.1354120  59.7775429  44.2276200  70.6971672  59.2719277  45.6944311
  70.5691182  58.5457923  46.4971955  70.6644706  60.2797936  46.1082384
  69.8951757  59.1526215  44.9659564  70.3023436  56.7852593  43.0110803
  69.1851529  57.2980113  43.1370847  70.5072559  55.4839314  42.8366308
  71.3724539  55.0709160  43.1543571  69.5164060  54.6142915  42.1941948
  68.5226027  55.0263333  42.3693399  69.7149178  54.5887521  41.1227285
  69.5675104  53.1966104  42.7407024  70.6598982  52.6262308  42.8378569
  68.4176542  52.6823231  43.2192181  67.6210767  53.2898865  43.3473990
  68.2708558  51.2644892  43.5560034  69.2318903  50.8684602  43.8841390
  67.2383022  51.0614599  44.6916496  66.3005228  51.4562962  44.3007873
  67.1545048  49.9815489  44.8135931  67.5427454  51.7178978  46.0724688
  68.1945755  51.0195437  46.5973688  68.0930841  52.6327670  45.8528241
  66.3031587  52.0570203  46.9762257  66.5484603  51.7229237  47.9843455
  66.1966227  53.1417795  46.9693617  64.9570705  51.3975981  46.5210257
  64.8038995  51.7541603  45.5024470  65.1641973  50.3276014  46.5035723
  63.7197762  51.6544169  47.3322740  63.5274282  52.6458037  47.3482146
  62.9384115  51.1664681  46.9181783  63.8613447  51.3237035  48.2760357
  67.7878526  50.6262048  42.2510643  67.1115013  51.2937820  41.4456081
  68.2311781  49.3914029  41.9797829  68.9285692  48.9471744  42.5597881
  67.7844991  48.6954728  40.7827444  67.3589953  49.3804855  40.0493936
  68.8514302  47.8176710  40.0799691  69.0443116  48.2616077  39.1033340
  70.1536976  47.7040806  40.8494577  69.9616768  47.2597700  41.8260933
  70.8501267  47.0748809  40.2952060  70.5864073  48.6958529  40.9808029
  68.3018281  46.4417939  39.7397620  67.4464968  46.5465062  39.0722698
  69.0756694  45.8522371  39.2481403  67.9886685  45.9386800  40.6545889
  66.5913304  47.8775948  41.1527119  66.4869842  47.3313352  42.2661980
  65.6533932  47.8425535  40.2289798  65.8396439  48.2066197  39.3054725
  64.3311645  47.3178504  40.5069854  64.2047565  47.1526861  41.5769578
  63.2841934  48.3228445  40.0423808  63.4996978  48.4708449  38.9841970
  62.2810198  47.9114760  40.1542675  63.3685018  49.6557343  40.7673994
  64.4106541  49.9708402  40.8196263  62.5576680  50.7065769  40.0211974
  61.5152456  50.3923697  39.9689655  62.6236829  51.6586579  40.5477755
  62.9528178  50.8220136  39.0119247  62.9037062  49.4894694  42.2160187
  63.5410113  48.7640057  42.7216314  62.9664179  50.4483167  42.7305868
  61.8721802  49.1374988  42.2290472  64.1251193  45.9915325  39.8093701
  63.9920759  44.9770427  40.4601242  64.0730681  46.0287046  38.4733672
  64.1406919  46.9233499  38.0095394  63.9017770  44.8287719  37.6478577
  63.6720646  43.9791813  38.2909185  62.7530751  45.0011381  36.6280093
  62.1348870  45.8278552  36.9779829  63.2084087  45.2670988  35.6740511
  61.8779219  43.7471566  36.4467737  62.5398976  42.8818110  36.4141252
  61.2231963  43.6705546  37.3148569  61.0277500  43.7902989  35.1662033
  60.7844532  44.8323487  34.9587479  61.6281143  43.3884684  34.3499960
  59.7352054  42.9808413  35.2948110  59.2658710  42.9128785  34.3133800
  59.9829067  41.9800571  35.6486107  58.7939795  43.6260763  36.2510362
  58.5639896  44.5532767  35.9231585  57.9509470  43.0738860  36.3179846
  59.2285228  43.6887613  37.1606196  65.2012289  44.5683928  36.9196019
  66.2405358  45.1440062  37.2430357  65.1538688  43.6594099  35.9663296
  64.3394467  43.0685214  35.8787686  66.2438464  43.4619832  35.0437736
  66.8360211  44.3734378  34.9620485  67.1650562  42.3139338  35.5526194
  66.5525391  41.4469601  35.3050743  68.0477769  42.3289708  34.9133400
  67.6080771  42.2284844  37.0512201  67.5303555  43.2344050  37.4637535
  66.7709256  41.2530527  37.9109412  66.8485329  40.2467724  37.4992668
  67.1460335  41.2562989  38.9343591  65.7273000  41.5675713  37.9060371
  69.0846660  41.8531913  37.1170413  69.6760291  42.6114204  36.6037403
  69.3985060  41.7922978  38.1591054  69.2363924  40.8872246  36.6353917
  65.5794677  43.1193253  33.6993899  64.7384999  42.2478144  33.6275237
  65.8699312  43.8712373  32.6588452  66.6201223  44.5464374  32.6964942
  65.0244486  43.8442627  31.4739808  64.1281998  43.2394466  31.6119468
  64.5995610  45.2820824  31.1380121  65.5020127  45.8754526  30.9910699
  63.7360536  45.3524583  29.8843581  62.8331316  44.7596599  30.0307239
  63.4617687  46.3891746  29.6891982  64.2947375  44.9589476  29.0351683
  63.8520473  45.8564002  32.3292082  64.5043723  45.8566061  33.2024631
  63.5430952  46.8777821  32.1068858  62.9715358  45.2474950  32.5342323
  65.7505600  43.1018094  30.3341110  67.0034331  43.1460151  30.2673803
  64.9761907  42.3733214  29.4661926  64.4206424  42.9264785  28.2090067
  64.8253424  43.9255956  28.0475043  63.3352699  42.9836292  28.2914644
  64.8734834  41.9279267  27.1383241  65.4642774  42.4597087  26.3924893
  63.9904127  41.4999133  26.6638855  65.6854888  40.8610077  27.8246163
  66.7565911  41.0542422  27.7654619  65.4727332  39.8705704  27.4222874
  65.2189156  40.9442585  29.2891028  64.2608747  40.4434935  29.4287107
  66.2468843  40.3458873  30.2398337  65.8634169  39.8137802  31.2779141
  67.4490219  40.4622566  30.0123115  47.4767408  40.1498192  66.6001902
  48.2550486  39.5071814  66.5633836  47.0115214  40.1479006  65.7037151
  46.9493465  39.9729703  67.4432082  48.0223987  41.5306827  66.7585607
  47.7091935  42.1538307  65.9208923  47.4961649  42.1624334  68.0683007
  47.5410738  41.4329142  68.8769317  48.1381577  43.0100039  68.3082373
  46.0350771  42.6684545  67.9375572  45.7766628  43.7315336  67.3615695
  45.0810864  41.8910318  68.4474326  44.1144446  42.1774592  68.3869114
  45.3287812  41.0187216  68.8922054  49.5570969  41.5693030  66.6380487
  50.1825268  40.5596536  66.2402553  50.1193615  42.7757996  66.7788870
  49.5492460  43.5296339  67.1349791  51.5003840  43.0821383  66.3561704
  52.0637814  42.1554876  66.2466206  51.5087296  43.8346701  64.9907287
  52.2817242  43.3329430  64.4086218  50.5637367  43.7955763  64.4489169
  51.9071905  45.3075528  65.0688151  51.2461944  46.1881056  65.9189515
  50.4449128  45.8127963  66.5554974  51.5968496  47.5328541  65.9627853
  51.1111828  48.1948649  66.6797025  52.5575432  48.0315193  65.1016361
  52.8103050  49.0916920  65.1172944  53.1980970  47.1807861  64.2189283
  53.9663404  47.5652914  63.5480648  52.8602234  45.8329896  64.1885978
  53.3398116  45.1669060  63.4713616  52.2211349  43.8818974  67.4588152
  51.5656512  44.3912673  68.3773170  53.5574412  43.9195637  67.3985757
  54.0389875  43.5182342  66.6066495  54.3615677  44.4426937  68.5102656
  53.8958972  44.1535322  69.4524099  55.7861304  43.9065896  68.4870581
  55.7130753  42.8248841  68.3744732  56.3159957  44.3254433  67.6315440
  56.5478315  44.2335198  69.7655404  55.9434322  44.1642931  70.8664769
  57.7399089  44.5892905  69.6682791  54.3721567  45.9790801  68.5477854
  55.0385492  46.6485514  67.7410889  53.6449325  46.5220017  69.5206616
  53.1835115  45.9267159  70.1935841  53.4011616  47.9862804  69.5913851
  53.1496750  48.3878601  68.6097602  52.2552586  48.3500219  70.5878310
  51.5684956  49.0257740  70.0781096  51.4827831  47.1063227  71.0800585
  52.1688467  46.4302730  71.5903264  50.6975611  47.4152372  71.7700566
  51.0360442  46.5945498  70.2276424  52.7887571  49.0633095  71.7109028
  52.0779067  49.2826390  72.3176866  54.6349306  48.8458022  69.9394660
  54.5902909  50.0662995  69.8420605  55.7273837  48.2021849  70.3526873
  55.6931377  47.2031030  70.4967773  56.9860035  48.9086380  70.6518764
  56.7697240  49.8969545  71.0575276  57.8032896  48.1231683  71.6846314
  58.8388037  48.4604758  71.6395377  57.3987227  48.3253235  72.6763768
  57.7487445  46.7293080  71.4271839  58.2670824  46.2616768  72.0861580
  57.8475472  49.1357050  69.3970043  58.7474810  49.9683407  69.4087978
  57.5119457  48.4190214  68.3276376  56.7503875  47.7587575  68.3922893
  58.2934426  48.4612478  67.0844463  59.3269096  48.3088394  67.3956005
  57.8878273  47.3084133  66.1337534  57.9722486  46.3569845  66.6588777
  56.8581187  47.4520087  65.8063688  58.8106847  47.3021987  64.9197024
  58.7264615  48.2531998  64.3937707  60.2513624  47.1006608  65.3773676
  60.3364766  46.1495828  65.9030148  60.9114290  47.0961419  64.5099621
  60.5373762  47.9120033  66.0467106  58.4111841  46.1667464  63.9833412
  57.3814763  46.3103438  63.6559560  59.0705213  46.1618546  63.1153827
  58.4956032  45.2153173  64.5084650  58.2308246  49.8299412  66.3504910
  59.2594233  50.3445929  65.8823422  57.0290577  50.4164046  66.2399377
  55.7037255  49.8899629  66.5932118  55.4733531  50.1426712  67.6281839
  55.6964622  48.8065226  66.4740337  54.7965732  50.5793409  65.6158322
  53.8051086  50.6921976  66.0544213  54.7245198  49.9869640  64.7036923
  55.4237169  51.9012431  65.3426594  55.1164148  52.6005301  66.1202596
  55.1721042  52.3122924  64.3649942  56.9315523  51.6529724  65.4324590
  57.3967498  51.4626355  64.4652665  57.6212003  52.8415531  66.1040002
  58.1524770  53.6925540  65.4102629  57.6281288  52.8839677  67.4380279
  57.1736241  52.1462682  67.9569926  58.2235692  53.9884809  68.1830986
  57.9735141  54.9450572  67.7242596  57.7062548  53.9892100  69.6404779
  56.6170024  54.0236363  69.6194009  58.1642771  52.7361931  70.4041043
  59.2534988  52.7013198  70.4260031  57.7818292  52.7716958  71.4241887
  57.7827431  51.8458037  69.9043653  58.1821681  55.1508663  70.3193374
  57.8592091  55.1479829  71.2233781  59.7730746  53.9703618  68.2059443
  60.4165113  54.9840222  68.5169422  60.3492518  52.8151147  67.8875201
  59.7668287  51.9995689  67.7619502  61.8047711  52.6467438  67.8227071
  62.2912346  53.4160954  68.4223325  62.2155075  51.2683345  68.3651418
  63.2262453  51.0501438  68.0203213  62.2048235  51.3100799  69.4542897
  61.3389442  50.2529935  67.9248140  61.6235384  49.4080369  68.2806994
  62.3818375  52.8788695  66.4174652  63.5836092  52.7053489  66.2068078
  61.5199458  53.2313229  65.4603422  60.5360589  53.1254623  65.6624796
  61.9120706  53.6615556  64.1091395  61.0548477  53.5952719  63.4391584
  62.4010033  55.0845624  64.1250628  63.2359749  55.1425102  64.8233204
  62.7233584  55.4340546  63.1442252  61.3811027  56.0461699  64.6033971
  60.6413225  56.8243982  63.7455089  60.7311181  56.8186623  62.7395250
  59.8070441  57.5687948  64.4451503  59.1421889  58.2737271  63.9460140
  59.9620556  57.2815130  65.7243261  60.9318756  56.3209316  65.8486790
  61.1947586  55.9362385  66.8340748  62.9307381  52.7805613  63.4396272
  63.9389227  53.2553361  62.8937476  62.6378852  51.4841967  63.4421278
  61.7678390  51.1624935  63.8416601  63.5835582  50.4889774  62.9538184
  64.5477155  50.6456701  63.4374993  63.1187899  49.0409713  63.2355965
  63.1938398  48.4619289  62.3151739  63.9855169  48.3930255  64.3175426
  63.9106086  48.9712895  65.2384656  63.6403178  47.3752054  64.4991436
  65.0238764  48.3703931  63.9867889  61.7569221  49.0416974  63.6724667
  61.4758244  48.1401816  63.8452486  63.8618929  50.6599873  61.4526744
  64.9061781  50.2227166  60.9682326  62.9392176  51.3120495  60.7429094
  62.1049450  51.6066928  61.2300170  63.0487841  51.6069558  59.3120287
  63.2320947  50.6934033  58.7464156  61.7344502  52.2268918  58.8279969
  61.8026928  52.2859594  57.7417404  60.9215588  51.5554274  59.1044805
  61.4621339  53.6135922  59.3952965  60.8246728  53.7819212  60.6263991
  60.5170448  52.8980160  61.1851263  60.5832195  55.0364684  61.1363577
  60.1020680  55.1567014  62.1069961  60.9438331  56.1490294  60.4018607
  60.7027916  57.4099861  60.8852532  60.2777575  57.4068250  61.7460294
  61.5618464  56.0156352  59.1803155  61.8431029  56.8971384  58.6041668
  61.8251196  54.7561122  58.6857562  62.3253838  54.6417881  57.7241087
  64.1954053  52.5736042  58.9544594  64.4149957  52.8751804  57.7732990
  64.8854041  53.0806547  59.9720042  64.6730807  52.7746224  60.9108132
  65.9118543  54.0676347  59.7939440  65.7434500  54.6420755  58.8830341
  65.8758535  55.0121964  60.9745643  65.3457081  54.4660200  61.7547800
  66.9066784  55.1807805  61.2861399  65.1970317  56.3413875  60.7407635
  64.1270466  56.1940371  60.5940646  65.4263978  57.2225510  61.9711439
  66.4962133  57.3707407  62.1182268  64.9434412  58.1882967  61.8221841
  65.0031067  56.7369973  62.8504406  65.7300164  57.0368519  59.4872418
  65.5533182  56.4043668  58.6172764  65.2170207  57.9892572  59.3535970
  66.8001080  57.2132926  59.5961981  67.2841694  53.4268807  59.6865963
  68.2592253  54.0613463  59.3529014  67.3649893  52.1710861  60.0524531
  66.5406942  51.6307910  60.2731746  68.6526017  51.5253965  60.1487302
  68.7071482  50.7777736  59.3574124  69.4163195  52.2852875  59.9832005
  68.9060922  50.8567942  61.4721166  68.3355432  51.1770741  62.4997059
  69.7956688  49.8765736  61.4500445  70.5067012  49.8316864  60.7341414
  69.7363997  48.8108060  62.4248494  68.7008828  48.4817695  62.5116759
  70.5845561  47.6335961  61.9320751  71.6257934  47.9450314  61.8488113
  70.5081617  46.8085124  62.6402425  70.2238977  47.3086602  60.9561440
  70.2055422  49.2387130  63.8113926  69.5381399  49.0213266  64.8304737
  71.3908151  49.8343442  63.8380332  71.9721544  49.8215181  63.0122127
  71.9084047  50.4702112  65.0325959  71.1145308  50.5237227  65.7775791
  73.0604683  49.6042257  65.5985424  72.6916155  48.6002882  65.8086766
  73.8669830  49.5487896  64.8674057  73.5845801  50.2336676  66.8872778
  73.0421190  49.8737925  67.9660861  74.5224032  51.0683607  66.7806244
  72.4134981  51.9154253  64.7767424  73.0739215  52.1969769  63.7807506
  72.0488709  52.8179796  65.6810855  71.3781122  52.5771074  66.3967409
  72.6398917  54.1132029  65.7180890  73.3066997  54.2441479  64.8658451
  71.5576749  55.1808841  65.6572072  71.3337109  55.4718332  66.6835054
  71.9754420  56.0332269  65.1214065  70.2828937  54.7279124  64.9707184
  70.5495807  53.9674540  64.2367689  69.6323955  54.2894391  65.7274847
  69.4073336  56.0714301  64.1418253  68.1580804  55.0335834  63.3808347
  67.5983211  54.5102068  64.1559769  67.4770597  55.6527093  62.7968872
  68.6385745  54.3062056  62.7265043  73.3285179  54.2357091  67.0537372
  72.9211637  53.5953245  68.0064513  74.3569822  55.0682883  67.1368462
  74.7429124  55.4704878  66.2945917  74.9848940  55.4136122  68.4299263
  75.3298095  54.5114636  68.9351594  76.1947568  56.3642508  68.2319383
  76.9488201  55.8706522  67.6188737  75.8634650  57.2762092  67.7352717
  76.7878303  56.7108571  69.5766421  76.0344383  57.2049380  70.1901446
  77.1197953  55.7993823  70.0737459  77.9787026  57.6465775  69.3817622
  77.7444061  58.8846026  69.3815573  79.1113315  57.1144113  69.2349590
  73.9443990  56.0825334  69.3296483  73.2414387  56.9824980  68.9290156
  73.8529924  55.6218194  70.5749810  74.4540594  54.8668602  70.8730656
  72.8126973  56.0896582  71.4992553  72.1245272  56.7476637  70.9686425
  72.0152975  54.9104807  72.0804420  72.6393082  54.4528004  72.8480609
  71.1207465  55.3287819  72.5418557  71.6069286  53.8398873  71.0429457
  70.6667672  53.3990501  71.3743970  71.4481875  54.3690371  70.1033176
  72.6584345  52.7178702  70.8331461  73.4407071  52.4399999  71.7783459
  72.7026099  52.0926951  69.7310269  73.4274061  56.9789684  72.5755622
  74.6023392  56.8175597  72.9830488  72.6322430  57.9251569  73.0544504
  71.6704519  57.9774219  72.7505991  73.1099751  58.9166504  74.0194694
  74.1130098  58.6540654  74.3557280  73.1575560  60.2977930  73.3778191
  72.1649675  60.4108610  72.9418341  73.3636236  61.1427333  74.0348672
  74.1217962  60.3851435  72.2619138  73.8816710  59.6884512  71.1079442
  72.9547827  59.1262690  70.9942379  74.7817726  59.6974586  70.1226743
  74.5762455  59.1773620  69.1870682  75.9854336  60.3735043  70.2926934
  76.7165962  60.3572194  69.4844632  76.2596986  61.0519665  71.4510374
  77.1889203  61.6060147  71.5839948  75.3428655  61.0222506  72.4433231
  75.5577968  61.5014296  73.3984629  72.1553439  58.9234883  75.1964174
  70.9838151  59.2734327  75.0488052  72.6802539  58.5150708  76.3639051
  73.6108753  58.1226088  76.3679960  71.9293367  58.5236663  77.6110989
  70.9237980  58.1450229  77.4277405  72.6083190  57.6272329  78.6602597
  72.6680761  56.6064381  78.2827598  73.6130086  57.9991480  78.8612029
  71.9001908  57.5545909  79.9919425  72.3867481  56.7874952  81.0440474
  73.2251291  56.2244469  81.0301337  71.5607213  56.9240877  82.0645489
  71.7590395  56.4009927  83.0000383  70.5860985  57.7286042  81.7196381
  70.7584603  58.1446503  80.4363622  70.0366172  58.8231998  79.9818136
  71.7620838  59.9902736  78.0942465  72.6647121  60.5809865  78.7275319
  70.5995115  60.5437063  77.7890994  70.0323429  60.1684953  77.0423492
  70.1036297  61.7054419  78.5167186  69.0292814  61.7470208  78.3374252
  70.2878714  61.5102792  79.5731588  70.7198349  63.0467180  78.1460778
  70.5669400  63.5325014  77.0185683  71.5391601  63.6071506  79.0365201
  72.5165628  63.6241193  78.7825605  71.1337621  64.2241259  80.3369646
  70.2159822  63.7893388  80.7328682  72.2723431  63.9173808  81.3000689
  72.1478406  64.5577905  82.1732664  72.1793717  62.8734580  81.5995377
  73.6727243  64.1540952  80.6820917  74.2951046  64.5411531  81.4888938
  74.0378124  63.1720520  80.3814195  73.7357815  65.1245059  79.4677837
  73.3936815  64.6146766  78.5671502  73.1052149  65.9938135  79.6543034
  75.0977925  65.5750888  79.2575834  75.6025004  65.1930247  78.4705660
  75.7129198  66.4614439  80.0366764  76.9971851  66.7332220  79.8343789
  77.4981322  66.2664280  79.0919131  77.4669171  67.4054305  80.4239442
  75.0467043  67.0844752  81.0190602  74.0691914  66.8804321  81.1705032
  75.5253137  67.7550825  81.6032842  70.8899796  65.7345540  80.5253497
  70.8790727  66.2164609  81.6586527  70.8072900  66.4756976  79.4441260
  70.6403657  66.0548664  78.5412767  71.0243205  67.9280924  79.5065524
  71.5442914  68.1875990  80.4287160  71.8678764  68.4542223  78.2891877
  72.8673894  68.6913600  78.6536596  71.9704525  67.4129166  77.1290198
  70.9712895  67.1756184  76.7636947  72.5641325  67.8311384  76.3161646
  72.4476016  66.5044571  77.4966211  71.2806484  69.6584001  77.7716947
  71.8003464  69.9742577  77.0288971  69.6853266  68.6640352  79.5745199
  68.9533059  68.6927043  78.5788966  69.3465548  69.2213838  80.7525243
  69.7618818  68.8770033  81.6063421  68.2779971  70.2255138  80.8530632
  67.9394411  70.4941146  79.8523971  67.0681962  69.6851089  81.6567289
  67.5641990  69.1516959  82.4676241  66.4620179  70.4912058  82.0700757
  66.1499089  68.6950149  80.8665787  66.0499911  69.0614719  79.8449005
  66.7306408  67.2705772  80.8455847  66.8304246  66.9032422  81.8669597
  66.0634262  66.6138224  80.2873744  67.7101197  67.2839851  80.3675243
  64.6757280  68.6710790  81.3353952  64.2413812  69.6642374  81.2210336
  64.1137554  67.9576989  80.7325877  64.6319564  68.3744135  82.3833325
  68.8191827  71.5282887  81.4032757  69.6698752  71.5242189  82.2622028
  68.3574646  72.6531808  80.8329144  67.5682403  72.5689410  80.2083121
  68.8224843  73.9884516  81.1816628  69.8488576  73.9146818  81.5411276
  68.7857229  74.9789794  79.9821045  67.8362451  75.3782557  79.6254959
  69.3581667  75.7750373  80.4582347  69.5568007  74.5634034  78.7708883
  70.8924260  74.2186968  78.8230077  71.4328143  74.1312837  79.6717945
  71.3401801  74.0245817  77.5913256  72.3599113  73.6799333  77.4196730
  70.3680833  74.3156760  76.7427380  69.2561681  74.7029549  77.4549801
  68.3624224  75.0396006  76.9296332  67.8074122  74.5955133  82.1404448
  66.5877392  74.5071349  81.8995466  68.3017164  75.2141465  83.1948262
  69.2986934  75.3147747  83.3213578  67.4160912  75.6406792  84.2833687
  66.6613825  74.8731014  84.4546532  68.1987343  75.8661339  85.5977701
  69.2263996  76.0775043  85.3022605  67.7873066  76.7286047  86.1221474
  68.1744645  74.6294153  86.5372933  67.1568662  74.4131557  87.2432300
  69.1932986  73.9101833  86.5895276  66.5657999  76.8782897  83.8898676
  66.9208243  77.6424972  82.9654637  65.4290576  77.0235897  84.5651385
  65.2719529  76.5150959  85.4235391  64.3215975  77.7781697  83.9976607
  64.2095653  77.5448779  82.9388298  63.0326797  77.4099445  84.7153515
  62.8604534  78.0724319  85.5636131  62.2448657  77.5547377  83.9761059
  63.0220505  75.9440431  85.1975104  64.1124434  75.4101213  85.5248036
  61.9231960  75.3553210  85.3118347  64.5933757  79.3020777  83.9477592
  65.3868590  79.8901214  84.7215232  63.9545533  79.9162635  82.9718685
  63.5022417  79.3087720  82.3036861  64.0186243  81.3722988  82.6711363
  63.3742619  81.5847494  81.8180472  63.5572694  82.2441301  83.8708671
  64.0529162  81.9349344  84.7911016  63.8799592  83.2509069  83.6055903
  61.9848439  82.2327864  84.0876787  61.2834671  81.5156717  83.3501511
  61.4672580  82.8794565  85.0517200  65.3578930  81.8277321  82.0869129
  65.5032836  82.9874610  81.7080101  66.2941807  80.8814855  81.9241715
  66.0911817  79.9383700  82.2232096  67.6203272  81.1683907  81.4004551
  68.0889885  81.9583440  81.9873363  68.5070525  79.9069108  81.4741488
  69.5164912  80.1877607  81.1737222  68.5185512  79.5642785  82.5088328
  68.0418850  78.8723577  80.6433311  68.6230102  78.1123717  80.7227952
  67.5859562  81.7088298  79.9533680  66.5524381  81.6547842  79.2581554
  68.7125162  82.3084101  79.5302273  69.4230203  82.5790930  80.1950686
  68.8762945  82.7127917  78.1436891  67.9726714  82.4471651  77.5950480
  69.1175982  84.2020475  77.9881016  69.8381426  84.5838413  78.7113916
  69.4389090  84.4677491  76.9809958  67.5851867  85.1105842  78.2807021
  68.1004227  86.3203013  78.0806655  69.9419422  81.8926322  77.4755796
  71.1115878  81.9359263  77.8426707  69.5092591  81.1343616  76.4759816
  68.5387298  81.1960013  76.2032681  70.3678988  80.2119251  75.7581927
  71.3809597  80.2488118  76.1587499  69.8350319  78.7966741  75.9142421
  68.9680779  78.7183304  75.2582297  70.6203004  78.1294022  75.5589937
  69.4413545  78.4072463  77.3143382  68.8420851  79.1223191  77.8779407
  68.8596435  77.5014375  77.1433858  70.6407840  78.0565904  78.1167711
  70.8027286  76.9172641  78.5513587  71.5755261  78.9654664  78.1625175
  72.4187458  78.7921334  78.6907576  71.4516111  79.8381974  77.6694789
  70.4095339  80.5798043  74.2675266  69.4678472  81.1508104  73.7126082
  71.4832770  80.1700051  73.6246944  72.3433456  80.0206773  74.1327126
  71.5309573  80.1646203  72.1792769  70.6002425  80.4723209  71.7026329
  72.6640263  81.0562133  71.6617794  73.2516048  81.3804445  72.5206884
  73.5740698  80.3394276  70.6633031  72.9872461  80.0152845  69.8038438
  74.3578246  81.0203996  70.3314809  74.0266684  79.4710006  71.1419374
  72.0608235  82.3476829  71.0866153  71.5090230  82.8708175  71.8676072
  72.8603578  82.9889343  70.7156148  71.3847191  82.1004389  70.2681692
  71.4802718  78.7225032  71.6718587  72.2647506  77.8632219  72.0833822
  70.4705474  78.4338515  70.8778392  69.7429487  79.1152740  70.7154735
  70.3434793  77.1120241  70.2418555  71.2107056  76.4985280  70.4860690
  69.0960542  76.4489436  70.7657353  68.2325007  76.8981525  70.2752385
  69.1095982  74.9590626  70.4979964  69.9726751  74.5090513  70.9885967
  68.1958577  74.5109204  70.8883136  69.1700293  74.7829166  69.4240225
  68.9966459  76.6631748  72.2660836  69.8526736  76.1700535  72.7266796
  69.0536473  77.7360093  72.4501395  67.7121725  76.1137993  72.8664722
  67.6546837  75.0408551  72.6832083  67.7041120  76.2993615  73.9405304
  66.8556569  76.6068097  72.4066662  70.2901750  77.2107964  68.7044032
  69.6288702  78.0699578  68.1670777  71.0579131  76.3572704  67.9947543
  71.8532693  75.2504267  68.5584177  71.4006768  74.8948849  69.4840798
  72.8723895  75.5822241  68.7569209  71.7873704  74.2394952  67.4632695
  70.8783872  73.6431112  67.5418489  72.6562808  73.5820149  67.4918318
  71.7885660  75.0709092  66.2226735  71.3847892  74.4872839  65.3953617
  72.7674916  75.4627421  65.9465009  70.8611209  76.1985790  66.5498910
  71.0814354  77.1607771  66.0875766  69.4667894  75.7612239  66.1617491
  68.8920534  74.9687234  66.8589517  68.9374205  76.2659167  65.0638329
  69.4528605  76.9611387  64.5431726  67.6698340  75.7715144  64.5024071
  67.2067861  75.0100324  65.1299667  66.6661268  76.9345595  64.3140146
  67.0862320  77.6583808  63.6156641  65.3414762  76.4074354  63.7650775
  64.9205055  75.6838512  64.4631539  64.6449665  77.2361064  63.6374875
  65.5124902  75.9257144  62.8023726  66.4325477  77.7069282  65.6105721
  67.3762622  78.1263115  65.9593163  65.7216060  78.5133381  65.4306699
  66.0328227  77.0331958  66.3684675  67.8985870  75.2592956  63.1442080
  68.2651815  76.0799567  62.3032794  67.6015304  73.9681119  62.8824407
  67.2603191  73.3367496  63.5931134  67.7600454  73.4448433  61.4786288
  68.7210890  73.8042205  61.1107397  67.7143470  71.9199638  61.3216439
  66.6934754  71.7877533  60.9632574  68.4128554  71.7203701  60.5090257
  67.9787059  70.9536873  62.4656483  67.3716317  71.2589910  63.3179109
  67.6352886  69.5103860  62.0856063  68.2423398  69.2041947  61.2336471
  67.8389061  68.8532329  62.9310590  66.5798539  69.4450409  61.8212428
  69.4235461  71.0176355  62.9174230  69.6543796  72.0274975  63.2565308
  69.5801978  70.3153001  63.7361332  70.0769418  70.7561786  62.0850689
  66.7011788  73.9044536  60.5393749  65.5430326  73.7678704  60.8317296
  67.1002169  74.2661902  59.3672293  68.3036197  73.6752103  58.7876029
  68.1285664  72.6261037  58.5492088  69.1348206  73.7542528  59.4882857
  68.5089280  74.5326476  57.5424464  68.6641151  73.8800457  56.6833034
  69.3883445  75.1607850  57.6844720  67.2434928  75.3898084  57.3750837
  66.8747410  75.2683656  56.3565687  67.3907021  76.4494785  57.5837180
  66.2451769  74.8007640  58.3600842  65.5985253  75.5449206  58.8250260
  65.3631347  73.6941288  57.6789820  65.6985072  72.4505638  57.6206943
  64.2050670  74.1043966  57.2532010  63.9331775  75.0763776  57.2909961
  63.2941735  73.1453407  56.5838440  62.6270516  73.7056509  55.9287867
  64.0337325  72.0835934  55.7430050  64.4343812  71.3940187  56.4860168
  63.2378069  71.5919435  55.1836458  65.1318550  72.4954339  54.7966750
  64.8912027  73.4459329  54.3205040  66.0503850  72.6011219  55.3739399
  65.3578095  71.4444512  53.7051958  66.4746890  70.9460371  53.5124432
  64.2767648  71.0778537  53.0041918  64.3638448  70.3883914  52.2712796
  63.3795387  71.4925825  53.2117653  62.5395385  72.2914679  57.5514514
  61.6951870  71.5090553  57.0936655  62.8960936  72.2569265  58.8299088
  63.6819007  72.7576525  59.2196267  62.1101138  71.4305564  59.7080172
  61.7091682  70.5933116  59.1367353  62.9028518  70.8725272  60.9118430
  62.9969220  71.6475945  61.6724484  62.1768882  69.6787977  61.4952937
  62.0828379  68.9030718  60.7353563  62.7399828  69.2894181  62.3434732
  61.1844681  69.9833014  61.8276812  64.2934918  70.4560696  60.4815692
  64.8230924  71.3189340  60.0777248  64.8385249  70.0654030  61.3408818
  64.2214144  69.6836352  59.7158990  61.0111339  72.3094354  60.1727699
  61.2763506  73.3561207  60.7174855  59.7843147  71.9542964  59.8756068
  59.5962191  71.1157342  59.3450101  58.6669318  72.7623705  60.2954374
  59.0182548  73.4910962  61.0259373  57.9999726  73.5224725  59.1178469
  58.5365398  73.2449344  58.2105611  56.9697238  73.1727970  59.0514051
  58.0125916  75.0428207  59.2717954  56.9651607  75.3411619  59.2272766
  58.3988833  75.2231746  60.2749671  58.9713662  76.0339835  58.0713716
  60.5076462  75.1303122  57.8196045  60.2858082  74.1373828  57.4284803
  61.1341445  75.6687449  57.1084851  61.0345896  75.0368211  58.7691788
  57.6792865  71.8566705  60.9128547  57.1291559  71.0225094  60.2593850
  57.5064827  71.9875862  62.2147449  57.9530446  72.7550411  62.6960918
  56.7007271  71.0871770  62.9768139  55.7085606  71.0326310  62.5287854
  57.3027803  69.6621145  63.0202171  56.5984311  69.0136709  62.4991487
  58.2378251  69.7051327  62.4617006  57.5716135  69.1009341  64.4271628
  58.5338395  69.4890307  64.7612329  56.7843165  69.4663817  65.0864910
  57.6062616  67.2897320  64.4874077  56.3382321  66.9928340  65.7023430
  55.3928388  67.4051937  65.3497949  56.2296516  65.9198025  65.8601859
  56.6150679  67.4715470  66.6416497  56.6894074  71.7154335  64.3526775
  57.6426397  72.4338593  64.7216171  55.5872954  71.5909131  65.0711187
  54.7477819  71.1559417  64.7159899  55.5370813  72.2117112  66.3621436
  56.3996266  72.8737957  66.4380310  54.2636549  73.0175232  66.5435580
  53.3977510  72.3557898  66.5230712  54.3274631  73.7126691  67.8639994
  55.1929129  74.3749781  67.8850729  53.4194710  74.2973521  68.0116377
  54.4166388  72.9737011  68.6602866  54.1541989  74.0916706  65.4190212
  53.5902148  74.9209270  65.8460536  55.1735564  74.4159151  65.2095573
  53.4803578  73.6326850  64.1069536  52.4607391  73.3087072  64.3155588
  53.4601047  74.4613232  63.3991063  54.0440800  72.8036933  63.6790636
  55.7383870  71.0964882  67.3324810  54.9550321  70.1464962  67.3402544
  56.8576337  71.1142740  68.0357451  57.3935037  71.9639260  68.1407893
  57.3619882  69.8959988  68.6623447  56.8894472  69.0151702  68.2276664
  58.8561225  69.8108726  68.4247712  58.8963116  70.1390781  67.3861350
  59.3447790  70.5510799  69.0583390  59.5728828  68.4716938  68.5624945
  60.0333445  68.1984210  67.6130747  60.6564998  68.6027529  69.6357190
  60.1967205  68.8755741  70.5855982  61.1775225  67.6515729  69.7447720
  61.3679615  69.3745687  69.3420814  58.6374137  67.2795887  68.8314125
  57.9295778  67.1796909  68.0085588  59.2266911  66.3665145  68.9159631
  58.0924831  67.4470515  69.7604474  57.0548130  69.9239136  70.1630416
  57.1269020  71.0000971  70.7923596  56.6467954  68.7922749  70.7211926
  56.7121144  67.9153155  70.2244281  56.1446075  68.7760731  72.0818582
  56.0545373  69.7919345  72.4665817  54.8125833  68.0788970  72.1884605
  54.9220319  67.0341652  71.8975022  54.3191155  68.1558979  73.6292275
  54.2089731  69.2003933  73.9207727  53.3556513  67.6527923  73.7112174
  55.0394834  67.6696292  74.2870359  53.7921682  68.6874849  71.2231845
  53.2420967  69.4611191  71.7589197  54.3394796  69.1386086  70.3955148
  52.8138639  67.6522572  70.6806448  52.2658148  67.2009997  71.5077534
  52.1119617  68.1358975  70.0012888  53.3631985  66.8784875  70.1443501
  57.0912406  68.0017141  72.9686923  57.5744746  66.9413547  72.5832615
  57.3770827  68.5451887  74.1555907  57.2169451  69.9496975  74.5221571
  56.1611879  70.2179886  74.4834653  57.7757172  70.5739529  73.8248925
  57.7803813  70.0062111  75.9270471  57.1399707  70.6283383  76.5522919
  58.7841934  70.4302095  75.9008191  57.8108281  68.5865847  76.4149844
  56.8411174  68.2827110  76.8092192  58.5813191  68.3996863  77.1629899
  58.1149708  67.8203719  75.1664777  59.1732227  67.8836629  74.9131093
  57.7072951  66.3645883  75.2699696  56.5041569  66.0516123  75.3738083
  58.6939119  65.4712768  75.1801039  59.6420035  65.7847953  75.0286844
  58.4490839  64.0354025  75.2944241  59.3326646  63.5837217  75.7453882
  57.5934357  63.8969893  75.9553381  58.1682879  63.3565804  73.9811826
  58.2945166  62.1342888  73.8840193  57.7616591  64.1372457  72.9680131
  57.6869619  65.1349065  73.1065508  57.4552330  63.5989216  71.6518717
  56.7613724  62.7647512  71.7558743  56.8202246  64.6503003  70.7552831
  55.8620170  64.9452991  71.1829665  57.4790475  65.5174054  70.7085814
  56.6052282  64.1109699  69.3719955  57.5495854  64.1866730  68.8329600
  56.2998133  63.0659156  69.4238146  55.5713339  64.8707579  68.6263074
  54.7063973  64.2684390  67.9376177  55.6443746  66.2065466  68.7175423
  54.9692683  66.7804326  68.2327869  56.3741630  66.6327306  69.2706043
  58.7357082  63.1622615  70.9988747  59.7527669  63.7861755  71.1810532
  58.6845488  62.1172307  70.1938540  57.8781672  61.5108088  70.1480233
  59.8547059  61.7341024  69.4903669  60.7234804  62.2277454  69.9258514
  60.0793624  60.2432421  69.5259357  59.5781777  59.8297907  70.4011340
  59.5152205  59.5806636  68.2486966  60.0162870  59.9933030  67.3730479
  59.6858998  58.5049444  68.2910738  58.4450365  59.7757853  68.1798899
  61.4833120  59.9971418  69.6310984  61.6413492  59.0505359  69.6548002
  59.8529900  62.3076764  68.0668748  58.8199491  62.4312768  67.4418953
  61.0319164  62.7034686  67.5861564  61.8578197  62.5802424  68.1543099
  61.1835543  63.3153991  66.2638838  60.2485301  63.2106825  65.7135535
  61.5344244  64.8155946  66.3592654  60.5791418  65.2632668  66.6333531
  62.2493637  64.9621147  67.1688910  62.0706625  65.4909879  65.0666597
  62.9461967  64.9337457  64.7334602  61.0237884  65.5186081  63.9432271
  60.1480865  66.0761133  64.2755416  61.4479662  66.0005754  63.0623858
  60.7312790  64.4987648  63.6933103  62.5808809  66.8968330  65.3492315
  63.3903548  66.8505470  66.0777292  62.9492800  67.3427476  64.4253573
  61.7689204  67.5054317  65.7472600  62.3092227  62.6101135  65.4844660
  63.4667158  62.7330669  65.8486048  61.9642810  61.9397610  64.3653781
  60.6492669  61.6060517  63.8120990  60.2086880  62.4980491  63.3667552
  60.0034582  61.2428597  64.6115499  60.9598847  60.5229714  62.7749049
  60.8962518  60.9383538  61.7691676  60.2539353  59.6981785  62.8721341
  62.3245604  60.0839804  63.0879466  62.7887324  59.7419533  62.1629273
  62.4331975  59.3161214  63.8539036  62.9790859  61.3673321  63.5475235
  63.8708102  61.1924750  64.1494794  63.3256038  62.3355268  62.3758084
  62.4536093  63.1205896  61.9041049  64.5984575  62.3226700  61.9638044
  65.2691031  61.7077774  62.4022571  65.0629562  63.2228110  60.9526857
  64.2401534  63.6280679  60.3637361  65.7351414  64.3404625  61.6601447
  66.0258066  63.9621092  62.6401762  66.6120785  64.7399891  61.1507727
  64.7130078  65.4303968  61.8270496  63.7674788  64.9757405  62.1226228
  65.1445106  66.4433227  62.8876171  66.0897998  66.8987668  62.5924938
  64.3829327  67.2173094  62.9827186  65.2689038  65.9371448  63.8449105
  64.4798219  66.0619963  60.4246220  64.1162526  65.2980272  59.7374044
  63.7417229  66.8602025  60.5032226  65.4178730  66.4709276  60.0492097
  65.9847338  62.5561335  59.9281232  66.5945535  61.5137883  60.2128958
  66.0225030  63.1024260  58.7132591  65.2801248  63.7208728  58.4191545
  67.0076531  62.6999344  57.7343333  67.8890016  62.3542774  58.2745605
  66.5547238  61.6030457  56.7960284  65.5071463  61.7866277  56.5573274
  67.1526172  61.6798344  55.8878836  66.7036015  60.2069389  57.3846779
  67.7264785  60.1137964  57.7495725  66.0085229  60.0532395  58.2101138
  66.4601127  59.1263993  56.3343135  67.3138948  58.8795724  55.4700695
  65.2939251  58.5152846  56.3692034  65.0854435  57.7928431  55.6948778
  64.6135218  58.7719236  57.0701236  67.5274692  63.8912666  57.0066659
  66.7771514  64.7001899  56.4259145  68.8398564  64.0659587  57.1401861
  69.3978371  63.3908628  57.6431796  69.4852710  65.3071795  56.6915405
  68.7412583  66.0015113  56.3010950  70.1889848  65.9602680  57.8634058
  70.9779506  65.2897783  58.2041050  70.6241704  66.9191971  57.5820369
  69.1757169  66.1714529  58.9928344  68.6305294  65.2376686  59.1303785
  69.8238090  66.5693865  60.2912036  70.3688401  67.5033928  60.1545577
  69.0571137  66.7049731  61.0540242  70.5156167  65.7884643  60.6068981
  68.1775528  67.2419372  58.5752394  67.6574249  66.9220606  57.6723300
  67.4537414  67.3965149  59.3754294  68.7056535  68.1749396  58.3784776
  70.3931937  65.0664706  55.4931284  71.1189994  64.0660950  55.4126876
  70.2685587  65.9422690  54.4966670  69.7478376  66.7976947  54.6277996
  70.8966560  65.7023205  53.1899074  71.4072831  64.7393854  53.1791860
  69.8259558  65.6898389  52.1355919  69.1566771  66.5481298  52.1947697
  70.3313298  65.6897458  51.1698294  68.9724845  64.4859759  52.1656855
  68.4314150  64.0159227  53.3678418  68.6402257  64.5574624  54.2904646
  67.6480669  62.8905333  53.3955582  67.2308794  62.5233486  54.3332313
  67.3865277  62.2117008  52.1999058  66.8247352  61.2782428  52.2337491
  67.8370687  62.7171508  50.9668677  67.5715404  62.2340095  50.0265649
  68.6315252  63.8495670  50.9624372  68.9980257  64.2545035  50.0191431
  71.9087521  66.8117555  52.8313515  73.0305243  66.5253998  52.3445830
  71.5428606  68.0434771  53.1607578  70.6318204  68.2377364  53.5511017
  72.4073914  69.1632186  52.8426030  72.8887591  68.9928775  51.8796034
  71.6205292  70.4380298  52.7663333  71.2667761  71.0503611  53.5957960
  72.4241937  70.9600213  52.2469603  70.4978624  70.3317997  51.8101030
  69.2763591  69.8409626  52.2062123  69.0134742  69.6625457  53.1649400
  68.5189109  69.6453609  51.1464873  67.4816248  69.3267713  51.2496232
  69.2438290  69.9006841  50.0732329  70.5059047  70.2715412  50.4640973
  71.2772254  70.4523341  49.7154455  73.5455084  69.2423873  53.8105368
  73.3736258  69.0313705  55.0198566  74.7610205  69.4709244  53.2664686
  75.0527133  69.9930488  51.9310236  74.3527114  70.7926872  51.6887919
  74.9588203  69.1936444  51.1960164  76.4578280  70.4816654  52.0645914
  76.4595215  71.5368838  52.3377404  76.9876662  70.3502578  51.1211377
  77.0618173  69.6429783  53.1338621  77.8745315  70.2015879  53.5981357
  77.4264249  68.6645626  52.8210305  75.9255814  69.4798204  54.1144172
  75.9963912  68.5268856  54.6388213  75.8207296  70.6020669  55.1219404
  76.3878616  70.4205661  56.2081134  75.0513699  71.6881123  54.8198675
  74.7291252  71.8490665  53.8762831  74.7304645  72.6921939  55.8479306
  75.6763610  73.1698566  56.1033074  73.7007747  73.7908763  55.4985339
  73.0219749  73.8444698  56.3496847  74.2679317  74.7190071  55.4277787
  72.9283822  73.5965800  54.2703304  72.5173777  72.5884063  54.3228851
  72.1197837  74.3102507  54.1123912  73.8584949  73.6701579  53.1153401
  73.9736042  72.7275806  52.3444660  74.6267303  74.7655450  53.0421324
  75.2789187  74.8710886  52.2781872  74.5501103  75.4806771  53.7512281
  74.2344662  72.0490593  57.1170600  74.8848292  72.1705238  58.1604004
  73.0814344  71.3662857  57.0174214  72.5734560  71.4013212  56.1451658
  72.4811029  70.6461180  58.1417527  72.2829870  71.3343402  58.9634580
  71.1537688  70.0057578  57.7067251  71.4111518  69.1995750  57.0197590
  70.7046118  69.5859403  58.6067869  70.1371729  70.9695126  57.0195117
  69.6124285  71.4937775  57.8181921  70.7296295  71.6822093  56.4457890
  69.0952874  70.2788035  56.0765342  69.2154606  69.0586455  55.7424579
  68.1351517  70.9827767  55.6704022  73.4665462  69.6046266  58.7053840
  73.7269782  69.5875115  59.8938431  74.0276507  68.7864593  57.8215475
  73.8421867  68.9522621  56.8426645  74.8967916  67.6746872  58.1808814
  74.4473681  66.8901383  58.7896512  75.3489871  67.0707820  56.8721195
  75.5870023  67.8835286  56.1859047  76.5683595  66.1826837  57.0466998
  76.3309596  65.3693832  57.7324728  76.8589520  65.7696336  56.0807566
  77.3916540  66.7706693  57.4523606  74.1916687  66.3359815  56.2473640
  73.3727422  67.0325401  56.0677324  74.5079035  65.8961049  55.3015290
  73.8558272  65.5469031  56.9201691  76.1354768  68.1046082  58.9986056
  76.6501574  67.3452066  59.8521642  76.5911569  69.3354683  58.7624676
  76.2070813  69.8769418  58.0012898  77.6432599  69.9415274  59.5854286
  78.4870948  69.2581334  59.6803736  78.1417088  71.2588153  58.9157493
  78.4167182  71.0155398  57.8894520  77.3039266  71.9560966  58.9113045
  79.2629220  71.8620586  59.5814943  79.5160788  72.6642198  59.1188400
  77.1453632  70.2786537  60.9615803  77.7570948  69.8898201  61.9898399
  76.0423263  71.0128893  60.9921398  75.6434086  71.2903440  60.1067117
  75.4608020  71.5209726  62.1791511  76.0902349  72.2557001  62.6812357
  74.1791377  72.2227082  61.6900654  74.2847843  73.2647152  61.9919916
  74.2076462  72.1554144  60.6025183  72.8693247  71.6878917  62.1897568
  72.0951632  71.8692984  61.4441924  72.9587542  70.6160444  62.3665272
  72.4150151  72.5018744  63.7211575  73.8350373  73.5881691  64.0828340
  73.9684361  74.2968867  63.2655073  73.6499894  74.1327689  65.0087222
  74.7364407  72.9848968  64.1907028  75.2543858  70.4171953  63.2540008
  75.4969346  70.6297383  64.4210272  74.8365628  69.2440554  62.8150468
  74.7926367  69.1369410  61.8117042  74.5581348  68.0985090  63.6347817
  73.9403607  68.2924932  64.5116080  73.8436081  67.0704162  62.7497489
  74.4407715  66.8997812  61.8539929  73.6597338  65.7525154  63.4967680
  73.0622336  65.9222766  64.3924664  73.1508431  65.0364503  62.8514918
  74.6346020  65.3561282  63.7806887  72.5256126  67.6228921  62.2435876
  72.7095120  68.5238282  61.6582696  72.0349687  66.8774715  61.6177151
  71.8834319  67.8651493  63.0903557  75.8312873  67.3829279  64.0976214
  76.0176300  67.0950300  65.2959023  76.6972958  67.0867145  63.1264546
  76.4500083  67.2823204  62.1669304  77.9475035  66.3786166  63.3887561
  77.7190910  65.3744659  63.7459791  78.8294356  66.2638729  62.1168915
  78.1683509  66.4468480  61.2697868  79.5652514  67.0653432  62.1826216
  79.5615511  64.9016252  61.9195416  80.4719284  64.9278870  62.5183941
  78.9034929  64.1174762  62.2939369  79.9234484  64.6097696  60.4444722
  79.6618667  65.4870872  59.8528745  80.9988780  64.4414309  60.3877922
  79.2289061  63.4323247  59.8787943  78.6748456  62.8753054  60.5134956
  79.2795457  63.0717341  58.5887090  79.9839352  63.7901539  57.7086622
  80.4830451  64.6123251  58.0169212  80.0138332  63.5075305  56.7394719
  78.6348445  61.9797437  58.1719150  78.1082174  61.4252594  58.8316961
  78.6766146  61.7129775  57.1986782  78.6917730  67.0480582  64.5548063
  79.1841038  66.3513071  65.4694336  78.7165783  68.3793756  64.5491683
  78.3745475  68.8796466  63.7411812  79.2922029  69.1504060  65.6488057
  80.1850282  68.6582219  66.0344444  79.6736967  70.5075857  65.1457881
  78.7566770  70.9189895  64.7239811  80.0438742  71.1719865  65.9265828
  80.7228447  70.4213919  64.0409736  80.3907602  70.1686933  62.8791327
  82.0074736  70.5228252  64.4195828  82.7405024  70.4720439  63.7266256
  82.2346330  70.6494235  65.3955297  78.3943457  69.2968509  66.8769162
  78.8729511  69.4196823  67.9951659  77.0892495  69.3022765  66.6507382
  76.7456288  69.2852938  65.7011406  76.1151737  69.3473888  67.7393517
  76.2726381  70.2552806  68.3216202  74.7119485  69.3443370  67.2307541
  74.6968795  69.7568581  66.2219437  74.2614726  68.3518045  67.2236321
  73.9255477  70.2489172  68.1577695  74.0318775  69.8681851  69.1735637
  74.4128190  71.6952367  68.1029909  74.3063607  72.0768343  67.0875359
  73.8191928  72.3052134  68.7838999  75.4611817  71.7374190  68.3983833
  72.4716679  70.1626066  67.7759319  72.1292309  69.1328234  67.8778287
  71.8846561  70.8066314  68.4307223  72.3471061  70.4857923  66.7424261
  76.2901642  68.1518712  68.6590799  76.1808240  68.2891777  69.8759023
  76.5962413  66.9991956  68.0775467  76.6005085  66.9141220  67.0711454
  76.8065860  65.8107371  68.8643906  75.9176442  65.6623243  69.4774611
  77.0412282  64.6244827  68.0560017  77.9870380  64.7046983  67.5201756
  77.0971280  63.4355251  69.0105492  76.1514320  63.3543794  69.5464365
  77.2722881  62.5214063  68.4432693  77.9076543  63.5801848  69.7248460
  75.9047344  64.4660346  67.0714501  75.5894562  65.4587719  66.7502444
  76.2725873  63.9062695  66.2115391  74.7372707  63.7421607  67.6771366
  74.3685538  64.3016017  68.5368886  73.9427307  63.6494635  66.9367228
  75.0516858  62.7490995  67.9981855  77.9152373  65.9612876  69.8913619
  77.8150345  65.4332664  70.9904538  78.9721166  66.6376034  69.5134347
  79.0666837  67.0312550  68.5881268  80.0711567  66.7631671  70.4189305
  80.3983525  65.7804753  70.7585760  81.2231314  67.4379688  69.7127054
  81.0132880  68.5061508  69.6574598  82.1274604  67.2757311  70.2991932
  81.4233540  66.8899435  68.3143327  80.6370760  67.3045446  67.6834811
  82.3964808  67.1891341  67.9249596  81.3301220  65.3847921  68.2742595
  80.9211151  64.8060949  67.2763448  81.6772912  64.7474037  69.3795336
  81.6351270  63.7387940  69.4116278  81.9830323  65.2720997  70.1865762
  79.7085667  67.5014658  71.6581781  80.0902365  67.0958239  72.7412648
  78.9547107  68.5745995  71.5180277  78.7097132  68.9443524  70.6106368
  78.6021730  69.3441291  72.6894182  79.3345891  69.0491335  73.4408457
  78.7626588  70.8409820  72.4109821  79.7670572  71.0354760  72.0348770
  78.0298463  71.1532976  71.6669762  78.5426457  71.6243743  73.7007554
  77.5382246  71.4307334  74.0772423  79.2754363  71.3129148  74.4451430
  78.7025042  73.1153964  73.4234045  79.7069016  73.3098913  73.0472975
  77.9696903  73.4277110  72.6794000  78.4824930  73.8987880  74.7131791
  77.4780725  73.7051469  75.0896673  79.2152853  73.5873295  75.4575636
  78.6365841  75.3360351  74.4458300  77.9573682  75.6249322  73.7564071
  78.4908731  75.8548720  75.3000411  79.5673769  75.5157417  74.0973627
  77.2344408  69.0061853  73.2634903  77.0340233  67.9331738  73.8061799
  76.3053328  69.9357818  73.1350783  76.5692913  70.7767019  72.6418455
  74.9582152  69.8421125  73.6614636  74.9723429  69.6805308  74.7393277
  74.2419802  71.1543814  73.3757215  74.6933819  71.5804267  72.4797186
  73.1906735  70.9388308  73.1849540  74.3538085  72.1321156  74.5035106
  74.3906437  71.6878689  75.6642746  74.3906282  73.3464005  74.2313974
  74.0516225  68.7574549  73.1524522  73.2082496  68.2520301  73.8699206
  74.1692017  68.4397777  71.8891160  74.8813726  68.8387641  71.2943707
  73.1902871  67.5188848  71.2853540  73.5069257  67.3086065  70.2637757
  73.0454162  66.1766906  72.0448460  72.5836457  66.4330104  72.9983487
  72.3489554  65.5834805  71.4522717  74.2897456  65.3851200  72.2909074
  74.9051387  65.4008887  71.3913834  74.8412069  65.8364055  73.1157310
  73.9438488  63.9567339  72.6388492  73.4486794  63.4960432  71.7840566
  74.8637226  63.4155408  72.8603026  73.0608234  63.8677820  73.7931940
  72.0766886  64.0025893  73.6104236  73.4498069  63.6192493  75.0528599
  74.7368934  63.4540801  75.3717776  75.4439899  63.5159329  74.6532451
  74.9967454  63.2681389  76.3299020  72.5389757  63.5400499  76.0147425
  71.5619435  63.6670584  75.7925331  72.8269886  63.3531312  76.9645891
  71.7553367  68.0368144  71.1122664  70.8903185  67.3240094  70.6091080
  71.4946458  69.2670410  71.5525943  72.2437260  69.8153600  71.9504943
  70.1618157  69.8664873  71.4745355  69.4673869  69.1250704  71.0793534
  69.5658436  70.4517428  72.8183897  68.7538138  71.1291431  72.5541237
  69.0477163  69.3855681  73.7433354  69.8593411  68.7080065  74.0084298
  68.6520079  69.8488473  74.6471531  68.2556531  68.8258329  73.2459091
  70.5310024  71.2336922  73.5125978  70.1438139  71.5754594  74.3218447
  70.1573906  71.0173675  70.5265054  71.0734373  71.8846663  70.5442014
  69.1156839  71.0167943  69.7063341  68.4505981  70.2599434  69.7765984
  68.8643797  72.0635904  68.7386254  69.5831518  72.8698194  68.8851201
  68.9939189  71.5552233  67.3325015  68.6984735  72.3722376  66.6742470
  70.0013473  71.2281603  67.0751732  68.1019393  70.4353880  67.0355867
  68.2508440  69.2329923  67.7050386  68.9214096  69.1729612  68.5622655
  67.5684141  68.1339649  67.3000778  67.7228264  67.1721912  67.7892086
  66.6748197  68.2410968  66.2620457  66.1318010  67.3579786  65.9253962
  66.4634773  69.4543010  65.6480620  65.7245366  69.5448930  64.8519089
  67.1806647  70.5432073  66.0379073  67.0187216  71.5051356  65.5515243
  67.4395064  72.5335740  68.9429324  66.7097288  71.9256377  69.7113959
  67.0620943  73.5759547  68.2227500  67.6435650  73.8787359  67.4544306
  65.8515797  74.3169542  68.4998694  65.3788934  73.9993744  69.4292831
  66.2261810  75.7676320  68.6227069  66.6925124  76.1027105  67.6962311
  65.3310324  76.3597027  68.8131315  66.9269993  75.8938312  69.4479502
  64.8139307  74.1171897  67.3597007  65.1445369  74.1848747  66.1572950
  63.5724866  73.8512638  67.7546561  63.3464482  73.7867616  68.7369216
  62.5160494  73.6764011  66.8011125  62.8215187  73.7299575  65.7561630
  61.9306279  72.3361762  67.0561321  61.5634593  72.2865789  68.0812304
  60.7886608  72.1030161  66.1024049  61.1551651  72.1520073  65.0770389
  60.3559062  71.1196748  66.2864262  60.0272123  72.8683743  66.2524874
  63.0343711  71.2876307  66.9441803  63.8111230  71.4970413  67.6796433
  62.6164184  70.2981710  67.1296117  63.4648218  71.3179050  65.9432325
  61.4874425  74.7493601  67.0348899  61.0940615  74.9880013  68.1887195
  60.9995924  75.3740856  65.9549833  61.3006829  75.0979993  65.0312841
  60.1733912  76.5694574  66.0846404  60.0922499  76.8418958  67.1369201
  60.7862612  77.7600585  65.3119015  60.7512034  77.4341570  64.2723542
  60.1472732  78.6337838  65.4399580  62.2589015  78.1306107  65.6928942
  62.8962485  77.2829685  65.4411161  62.7499230  79.3663395  64.9630323
  62.1133031  80.2145625  65.2146901  63.7759177  79.5815865  65.2615358
  62.7138951  79.1921221  63.8876484  62.5081021  78.3450465  67.1745667
  62.2669173  77.4326007  67.7198849  63.5564736  78.5969268  67.3344881
  61.8801425  79.1598360  67.5349607  58.7002441  76.3181530  65.7281566
  58.3977672  75.6958265  64.7518946  57.8251816  76.8954520  66.5293266
  58.1363991  77.2037304  67.4393856  56.4455185  77.0821158  66.1830675
  56.0428690  76.2492425  65.6066175  55.6300002  77.2395027  67.4311674
  56.0154644  78.0756031  68.0146513  54.5906219  77.4315335  67.1648644
  55.6901442  76.3259642  68.0227156  56.3511499  78.3477662  65.2789123
  56.8596048  79.4441885  65.6018005  55.8488714  78.1301522  64.0916926
  55.7170475  77.1839560  63.7639205  55.4369077  79.2165611  63.2323459
  55.7331244  80.1788403  63.6499266  56.1309322  79.0368448  61.8703353
  56.0216310  78.0302952  61.4665898  55.5150710  79.7276159  61.2944445
  57.5897699  79.4632266  61.7815594  58.6322119  78.5669153  62.0522968
  58.3967829  77.5618473  62.4023124  59.9498573  78.9475774  61.8791204
  60.7652729  78.2577543  62.0967058  60.2281814  80.2259192  61.3932379
  61.5135570  80.6648123  61.2653806  62.1618517  80.0119544  61.5394064
  59.2169634  81.0931949  61.0522511  59.4412259  82.0805484  60.6485931
  57.9124470  80.7026533  61.2255811  57.1006980  81.3658015  60.9265858
  53.8996115  79.0810353  63.0778750  53.4355152  78.0528821  62.5538583
  53.1151912  80.1379541  63.3871153  53.3599202  80.7671037  64.1383662
  51.8415909  80.3880258  62.6371470  51.2300901  79.4864476  62.6735166
  51.0266851  81.5620633  63.2282185  50.4052872  81.1828111  64.0394717
  51.7198666  82.3065775  63.6197516  50.1880653  82.1678939  62.2236887
  49.6935202  82.8922137  62.6140548  52.2912742  80.6883043  61.1716161
  53.1551836  81.5249428  60.9915784  51.7034273  80.0887749  60.1553634
  50.9331932  79.4451475  60.2675347  52.2063500  80.3355864  58.8120653
  53.2346713  79.9831814  58.7316584  51.3666391  79.6263597  57.7630711
  51.3966504  78.5510770  57.9390420  50.3359379  79.9755184  57.8250656
  51.8909547  79.9046545  56.3615963  52.8739016  80.6232467  56.1946180
  51.2310731  79.3324877  55.3519402  51.5375747  79.4846883  54.4016816
  50.4283563  78.7500295  55.5429613  52.2084147  81.8076859  58.5489915
  52.9787072  82.3113846  57.7561952  51.3330396  82.5088583  59.2260112
  50.6935055  82.0687620  59.8720846  51.2566624  83.9383848  59.0557190
  51.0769681  84.1668123  58.0051810  50.1076528  84.5284889  59.8904759
  49.1639886  84.0812973  59.5780390  50.3468218  84.2304953  61.3668302
  51.2901481  84.6777940  61.6801358  49.5327185  84.6485280  61.9589323
  50.3887911  83.1518661  61.5181554  50.0490849  86.0376847  59.6794730
  49.8781705  86.2511935  58.6243406  49.2348656  86.4564372  60.2709060
  50.9923002  86.4856634  59.9921401  52.5497422  84.6191580  59.4841562
  52.8586476  85.7151043  59.0341293  53.3114583  83.9789001  60.3556086
  53.0441155  83.0774427  60.7243927  54.5060397  84.6146039  60.8876209
  54.1467574  85.5109349  61.3931959  55.1824761  83.7127427  61.9159716
  54.4616235  83.4320647  62.6838848  55.5556027  82.8149898  61.4231062
  56.3458048  84.4595006  62.5598997  57.0673481  84.7401223  61.7926139
  55.9733701  85.3571959  63.0533950  57.0484773  83.5918506  63.5942688
  56.6592486  82.4475154  63.8166146  58.0878315  84.1401991  64.2277357
  58.5894550  83.6073171  64.9238046  58.3677808  85.0854263  64.0080189
  55.5101174  85.0455668  59.8478570  56.0776010  86.1272820  59.9672155
  55.7394425  84.2332239  58.8305305  55.2953624  83.3299600  58.7468265
  56.6956275  84.6282645  57.8095514  56.8815359  83.7930987  57.1342474
  56.1765359  85.8084272  56.9939750  55.2467476  85.5278398  56.4991378
  55.9943070  86.6555784  57.6552067  57.2029909  86.1927470  55.9553275
  58.1329746  86.4739228  56.4494644  57.3854140  85.3461860  55.2933943
  56.6834191  87.3740068  55.1389954  56.9581991  88.5296971  55.5590874
  56.0167003  87.1093978  54.1031054  58.0148453  84.9890003  58.4657426
  58.5937510  86.0325506  58.1816932  58.4545759  84.1134337  59.3606918
  57.8010000  83.3993307  59.6487799  59.7245250  84.2224166  60.0796369
  59.9421008  83.1615743  60.2036266  60.7872240  84.8338117  59.1891471
  60.7720331  84.3439474  58.2155448  60.5880675  85.8980122  59.0629962
  62.1578031  84.6460811  59.8309373  62.1739103  85.1361048  60.8044454
  62.3578782  83.5820407  59.9569923  63.2273119  85.2613954  58.9347430
  63.2121207  84.7715331  57.9611398  63.0281555  86.3255958  58.8085943
  64.5738125  85.0978983  59.5268631  64.6554793  84.6234039  60.4147172
  65.6812164  85.5472579  58.9432254  65.6543719  86.1814276  57.7744617
  64.7726726  86.3327228  57.3056162  66.5158084  86.5088039  57.3611199
  66.8400479  85.3458753  59.5640762  66.8569304  84.8639366  60.4515164
  67.6978546  85.6758108  59.1452578  59.7810550  84.8724679  61.4458878
  60.8187211  84.7963253  62.0912725  58.7046236  85.4865008  61.9067547
  57.8476318  85.5581550  61.3771038  58.7411845  86.0620107  63.2322771
  59.7145659  86.4300484  63.5565859  57.7268145  87.1813474  63.3767718
  58.0230299  88.0237456  62.7516950  56.7451092  86.8252982  63.0643880
  57.6661793  87.6224667  64.8196292  57.3695585  86.7806578  65.4453086
  58.6474777  87.9791071  65.1326153  56.6454429  88.7488249  64.9650315
  55.4557263  88.4189795  65.2167813  57.0651684  89.9283365  64.8229649
  58.3871673  84.8987560  64.1200831  57.3055887  84.8457467  64.6688259
  59.2882275  83.9405086  64.2496926  60.1855270  83.9809318  63.7878281
  58.9917117  82.7665261  65.1119741  57.9759173  82.3958628  64.9746068
  59.9561155  81.6341905  64.8606927  60.9773225  81.9875879  65.0033338
  59.7526986  80.8214946  65.5580070  59.8361950  81.2741005  63.8389033
  59.1308509  83.2301932  66.5499859  60.0594424  84.0032118  66.8529676
  58.1884157  82.8397319  67.4130189  57.4644644  82.1944298  67.1309214
  58.0550810  83.5162422  68.7281294  58.9609971  84.0892215  68.9258920
  56.8283013  84.4896464  68.7684376  55.9638036  83.9344733  68.4043968
  56.6695270  84.7656538  69.8108918  57.0153280  85.7787693  67.9127774
  58.0802742  85.9528987  67.7589292  56.5446345  85.5430534  66.9583206
  56.3770929  87.0758657  68.4729631  56.7614367  88.1810194  68.0719492
  55.3714750  86.9373995  69.3433037  54.9278083  87.7571443  69.7322507
  55.0601459  86.0136980  69.6077865  58.1053038  82.5478103  69.8923104
  58.6583804  82.8785887  70.9434626  57.7615951  81.2917323  69.6391556
  57.3346719  81.0698518  68.7511213  57.9291149  80.1985902  70.6337200
  58.6849940  80.4982092  71.3596501  56.5928951  79.8703513  71.4039522
  55.8979213  79.2813245  70.8054892  56.8739304  79.3064511  72.2934104
  55.8160724  81.1046406  71.8926695  55.0475957  81.8833888  71.0080748
  55.0020886  81.5939867  69.9581817  54.3478890  83.0136251  71.4548147
  53.7928177  83.6268682  70.7449349  54.3621313  83.3499845  72.7954688
  53.8209119  84.2272842  73.1497665  55.0715558  82.5625978  73.6927608
  55.0683708  82.8193008  74.7520972  55.7886635  81.4440252  73.2445500
  56.3351524  80.8257773  73.9567433  58.4460161  78.9337739  69.9363262
  58.4422050  78.8239806  68.7024802  58.8847681  77.9761779  70.7430359
  58.8761638  78.1244132  71.7420612  59.3909601  76.6873629  70.2310588
  58.6129150  76.2670380  69.5938211  60.2738878  76.9049935  69.6300805
  59.7547831  75.6799619  71.2894789  59.4558674  75.8795781  72.4512047
  60.5630621  74.7095427  70.9238596  61.0157114  74.7439034  70.0216250
  60.8323243  73.5459258  71.8011006  60.7865472  73.7558566  72.8697131
  59.7776508  72.5094962  71.4652860  60.0712759  71.9811307  70.5582500
  59.6379583  71.5173724  72.6056375  59.3438796  72.0449747  73.5129704
  58.8779492  70.7778464  72.3534734  60.5915966  71.0158737  72.7704817
  58.5325472  73.1994570  71.1691763  57.8534063  72.5559148  70.9541847
  62.2538200  72.9895228  71.5419004  62.6710390  72.8142447  70.3947687
  63.0006360  72.7339939  72.6187196  62.6995211  73.0345812  73.5347308
  64.2987292  72.0953842  72.4960584  64.8354187  72.5146360  71.6450052
  65.1837475  72.2558769  73.7722072  66.1487429  71.7789245  73.6007415
  65.3946760  73.7279774  74.0805044  64.4300855  74.2055367  74.2525566
  66.0132409  73.8279414  74.9724033  65.8922975  74.2084739  73.2381288
  64.5880528  71.6124485  74.9113230  65.1548372  71.7289667  75.6773381
  64.0757518  70.6324249  72.1584992  63.1939179  69.9801646  72.7217111
  64.8514526  70.1252445  71.2029024  65.4297288  70.7336104  70.6411313
  64.8994041  68.7173191  70.9478286  64.2809419  68.1373140  71.6328087
  64.4375405  68.4562918  69.5491121  65.0532839  69.0232044  68.8508497
  64.5257308  67.3923121  69.3294077  63.3965991  68.7628953  69.4464749
  66.3208087  68.2526781  71.1099236  67.2593534  68.8825484  70.6328312
  66.4815658  67.1349145  71.7762259  65.6491228  66.5855837  71.9355166
  67.7681774  66.5890721  72.2145783  68.5678882  67.3223298  72.1101993
  67.6268867  66.2308413  73.6837810  67.3046725  67.1524500  74.1684608
  66.8184290  65.5005944  73.7189336  68.8369779  65.6783064  74.4052251
  69.2879365  64.7467368  74.0632963  69.5302730  66.5016062  74.2331248
  68.5328513  65.5779251  75.8764462  68.8609180  66.5367428  76.6276930
  67.7604666  64.6608569  76.2240736  68.0123295  65.3144694  71.4667049
  67.1390072  64.4457584  71.4823050  69.1781597  65.1750995  70.8154492
  69.8146899  65.9501932  70.6964604  69.4261453  63.9673867  70.0708998
  68.4588739  63.6053651  69.7224379  70.3457061  64.1498073  68.8954426
  71.3805340  64.1893735  69.2355399  70.1653218  62.9586035  67.9438771
  69.1307749  62.9186524  67.6029708  70.8260976  63.0757382  67.0849501
  70.4108392  62.0344806  68.4671527  69.9871314  65.4546576  68.1672064
  69.3489653  65.1875701  67.3248829  69.4234689  66.0696682  68.8687375
  71.1830693  66.2300491  67.6664634  71.7470068  65.6158096  66.9644775
  70.8448065  67.1366831  67.1647739  71.8215119  66.4979058  68.5083326
  69.8236363  62.8058859  70.9766873  70.7582460  62.8921302  71.7673848
  69.0689664  61.7114408  70.8690855  68.2660007  61.7185215  70.2564719
  69.3426713  60.4922526  71.6464861  70.1114144  60.6985484  72.3911842
  68.0838786  60.0094123  72.3651099  68.2679197  59.3032317  73.1747624
  67.8085138  60.9774707  72.7836039  66.9365918  59.4879598  71.4806449
  66.8698958  58.1588284  71.1127506  67.6854122  57.4974503  71.4053449
  65.8035841  57.6619952  70.3915826  65.7942375  56.6219786  70.0654232
  64.7245196  58.4786082  70.1236722  63.6444252  58.0052362  69.3813003
  63.7518656  57.0928684  69.1026587  64.7322253  59.7899488  70.5547934
  63.8820483  60.4414791  70.3527838  65.8206325  60.2731154  71.2427045
  65.8188608  61.2973115  71.6156916  69.8734000  59.3320286  70.8175732
  70.2337167  58.2862847  71.3700373  69.8412436  59.4848974  69.5064797
  69.4721621  60.3306410  69.0958756  70.3273603  58.4493575  68.6224883
  71.1556905  57.8811599  69.0457137  69.2184883  57.4948531  68.2733777
  68.3852560  58.0479867  67.8399412  69.5821381  56.7627150  67.5523833
  68.8833853  56.9811947  69.1744661  70.8377050  59.1342982  67.3902430
  70.3206433  60.1716102  67.0173477  71.8560209  58.5755879  66.7573761
  72.3032850  57.7363189  67.0974964  72.3865324  59.2001790  65.5706965
  71.5932855  59.5943324  64.9354788  73.2520445  60.3507777  66.0329838
  72.5957994  61.1700768  66.3265663  73.7436702  59.9450389  66.9171672
  74.2851237  60.8578187  65.0768443  74.0305740  60.9658695  63.7333848
  73.0589615  60.6518131  63.3520224  74.9800784  61.4617938  62.8710998
  74.7691984  61.5355717  61.8042407  76.1869112  61.8704466  63.3575188
  77.1485589  62.3582646  62.5113839  76.8693202  62.3696520  61.5929637
  76.4544805  61.7902883  64.6920623  77.4181466  62.1159158  65.0837445
  75.5019315  61.2962973  65.5418177  75.7006696  61.2444017  66.6122896
  73.1626728  58.2212214  64.7340622  73.7672954  57.3057230  65.2622621
  73.1392359  58.4109154  63.4251753  72.6025947  59.1705959  63.0314734
  73.8802531  57.5588158  62.5263044  74.7643946  57.1698375  63.0313676
  73.0322167  56.3988925  62.0798807  72.1760291  56.3341563  62.7513353
  72.6849482  56.6097828  61.0684313  73.7784099  55.0918035  62.0914574
  74.6663792  55.2000504  62.7142686  73.1315895  54.3220791  62.5124680
  74.1883398  54.6954105  60.6983256  74.5053057  55.5780383  60.1428081
  75.0109122  53.9818113  60.7457632  73.0772555  54.0784488  59.9967168
  72.7232225  54.5393527  59.1706856  72.5012150  52.9533223  60.3877573
  71.4946663  52.4499814  59.6931233  71.1682873  52.9269295  58.8648134
  71.0569899  51.5909572  59.9941489  72.9283144  52.3376615  61.4816700
  73.6924541  52.7303149  62.0127197  72.4875416  51.4788792  61.7788416
  74.2503814  58.4045320  61.3479907  73.4586688  59.2159567  60.9180710
  75.4449932  58.2064144  60.8120447  76.0565734  57.5037135  61.2022759
  75.9263175  58.9904699  59.6722983  75.1214017  59.6090628  59.2753693
  77.1055838  59.9086862  60.0687778  76.7775470  60.6123563  60.8338526
  77.9230330  59.3027924  60.4596352  77.5802744  60.6708249  58.8547293
  77.9089278  59.9677838  58.0893398  76.7634434  61.2773491  58.4635583
  78.7448372  61.5775894  59.2462636  79.9054058  61.0949481  59.1582893
  78.4627546  62.7442465  59.6295921  76.3762022  58.0435917  58.5712001
  77.4886154  57.5974500  58.6000544  75.5142567  57.7903359  57.5918200
  74.5409133  58.0319991  57.7114069  75.8741732  56.9468025  56.4919766
  76.8485165  56.5033459  56.6971608  74.8686859  55.8252263  56.2539004
  75.4275359  55.0705258  55.7005352  74.6390311  55.4483906  57.2505716
  73.5757839  56.1363446  55.5203564  73.0505364  56.7877842  56.2188135
  73.7166862  56.6579028  54.5736660  72.7471195  54.8637465  55.2852857
  72.1778344  54.3338550  56.3005431  72.7842739  54.3339121  54.1252801
  76.2713271  57.7228484  55.2542854  75.6289586  58.7071110  54.8166600
  77.3583510  57.2573991  54.6624501  78.0506768  56.7402801  55.1853001
  77.6672985  57.6242366  53.2508852  76.8134402  58.1551729  52.8300148
  78.9149521  58.5275190  53.1373674  79.2237022  58.4740306  52.0933791
  78.5698409  59.5366553  53.3624059  80.1067150  58.1809121  54.0416522
  79.7845233  57.5231040  54.8488585  80.8442164  57.6656882  53.4262352
  80.7592504  59.4177028  54.6516755  81.2694530  60.2649266  53.9343031
  80.7114753  59.5357115  55.9794542  81.1303353  60.3381803  56.4274514
  80.2566577  58.8220591  56.5307642  77.7638804  56.3997356  52.3497087
  78.6772752  56.2888826  51.5420810  76.7292732  55.5799302  52.3632024
  75.9301309  55.7885905  52.9445215  76.7296051  54.3294260  51.6101366
  77.7380667  53.9176717  51.5706057  75.8161623  53.3150970  52.2834264
  74.8688354  53.8298927  52.4436022  75.6556926  52.4530600  51.6359375
  76.3581021  52.8594781  53.5881002  77.1082700  53.6697535  54.2267870
  76.0830605  51.6815715  53.9383988  76.3177117  54.5656481  50.1823856
  77.1133319  54.3354587  49.2399471  75.0856608  55.0693812  50.0345016
  74.4906698  55.1898412  50.8417032  74.5333943  55.3859115  48.7067256
  74.4397471  54.4595530  48.1399899  73.1644962  56.0555131  48.7759532
  73.0288216  57.0734925  49.1412060  72.9206649  56.0154445  47.7143314
  72.1632466  55.2195967  49.4716916  71.6346284  54.0953888  48.8184408
  71.8850653  53.9171676  47.7726787  70.7893589  53.2033728  49.5005023
  70.3364799  52.3692006  48.9646311  70.5282766  53.3838447  50.8648512
  69.8626456  52.6980543  51.3889951  71.1241541  54.4479183  51.5561683
  70.9329790  54.5862336  52.6203211  71.9720141  55.3395900  50.8714290
  72.4873283  56.1296808  51.4176044  75.5639429  56.2450470  48.0352245
  75.8033875  56.0417646  46.8642392  76.2699229  57.0960185  48.7988323
  76.1776384  57.0855793  49.8045529  77.2001856  58.0701474  48.1906735
  78.0600280  58.1835972  48.8509003  77.5304032  57.6769278  47.2291985
  76.5515475  59.4482880  47.9719358  76.8221554  60.1808037  46.9968322
  75.7080196  59.8282209  48.8973241  75.0192413  59.1962471  49.2798066
  75.7497371  61.1744038  49.3979450  76.6931664  61.6474527  49.1254286
  74.5712004  62.0615838  48.9227894  74.9032084  62.6621853  48.0759429
  73.3804231  61.2052375  48.5027388  73.0475371  60.6046532  49.3492529
  72.5662165  61.8507409  48.1733547  73.6755749  60.5476454  47.6850854
  74.1832469  63.0716605  50.0387024  73.8374713  62.4813204  50.8872532
  75.0965095  63.6000120  50.3123732  73.1084568  64.0820793  49.6510502
  72.1946846  63.5544540  49.3776790  72.9077873  64.7417475  50.4952474
  73.4537222  64.6731444  48.8027969  75.6938685  60.8681147  50.8714048
  75.2667036  59.7641221  51.2767780  76.2940557  61.7380439  51.6691520
  76.7772024  62.5347689  51.2794113  76.3236457  61.5475806  53.1446659
  76.4873707  60.4875349  53.3385639  77.4126062  62.3555439  53.8753760
  77.0740519  62.4309549  54.9087169  78.3102655  61.7387724  53.8317797
  77.7300642  63.7619827  53.3358212  78.1225981  63.6142980  52.3297362
  76.8044179  64.3351772  53.2836069  78.7635849  64.5314791  54.1825303
  78.7118246  65.8014957  54.1678419  79.6424103  63.8731929  54.8286442
  74.9657588  61.9271093  53.6539428  74.3114043  62.8370429  53.0929135
  74.4589727  61.0955794  54.5286970  75.0298401  60.3583770  54.9169526
  73.0623986  61.2159649  54.9905488  72.5670862  62.1585022  54.7573355
  72.2670183  60.0420966  54.3548716  72.9813293  59.2714987  54.0649768
  71.2443002  59.4511140  55.3023251  70.5293234  60.2210572  55.5923190
  70.7179389  58.6353292  54.8068056  71.7483964  59.0709387  56.1908367
  71.6319049  60.4688297  53.0235280  72.4147254  60.9690968  52.4534177
  71.3400892  59.5517446  52.5117684  70.4228811  61.3904436  53.1433125
  70.7140470  62.3080028  53.6545927  70.0497700  61.6323647  52.1481435
  69.6394112  60.8906510  53.7129458  73.1769448  61.0889715  56.4963944
  73.9626036  60.2787764  56.9759411  72.4460327  61.9200508  57.2434330
  71.9132423  62.6622359  56.8128578  72.4366390  61.8181348  58.6709714
  73.0144899  60.9429904  58.9681412  73.0342889  63.0546705  59.3530329
  72.3879370  63.9163128  59.1859968  73.1458027  62.7929792  60.8202355
  73.7924205  61.9316958  60.9880967  73.5700182  63.6669591  61.3145035
  72.1564137  62.5891499  61.2297041  74.4096365  63.3936786  58.8149451
  74.3425435  63.5952766  57.7458526  74.7934196  64.2759815  59.3271480
  75.0837023  62.5539851  58.9842113  71.0050554  61.6015052  59.1463933
  70.1045417  62.4061099  58.8600592  70.7985552  60.4716145  59.8316689
  71.5477914  59.8015931  59.9307442  69.5184631  60.1574975  60.4172522
  68.7876261  60.8830236  60.0600572  69.0290340  58.7632522  60.0674104
  69.3618572  58.1125727  60.8760786  67.9402371  58.8144512  60.0676865
  69.4990422  58.2166407  58.7662732  68.8235260  58.5278156  57.9694364
  70.5036976  58.5820571  58.5535750  69.5191226  56.7074914  58.8486514
  70.4104317  56.4087222  59.4003796  68.6309720  56.3845767  59.3918034
  69.5346224  56.0567287  57.4647877  70.0785036  56.7241967  56.7963714
  70.0740027  55.1137168  57.5536502  68.1698943  55.7996491  56.9099533
  67.6700793  56.6733909  56.8271280  68.2520447  55.3711051  55.9990738
  67.6659069  55.1808366  57.5289580  69.6487114  60.2881813  61.9398874
  70.5901526  59.7760576  62.5400254  68.7287257  61.0306895  62.5393105
  68.1263244  61.6207438  61.9833897  68.7140813  61.1943500  63.9649682
  69.2182017  60.3437765  64.4237562  69.4221113  62.4950141  64.4217969
  69.6838730  62.4079989  65.4763150  70.6569675  62.7159108  63.6210842
  70.3959405  62.8034933  62.5664301  71.1455809  63.6326137  63.9512555
  71.3350995  61.8736416  63.7582751  68.5458082  63.7146611  64.2627370
  67.6433885  63.5950026  64.8622556  69.0887203  64.5988353  64.5967759
  68.2719388  63.8316794  63.2142128  67.3226448  60.9980169  64.5602661
  66.3028593  61.1420135  63.8928333  67.3139030  60.6057486  65.8244853
  68.1863753  60.3369473  66.2565007  66.1043975  60.5524536  66.6251858
  65.2352966  60.8090744  66.0194560  65.9223037  59.1412560  67.1633568
  66.7461992  58.9536422  67.8519034  64.9806532  59.1281800  67.7121951
  65.9005159  58.0791930  66.1118523  65.0873890  58.2784813  65.4138482
  66.8489513  58.0831125  65.5746774  65.6929093  56.7342657  66.7520054
  66.4442836  56.5607338  67.5223445  64.6987247  56.6742970  67.1948374
  65.8268478  55.6882641  65.6754339  65.2572224  56.0378210  64.8143662
  66.8830735  55.6304018  65.4124922  65.3460895  54.3532031  66.0728612
  64.3672766  54.4065162  66.3161361  65.4674208  53.7091626  65.3043623
  65.8740767  54.0289301  66.8704673  66.2375359  61.5234585  67.7837905
  67.0013340  61.2745422  68.6808825  65.4858282  62.6180881  67.7422875
  64.9500501  62.8259392  66.9117220  65.4455192  63.5658074  68.8432745
  66.2814578  63.3541408  69.5099852  65.5942586  64.9621108  68.3165769
  64.7595653  65.1920368  67.6543676  65.6017247  65.6660271  69.1487706
  66.5297418  65.0445403  67.7632455  64.1682481  63.4605740  69.6541835
  63.1920419  62.9198330  69.1946166  64.1903543  63.9939425  70.8654598
  65.0548056  64.3862064  71.2103547  63.0286050  64.0167339  71.7358109
  62.1122217  63.7756664  71.1970836  63.2302946  63.0078072  72.8825568
  63.4702900  62.0366170  72.4497840  64.3440132  63.4354626  73.8063575
  64.1045030  64.4064284  74.2399022  64.4582029  62.7005400  74.6031951
  65.2750273  63.5087985  73.2442776  61.9535806  62.8102998  73.6808483
  62.0175808  63.4334325  74.5728743  61.1190317  63.1440747  73.0642269
  61.7333265  61.3566194  74.0908475  62.5673048  61.0222566  74.7079224
  60.8064084  61.2751325  74.6585464  61.6687581  60.7328982  73.1992744
  62.8468219  65.4288675  72.2813644  63.7949703  66.0345743  72.7487549
  61.6422212  65.9721556  72.1620444  60.8940378  65.4604438  71.7165422
  61.3593804  67.3154377  72.6657430  62.0220825  68.0145161  72.1556307
  60.3238090  67.5558661  72.4251490  61.5629603  67.4478984  74.1739457
  61.0853832  66.6007747  74.9605825  62.2588626  68.5127286  74.5806516
  62.5921400  69.1924294  73.9120469  62.6208188  68.6847453  75.9748267
  62.2481606  67.8289531  76.5377163  64.1233519  68.7916258  76.1904694
  64.4880252  69.5216627  75.4678638  64.2638714  69.1786794  77.1996987
  64.8992302  67.4916035  76.0334286  64.4951777  66.9936033  75.1520443
  65.9368986  67.7698322  75.8492142  64.8315181  66.5483387  77.2236859
  65.8399211  66.2288437  77.4866408  64.3837635  67.0693899  78.0699252
  64.0198599  65.3520527  76.9213156  63.1314652  65.5239840  76.4726576
  64.3705669  64.0833220  77.1820837  65.5409621  63.7862468  77.7538628
  66.1823612  64.5270296  77.9987056  65.7789864  62.8222453  77.9386469
  63.5286758  63.0999238  76.8742569  62.6382030  63.3160471  76.4494639
  63.7839916  62.1418872  77.0668145  61.9694637  69.8909710  76.6422988
  61.2220238  69.7340862  77.5933539  62.2806775  71.0892099  76.1877018
  62.8951797  71.2048443  75.3945340  61.7995175  72.3006849  76.8835835
  61.0288659  72.0374708  77.6080927  62.9349962  72.9500202  77.6083626
  63.5071594  73.5434751  76.8952429  62.5258361  73.6037321  78.3786540
  63.8342289  71.9286025  78.2447247  63.3119519  71.1026063  78.7274853
  64.4475517  71.5434631  77.4301053  64.7185236  72.5728185  79.2376575
  65.3229069  73.5829257  78.9347547  64.7169328  72.0735839  80.4650382
  65.3068062  72.4841481  81.1746775  64.1258530  71.2847828  80.6853083
  61.1283852  73.3072349  75.9764851  61.4812985  73.4771502  74.8138832
  60.2053026  74.0486634  76.5368282  59.8694427  73.8353943  77.4651674
  59.5892535  75.1528908  75.8172157  59.6217540  74.9613358  74.7446721
  58.1449891  75.3101522  76.2364082  58.1456573  75.6142630  77.2831247
  57.7187324  76.1072491  75.6272761  57.3100157  74.0474338  76.0757458
  57.3021133  73.7600322  75.0243473  57.7588216  73.2490620  76.6667429
  55.8838422  74.2857147  76.5464606  55.5690974  75.2833117  76.2401358
  55.2290621  73.5428373  76.0909439  55.7684845  74.1842730  77.9927978
  55.5798922  73.2627050  78.3605543  55.8748309  75.2011990  78.8484694
  56.1089854  76.4395287  78.4575715  56.2147541  76.6439419  77.4741447
  56.1813652  77.1772454  79.1435999  55.7593851  74.9585425  80.1257877
  55.5930219  74.0146520  80.4443692  55.8369572  75.7158053  80.7895907
  60.3677325  76.4386700  76.0464826  60.7751867  76.7412769  77.1597998
  60.4880637  77.2195243  74.9903709  60.2144888  76.8915240  74.0751267
  61.1060579  78.5144851  75.0942052  61.0889760  78.8377657  76.1350208
  62.5644438  78.4870687  74.6126038  63.0234917  79.4756403  74.6226189
  63.1130740  77.8254787  75.2829796  62.7540750  77.9253987  73.1833338
  62.5359957  78.7241704  72.0492460  62.2324145  79.7635510  72.1742514
  62.7034432  78.2018579  70.7831595  62.5555728  78.8360166  69.9090440
  63.0592607  76.8724253  70.6223743  63.0976780  76.4465327  69.6197579
  63.3623988  76.0916795  71.7131947  63.7142696  75.0686749  71.5799699
  63.2181677  76.6125392  72.9847487  63.4655437  76.0037300  73.8543786
  60.3646046  79.6266965  74.3766079  59.5737386  79.3718654  73.4702977
  60.7314556  80.8510489  74.7451053  61.3700138  80.9269955  75.5239345
  60.3163171  82.0686784  74.0749386  59.4249248  81.8860309  73.4748063
  59.9947566  83.1274593  75.1095260  59.7459012  82.5878996  76.0233342
  60.9164618  83.6896086  75.2596852  58.8517895  84.0996971  74.7601637
  59.2359741  84.8548233  74.0743886  58.0553617  83.5379301  74.2720832
  58.2913030  84.7931408  76.0321981  57.9299946  84.0110141  76.6999054
  59.1166884  85.3232081  76.5074528  57.1562436  85.7764358  75.7376100
  56.3122867  85.2150096  75.3368134  56.8638082  86.2521742  76.6736942
  57.5715815  86.8295259  74.7492676  57.8421878  86.3889321  73.8816565
  56.7983591  87.4572263  74.5812813  58.3533272  87.3501513  75.1206462
  61.4793739  82.5609191  73.2378485  62.6261596  82.6027126  73.6849657
  61.1763051  82.9419584  72.0050467  60.2377361  82.8069500  71.6572532
  62.1664291  83.5519383  71.1136175  63.1450237  83.0772282  71.1850466
  61.7136466  83.5164285  69.6614560  60.6695794  83.8249519  69.6082005
  62.5676156  84.4584642  68.8099739  63.6118262  84.1502752  68.8623645
  62.2295020  84.4200374  67.7744532  62.4706627  85.4770437  69.1857365
  61.7548611  82.0702330  69.1680294  61.0892441  81.4588020  69.7772981
  61.4322684  82.0314431  68.1275829  62.7725024  81.6877515  69.2468640
  62.3880186  84.9980959  71.5177182  61.4611642  85.7570942  71.6819173
  63.6391871  85.3642005  71.6630068  64.3705633  84.6693350  71.6145284
  64.0210745  86.7581094  71.8801058  63.1994177  87.3505157  72.2826405
  65.1237311  86.7244717  72.8876155  65.9949108  86.2451393  72.4410893
  65.4045383  87.7073446  73.2660442  64.6052493  85.8665929  74.0371313
  63.9329274  85.1233439  73.6085696  65.6956492  85.1682898  74.8191198
  66.3681497  85.9109613  75.2483992  65.2487013  84.5780925  75.6191232
  66.2569470  84.5119094  74.1541311  63.7886595  86.7488652  74.9508810
  62.9536391  87.1748253  74.3946451  63.4063446  86.1566726  75.7822922
  64.4157054  87.5528674  75.3362287  64.5114137  87.3700326  70.5650763
  63.8278142  88.1995891  69.9446394  65.6546563  86.8610160  70.0739304
  66.1364887  86.1616204  70.6205405  66.2017523  87.2175799  68.7719499
  65.5265172  87.8864184  68.2382722  67.5087177  87.9240528  68.9830953
  67.7638137  87.8140423  70.0370986  68.2515757  87.4086535  68.3743049
  67.4906070  89.3651521  68.6264429  67.1559316  89.4519620  67.5927325
  66.8068467  89.9113326  69.2762566  68.8536231  89.9344727  68.7537219
  69.7717183  89.1638932  69.1527689  68.9895655  91.1442005  68.4854711
  66.5271173  85.9975440  67.8865013  66.8924024  84.9387297  68.3845826
  66.5952380  86.2478110  66.5930454  66.3204420  87.1628264  66.2654278
  67.0744052  85.2732608  65.6100945  67.4153541  84.3615916  66.1007191
  65.9256207  84.9256580  64.6880124  65.3640215  85.8544062  64.5873534
  66.3573927  84.6564619  63.7240588  65.0012085  83.8271441  65.1486579
  64.7281505  83.9937457  66.1906675  63.7462726  83.8291546  64.2895555
  64.0185030  83.6621365  63.2473970  63.0769020  83.0354668  64.6213741
  63.2427035  84.7913046  64.3832884  65.7066973  82.4874043  65.0615731
  66.5926476  82.5007750  65.6964060  65.0326069  81.6988080  65.3959671
  66.0025892  82.2983986  64.0296701  68.2116532  85.8334899  64.7504997
  67.9875228  86.6991081  63.8756896  69.4084863  85.2825338  64.9428325
  69.5259129  84.5968044  65.6750111  70.5940389  85.6305972  64.1008551
  70.4341755  86.5715589  63.5744199  71.8184091  85.7863221  65.0292345
  72.2201112  84.7858321  65.1897167  72.5485415  86.3879075  64.4878458
  71.5216977  86.4393134  66.3808949  72.2641640  87.2202097  66.5453501
  70.5297637  86.8877243  66.3252464  71.5657069  85.4436886  67.5380801
  70.8685628  85.7686580  68.3104038  71.2681020  84.4615932  67.1706303
  72.9053341  85.3388910  68.1278551  73.4176996  84.4891854  67.9392249
  73.4808859  86.2759921  68.8935082  74.6895262  86.0668074  69.3950123
  75.1719020  85.2016097  69.1979169  75.1227601  86.7735349  69.9720255
  72.8576506  87.4172504  69.1704493  71.9334840  87.5871719  68.8001213
  73.3112225  88.1090747  69.7498890  70.9077771  84.5257085  63.0608945
  70.6945808  83.3866636  63.3394301  71.3335089  84.9105947  61.8578209
  71.5237920  85.8893836  61.6969983  71.3919468  83.9882201  60.7072558
  71.0617567  82.9863338  60.9816599  70.4800179  84.5160183  59.5566995
  70.9693307  84.3219440  58.6022319  69.0949044  83.8082686  59.5823098
  68.6047557  84.0022852  60.5363598  68.4753803  84.1916196  58.7715502
  69.2326987  82.7343001  59.4569909  70.2945355  85.9517044  59.6680668
  69.7318552  86.2580629  58.9531293  72.8324910  83.6653417  60.2075450
  73.2718976  84.1380729  59.1367335  73.5315945  82.8038198  60.9557583
  73.2427798  82.5709906  61.8951602  74.7745270  82.2089837  60.4406341
  75.6369190  82.8646227  60.5611194  75.0844694  80.8544458  61.1207450
  75.2728930  81.0149830  62.1822644  74.2335776  80.1838796  61.0006447
  76.3173326  80.2315188  60.4744982  76.1294877  80.0702474  59.4129867
  77.1688042  80.9013484  60.5946079  76.6561878  78.8941026  61.1171331
  75.9684254  78.4505667  62.0340293  77.7210998  78.2509499  60.6328392
  77.9896243  77.3592544  61.0238317  78.2533646  78.6590074  59.8776673
  74.5394963  82.0706992  58.9023825  73.4225211  81.6768118  58.4688747
  75.4769919  82.5685501  58.0771526  76.3525333  82.9313430  58.4263057
  75.2243649  82.6281401  56.6230320  74.2319300  83.0426224  56.4458976
  76.2489854  83.5016242  55.9163176  75.9841200  83.5747704  54.8615213
  76.2352297  84.4955221  56.3636182  77.5364344  82.9508647  56.0386952
  78.1696082  83.5140805  55.5876091  75.2506007  81.2594211  56.0065687
  75.2033519  81.1407828  54.8046592  75.5162566  80.2599970  56.8480082
  75.9236631  80.5166753  57.7358345  75.4169241  78.8110022  56.5080181
  75.7221049  78.6538280  55.4734843  76.3563520  77.9522903  57.4483936
  76.4669181  76.9395928  57.0606849  77.3165071  78.4660016  57.4004042
  75.8758056  77.8918036  58.9219507  74.9626825  77.1165163  59.1816755
  76.4568204  78.5495228  59.8184317  73.9466932  78.2415675  56.4555386
  73.7146758  77.0015927  56.5581853  72.9851338  79.1304892  56.1788517
  73.2083892  80.1130839  56.1098302  71.6196676  78.7249147  55.9728822
  71.0443668  79.5637197  55.5810476  71.5868986  77.8990323  55.2622882
  71.0022749  78.2721777  57.2864428  69.8576400  77.8275557  57.3077063
  71.7663356  78.3663586  58.3734461  72.7009096  78.7409723  58.2938508
  71.3016058  77.9499270  59.6828871  70.3447720  77.4281779  59.6642800
  72.3388201  77.0778967  60.3603284  73.3276882  77.4557785  60.1006255
  72.1786542  77.0812537  61.8499258  71.1901264  76.7030380  62.1104377
  72.9407432  76.4445219  62.2992517  72.2883973  78.0986467  62.2253816
  72.2965433  75.6678891  59.7542224  71.5195154  75.7022569  58.9905816
  73.2668873  75.5261602  59.2783602  72.0238829  74.5116588  60.7022755
  71.0534342  74.6524593  61.1782002  72.0215890  73.5757675  60.1435257
  72.8008055  74.4763642  61.4659807  71.0539808  79.1691626  60.5387069
  71.8407617  80.1126597  60.5559949  69.9798876  79.0996458  61.3387970
  69.3150604  78.3493304  61.2157889  69.7574029  80.0557970  62.4338752
  70.1516978  81.0327400  62.1542089  68.2948623  80.1957064  62.7263362
  67.8310057  79.2231618  62.5617355  68.1933039  80.4732056  63.7755169
  67.6199486  81.2198309  61.8730694  67.3470117  82.0215071  62.5593067
  68.2485958  81.6210353  61.0781230  66.3765759  80.6700329  61.2648888
  65.7964961  79.6955969  61.7846347  66.0077462  81.2029909  60.0923384
  65.1729347  80.8712896  59.6306400  66.5661896  81.9340423  59.6754378
  70.3752941  79.6114685  63.7149715  70.3994831  78.4772932  63.9965923
  70.8301087  80.5788560  64.5025851  71.0768806  81.4757136  64.1090760
  71.0672868  80.3583507  65.9310812  70.7239881  79.3567629  66.1900545
  72.5733057  80.4865783  66.3232377  72.5783192  81.0400277  67.2622627
  72.9103231  79.4655328  66.5020825  73.5147300  81.1671258  65.3248388
  72.9054243  81.6404651  64.5549055  74.0971922  81.9275510  65.8450247
  74.4863070  80.1805041  64.6468796  74.7769052  79.1102882  65.2030114
  75.0048647  80.5417201  63.4466484  75.6452498  79.9230967  62.9698744
  74.7482583  81.4276751  63.0351410  70.1736847  81.3687630  66.6956021
  70.0733623  82.5526346  66.3458932  69.3784761  80.8146890  67.6018467
  69.5907011  79.8704923  67.8909011  68.2247075  81.4782872  68.1996122
  67.9798733  82.3896408  67.6540939  67.0359343  80.5349698  68.1272770
  67.2624981  79.6213004  68.6768015  66.1624546  81.0159659  68.5674771
  66.8287671  80.2899083  67.0855833  68.4739884  81.8543499  69.6796274
  68.7850946  80.9587512  70.4822268  68.3476128  83.1610580  69.9909748
  68.2834436  83.8319403  69.2387125  68.4201925  83.6475649  71.3217058
  69.1537485  83.0608398  71.8746511  68.8266508  85.1009069  71.3734446
  69.3778526  85.3131470  70.4573496  67.9099982  85.6904558  71.3901820
  69.6908808  85.4661899  72.5856029  69.0705772  85.4019404  73.4795806
  70.5042501  84.7439581  72.6557010  70.2789151  86.8967207  72.4663920
  71.3492094  86.7890243  72.2904069  69.8134792  87.3625857  71.5978077
  70.0494743  87.7793770  73.7060943  70.3616165  88.7923270  73.4519287
  68.9812105  87.7724702  73.9225750  70.8048868  87.3124400  74.9099006
  71.7948145  87.3191759  74.7096567  70.6143564  87.9289091  75.6869231
  70.5154873  86.3739947  75.1458398  67.0871166  83.3792577  72.0387280
  66.0059017  83.7667888  71.5763180  67.1739375  82.6461247  73.1453242
  68.0326465  82.5973025  73.6747905  66.0467584  81.7918550  73.5614004
  65.0723293  82.1986616  73.2910383  66.1819668  80.3770114  72.9423864
  66.9264881  80.4237298  72.1476509  66.6031756  79.3407315  73.9700353
  65.8588571  79.2931073  74.7649081  66.6849580  78.3652339  73.4906433
  67.5683935  79.6191840  74.3930248  64.8864775  79.9735618  72.2567590
  64.6562291  80.6868188  71.4653349  64.9969864  78.9779592  71.8270349
  64.0760409  79.9662298  72.9856209  65.9511761  81.7674626  75.0830590
  66.9373941  81.4683845  75.7607378  64.7850293  82.1600787  75.6114521
  64.0726375  82.5665818  75.0220860  64.5589146  82.1343384  77.0514502
  65.4934900  81.9325764  77.5748622  64.0258305  83.4785174  77.5116233
  64.8214458  84.1989967  77.3218734  63.1741362  83.7008229  76.8687414
  63.6022625  83.5672544  78.9538962  63.5020753  82.5679259  79.3774595
  64.3610946  84.1211646  79.5065801  62.2587310  84.2983462  79.0976389
  61.9309027  85.2033018  78.3209781  61.4733095  83.8908034  80.0830154
  60.5772348  84.3340824  80.2267345  61.7740211  83.1385994  80.6862260
  63.6498780  80.9513103  77.4351416  62.5045670  80.8471402  76.9840271
  64.1815271  80.0563648  78.2698875  65.1171067  80.1859266  78.6276640
  63.4414880  78.8851341  78.6911911  63.1131531  78.3071527  77.8273434
  64.2301182  77.9984849  79.6173696  64.2914211  78.4665610  80.5998395
  63.5407101  76.6356800  79.7433314  63.4794510  76.1667561  78.7612629
  64.1155362  75.9978053  80.4147416  62.5360816  76.7717599  80.1437098
  65.6541846  77.8764554  79.1087581  66.1360291  78.8450866  79.2417250
  66.1609628  77.1318214  79.7225950  65.7339133  77.4706540  77.6588141
  65.2277161  78.2150981  77.0442678  66.7790933  77.4012497  77.3573491
  65.2526474  76.5018334  77.5251375  62.1757095  79.2655033  79.4347273
  62.2155273  80.0919328  80.3648034  61.0618005  78.6554781  79.0558736
  61.0563508  78.0775421  78.2275865  59.8193307  78.8079028  79.7993570
  59.7953943  79.7871897  80.2773983  58.6164592  78.6897491  78.8705132
  58.6863083  77.6909945  78.4395727  57.7001716  78.7692225  79.4554927
  58.5959776  79.7349909  77.7412851  59.5243552  79.6772698  77.1730561
  57.4248409  79.4568426  76.8233798  56.4960102  79.5148464  77.3908372
  57.4071735  80.1955189  76.0220397  57.5268503  78.4595929  76.3953756
  58.5205673  81.1759072  78.2594457  59.3880908  81.3831292  78.8859929
  58.5092827  81.8658662  77.4156859  57.6106377  81.3046380  78.8455818
  59.7392220  77.7427821  80.8652020  59.7881287  76.5766101  80.5702612
  59.5221206  78.1704530  82.1435957  58.9806198  79.5089547  82.4503448
  58.0455028  79.6541417  81.9094406  59.6989062  80.2693416  82.1437907
  58.7870477  79.4723406  83.9314370  57.7195415  79.5476276  84.1384667
  59.3020556  80.3295883  84.3650205  59.3621107  78.1735784  84.4571646
  58.6616045  77.8360983  85.2210346  60.3701040  78.1911341  84.8715808
  59.3105088  77.2470100  83.2694018  60.0592210  76.4554324  83.2388549
  57.9249185  76.6362789  83.1633261  56.9932757  77.3372487  82.7522811
  57.7585429  75.3535901  83.5209330  58.5497700  74.7372692  83.6401287
  56.4089595  74.7944903  83.6839143  55.7605437  75.1977267  82.9060605
  56.4046690  73.2592765  83.5806378  56.6264120  73.0144213  82.5419005
  57.2122683  72.8999991  84.2184489  55.0865744  72.5859108  83.9952791
  55.3035334  71.5937541  84.3910756  54.6945290  73.2169601  84.7928857
  54.0472007  72.4727623  82.8770351  54.3806296  71.9638946  81.7843481
  52.8726761  72.8473702  83.1132168  55.8712809  75.2651244  85.0294378
  56.4122236  74.9450200  86.1058555  54.7757262  76.0339045  84.9302255
  54.3372989  76.1819438  84.0324699  54.2847692  76.7819578  86.0634600
  55.1130637  76.9951589  86.7391616  53.6468468  78.1163382  85.6299335
  53.5444743  78.7661207  86.4990721  54.2862221  78.5979986  84.8901346
  52.0099834  78.0161513  84.8857792  51.8687287  79.3231571  84.6840833
  53.3452024  75.8787030  86.8951167  52.2905360  75.4052945  86.4376297
  53.8225865  75.5702267  88.1038601  54.6697562  76.0158007  88.4261434
  53.1908498  74.5810757  88.9672571  52.3535744  74.0750717  88.4866023
  54.1590335  73.5193895  89.5119338  53.8233039  73.2034316  90.4996360
  54.1989011  72.3169490  88.5818121  54.5350082  72.6320600  87.5939669
  54.8885141  71.5722392  88.9792309  53.2017951  71.8834509  88.5046070
  55.5384295  74.1117973  89.7760693  55.4555588  74.9140232  90.5093279
  56.2001721  73.3357034  90.1606140  55.9473519  74.5098963  88.8474140
  52.5095193  75.2211222  90.1613719  53.0904122  76.0230545  90.9170815
  51.2605966  74.7540755  90.3299792  50.9799306  74.0061332  89.7119918
  50.3110061  75.1944028  91.3735422  50.6646537  76.1250526  91.8173029
  48.9035778  75.4329686  90.7820153  48.6179549  74.4063754  90.5526135
  48.3215225  75.7903091  91.6314971  48.6291200  76.3253263  89.5619385
  48.5646555  75.7085682  88.6655264  47.3178690  77.0625659  89.7637516
  47.3817321  77.6799363  90.6597840  47.1202588  77.6967380  88.8995313
  46.5085901  76.3412306  89.8770804  49.7344908  77.3285051  89.2725449
  50.6667814  76.7973692  89.0806377  49.4679120  77.9213095  88.3975478
  49.8623062  77.9870009  90.1316988  50.1446955  74.0838232  92.4174846
  50.1435452  72.8979266  92.0531303  49.9837070  74.4668078  93.6946621
  49.7321451  75.8456812  94.1265771  48.8597008  76.2327849  93.6001818
  50.6009141  76.4598303  93.8895954  49.5056066  75.7218523  95.6023026
  48.4868378  76.0473968  95.8126116  50.2094852  76.3844820  96.1058681
  49.7206450  74.3038341  96.0146664  48.8883256  74.0494139  96.6708780
  50.6613077  74.0924022  96.5231444  49.6318716  73.4932318  94.7274896
  50.3324110  72.6587160  94.6970579  48.2199057  72.9794975  94.4755067
  47.6675810  73.2380846  93.4034562  47.6317902  72.2471828  95.4216464
  48.1387574  71.9361655  96.2379502  46.2308327  71.8445230  95.2791818
  46.0762508  71.4203581  94.2870690  45.8403102  70.7948734  96.3273101
  46.2278068  69.8260102  96.0122709  46.2877181  71.0715724  97.2819638
  44.4325560  70.7162904  96.4708264  44.2146695  70.0540327  97.1307810
  45.3420552  73.0816277  95.4209866  45.7707153  74.0958713  95.9763688
  44.1043274  72.9881540  94.9634919  43.8212814  72.1891754  94.4142948
  43.1535367  74.0606046  95.1538598  43.5630595  74.9982110  94.7779817
  41.8822241  73.7299753  94.3642531  41.0203780  73.8475188  95.0211436
  41.7339272  74.6539315  93.1624507  42.5952386  74.5366005  92.5048218
  40.8244849  74.3996749  92.6180542  41.6757852  75.6876601  93.5032222
  41.9627934  72.3717593  93.8871296  41.1686089  72.1590689  93.3915148
  42.8569495  74.3171116  96.6439984  42.4317330  75.4214094  97.0253831
  43.1203939  73.3172641  97.4844733  43.5660975  72.4769914  97.1447831
  42.7244809  73.3707115  98.8829758  41.9230941  74.0970080  99.0185181
  42.2229728  72.0026892  99.3310391  42.9878891  71.2703026  99.0729459
  42.1016311  72.0343638 100.4138008  40.9046176  71.6072238  98.6850022
  41.0969199  71.3819754  97.6360103  40.5378739  70.7119121  99.1870163
  39.6507691  72.9056608  98.7940124  38.6166246  72.5088267  97.3808376
  38.2114174  71.5036710  97.4973203  37.7974812  73.2250738  97.3168474
  39.2122998  72.5564920  96.4692454  43.8418894  73.8353511  99.8194080
  43.5847917  74.3326777 100.8914467  45.0806759  73.6344404  99.4228994
  45.2245096  73.1002356  98.5778926  46.2487274  74.0746160 100.1668691
  46.3608114  73.4939345 101.0824811  47.4909494  73.8702159  99.3047287
  47.4776655  74.5900846  98.4863695  48.3784164  74.0325868  99.9163970
  47.5157895  72.5543512  98.7760918  48.3018405  72.4409670  98.2367703
  46.2215045  75.5184332 100.6655474  47.0964023  75.9098134 101.4208676
  45.2377960  76.3052536 100.2397774  44.5244864  75.9208138  99.6368722
  45.1519923  77.7314599 100.6026428  46.1196962  78.1197011 100.9203175
  44.6697824  78.5455534  99.3914428  43.6974845  78.1744409  99.0673867
  44.5827801  79.5957044  99.6702145  45.3866182  78.4446801  98.5765377
  44.1680560  77.9076331 101.7776438  44.3128789  78.7520233 102.6415585
  43.1496732  77.0869452 101.7408486  43.2163657  76.2841067 101.1316673
  41.9443648  77.2652716 102.5038802  41.8232073  78.1494229 103.1297368
  40.8001230  77.2318272 101.4718623  41.2242646  77.4601831 100.4940808
  40.0939551  75.8717767 101.4173205  39.6691295  75.6429276 102.3946905
  39.2972521  75.9050112 100.6741784  40.8128071  75.0992509 101.1442684
  39.8693985  78.3992371 101.6668188  40.4233397  79.3302455 101.5465088
  39.0698826  78.3546004 100.9273044  39.4402452  78.3591821 102.6679800
  41.8080240  76.1277487 103.5500303  40.8689132  76.1394859 104.3668100
  42.7681821  75.1996681 103.5309038  43.5979046  75.3594802 102.9776227
  42.6549473  73.9334558 104.2664188  41.6863516  73.4696131 104.0799477
  43.7581784  72.9745425 103.7917953  43.6801033  72.9279142 102.7055958
  44.7068350  73.4348692 104.0679297  43.6918902  71.5677820 104.3652418
  44.6861933  71.1211752 104.3673599  43.3307611  71.6541347 105.3900495
  42.7519219  70.6563678 103.5944159  42.8934563  70.4776952 102.3882885
  41.8089174  70.0502315 104.2994047  41.1561497  69.4327426 103.8382071
  41.7468172  70.2082214 105.2950372  42.7752932  74.1449247 105.7638605
  43.7548058  74.6857645 106.2531269  41.7773420  73.6724811 106.4832765
  40.9428677  73.3444095 106.0183884  41.8369534  73.5877899 107.9316618
  41.8922629  74.5856788 108.3666995  40.5654756  72.8889688 108.4600216
  40.6435866  71.9208405 107.9653242  40.6084135  72.7489956 109.5401438
  39.2355592  73.5483755 108.0835549  39.1576893  73.5213967 106.9966744
  38.0048204  72.8654214 108.7023115  38.0817544  72.8924204 109.7892572
  37.1019450  73.3898023 108.3893554  37.9570153  71.8291861 108.3676004
  39.2813656  75.0474032 108.3978219  40.0848837  75.5142106 107.8281300
  38.3303532  75.5053908 108.1259324  39.4614914  75.1904559 109.4632747
  43.0466973  72.7735626 108.3353890  43.2866344  71.7373629 107.7413703
  43.8131869  73.2612841 109.3125290  43.5951949  74.1512637 109.7373997
  45.0510093  72.5882969 109.7080816  45.6221041  72.3335285 108.8153090
  45.9161443  73.4782414 110.6049552  45.2468680  73.9940874 111.2934835
  46.5813799  72.8234395 111.1678017  46.7465677  74.5077456 109.8333471
  46.0216105  75.1417769 109.3229139  47.3215357  75.1086551 110.5379170
  47.6930910  73.8840963 108.8036644  48.7744628  73.3909528 109.1980229
  47.3770361  73.9286382 107.5907336  44.7918521  71.2389245 110.3605543
  45.5706894  70.3049582 110.1749971  43.6963967  71.1308932 111.1083349
  43.1074798  71.9349864 111.2717682  43.3617060  69.8717835 111.7896577
  44.2096754  69.5508718 112.3946888  42.1422552  70.0409775 112.7052397
  42.0996749  69.1864527 113.3805719  42.2729139  70.9550369 113.2844837
  40.9343540  70.1190856 111.9651284  40.1953993  70.2242711 112.5688518
  43.1258126  68.7078875 110.8092647  43.3708505  67.5474483 111.1559163
  42.6621054  69.0279939 109.5961990  42.4857547  69.9998943 109.3854636
  42.3216712  68.0286060 108.5883784  42.0950852  67.0743023 109.0638387
  41.0915898  68.4894833 107.8078472  41.4397852  69.3605999 107.2528561
  40.7899946  67.7101702 107.1079819  39.8907841  68.8855474 108.6816760
  40.1501442  69.7847627 109.2404649  38.6521099  69.1537956 107.8343230
  38.3918452  68.2548291 107.2755562  37.8209586  69.4314208 108.4825610
  38.8566626  69.9671968 107.1381643  39.6013652  67.8156290 109.7256531
  40.4734922  67.6875229 110.3668105  38.7474573  68.1195755 110.3310945
  39.3756654  66.8727758 109.2274700  43.4941301  67.7300750 107.6413528
  43.4112654  66.8126658 106.8239827  44.5907564  68.4635857 107.7982816
  44.5967189  69.2646221 108.4134276  45.8221417  68.1283668 107.0847548
  45.6978414  68.3441138 106.0235754  47.0104893  68.9461750 107.6164518
  46.8998867  69.1457545 108.6823009  47.8936803  68.3287177 107.4526832
  47.2006759  70.2645489 106.8941497  47.4979168  71.2856983 107.5186861
  47.0961813  70.2395833 105.5688046  47.2144497  71.0918180 105.0398354
  46.8990228  69.3684993 105.0971670  46.1796262  66.6483547 107.2392061
  46.5592617  65.9820433 106.2693417  46.0349879  66.1422545 108.4616591
  45.7495347  66.7643171 109.2043932  46.4125497  64.7733297 108.8105802
  47.4464178  64.5836823 108.5220498  46.2811551  64.5690987 110.3222105
  45.2707087  64.8516370 110.6176241  46.4403428  63.5126775 110.5383900
  47.2951633  65.4085399 111.1052016  48.2593006  64.9049138 111.0351958
  47.3581275  66.3819359 110.6187473  46.9261956  65.5968292 112.5714359
  46.5682939  64.6388777 112.9487079  47.8316497  65.8822702 113.1069503
  45.8557457  66.6573808 112.7842559  46.2049046  67.3471258 113.5526571
  45.7176106  67.1974393 111.8475837  44.5581335  66.0576293 113.2077529
  44.6858200  65.5575137 114.0759005  43.8753773  66.7903194 113.3385550
  44.2342080  65.4187857 112.4956783  45.6614664  63.7130932 107.9996244
  46.0735107  62.5581352 107.9723725  44.5997135  64.1073410 107.3019908
  44.3221190  65.0783994 107.2927113  43.7763356  63.1470726 106.5807729
  44.0395680  62.1313031 106.8757647  42.3049918  63.3819184 106.9025521
  41.9276343  64.2614532 106.3809016  41.7036606  62.5139322 106.6321804
  42.0017763  63.6739045 108.6629115  40.6851344  63.8269454 108.5536832
  43.9903777  63.2108626 105.0719237  43.3724488  62.4514118 104.3223509
  44.8362417  64.1378790 104.6499537  45.4060519  64.6471071 105.3103343
  44.9113285  64.5118732 103.2323122  43.9039071  64.5652422 102.8195736
  45.5943044  65.8838087 103.0455537  46.0250948  66.1552376 104.0093198
  46.3934471  65.7416368 102.3180524  44.6644227  67.0026236 102.5694209
  43.6821041  66.9108728 103.0328135  45.1313507  67.9338497 102.8901984
  44.4859440  67.0429502 101.0449872  44.1104356  66.0432815 100.4256247
  44.6939281  68.2189708 100.4459603  44.5891838  68.2976407  99.4444908
  44.9549433  69.0239264 100.9973394  45.6267823  63.4505927 102.4050646
  45.3526698  63.3149095 101.2103197  46.5133655  62.6813246 103.0427039
  46.8518692  62.9363007 103.9594927  47.0642660  61.4863637 102.4088024
  47.0913438  61.6233617 101.3277855  48.4819291  61.1205471 102.9186686
  48.3984843  60.5812054 103.8621981  49.1902567  60.2390629 101.8888857
  49.2744926  60.7779384 100.9451601  50.1861611  59.9844626 102.2514514
  48.6156442  59.3256800 101.7350961  49.2991176  62.3899805 103.2083954
  49.1035293  63.0860996 102.3927580  48.9176770  62.8068474 104.1405030
  50.7950222  62.1621980 103.3310719  51.1772888  61.7457451 102.3991174
  51.2919243  63.1105755 103.5354436  50.9914363  61.4664906 104.1468614
  46.1061959  60.3076143 102.6365887  45.6324130  60.0687531 103.7519994
  45.8244944  59.5899487 101.5518978  46.1497710  59.9127967 100.6518625
  45.0626410  58.3377851 101.6077441  44.6093116  58.2213354 102.5921379
  43.9574355  58.3496220 100.5617347  44.3264267  58.0401615  99.5838907
  43.1626726  57.6748717 100.8797975  43.3346808  59.6810165 100.3777799
  42.8018768  60.3599556 101.4693364  42.8393106  59.8924932 102.4532965
  42.2337214  61.6037095 101.3199656  41.8121417  62.1271041 102.1781203
  42.2002427  62.1886876 100.0700421  41.7523044  63.1742227  99.9428732
  42.7363241  61.5231664  98.9754498  42.7060985  61.9869952  97.9895241
  43.3054811  60.2791662  99.1340367  43.7351895  59.7629788  98.2755490
  45.9522840  57.1145312 101.3324275  47.0088321  57.2369634 100.6893027
  45.4991527  55.9154953 101.7633646  44.9308555  55.6907914 103.1048099
  43.8818617  55.9869540 103.1051079  45.4775335  56.2910631 103.8320760
  45.1156833  54.2031590 103.3277346  44.2312597  53.8007084 103.8216249
  45.9894838  54.0395880 103.9584632  45.3109477  53.5947543 101.9786340
  44.3339824  53.4210063 101.5275803  45.8874235  52.6698039 101.9630739
  46.0510288  54.6815625 101.2086101  47.1230039  54.6543176 101.4041234
  45.8071047  54.6124352  99.7029038  44.7255614  54.9462564  99.2254225
  46.8178079  54.1796821  98.9617096  47.6616259  53.8462391  99.4054283
  46.7886161  54.2635957  97.4999065  46.4329899  55.2483405  97.1967450
  48.1803320  54.0472007  96.9161178  48.9085486  54.0284386  97.7269493
  48.2013945  53.0942399  96.3874194  48.5018095  55.0908432  96.0185607
  49.3792500  54.9437867  95.6579054  45.7733265  53.2847899  96.8598134
  45.4013639  52.2517142  97.4465191  45.3302479  53.6623915  95.6675264
  45.7719888  54.4559370  95.2256554  44.2026334  53.0309988  94.9883786
  43.3612565  52.9385574  95.6751382  43.7588227  53.8834183  93.7739211
  42.6825049  53.7408307  93.6774440  43.9652335  54.9208728  94.0369473
  44.4383713  53.5498394  92.4442023  45.5108646  53.4629226  92.6182843
  44.0498773  52.5952551  92.0893175  44.1808496  54.6203744  91.3994624
  44.3630268  54.2047596  90.4084151  43.1436540  54.9479118  91.4704830
  45.1019641  55.8049916  91.6281023  44.9570054  56.1603297  92.6483093
  46.1311729  55.4681988  91.5040094  44.8258634  56.9054676  90.6791713
  43.8723535  57.2179825  90.7942934  45.4561694  57.6733022  90.8615018
  44.9605429  56.5765307  89.7337819  44.5283081  51.6063017  94.5321021
  45.5456099  51.3735587  93.8974229  43.6185221  50.6529944  94.8011383
  42.5781858  50.6993909  95.8482680  42.1852932  51.7130097  95.9277208
  43.0089389  50.4012772  96.8041336  41.5545672  49.7222971  95.3530049
  40.8469766  50.2338728  94.7005443  41.0208710  49.2915943  96.2002149
  42.3172489  48.6722088  94.6136963  41.7078796  48.3201636  93.7813308
  42.5892556  47.8276902  95.2468632  43.5935756  49.3615429  94.0763094
  44.5114278  48.8266417  94.3202897  43.4891076  49.5292954  92.5533139
  42.8729825  50.4903751  92.0988706  44.0881412  48.6126805  91.7957527
  44.5346654  47.8154607  92.2260503  44.2659638  48.8155735  90.3441445
  44.3490270  49.8720020  90.0888825  45.5167873  48.0692621  89.7892843
  45.6775506  48.3690704  88.7537316  46.7537192  48.4100286  90.6149076
  46.5938767  48.1100702  91.6505602  47.6170133  47.8798565  90.2127369
  46.9352185  49.4839597  90.5721115  45.3055360  46.5600339  89.7375147
  44.4590756  46.3331392  89.0893437  46.2020743  46.0804058  89.3447354
  45.1042289  46.1861666  90.7414069  42.9937986  48.4884548  89.5342167
  42.5379915  47.3369747  89.4444761  36.1145036  50.6375102  92.7351015
  35.2555419  51.1679782  92.7648976  37.0586553  50.9023800  91.6422907
  38.0759529  50.9180624  92.0333901  36.9643777  49.8098714  90.5578122
  37.5760692  50.1174956  89.7096966  37.3594017  48.8825261  90.9726455
  35.6281990  49.6034880  90.1267712  35.6111060  48.9186802  89.4542045
  36.7771343  52.2852556  91.0390577  37.5772210  52.8105030  90.2379570
  35.6011524  52.8204782  91.3853748  34.9102953  52.2106305  91.7987772
  35.2073126  54.1891694  91.0521053  36.0983439  54.8114241  90.9686687
  34.4382742  54.2440266  89.7099709  34.8786498  54.9671587  89.0234955
  34.6334447  53.2346028  89.3479322  32.9525110  54.4693115  89.7901168
  32.4415622  55.7231984  90.0898737  33.1344902  56.5393727  90.2943480
  31.0837524  55.9462567  90.1316403  30.6936107  56.9216381  90.4223676
  30.2171653  54.9296473  89.7985919  28.8720755  55.1557998  89.8440500
  28.6509094  56.0488079  90.1183157  30.6953617  53.6906255  89.4264035
  30.0096921  52.8893001  89.1510215  32.0591036  53.4707048  89.4049093
  32.4504957  52.5054994  89.0835204  34.4634149  54.7993958  92.2451701
  34.3248768  56.0268996  92.3039889  34.0883061  53.9756962  93.2406958
  33.9945863  52.9874336  93.0545429  33.7496789  54.4664485  94.5823764
  32.9752926  55.2291052  94.5000372  33.2332346  53.3388131  95.4858572
  32.5334482  53.8015239  96.1817716  32.6954842  52.6487751  94.8356478
  34.2988155  52.5743424  96.2687748  34.8668529  51.9624670  95.5680303
  34.9637425  53.2980115  96.7402376  33.6795903  51.6788444  97.3402357
  34.4238322  50.9361280  97.6275950  33.4388659  52.3030342  98.2007810
  32.4171824  50.9722704  96.8559097  31.6288281  51.7178312  96.7522885
  32.6277749  50.5292350  95.8825292  31.9738198  49.9098718  97.7985468
  31.7782153  50.3202565  98.7004465  31.1382838  49.4695376  97.4406566
  32.7040175  49.2186936  97.8943753  34.9794856  55.1319734  95.1998982
  34.8641409  56.1052239  95.9651073  36.1531931  54.6043666  94.8347178
  36.1690163  53.7523113  94.2926378  37.4227161  55.1834343  95.2467213
  37.4812167  55.1831271  96.3351499  38.5983504  54.3995527  94.6982691
  38.4273660  53.3936591  95.0817293  38.7714639  54.3534057  93.6230937
  39.8567616  54.8766593  95.3090576  40.3098112  54.5898384  96.5661630
  39.7222826  53.8805968  97.1491606  41.4635311  55.2945007  96.8298302
  42.0170565  55.2251900  97.6717953  41.7448740  56.0997641  95.7556785
  42.8001136  56.9875378  95.5510052  43.5475047  57.0980091  96.3366905
  42.8299115  57.6705379  94.3638810  43.6387979  58.3755725  94.1722332
  41.8408629  57.4851999  93.3827685  41.8735487  58.0355851  92.4424987
  40.7946602  56.5973954  93.5812505  40.0768278  56.4556781  92.7733312
  40.7368896  55.8849229  94.7884222  37.5398812  56.6384524  94.8215946
  38.0972719  57.4455368  95.5542802  37.0078120  56.9780250  93.6530452
  36.6549132  56.2651699  93.0306311  37.0284438  58.3577016  93.1826859
  37.9578872  58.8340372  93.4946770  36.9336921  58.4227618  91.6524178
  36.1703012  57.6880090  91.3965429  36.6764457  59.3835464  91.2065284
  38.1844571  57.9766401  91.0032650  38.4836440  56.7165728  90.6070006
  37.6951787  55.9703967  90.7052029  39.7719871  56.6583034  90.1493483
  40.2266038  55.8387358  89.7728749  40.3404253  57.8961975  90.2715832
  41.6141709  58.3322464  89.9394034  42.3134816  57.6135070  89.5122303
  41.9141575  59.6466896  90.1707666  42.9039520  60.0263880  89.9173187
  40.9751695  60.5202837  90.7282323  41.2232286  61.5647046  90.9173120
  39.7044479  60.0853522  91.0560986  39.0085228  60.8028309  91.4908551
  39.3697901  58.7501026  90.8159032  35.9682344  59.2069592  93.8317764
  36.1551446  60.4072554  93.9971837  34.8573826  58.5910506  94.2188112
  34.6420704  57.6510958  93.9184363  33.8690504  59.3051877  95.0070855
  33.7183145  60.2947181  94.5755679  32.5235239  58.5759737  95.0405150
  32.7282242  57.5054523  95.0270635  32.0290220  58.8390837  95.9755770
  31.6123538  58.9363239  93.8621812  30.7616261  59.5040626  94.2390579
  32.1841084  59.5554167  93.1708615  31.0901781  57.7195122  93.1083172
  29.9022079  57.6149446  92.8142791  31.9833489  56.7993220  92.7862460
  31.6930242  55.9714299  92.2858385  32.9518163  56.9285576  93.0421180
  34.4202979  59.5445026  96.3990882  34.2222335  60.6261446  96.9683949
  35.1298664  58.5416747  96.9168041  35.1250949  57.6437954  96.4543223
  35.8536207  58.6665708  98.1770845  35.1370816  58.9624315  98.9433334
  36.4847608  57.3287695  98.5861917  35.7069854  56.5695511  98.6683626
  37.2113271  57.0238200  97.8330601  37.1842164  57.4871900  99.9320331
  37.9624896  58.2459702  99.8505212  36.4581487  57.7916988 100.6858250
  37.8113541  56.1578775 100.3385445  37.0335798  55.3986579 100.4207139
  38.5379213  55.8529300  99.5854133  38.5108078  56.3162984 101.6843874
  39.2890806  57.0750791 101.6028767  37.7847391  56.6208041 102.4381776
  39.1153289  55.0349289 102.0762362  39.7884655  54.7528014 101.3781023
  39.5785727  55.1398492 102.9675817  38.3942763  54.3317888 102.1522379
  36.9296159  59.7769341  98.0998007  36.9021695  60.7395035  98.8744856
  37.8446803  59.6284969  97.1410319  37.8476054  58.7559745  96.6323125
  38.8599470  60.6384690  96.8001980  39.6737105  60.6179388  97.5250888
  39.4428556  60.3289345  95.3880925  39.7538679  59.2842478  95.3885585
  38.6170085  60.4613123  94.6891270  40.6188986  61.2109195  94.9608275
  41.8455143  61.1400344  95.6206480  41.9662873  60.4147561  96.4253124
  42.8983029  61.9681509  95.2715275  43.8448849  61.9115204  95.8090006
  42.7494042  62.8563276  94.2350655  43.7985815  63.6831783  93.9113685
  44.5676334  63.5496694  94.4702370  41.5566933  62.9206021  93.5398083
  41.4434684  63.6223114  92.7134399  40.5067011  62.0938409  93.8933269
  39.5730409  62.1282651  93.3319058  38.2936255  62.0585661  96.8076828
  38.8074847  62.9443555  97.5019557  37.2347136  62.2653277  96.0282335
  36.8786806  61.5162903  95.4517937  36.5987158  63.5805334  95.9284009
  37.3420383  64.3102814  95.6074043  35.4478942  63.5872690  94.9311577
  35.8608116  63.3608236  93.9481415  34.7528894  62.7998960  95.2228976
  34.7108293  64.9212197  94.8775320  34.2555137  65.1829579  95.8326663
  35.4664613  65.6634814  94.6202969  33.6477631  64.9337225  93.8206673
  33.7865968  65.5927491  92.8067061  32.6126172  64.1324961  94.0138595
  31.8676364  64.1017660  93.3325660  32.5722404  63.5553398  94.8417252
  36.0856204  64.0856108  97.2708710  36.2219627  65.2733391  97.5712114
  35.4843140  63.1922685  98.0628838  35.3377698  62.2484171  97.7346025
  34.8856482  63.5838656  99.3423942  34.3162024  64.4847989  99.1140311
  33.9258994  62.5242766  99.8908189  33.1695116  62.2950797  99.1401888
  34.4829387  61.6191324 100.1327307  33.2479963  63.0552057 101.1494634
  34.0037708  63.2842075 101.9007716  32.6903414  63.9601531 100.9082307
  32.2921436  61.9999165 101.6956642  31.5357565  61.7707175 100.9450343
  32.8491841  61.0947738 101.9375773  31.6142392  62.5308475 102.9543079
  32.3700129  62.7598505 103.7056162  31.0565832  63.4357921 102.7130730
  30.6928617  61.5136170 103.4808102  31.2094670  60.6751406 103.7048105
  30.2438877  61.8652496 104.3144029  29.9922114  61.3015860 102.7849431
  35.9404600  63.9826403 100.3641637  35.7042499  64.8984109 101.1486763
  37.0967688  63.3127634 100.3428808  37.2360344  62.5846218  99.6569405
  38.1485085  63.5358040 101.3461821  37.6418179  63.8550389 102.2569252
  38.9127544  62.2315838 101.6396167  38.2092343  61.4602554 101.9530035
  39.4328091  61.9041892 100.7393635  39.9271533  62.4760767 102.7517509
  40.6313383  63.2470134 102.4388917  39.4077647  62.8030772 103.6525329
  40.6840263  61.1844426 103.0423532  39.9805070  60.4131130 103.3557383
  41.2040819  60.8570501 102.1421000  41.6796492  61.3838982 104.1190860
  41.7611926  62.3000266 104.5364094  42.4718920  60.4118610 104.5622513
  42.4233107  59.1801861 104.0627342  41.7693540  58.9635006 103.3241626
  43.0405962  58.4671993 104.4242698  43.3315111  60.7015782 105.5348868
  43.3658486  61.6379017 105.9120063  43.9460180  59.9839355 105.8919147
  39.1287373  64.6405936 100.9517947  39.5500698  65.4178489 101.7990550
  39.4919585  64.7094075  99.6710055  39.1371968  64.0365839  99.0065118
  40.4301713  65.7258158  99.1950559  41.3024060  65.7537582  99.8481448
  40.8957411  65.4122745  97.7696627  41.1841770  64.3613884  97.7463767
  40.0437840  65.5694145  97.1081673  42.0696507  66.2731773  97.3015935
  41.6754662  67.2371082  96.9797913  42.7406060  66.4198571  98.1480012
  42.8369446  65.6274823  96.1502851  43.1175535  64.6179586  96.4506509
  42.1761753  65.5780451  95.2848144  44.0879329  66.4149330  95.7886285
  43.8121014  67.4638037  95.6795977  44.8047178  66.3110660  96.6032022
  44.7031688  65.9289341  94.5208533  44.0392910  66.0254937  93.7658419
  45.5278318  66.4748682  94.3159461  44.9592233  64.9571617  94.6218165
  39.8429477  67.1385554  99.2008180  40.4987923  68.0971067  99.6070842
  38.6126817  67.2597264  98.7408699  38.0979869  66.4414038  98.4484032
  37.9746173  68.5632970  98.6031910  38.7220687  69.3544810  98.6618725
  37.2853994  68.6544768  97.2798279  36.5535499  67.8544807  97.1680162
  36.7862517  69.6187691  97.1844766  38.2059802  68.5436761  96.1415624
  39.2705508  69.3912639  96.0440666  39.4468573  70.1337912  96.8223141
  40.1104884  69.3108762  94.9788542  40.9540239  69.9959357  94.8937539
  39.8934398  68.3588475  94.0032686  40.5766419  68.2969685  93.1562115
  38.8315489  67.4963611  94.0918285  38.6426320  66.7545587  93.3158518
  38.0077549  67.5771420  95.1696197  37.1797300  66.8763816  95.2764350
  36.9823674  68.8231674  99.7003867  36.0070081  69.5598640  99.5034876
  37.2447843  68.2656313 100.8747307  38.0673597  67.6937181 101.0027319
  36.3396206  68.4296651 101.9967929  35.3666573  68.0030913 101.7529149
  36.8875049  67.7198807 103.2293589  36.8784218  66.6498246 103.0220020
  37.9001402  68.0311642 103.4858199  36.0551004  67.9251773 104.4516031
  36.1783955  69.0390338 105.2559402  36.8433691  69.7843656 105.1063062
  35.2979530  68.9701497 106.2369310  35.2405225  69.7585156 106.9874507
  34.6015120  67.8554806 106.0948999  35.0449025  67.1914062 104.9758065
  34.5775557  66.2527477 104.6781349  36.1048917  69.8903281 102.3314088
  34.9601173  70.3386109 102.5043691  37.1945143  70.6403683 102.3924276
  38.0987352  70.2318853 102.2036805  37.1411320  72.0410143 102.8321404
  36.4531770  72.1435470 103.6713687  38.5308635  72.5017244 103.2796741
  39.2879659  72.2310606 102.5437146  38.5516816  73.5793502 103.4421216
  39.0539422  71.7511397 104.8348064  40.2357581  72.3585646 104.8917650
  36.5705778  73.0109816 101.7955130  36.7228941  74.2310971 101.9413383
  35.9393930  72.4846392 100.7469725  35.9867073  71.4893461 100.5818892
  35.1850805  73.3037825  99.8111371  35.8388894  74.0044325  99.2917887
  34.5022685  72.4195976  98.7788267  33.8371773  71.7185421  99.2830833
  33.9239254  73.0398120  98.0940247  35.2557054  71.8659329  98.2185700
  34.1449852  74.1057211 100.5541070  33.8039503  75.2252776 100.1583111
  33.6526379  73.5340857 101.6570001  33.9142851  72.5901485 101.9032168
  32.6047831  74.1772489 102.4210926  31.8103227  74.4801119 101.7390325
  32.0018994  73.2518815 103.5013724  31.4399752  73.7878625 104.2662676
  31.3230517  72.6206267 102.9279761  33.0343671  72.3599376 104.1891054
  33.8715199  72.8242054 104.9616516  32.8849613  71.0596073 104.0127171
  33.5353801  70.4168810 104.4416205  32.1209766  70.7139409 103.4497402
  33.0218214  75.5183318 102.9934165  32.1604035  76.3184912 103.3627566
  34.3386155  75.7607615 103.0186768  34.9574738  75.0274755 102.7033907
  34.9312315  77.0181976 103.4833129  34.3274987  77.4339314 104.2900168
  36.3288268  76.7876289 103.9974553  36.8694282  76.4702912 103.1057455
  36.6835124  77.7710384 104.3060066  36.5676154  75.7935893 105.1117045
  37.1846284  74.9654593 104.7629976  37.2915232  76.5307954 106.2179769
  36.6748879  77.3588449 106.5675390  37.4841959  75.8475178 107.0450861
  38.2374991  76.9176268 105.8390421  35.2934887  75.1800253 105.6470793
  34.7768888  74.6550073 104.8435993  35.5352398  74.4763569 106.4436397
  34.6485822  75.9657978 106.0404699  34.9893491  78.0305902 102.3510667
  35.2292354  79.2225253 102.5676757  34.7755294  77.5370065 101.1336944
  34.4930292  76.5719151 101.0393998  34.8615496  78.3468049  99.9372295
  35.2951073  79.3189887 100.1717197  35.6979292  77.6908719  98.8238203
  36.3091947  78.4635299  98.3575003  36.5913185  76.5953849  99.3557574
  35.9806919  75.8220829  99.8218462  37.1625553  76.1611738  98.5352403
  37.2763670  77.0111812 100.0946231  34.8214729  77.1596985  97.8172146
  35.3427364  76.7505189  97.1226236  33.4880320  78.5068777  99.3542425
  32.5197698  78.0982075  99.9257615  33.4227796  79.0811118  98.1694419
  34.2656807  79.3983359  97.7122922  32.1481880  79.3334110  97.5171878
  31.3306167  79.1341063  98.2099749  32.0623567  80.8053845  97.0637950
  31.2911238  80.8772237  96.2968933  31.7740797  81.4070962  97.9257344
  33.2940114  81.2846890  96.5426859  33.1930834  82.2009405  96.2745506
  31.9126444  78.4033638  96.3203517  31.2357692  78.7851993  95.3449915
  32.5003617  77.2161511  96.3316305  33.2682723  77.0311403  96.9610617
  32.1553369  76.1917423  95.3308015  31.1458962  76.3551841  94.9534220
  33.1283546  76.2762462  94.1669915  34.1448143  76.5717579  94.4269568
  33.1461463  75.2961919  93.6902557  32.6681954  77.2131404  93.1685889
  31.5043715  77.1533857  92.4563527  30.8661172  76.2886257  92.6377950
  31.3905758  78.2386532  91.6365101  30.6501645  78.4112456  90.9716022
  32.4724847  79.0415290  91.8423561  32.8075252  80.2215954  91.2488344
  32.1253138  80.6603663  90.5207091  33.9863476  80.7772429  91.6115847
  34.3042834  81.7079339  91.1416581  34.8199500  80.1817990  92.5867727
  35.7596187  80.6508625  92.8784944  34.4805417  79.0232821  93.1818875
  35.1739912  78.5823270  93.8979789  33.2892876  78.4178266  92.8135149
  32.0369511  74.7631505  95.8476951  32.4962590  74.4454963  96.9370651
  31.4318694  73.8711567  95.0387141  30.6555570  74.1830933  93.8222949
  31.3038395  74.6844644  93.1036454  29.8281082  74.8418863  94.0857702
  30.1880162  72.8437966  93.3390569  30.8788421  72.4651784  92.5857264
  29.1931651  72.9388650  92.9039309  30.1606213  71.9704059  94.5358059
  30.3467048  70.9351535  94.2499309  29.2095614  72.0355103  95.0643378
  31.2910993  72.4727551  95.4329802  31.0373067  72.4649548  96.4929929
  32.5386691  71.6227125  95.2027387  33.3909966  71.9934505  94.4253597
  32.5810755  70.4700100  95.8602449  31.8920654  70.3149348  96.5822672
  33.6293599  69.4395357  95.6549779  34.5992056  69.8241711  95.9704997
  33.3036696  68.1889322  96.4850711  32.3530888  67.7853666  96.1363159
  34.0920194  67.4544982  96.3201124  33.2059847  68.5045240  97.9774158
  34.0524193  69.1444162  98.2267894  32.2776781  69.0551799  98.1294913
  33.2185886  67.2821467  98.8686104  33.5812658  66.4221735  98.3055736
  33.8723091  67.4584394  99.7228175  31.8764580  66.9870603  99.3599914
  31.6276467  67.3712795 100.2603069  30.9678230  66.2673390  98.7027526
  31.2557540  65.7154730  97.5290096  32.1737627  65.8410203  97.1270170
  30.5553083  65.1729333  97.0441116  29.7642157  66.0872265  99.2345599
  29.5456459  66.4960364 100.1318903  29.0730203  65.5422748  98.7392063
  33.8115831  69.0858607  94.1876924  34.9356719  69.0383883  93.6985925
  32.6984499  68.8723970  93.4878661  31.8049377  68.9712807  93.9482545
  32.7156063  68.4181763  92.0844438  33.4070458  67.5803789  91.9944098
  31.3165348  67.9615665  91.5922453  31.3692972  67.6246751  90.5569581
  30.9665319  67.1439812  92.2224455  30.2541585  69.0320664  91.6442988
  29.3708339  69.2221779  92.6291604  29.3787470  68.4925003  93.4388565
  28.6265917  70.3326684  92.3904401  27.8979894  70.6912157  92.9910082
  28.9830098  70.8517126  91.1837279  28.4615245  71.9324260  90.4846766
  27.6569341  72.5078000  90.9425824  28.9897673  72.2050527  89.2689812
  28.5852577  73.0222974  88.6718354  30.0401911  71.4628576  88.7643306
  30.4992973  71.7252187  87.8111844  30.5428630  70.3654306  89.4495720
  31.3696679  69.8104172  89.0063402  29.9959069  70.0474734  90.6772659
  33.2483987  69.4511935  91.1196922  33.5973198  69.1023760  89.9803369
  33.3244732  70.7115193  91.5533044  32.8948322  71.0121540  92.4165116
  33.9440524  71.7225095  90.6988652  33.7829297  71.4375693  89.6591788
  33.3971443  73.0892381  90.9071308  32.3163772  73.0254352  90.7807545
  33.6234546  73.5408714  91.8730039  33.9876343  73.9453330  89.7965076
  34.6477400  73.3255404  89.1896976  32.8904818  74.5294009  88.9173659
  32.2301983  75.1497331  89.5234290  33.3388920  75.1370749  88.1313880
  32.3157144  73.7201606  88.4669516  34.8785486  75.0079257  90.4216496
  35.6791640  74.5269178  90.9835623  35.3090681  75.6296340  89.6366445
  34.2867546  75.6297660  91.0933589  35.4390022  71.7107075  90.8626817
  36.1751086  71.5663017  89.8998155  35.8870714  71.8512629  92.0981125
  35.2468465  72.0715286  92.8475753  37.2930242  71.7585423  92.4050712
  37.8269044  72.5927073  91.9498352  37.5120335  71.8045948  93.9116751
  36.8211846  71.1253184  94.4110853  38.5347615  71.4614879  94.0678962
  37.3554993  73.1824102  94.4797173  38.3780958  74.0965207  94.4036433
  39.3060442  73.7950274  93.9177288  38.2522222  75.3770231  94.9264737
  39.0945211  76.0678193  94.8885930  37.0689632  75.7706491  95.4915839
  36.9282466  77.0551435  95.9969285  37.7222435  77.5857979  95.8990794
  36.0232271  74.8784500  95.5499251  35.0759766  75.1791169  95.9976039
  36.1741735  73.5919543  95.0375559  35.3421299  72.8888760  95.0760834
  37.8669255  70.4649560  91.7948970  39.0612554  70.3734784  91.4947938
  36.9947353  69.4898884  91.5788011  36.0533151  69.5603151  91.9377823
  37.4117055  68.2373910  90.9900354  38.3837088  67.9814628  91.4117102
  36.4552877  67.0706714  91.2253420  35.8032065  67.3058494  92.0665202
  35.8519922  66.9157992  90.3308314  37.1951198  65.8790804  91.5139146
  36.5858944  65.1517340  91.6602411  37.7455874  68.4008493  89.5286592
  38.6452929  67.7489997  89.0458412  37.0804769  69.3185342  88.8427050
  36.3656890  69.8500299  89.3188249  37.3659308  69.6380247  87.4290643
  37.3951534  68.7224646  86.8383064  36.2772364  70.5455766  86.8675412
  36.4291801  71.4660592  87.4312116  36.5391267  70.7125238  85.8227244
  34.8331137  70.1320649  86.9625487  34.4353260  70.3528624  87.9530609
  34.0667099  70.9291274  85.9200164  34.4636516  70.7084890  84.9291305
  33.0118487  70.6571133  85.9571233  34.1741558  71.9942761  86.1249895
  34.6710590  68.6272632  86.7535338  35.2356242  68.0910838  87.5163426
  33.6167250  68.3609992  86.8282638  35.0450521  68.3546344  85.7666693
  38.6735638  70.4107951  87.1928026  38.9452739  70.8338834  86.0845283
  39.4005566  70.7304834  88.2575260  38.9972957  70.6270705  89.1777356
  40.7434664  71.3488952  88.1439465  41.0789533  71.3347189  87.1069573
  40.6805095  72.7984614  88.6162804  40.4028877  72.8983564  89.6655879
  41.7242489  73.0853615  88.4882314  39.7911057  73.7119515  87.7631856
  38.4185670  73.5667235  87.7390943  37.9793570  72.7254983  88.2753164
  37.5974731  74.4617374  87.0526680  36.5167621  74.3203937  87.0663623
  38.1404669  75.5432759  86.4029888  37.3309834  76.4382847  85.6743938
  36.4005578  76.2025542  85.6928059  39.5061987  75.7098681  86.4364202
  39.9567227  76.5526609  85.9121790  40.3128336  74.8104908  87.1340668
  41.3892532  74.9730289  87.1888600  41.8186024  70.5366580  88.8854870
  42.8915161  71.0337247  89.2399530  41.5035093  69.2721852  89.1551435
  40.6269417  68.9164910  88.8012929  42.3630610  68.3667950  89.9103545
  43.0381379  68.9491722  90.5374167  41.5511545  67.4441872  90.7989082
  40.8443249  68.0142202  91.4018622  41.0039898  66.7976468  90.1128351
  42.4322242  66.5852376  91.7187103  43.4456732  67.0993435  92.2621673
  42.0636993  65.4140633  91.9444756  43.1336679  67.5166039  88.9293264
  42.5631102  66.6282148  88.3112409  44.4355072  67.7683811  88.8354776
  44.8162366  68.5253414  89.3851644  45.3312205  67.0445165  87.9424268
  45.1743386  67.3919443  86.9212602  46.7630350  67.3415443  88.3404314
  46.9380949  66.9911293  89.3576155  47.4434946  66.8312690  87.6587467
  46.9387942  68.4161714  88.2916000  45.0775614  65.5349416  87.9579733
  44.9048179  64.9085664  86.9213886  45.0198029  64.9765459  89.1524427
  45.0985676  65.5447962  89.9836990  44.8784602  63.5381962  89.3115476
  45.7083347  63.0248748  88.8258434  44.8809845  63.1731304  90.8023724
  43.9404945  63.5353940  91.2175143  44.9081097  62.0850311  90.8607187
  46.0469193  63.7547564  91.6000480  46.1131160  64.8214196  91.3856919
  45.8149991  63.6104536  92.6552678  47.3736321  63.0911650  91.2786234
  48.4191114  63.6286448  91.7010609  47.3795364  62.0264817  90.6209543
  43.5692051  63.0532094  88.6466129  43.5521121  62.0452503  87.9130987
  42.4897178  63.8029170  88.8506977  42.5328441  64.6139602  89.4510711
  41.1921746  63.4252401  88.2859899  40.9698229  62.3765411  88.4831938
  40.0674924  64.2857551  88.8809738  40.2586750  65.3307729  88.6370735
  38.6971445  63.8684642  88.3129202  38.5050422  62.8236200  88.5568402
  37.9170997  64.4922694  88.7493790  38.6986192  63.9939172  87.2301645
  40.0713968  64.1540061  90.3128886  39.3687283  64.6915421  90.6855980
  41.1842732  63.5095984  86.7648107  40.8567724  62.5468463  86.0896769
  41.5554522  64.6725096  86.2431827  41.8542664  65.4030384  86.8733709
  41.5925641  64.9373434  84.8132964  40.5822528  65.0012114  84.4092034
  42.2966804  66.2661257  84.5752360  43.2680910  66.1379178  85.0527540
  42.4316203  66.3596827  83.4976747  41.6318695  67.5182191  85.1113913
  41.4020217  67.3701993  86.1665505  42.5428031  68.7196821  84.9568256
  42.7727345  68.8686247  83.9018154  42.0447465  69.6066710  85.3483497
  43.4669704  68.5490259  85.5089955  40.3308485  67.7355836  84.3671098
  39.6772243  66.8765169  84.5183686  39.8420268  68.6341440  84.7435986
  40.5356355  67.8527460  83.3029509  42.3787403  63.8703076  84.0876915
  41.9091261  63.3305807  83.0944753  43.5712262  63.5671536  84.5938653
  43.9185223  64.1129855  85.3694634  44.4469680  62.5380906  84.0194790
  44.7154522  62.8153494  83.0000954  45.7262378  62.3896294  84.8373011
  45.4626413  62.4157593  85.8946248  46.1758918  61.4256698  84.5991978
  46.7251470  63.5063852  84.5337589  47.0257009  63.3675976  83.4952474
  46.1711766  64.4402291  84.6294372  48.1915866  63.5812736  85.5677834
  48.8574079  61.9213119  85.3710929  49.0811343  61.7412486  84.3196069
  49.7705551  61.8236198  85.9582207  48.1244546  61.1920446  85.7161292
  43.7041254  61.2029673  83.8918988  43.8073530  60.5180128  82.8620588
  42.9392592  60.8690009  84.9295245  43.0373219  61.3706121  85.8006555
  42.1110628  59.6695453  84.9121760  42.7040043  58.8491675  84.5078249
  41.6049296  59.2719038  86.2751211  41.9872153  60.0505241  86.9352024
  40.5164688  59.2522344  86.3295847  42.1504591  57.9424885  86.7026541
  43.3375835  57.9113797  87.0726932  41.4394343  56.9190887  86.5747381
  40.9927352  59.7251209  83.8687616  40.7640871  58.7660481  83.1644283
  40.3158821  60.8553263  83.7602874  40.4858016  61.6033113  84.4173605
  39.2723878  61.0470233  82.7385276  38.5237166  60.2602078  82.8307876
  38.5789380  62.4058309  82.9057590  39.3619681  63.1321148  83.1236464
  38.1205358  62.6435233  81.9458268  37.5175149  62.4572763  84.0031665
  36.6254745  61.9389291  83.6514833  37.9049585  61.9528728  84.8883596
  37.1636678  63.8936909  84.3530099  36.4147494  63.8946946  85.1449816
  38.0596446  64.4082073  84.7002818  36.6237241  64.6186994  83.1930123
  36.3678010  64.0770539  82.3798562  36.4652764  65.9393496  83.1518842
  36.7983954  66.6627331  84.2198552  37.1644988  66.2045653  85.0421390
  36.6833103  67.6660018  84.2023361  35.9687484  66.5443252  82.0642549
  35.7083896  65.9938012  81.2585027  35.8571114  67.5480947  82.0551572
  39.8585784  60.9324089  81.3370252  39.2197524  60.3994768  80.4395283
  41.0795732  61.4266087  81.1614366  41.5157531  61.9387621  81.9147927
  41.8060236  61.2982057  79.8985093  41.1321893  61.5822232  79.0901897
  43.0415684  62.2058442  79.8761584  43.6015195  62.0789945  80.8026919
  43.9187704  61.8383832  78.7042817  43.3596164  61.9654329  77.7772942
  44.7964573  62.4845750  78.6900484  44.2346691  60.7993768  78.7979464
  42.6080931  63.6567067  79.7262572  42.2887631  63.7827133  78.6917276
  41.7546060  63.7985080  80.3892440  43.6726885  64.6766051  80.0517627
  44.5263669  64.5357191  79.3888266  43.2691646  65.6799430  79.9154518
  43.9922116  64.5515120  81.0863431  42.2259567  59.8386839  79.6727010
  42.0950256  59.3274039  78.5654211  42.7117287  59.1730418  80.7203818
  42.9197627  59.6567191  81.5822852  43.0741811  57.7574076  80.6133205
  43.9177452  57.6600578  79.9299306  43.4641967  57.1574635  81.9553879
  42.9781504  57.7412866  82.7370585  43.0937067  56.1327713  81.9844232
  44.9707190  57.1591006  82.1831925  45.4434057  56.6779981  81.3269165
  45.3027665  58.1953872  82.2460942  45.3612407  56.4227519  83.4585177
  44.6198549  56.6443957  84.2261896  45.3618024  55.3523086  83.2529690
  46.7403976  56.8462702  83.9476560  47.2107620  55.9696910  84.3931523
  47.3125353  57.1608416  83.0748430  46.7076977  57.9574179  84.9491027
  46.1779515  57.6659785  85.7581340  47.6507980  58.1863962  85.2288004
  46.2722704  58.7699092  84.5363558  41.9823442  56.9273008  79.9476518
  42.2492613  56.2043896  79.0018714  40.7596140  57.0537906  80.4219146
  40.5965770  57.6810414  81.1965595  39.6202592  56.2871694  79.8933139
  39.7632691  55.2218536  80.0742826  38.3326041  56.7364766  80.5997291
  38.3039802  57.8243841  80.5385968  37.5008893  56.3191839  80.0320871
  38.2183949  56.3058978  82.0603660  38.0232859  55.2337373  82.0828463
  39.1705982  56.5117201  82.5492913  37.0964802  57.0442517  82.7969655
  37.5504089  57.8105919  83.4252731  36.4563736  57.5177154  82.0525228
  36.2606557  56.1059105  83.6632844  35.3383304  55.8835600  83.1266497
  36.8272415  55.1859884  83.8075860  35.9329210  56.6986168  84.9870832
  35.4075372  57.5508225  84.8536031  35.3812072  56.0432536  85.5220701
  36.7874263  56.9043314  85.4846787  39.4210265  56.4269179  78.3800860
  39.1353399  55.4476617  77.6982308  39.5978229  57.6334602  77.8526465
  39.7815938  58.4324080  78.4425703  39.5385548  57.8406928  76.3921993
  38.5987608  57.4305103  76.0225551  39.6203550  59.3289013  75.9879705
  40.6703917  59.6064831  76.0800055  39.3245542  59.3707297  74.9397089
  38.7678692  60.2969226  76.7939816  38.6836610  59.8748187  77.7953997
  39.2493001  61.2731751  76.8510543  37.3755793  60.4764109  76.2258147
  36.9164235  61.6062405  76.0206466  36.6742235  59.3659051  76.0165043
  35.7394234  59.4263060  75.6388776  37.0796423  58.4672971  76.2361420
  40.7006504  57.1309255  75.7199216  40.5153224  56.4309817  74.7444785
  41.9039392  57.3164391  76.2584880  41.9773435  57.8824800  77.0917399
  43.1308783  56.6803463  75.7328233  43.3101032  57.0221059  74.7134225
  44.3500770  57.0398713  76.5919078  43.9186523  56.9104483  77.5844911
  45.0709239  56.2443703  76.4030746  45.0509526  58.3869121  76.5160359
  44.4515663  59.1393883  77.0284971  46.4248101  58.2836435  77.1883939
  47.0249767  57.5316373  76.6761581  46.9293405  59.2483850  77.1352565
  46.2983223  57.9973780  78.2324980  45.1614717  58.8619580  75.0733728
  44.1638353  58.9619981  74.6458064  45.6664671  59.8275291  75.0459254
  45.7333288  58.1368441  74.4943320  43.0524215  55.1576325  75.7806265
  43.7875471  54.4722299  75.0719619  42.1977403  54.6440200  76.6644683
  41.6947180  55.2789645  77.2677206  42.0101106  53.2115105  76.8587073
  42.9872721  52.7286673  76.8478906  41.3123793  52.8748150  78.1800855
  41.8628617  53.3728821  78.9782067  40.3013236  53.2789568  78.1297309
  41.2470523  51.3663915  78.4672930  40.6486022  50.9076682  77.6801899
  42.2648204  50.9788664  78.4217466  40.6368809  51.0357447  79.8289040
  39.5506109  51.0804104  79.7506637  40.9387627  50.0288953  80.1173844
  41.0705361  51.9699909  80.8661933  40.3714592  52.6018353  81.2297365
  42.3077573  52.0358534  81.3618504  43.2501294  51.1939532  80.9454877
  43.0287717  50.4979379  80.2478750  44.1825265  51.2547349  81.3289467
  42.6079632  52.9568331  82.2754859  41.8975447  53.6022650  82.5898477
  43.5447121  53.0057462  82.6499292  41.2370775  52.6145932  75.6935981
  41.3713801  51.4254270  75.3964660  40.3559418  53.4560582  75.1714445
  40.2739687  54.3676286  75.5985501  39.4894863  53.1402953  74.0598089
  38.9372317  52.2259846  74.2769491  38.4963733  54.2579271  73.8079625
  39.0529065  55.1879654  73.6922091  37.9627027  54.0370082  72.8835759
  37.5002174  54.4026944  74.9449326  37.0877755  53.4168401  75.1596041
  38.0406086  54.7679248  75.8182501  36.3804081  55.3537639  74.6139720
  35.6554163  55.7733862  75.5383891  36.2312912  55.6808044  73.4220230
  40.3932631  52.9243626  72.8952782  40.1719555  52.0505962  72.0765425
  41.4410872  53.7246411  72.8268753  41.5129378  54.5550345  73.3972994
  42.4164141  53.5272378  71.7773501  41.9045751  53.4475929  70.8183002
  43.3894932  54.6756920  71.7098820  43.7331511  55.0239795  72.6838914
  44.2504832  54.4598204  71.0772718  42.6698587  55.8210349  71.0759760
  41.7316898  55.7325349  70.0995171  41.4860812  54.7317408  69.7442885
  41.2837106  56.9715463  69.7637832  40.5906393  57.1769817  69.0584124
  41.9297890  57.8961604  70.5339160  41.8157760  59.2661973  70.5548162
  41.1092349  59.7430849  69.8754954  42.5997019  59.9420119  71.4301624
  42.5386735  61.0294461  71.4733174  43.4767917  59.2867889  72.2717491
  44.0996577  59.8450458  72.9706673  43.5914143  57.9321194  72.2561847
  44.3047527  57.4662589  72.9360545  42.8065885  57.2069838  71.3713718
  42.9791320  52.1246834  72.0016265  43.3812898  51.4485184  71.0705003
  42.9733117  51.7005355  73.2638082  42.9134364  52.4277249  73.9621705
  43.2412273  50.3431066  73.7045963  42.7548189  50.1432621  74.6593571
  42.6818882  49.3718384  72.6565396  41.7498081  49.7852288  72.2712678
  43.4116726  49.3084062  71.8493897  42.4290904  48.0003396  73.2108340
  42.7286421  47.7689386  74.4015764  41.9175050  47.1551853  72.4489326
  44.5380678  49.7519190  74.1736111  45.6388873  50.1303097  73.8070352
  44.2879813  48.7869684  75.0460897  43.3431880  48.8133568  75.4021354
  45.2194697  47.8679118  75.6485874  44.7130451  47.2883218  76.4204091
  45.7841522  46.9090145  74.6130331  46.2547108  47.5078807  73.8332683
  46.5399843  46.2992382  75.1079984  44.7331184  46.0063975  73.9924240
  44.0665006  46.6253976  73.3919572  45.2630216  45.3089074  73.3437258
  43.9183122  45.2283834  75.0149301  43.5656342  45.7852672  76.0757278
  43.6120432  44.0481201  74.7453011  46.3069570  48.4366164  76.5001243
  47.2619501  47.7400545  76.8069708  46.1903720  49.6749081  76.9320592
  45.4637573  50.3408090  76.7113641  47.3056140  50.1173087  77.7691751
  48.1892458  50.1914866  77.1353047  47.0024262  51.5025818  78.3508592
  46.8089501  52.2037130  77.5390210  46.1253340  51.4426231  78.9952305
  48.1746158  52.0206154  79.1718946  49.1942373  51.3461534  79.2980464
  48.0271505  53.2236826  79.7314543  48.7750947  53.6141274  80.2866410
  47.1683159  53.7379173  79.5970424  47.6289225  49.1266736  78.9027582
  48.1481620  49.5168536  79.9546179  53.1940045  52.0911489  83.5383627
  53.7817191  52.8228004  83.9116950  52.3512407  52.4000736  82.3719449
  52.4120078  51.5903870  81.6447488  50.8758702  52.5645173  82.8064286
  50.8583974  52.8312942  83.8631329  50.4350621  53.3715155  82.2211576
  50.1266858  51.3689324  82.6062274  49.2192488  51.5092540  82.8863484
  52.8610941  53.6372156  81.5816979  53.5965245  53.4881622  80.6120535
  52.5155960  54.8434469  82.0569683  51.8686179  54.8698927  82.8320937
  52.9398891  56.1259721  81.4533380  53.9017160  56.0003371  80.9561419
  51.9054036  56.5996018  80.4126345  52.1822812  57.6443878  80.2717087
  52.0812878  56.0497639  79.4880572  50.4214763  56.5105048  80.7851751
  50.1320284  55.4600023  80.8128391  50.1557292  57.1446781  82.1404543
  50.4445178  58.1953777  82.1134282  49.0946626  57.0660181  82.3772052
  50.7371348  56.6281355  82.9041635  49.5290718  57.1414887  79.7197806
  49.6743452  56.6250246  78.7709603  48.4854239  57.0570930  80.0227288
  49.7892338  58.1936034  79.6037235  53.1776495  57.1374396  82.6000261
  53.3154925  56.7160168  83.7566073  53.3803158  58.4457874  82.2816952
  52.9570422  59.2664119  81.1274150  51.9064957  59.0692180  80.9139508
  53.5598089  59.0007596  80.2589681  53.1991674  60.6826715  81.5836059
  52.2554095  61.1147280  81.9163931  53.5892597  61.2633143  80.7476734
  54.1879429  60.6184089  82.6925168  54.0129097  61.4354147  83.3924910
  55.2221392  60.6496797  82.3496471  53.9051229  59.2808635  83.3743527
  54.8109850  58.8054993  83.7505721  52.9079930  59.4566854  84.5216986
  51.6950274  59.3273085  84.3321438  53.4445330  59.7301432  85.7147165
  54.4510917  59.7688710  85.7884659  52.6450011  60.0025660  86.9212933
  51.6585133  59.5516180  86.8136510  53.3248823  59.4128412  88.1873182
  54.0280167  60.1585806  88.5582279  52.5448640  59.2482663  88.9306799
  54.0138456  58.1909284  87.9443723  54.4102864  57.8792349  88.7612455
  52.5232806  61.5205821  87.1188591  51.5351063  62.0155684  87.6587489
  53.5703383  62.2109995  86.6971292  54.3912424  61.7078784  86.3920312
  53.6165012  63.6508168  86.7079115  53.2889998  64.0323408  87.6750111
  55.0561605  64.1189476  86.4581661  55.6578348  63.8962860  87.3393636
  55.4417830  63.5607629  85.6050394  55.1674460  65.6070415  86.1564145
  54.2198584  66.3809596  86.3180573  56.3543757  66.0130289  85.7254456
  56.5020087  66.9876239  85.5052891  57.1050674  65.3457039  85.6194259
  52.6551266  64.2025512  85.6591795  52.7604003  63.8783751  84.4631956
  51.7297442  65.0698725  86.1021526  51.6664247  65.6062338  87.4768715
  52.6750492  65.6910878  87.8813177  51.0797460  64.9341674  88.1031573
  51.0048550  66.9408144  87.2934226  51.7437052  67.7022123  87.0434772
  50.4759770  67.2324932  88.2007885  50.0502187  66.7182026  86.1689034
  49.8298685  67.6518935  85.6514422  49.1203547  66.2672839  86.5154938
  50.7776336  65.7550434  85.2203662  50.1046908  64.9943760  84.8245995
  51.4279336  66.5166234  84.0576402  50.8937329  66.4912478  82.9701722
  52.5563286  67.1738609  84.2819942  52.9133041  67.2173210  85.2258051
  53.3078086  67.8440358  83.2270305  52.7681504  68.6969562  82.8154542
  54.6556693  68.3137841  83.7852580  55.2032076  67.4489402  84.1598873
  55.4712432  68.9996563  82.7081232  54.9245169  69.8649320  82.3333045
  56.4241494  69.3253856  83.1252216  55.6526064  68.3027588  81.8898688
  54.4232404  69.2420501  84.9848376  54.1140312  70.2064965  84.5819310
  53.6056836  68.8114152  85.5629846  55.6271259  69.4325830  85.8795899
  56.4450026  69.8636439  85.3022130  55.3688201  70.1030892  86.6992232
  55.9366564  68.4685616  86.2832649  53.5597909  66.8879744  82.0383633
  53.2238456  67.1813912  80.8768878  54.1311043  65.7366530  82.3420950
  54.4793899  65.5617312  83.2738669  54.4666070  64.7934819  81.2953017
  54.9193825  65.3234503  80.4573118  55.4507699  63.7505748  81.7992475
  55.0557416  63.4854860  82.7799512  55.4914557  62.8602568  81.1717297
  56.8641562  64.3305186  81.9567091  57.0770768  65.1702379  82.8583451
  57.7283996  64.0335310  81.1060466  53.2175310  64.2414216  80.6255065
  53.1162468  64.2334603  79.4097495  52.2630482  63.8189840  81.4317032
  52.3971804  63.8616673  82.4318462  51.0303746  63.2629993  80.9302665
  51.2344542  62.3242864  80.4152239  50.0521034  62.9901318  82.0747483
  50.4970413  62.5028797  82.9423397  49.6539447  63.9613387  82.3685628
  48.8835196  62.1546837  81.6682521  47.9360357  62.6571050  80.7980061
  48.0306329  63.6842301  80.4456352  46.8838169  61.8798953  80.3759710
  46.1237149  62.3041123  79.7199331  46.7890407  60.5661656  80.7810645
  45.9642003  59.9416991  80.4378739  47.7447689  60.0428118  81.6250072
  47.6789146  59.0028205  81.9446657  48.7868382  60.8367906  82.0660630
  49.5420345  60.4231973  82.7344336  50.4046474  64.2181411  79.9385183
  50.0693009  63.8257462  78.8527251  50.2957919  65.4835653  80.3221615
  50.6825604  65.7401635  81.2191938  49.6501385  66.5302064  79.5163377
  48.6113069  66.2629896  79.3226287  49.6805604  67.8693990  80.2657186
  49.0016425  68.5576781  79.7622887  49.3337964  67.6981692  81.2848040
  50.9849658  68.4303048  80.2977979  50.9631639  69.2640299  80.7732208
  50.3404427  66.7401020  78.1805510  49.6868621  67.0153644  77.1809310
  51.6674465  66.6084118  78.1786450  52.1521489  66.4783871  79.0551474
  52.4681163  66.6677380  76.9368652  52.1029671  67.4772121  76.3047917
  53.9262954  66.9170488  77.2466372  54.0294061  66.1886422  78.0509327
  54.6009650  66.6554029  76.4314916  54.2709674  68.2808095  77.7613518
  54.0151667  69.4343148  77.0100892  53.4699842  69.3431966  76.0706357
  54.4446070  70.6805295  77.4452848  54.2002366  71.5865696  76.8907794
  55.1769510  70.7624018  78.6155920  55.6520234  71.9468268  79.1122103
  55.4230361  72.7017297  78.5651398  55.4812083  69.6286348  79.3331447
  56.0651857  69.7054485  80.2502982  55.0499362  68.4013961  78.8948577
  55.3217559  67.5000810  79.4442622  52.4118037  65.3896834  76.0634608
  52.5254784  65.4549707  74.8442030  52.2835721  64.2394251  76.7109317
  52.3558875  64.2435232  77.7183309  52.1294929  62.9574915  76.0343538
  52.9018802  62.8227020  75.2771558  52.2671654  61.8356642  77.0840209
  53.3369063  61.7021660  77.2450548  51.8078045  62.2170969  77.9959401
  51.6435823  60.5092451  76.7237705  51.7140316  59.8561168  77.5935758
  50.5944431  60.6835555  76.4849715  52.3275175  59.8521112  75.5425877
  52.2247454  60.4789246  74.6567876  53.3849849  59.7025521  75.7605191
  51.7205723  58.5595122  75.2713845  51.0967118  58.4979478  74.4794834
  51.9323856  57.4650208  76.0001421  51.2821050  56.3464431  75.7042281
  50.6329166  56.3329094  74.9306188  51.4394483  55.5139351  76.2540219
  52.7867915  57.4820601  77.0268715  53.2795401  58.3334769  77.2557567
  52.9361329  56.6434490  77.5695751  50.7955715  62.8706748  75.2626243
  50.7582234  62.3984839  74.1392740  49.7069400  63.3153121  75.8641691
  49.7279406  63.6228974  76.8259641  48.4179320  63.2907285  75.1715776
  48.3350382  62.4165394  74.5258058  47.2445334  63.2896455  76.1465055
  46.3142266  63.1673354  75.5918266  47.3986393  62.1457878  77.1349876
  48.3285624  62.2676661  77.6904059  46.5583015  62.1491031  77.8291936
  47.4197503  61.1989545  76.5953926  47.1480038  64.6147748  76.8686179
  47.0017703  65.4148076  76.1429007  46.3046877  64.5924257  77.5588483
  48.0678784  64.7936148  77.4253475  48.2860508  64.4413813  74.2048415
  47.5344640  64.3628228  73.2451541  49.0286960  65.5070288  74.4449239
  49.5389219  65.5742554  75.3139748  49.1076925  66.6220881  73.5090055
  48.1232033  67.0746458  73.3903816  50.0669240  67.6770069  74.0316835
  51.0593419  67.2412326  74.1470409  50.1147444  68.5067302  73.3264370
  49.7161661  68.0413155  74.9972649  49.5595962  66.1359953  72.1336543
  48.9964287  66.5277458  71.1068136  50.5696207  65.2757174  72.1155860
  51.0234758  65.0172949  72.9800701  51.1027867  64.7302063  70.8578524
  51.1989098  65.5655392  70.1642542  52.4728961  64.1418216  71.0975185
  52.3918094  63.2983694  71.7831667  52.8931526  63.8010804  70.1512732
  53.1239923  64.9007505  71.5313385  50.2039630  63.6775071  70.2039952
  50.3118897  63.4294090  69.0131198  49.3304111  63.0501373  70.9830076
  49.3432590  63.2332197  71.9761919  48.3306364  62.0907114  70.4584987
  48.8070533  61.3910490  69.7717683  47.7092936  61.2933198  71.6213524
  47.2116183  61.9798594  72.3062480  46.9819443  60.5840463  71.2263914
  48.8629000  60.3211263  72.6326397  47.9439353  59.8319724  73.4603659
  47.1937690  62.7855266  69.7130423  46.6116480  62.2658764  68.7813091
  46.8450491  63.9816825  70.1607247  47.3711703  64.3595187  70.9356670
  45.8265014  64.7979607  69.5686312  44.8622400  64.2926562  69.6230971
  45.7251495  66.1230516  70.3163316  46.7687158  66.4050975  70.4560407
  45.2494786  66.8217808  69.6281349  45.0101564  66.1622813  71.6481127
  45.5913837  65.6423935  72.4096850  44.8566571  67.6247668  72.0382934
  44.2751026  68.1452432  71.2773745  44.3433153  67.6935179  72.9973837
  45.8414241  68.0848194  72.1200613  43.6643830  65.4636563  71.5608598
  43.8127427  64.4227518  71.2734462  43.1693144  65.5051331  72.5310598
  43.0439035  65.9609916  70.8153655  46.1034776  65.2105039  68.1460290
  46.9462049  66.0370097  67.9464298  45.3042795  64.7247419  67.1870359
  44.0221788  64.0615966  67.4742332  43.3985405  64.7220828  68.0766728
  44.2060040  63.1371199  68.0216364  43.4455495  63.8126319  66.1011155
  42.5379734  64.4062499  65.9914688  43.1997976  62.7543794  66.0127465
  44.4963497  64.2122453  65.0799584  43.9753091  64.6925140  64.2517327
  45.1295530  63.4126796  64.6954486  45.3411870  65.2314463  65.8173460
  46.3819078  65.3092272  65.5027849  44.6791124  66.5959061  65.7173235
  43.4499989  66.6739501  65.5878005  45.4614727  67.6524245  65.8558413
  46.4445211  67.5300353  66.0526563  44.9360496  69.0081797  65.7812076
  43.9203507  68.9954645  65.3858682  44.9467106  69.7264038  67.1522038
  45.0579532  70.7989464  66.9929001  43.6557911  69.4583924  67.8916703
  43.5440671  68.3860170  68.0517627  43.6752920  69.9688843  68.8545402
  42.8158560  69.8267462  67.3026680  46.1449601  69.2974645  68.0072513
  45.9202526  68.3129143  68.4174566  47.0103994  69.2270860  67.3483422
  46.4494058  70.2599905  69.1407184  45.5845332  70.3305402  69.8003530
  47.3079435  69.8969105  69.7056832  46.6746778  71.2447130  68.7312384
  45.7433214  69.8170540  64.7769464  46.6438790  69.2783629  64.1429812
  45.3795678  71.0834612  64.5833973  44.5528252  71.4501364  65.0330029
  46.0028550  71.8766882  63.5267739  46.6554159  71.2383020  62.9311847
  44.9299938  72.5083836  62.5865867  45.1923739  72.4818193  61.5289714
  44.0974509  71.8294459  62.7710210  44.5239250  73.9281177  62.9743201
  45.2731479  74.8880886  62.6588935  43.3752627  74.0990175  63.4375967
  47.0785619  72.8455482  64.0596669  47.0071008  73.3081541  65.1951290
  48.1224565  73.0487714  63.2493965  48.1230800  72.6272783  62.3315498
  49.3282084  73.7347239  63.6953838  49.8195532  73.0336748  64.3700761
  50.2694641  74.0108115  62.4975027  50.4694573  73.0784497  61.9694842
  49.7950063  74.7183108  61.8174773  51.5833454  74.5984675  63.0075081
  52.5036187  73.7874751  63.2955883  51.6541957  75.8527562  63.1041497
  49.0421501  75.0179917  64.5199826  49.8307777  75.3663863  65.3986547
  47.9164994  75.6919646  64.2742650  47.3326336  75.4548525  63.4849755
  47.6018697  76.9032969  65.0300602  48.5055311  77.4259519  65.3436314
  46.7024078  77.8966592  64.2365076  46.8955704  77.7566630  63.1729341
  45.2204229  77.6734862  64.5172557  45.0263902  77.8137735  65.5806333
  44.6298154  78.3875929  63.9433787  44.9441359  76.6593239  64.2287388
  47.1030735  79.3401090  64.5505450  48.1438873  79.4984545  64.2681706
  46.4667782  80.0245936  63.9895559  46.9842958  79.5266866  65.6178695
  47.0377981  76.6222306  66.4280247  47.3294854  77.3456364  67.3670367
  46.2450192  75.5696469  66.5604903  46.0134068  75.0436469  65.7299609
  45.7735439  75.0668190  67.8569625  45.2815446  75.8556515  68.4259784
  44.7600211  73.9480375  67.5935758  44.9280636  73.8107230  66.5253972
  45.1256527  73.0746575  68.1335952  43.2770381  74.1177665  67.8534654
  42.7001988  73.8553958  66.9666065  42.9067886  73.1789227  68.9962093
  43.4829274  73.4409877  69.8836127  41.8428124  73.2724201  69.2137262
  43.1295420  72.1511818  68.7094515  42.8880941  75.5698956  68.1255125
  43.1477999  76.1838172  67.2631015  41.8147065  75.6316065  68.3047670
  43.4238795  75.9317961  69.0030437  46.8816517  74.3935963  68.6733952
  46.8943310  74.4810816  69.9018835  47.7713364  73.6733563  67.9947448
  47.6626138  73.5477281  66.9985037  48.8884778  72.9927601  68.6651431
  48.5279696  72.3282024  69.4503157  49.6295683  72.1537766  67.6141638
  48.8882538  71.4563601  67.2240841  49.9147665  72.8558803  66.8307020
  50.8566804  71.3832565  68.0750052  51.3984133  71.0732970  67.1813883
  51.4732245  72.0722062  68.6523472  50.5329516  70.1573157  68.9239904
  51.4196499  69.9340964  69.5173185  49.7127827  70.4329941  69.5868810
  50.1487381  68.9471963  68.1753851  49.2388126  68.5687336  68.3965208
  50.9210761  68.2855922  67.3077146  52.1003985  68.7586879  66.9279765
  52.4309388  69.6385509  67.2976848  52.6625601  68.2369422  66.2708195
  50.4644510  67.1722202  66.7510950  49.5417871  66.8353263  66.9862416
  51.0413787  66.6661177  66.0945027  49.8175824  74.0071883  69.3472385
  50.3646676  73.7295743  70.4375789  49.9738368  75.1907158  68.7308139
  49.4752389  75.4149755  67.8815748  50.8010202  76.2353167  69.3492722
  51.6468892  76.0436193  70.0094668  51.0381783  77.5654065  68.5753037
  50.2558991  78.2650921  68.8695478  52.4091364  78.1842648  68.8596176
  53.1919870  77.4852992  68.5651816  52.5158399  79.1086718  68.2920027
  52.4971585  78.4001053  69.9244013  50.2975883  77.7276608  67.2431472
  50.6041944  76.9067154  66.5949635  49.2301870  77.6481035  67.4491195
  50.5837445  79.0561090  66.5503976  51.6509611  79.1361903  66.3436715
  50.0280993  79.1052320  65.6139444  50.2769555  79.8775789  67.1978291
  50.1667201  76.7931358  70.6095369  50.8662217  77.2524170  71.5184365
  48.8382944  76.7588953  70.6657564  48.3290742  76.4670495  69.8437953
  48.0726454  77.2157350  71.8339744  48.3810461  78.2259058  72.1033127
  46.5715038  77.2276038  71.5267366  46.4591095  76.9272942  70.4849684
  46.1103444  76.4796493  72.1717143  45.8894975  78.5763787  71.7436711
  46.0665748  78.8644700  72.7798891  46.3140949  79.3296489  71.0800424
  44.3835633  78.5105953  71.5063845  43.6456992  77.9367542  72.3074537
  43.9260486  79.0630686  70.3803434  42.9366292  79.0449119  70.1783011
  44.5714543  79.4966407  69.7356977  48.3443975  76.4071888  73.0836031
  48.6914180  76.9817425  74.0937861  48.1810958  75.0791775  73.0175763
  47.9464532  74.6852681  72.1176443  48.4610858  74.1605754  74.1276276
  47.7051516  74.2598588  74.9066048  48.4361201  72.7304319  73.6047134
  48.7251143  72.8549441  72.5611243  49.2485446  72.2518448  74.1515414
  47.1973371  71.8664553  73.6847891  46.3876857  72.4330147  74.1447629
  46.7847396  71.4394513  72.2822507  47.5937640  70.8724038  71.8217777
  45.8919567  70.8167332  72.3393615  46.5727954  72.3231895  71.6804312
  47.4956538  70.6452141  74.5310740  47.7876531  70.9594258  75.5331253
  46.6058080  70.0186823  74.5921763  48.3083713  70.0779034  74.0774797
  49.8868812  74.3344106  74.6163095  50.1934769  74.3599501  75.8263904
  50.7700147  74.3552799  73.6243031  50.4514699  74.2184877  72.6756639
  52.1827195  74.5356941  73.8518905  52.5799100  73.7127575  74.4461246
  52.9225507  74.5644883  72.4872185  52.2873817  73.8139915  72.0166720
  52.7287286  75.5379248  72.0367137  54.4137932  74.1851508  72.2775784
  54.5204693  73.8926585  71.2329879  55.4213484  75.3134550  72.6023059
  55.3155813  75.6061788  73.6469230  56.4362022  74.9567436  72.4264383
  55.2231128  76.1734867  71.9626587  54.7455231  72.8808576  72.9924711
  54.1204923  72.0801162  72.5971873  55.7951536  72.6346955  72.8319056
  54.5585354  72.9935171  74.0603861  52.4315797  75.8411384  74.6253488
  53.2342616  75.8622202  75.5936805  51.7220437  76.9033974  74.2359527
  51.2314641  76.8959899  73.3531298  51.8127326  78.1628590  74.9661279
  52.8601831  78.3660010  75.1890179  51.2439773  79.3419969  74.1694848
  50.4601317  78.9581220  73.5165490  50.8119781  80.0480888  74.8786470
  52.3100046  80.0531713  73.3250277  53.1334979  80.3235524  73.9859768
  52.6647619  79.3483939  72.5730051  51.7797626  81.3037166  72.6378684
  51.2574030  81.9055835  73.3815052  52.6293458  81.8648373  72.2487007
  50.8285568  80.9684142  71.4979208  51.3567167  81.1247910  70.5573390
  50.5484098  79.9187661  71.5865526  49.6009297  81.8140591  71.5247073
  49.8602715  82.7866984  71.4421580  48.9997879  81.5593244  70.7540980
  49.1111520  81.6689838  72.3960109  51.2533853  78.0695567  76.3900810
  51.6275035  78.8771511  77.2348199  50.3949224  77.0787016  76.6605653
  50.1075549  76.4608319  75.9150747  49.7442729  76.9423633  77.9643859
  49.4875012  77.9004826  78.4162429  48.4868953  76.0837441  77.8431769
  48.5783178  75.4467632  76.9634055  48.3059281  75.2153335  79.0819226
  48.2139625  75.8516680  79.9621051  47.4045712  74.6118740  78.9747162
  49.1696010  74.5603074  79.1964175  47.2901085  77.0063239  77.5653934
  47.1504418  77.6170909  78.4573338  47.5732935  77.6451950  76.7288831
  45.9949768  76.2881421  77.2368731  45.7108885  75.6493860  78.0731651
  45.2083529  77.0207612  77.0563424  46.1337411  75.6774879  76.3447151
  50.7124138  76.4317436  79.0479862  51.4576750  75.4374259  78.8466704
  50.7246354  77.1341119  80.1839076  49.9794722  77.7825390  80.3945577
  51.8073766  76.9878283  81.1496647  52.6595516  76.5645887  80.6179081
  52.0608783  77.9867844  81.5045211  51.4850656  76.1134482  82.3346023
  52.3873689  75.6418210  83.0253618  50.1904630  75.8182622  82.5138519
  49.4758285  76.2866671  81.9753413  49.7792384  74.8770678  83.5183007
  50.5974208  74.7135555  84.2196854  48.5727187  75.3895602  84.2898516
  48.8215786  76.3449585  84.7517846  47.7382311  75.5256002  83.6019390
  48.2097084  74.4619082  85.2928946  47.4481150  74.7930417  85.7744813
  49.4557184  73.4994355  82.9466636  48.7293470  73.3652350  81.9494375
  49.9334441  72.4744880  83.6552162  50.6172977  72.6488953  84.3777297
  49.5335546  71.1086872  83.4058860  49.8315760  70.8002566  82.4038116
  50.1943760  70.1868655  84.4134821  49.8982464  70.4774857  85.4214241
  49.8826270  69.1594010  84.2257870  51.2777038  70.2604755  84.3181841
  48.0254033  70.9845402  83.4906285  47.4363728  70.3878493  82.6147701
  47.4089224  71.5671116  84.5270723  47.9618387  72.0875041  85.1930863
  45.9662768  71.4535684  84.7597087  45.6541116  70.4115270  84.8290035
  45.5426914  72.1985297  86.0290920  45.6164180  73.2736479  85.8654291
  44.1151993  71.8372329  86.3616411  44.0407661  70.7622551  86.5259064
  43.8073555  72.3644201  87.2646398  43.4652868  72.1237757  85.5348363
  46.4919140  71.9035038  87.2190333  47.4968617  71.8264265  86.8040154
  46.4383067  72.7672754  87.8816980  46.1709222  70.6450563  88.0023998
  46.2247881  69.7807472  87.3404570  46.8907310  70.5271382  88.8123812
  45.1662315  70.7215954  88.4181379  45.1679155  71.9979160  83.5861845
  44.2766931  71.3291632  83.0781537  45.4999764  73.2203368  83.1654495
  46.2850172  73.6828408  83.6012249  44.8564223  73.8734173  82.0164177
  43.7912600  73.9963991  82.2123872  45.4695614  75.2517646  81.7661319
  46.5306348  75.0627110  81.6034017  45.0159671  75.5973609  80.8371995
  45.3056925  76.3033480  82.8238617  44.2633136  76.5528900  83.0220431
  45.7594667  75.8964051  83.7275145  46.0449010  77.5747597  82.4392879
  47.2661518  77.5614580  82.2100706  45.2988567  78.6658330  82.2775009
  45.7362224  79.5395831  82.0218185  44.2990561  78.6146314  82.4112116
  45.1360460  73.1312430  80.7119738  44.3532742  73.2102279  79.7515308
  46.2909412  72.4582131  80.6673230  46.9836319  72.5763506  81.3928038
  46.6332323  71.6458141  79.5154316  46.3862874  72.2026321  78.6115117
  48.1239877  71.2709118  79.4698070  48.6660384  71.9350218  80.1430366
  48.2300469  70.2415913  79.8123721  48.6957797  71.3991761  78.0589991
  48.0714943  70.8019788  77.3943759  48.6318361  72.4485433  77.7711767
  50.1233618  70.9371850  77.9548709  50.2991928  70.1236791  78.6587107
  50.3248683  70.5900685  76.9414585  51.0366544  72.0274433  78.2646293
  51.1451469  72.7462828  77.5634884  51.7155072  72.1425649  79.4009488
  51.6197408  71.2153514  80.3498945  51.0242389  70.4119492  80.2083942
  52.1429662  71.3189884  81.2075624  52.5103707  73.1883530  79.5839360
  52.5939328  73.8880138  78.8603394  53.0284676  73.2802823  80.4460401
  45.7366345  70.4117550  79.4471926  45.0967953  70.1696929  78.4388733
  45.6638365  69.6634267  80.5376358  46.2398944  69.9108630  81.3294893
  44.7981464  68.4815250  80.6483110  45.0860848  67.7224651  79.9209743
  44.9495981  67.9011593  82.0393980  44.7604109  68.7536909  82.6916996
  44.1516140  67.1684058  82.1593723  46.2777905  67.2670842  82.4086996
  47.0416771  67.7061557  81.7669877  46.6612022  67.4775371  83.8747031
  45.8979658  67.0382939  84.5170694  47.6206494  66.9994232  84.0721082
  46.7385541  68.5450530  84.0809235  46.1757751  65.7934381  82.0991580
  45.9705783  65.6580575  81.0372419  47.1153849  65.3025152  82.3525932
  45.3675803  65.3539463  82.6837665  43.3334118  68.8058480  80.4055788
  42.6642009  68.0778433  79.6882441  42.8348011  69.8781803  81.0262886
  43.4125715  70.3701461  81.6928098  41.4540215  70.3256070  80.8418489
  40.7718744  69.5265406  81.1321375  41.1490856  71.5759101  81.7065721
  42.1046627  71.9783688  82.0427247  40.6556516  72.3032884  81.0619452
  40.2601141  71.2852868  82.9236644  39.2668760  71.0423654  82.5460824
  40.6794771  70.4147115  83.4279811  40.1589896  72.4471169  83.9125262
  39.3982910  72.2038077  84.6543060  41.1233276  72.5645686  84.4068509
  39.8013859  73.7175729  83.2718063  40.5689345  74.3281829  83.0307171
  38.5595980  74.1077691  82.9752463  38.3523960  75.2966516  82.4090989
  39.1369217  75.8994473  82.2059813  37.4118264  75.5892073  82.1858511
  37.5309681  73.3094992  83.2247750  37.6886262  72.4028079  83.6408938
  36.5944006  73.6117146  82.9976057  41.1663208  70.6003134  79.3664731
  40.3582109  69.9123041  78.7385444  41.8454645  71.5957177  78.8177498
  42.4421810  72.1778976  79.3879210  41.6927788  71.9326680  77.4160603
  40.6962290  72.3327160  77.2291126  42.7236755  72.9922115  77.0331861
  42.2586637  73.9768949  76.9856268  43.5385216  73.0103552  77.7569240
  43.4821645  72.7260518  75.4410497  44.2681167  73.7982558  75.4804959
  41.8009928  70.7032141  76.4976453  41.0671216  70.5830902  75.5103995
  42.7101176  69.8012737  76.8380592  43.3029013  69.9900323  77.6337206
  42.8674648  68.5157474  76.1405601  43.1067106  68.6789532  75.0897393
  44.0196809  67.7257764  76.7909860  44.1989790  68.1842165  77.7635003
  43.6564713  66.7076849  76.9312298  45.3148061  67.6961223  75.9993798
  45.2721590  66.8143612  75.3600212  45.3602842  68.5917132  75.3797446
  46.5587063  67.6246499  76.8821306  47.6194506  68.1284523  76.4580495
  46.4859188  67.0513491  77.9859305  41.6571972  67.5825352  76.2115633
  41.3677629  66.8766282  75.2679998  40.9936971  67.5351867  77.3585697
  41.3469608  67.9909518  78.1877755  39.7591795  66.7605123  77.4663928
  39.9307486  65.7512703  77.0921018  39.2949961  66.6712287  78.8922634
  39.6934663  67.5540637  79.3921865  38.2074291  66.6729471  78.9650311
  39.8406950  65.4304913  79.5531571  40.8435381  65.2290185  79.1765734
  39.8974268  65.6402225  81.0572490  38.8948144  65.8413026  81.4346531
  40.2918635  64.7434342  81.5350473  40.5463510  66.4865747  81.2823841
  38.9977661  64.2205529  79.1771067  39.0165623  64.0859533  78.0956128
  39.4019196  63.3311181  79.6604978  37.9702062  64.3767316  79.5054782
  38.6822268  67.3538053  76.6063525  37.8961018  66.6233805  76.0129865
  38.6516069  68.6852971  76.5317652  39.2739809  69.2401748  77.1017307
  37.6703547  69.3764552  75.7069079  36.6728226  69.1043137  76.0518250
  37.8106898  70.9099903  75.7664916  37.2034252  71.2628484  76.6000503
  38.8579845  71.1459671  75.9551418  37.3471889  71.6140992  74.4497341
  36.4607307  71.0856821  73.7198943  37.8854278  72.7030292  74.1477713
  37.7425512  68.8961020  74.2592624  36.7493998  68.4318062  73.7002823
  38.9254454  68.9894753  73.6689035  39.6891458  69.4178445  74.1722531
  39.1509491  68.5802216  72.2905888  38.5293046  69.1546195  71.6037668
  40.6273580  68.8063340  71.9529085  41.2351469  68.4296387  72.7755832
  41.0061043  68.0988231  70.6879885  40.3990163  68.4753401  69.8647147
  42.0597124  68.2770038  70.4729017  40.8355628  67.0285865  70.8046434
  40.8859138  70.3039893  71.8069551  41.1639697  70.4861589  70.7688800
  39.9505683  70.8183125  72.0276358  41.9715897  70.8232114  72.7165023
  42.9074147  70.3096492  72.4960820  42.0989376  71.8938921  72.5567386
  41.6940141  70.6418005  73.7548384  38.7247809  67.1326023  72.0327050
  38.0916947  66.8448829  71.0196105  39.0528743  66.2370213  72.9663786
  39.5170293  66.5466739  73.8082663  38.7458805  64.8049525  72.8255147
  39.1828286  64.4209584  71.9037099  39.3195247  64.0244958  73.9968608
  39.0993135  64.6086684  74.8903645  38.7712827  63.0831628  74.0345822
  40.7831228  63.7448268  73.9343805  41.0146397  63.1673938  73.0393542
  41.3412991  64.6808976  73.9167005  41.2598967  62.8002261  75.3863881
  42.8772645  63.4981568  75.6972501  42.7828861  64.5689316  75.8778964
  43.3178243  63.0200575  76.5721380  43.5180529  63.3313799  74.8314113
  37.2455855  64.5099034  72.8024067  36.8055999  63.5884674  72.1337660
  36.4740452  65.2794264  73.5576411  36.8834891  65.8601317  74.2754408
  35.0263642  65.1947007  73.4833292  34.7194203  64.1705952  73.2709794
  34.4173800  65.6200102  74.8183555  34.8276863  66.6043732  75.0436939
  33.3307510  65.6841824  74.7616154  34.7936519  64.6590370  75.9564152
  35.9743667  64.4269777  76.2344335  33.7880246  64.0489355  76.5703401
  33.9771196  63.4061600  77.3261063  32.8380506  64.2300966  76.2790826
  34.4721899  65.9584519  72.2881535  33.6859087  65.4122009  71.5230786
  34.9276900  67.1971406  72.0956467  35.6488533  67.5447540  72.7114289
  34.3456407  68.1228664  71.1099756  33.2694922  67.9772936  71.2038484
  34.6878168  69.6218318  71.4850212  34.3832598  69.8183036  72.5130013
  35.7609833  69.7855400  71.3869732  33.9423395  70.5637421  70.5455038
  34.2467390  70.3681656  69.5173056  32.8690156  70.4009321  70.6433345
  34.2720616  72.0081464  70.9068961  33.9675068  72.2046188  71.9348766
  35.3452277  72.1718538  70.8088460  33.5265819  72.9500562  69.9673792
  33.8309801  72.7544798  68.9391807  32.4532596  72.7872470  70.0652132
  33.8444144  74.3423667  70.3157368  34.8388789  74.4935553  70.2247308
  33.3506863  74.9661895  69.6935007  33.5620411  74.5239227  71.2683132
  34.7258678  67.8394558  69.6399757  34.0424632  68.2884451  68.7112816
  35.7834591  67.0552118  69.3986110  36.2735097  66.6251276  70.1699588
  36.2634581  66.7944505  68.0382723  35.6962769  67.3881937  67.3214225
  37.7604313  67.1764587  67.9230074  38.2095865  67.1712966  68.9161500
  38.2689428  66.4483501  67.2910469  38.1282380  68.7977017  67.2152112
  39.4508047  68.6938514  67.3097139  36.1347872  65.3073876  67.6142996
  37.1401044  64.5818912  67.4555977  34.9236203  64.9385980  67.2302189
  34.1544119  65.5888627  67.3048748  34.6425157  63.5831310  66.7568856
  35.1709786  62.8531772  67.3700688  33.1562365  63.3131724  66.8565131
  32.8855573  62.5527136  66.1240274  32.7930080  62.8281963  68.2453214
  33.0629849  63.5883734  68.9783582  31.7205951  62.6399014  68.2960614
  33.3337818  61.9069446  68.4620228  32.4561198  64.5288346  66.5834731
  31.5105830  64.3738111  66.6428707  35.1169704  63.2921524  65.3136603
  35.5061994  62.1521059  65.0252914  35.0570643  64.2668183  64.4208783
  34.9025286  65.2173207  64.7254487  35.2994007  64.0208055  62.9758697
  35.2408616  62.9535644  62.7621672  34.2478149  64.7409964  62.1460859
  33.8415316  64.0523929  61.4052362  33.4465569  65.0836328  62.8008270
  34.8334782  65.8641343  61.4819218  34.1635742  66.3127751  60.9608174
  36.6107925  64.5867431  62.4744513  37.0650819  65.5901910  62.9768468
  37.1412151  63.9886184  61.4067975  36.6225764  63.2345485  60.9796068
  38.4269917  64.3947364  60.7906117  38.7452097  65.3472456  61.2143600
  39.5224037  63.3556997  61.0450507  39.0311461  62.4220720  60.7709987
  40.3476961  63.5463991  60.3590286  40.0574787  63.2488148  62.4633047
  39.2445990  63.4695007  63.1551322  40.6078187  61.8569561  62.7537733
  41.4211013  61.6357254  62.0625951  40.9811326  61.8195771  63.7771697
  39.8152331  61.1190755  62.6295124  41.1104523  64.3340418  62.6717029
  40.6580193  65.3139871  62.5196795  41.5036973  64.2694259  63.6862395
  41.9226359  64.1947735  61.9582177  38.2519141  64.4985942  59.2792248
  37.9122905  63.5408977  58.6047841  38.5186756  65.6668701  58.7634460
  38.9633070  66.3719533  59.3337616  38.0976410  66.0349256  57.3972857
  37.6150101  65.1938922  56.8994608  37.0845785  67.1955168  57.4989043
  37.6158950  68.1439609  57.5779979  36.4480201  67.2089296  56.6141932
  35.9174506  67.1234398  58.9830763  35.2583658  68.2424388  58.6961151
  39.3174518  66.3600622  56.5469577  40.4252297  66.5715655  57.0577536
  39.1309370  66.3246221  55.2369740  38.2382945  65.9921860  54.9011543
  40.1181231  66.7617184  54.2581286  41.0274438  66.1619816  54.2975091
  39.4574706  66.5651694  52.8783993  39.2931485  65.4981126  52.7284411
  38.4982402  67.0828110  52.8833168  40.3307487  67.1462062  51.4153503
  39.4038041  66.7667589  50.5403121  40.4148063  68.2362848  54.5045464
  39.4880825  69.0300117  54.4956158  41.6678611  68.5956662  54.8112328
  42.4347220  67.9384436  54.8021636  41.9272111  69.9472861  55.2625223
  41.1854044  70.2216436  56.0125557  43.3094378  70.0835681  55.8748347
  43.2591296  69.6958295  56.8922959  43.9926427  69.4710315  55.2865067
  43.8154604  71.5265563  55.9039745  43.8620814  71.8825574  54.8748047
  43.0911591  72.1208710  56.4610020  45.1840930  71.6621821  56.5487796
  45.5053949  70.6819649  56.9009704  45.8892895  72.0287739  55.8028521
  45.1363249  72.6369300  57.7275792  46.1666787  72.8215223  58.0315485
  44.6953943  73.5630310  57.3587754  44.3469252  72.1415018  58.9078694
  44.7555944  71.2835889  59.2500311  44.3630155  72.8374092  59.6396849
  43.3920417  71.9707999  58.6265199  41.7300260  70.9307098  54.1021271
  41.2273388  72.0456323  54.3018958  42.0970535  70.4873895  52.8953451
  42.4654526  69.5492304  52.8302387  42.0720025  71.3024364  51.6930797
  42.5789138  72.2544212  51.8507663  42.8113153  70.5298990  50.5952416
  43.8421605  70.8837604  50.6107220  42.7838026  69.4797502  50.8859831
  42.2503368  70.6805606  49.2067971  42.8854884  70.1337825  48.5098631
  41.2383931  70.2773311  49.1683518  42.2088688  72.1156001  48.7902388
  41.1488069  72.6442450  48.4216396  43.3613302  72.7646551  48.8271898
  43.3985208  73.7372543  48.5574325  44.1985061  72.2844918  49.1249835
  40.6294552  71.6893495  51.2621104  40.3056925  72.8765321  51.2003346
  39.7767687  70.7058667  50.9666307  40.0749576  69.7416529  51.0050286
  38.4246606  70.9934961  50.5014781  38.3855339  71.9756561  50.0303836
  38.0143001  69.9496667  49.4806468  37.0764658  70.2196225  48.9951678
  38.7874258  69.8113686  48.7248357  37.7436871  68.3224245  50.2253538
  37.4174055  67.7042299  49.0938619  37.4429415  71.0589897  51.6857586
  36.2296765  71.2579201  51.5186815  38.0016712  70.8590717  52.8718525
  38.8751224  70.3523481  52.8921861  37.3776388  71.2253890  54.1532273
  38.0654424  71.0380385  54.9778031  37.0269241  72.7146378  54.1378258
  37.5919542  73.1717046  53.3254650  35.9603757  72.7936960  53.9272920
  37.3413525  73.4350902  55.4427738  36.5166570  73.3167323  56.1456034
  38.2399105  72.9782832  55.8575304  37.5999961  74.9230982  55.2417575
  38.2584858  75.3124138  54.2785863  37.0499675  75.7642922  56.1326010
  37.1946709  76.7594771  56.0389556  36.4941278  75.3978830  56.8921324
  36.1561664  70.4065639  54.5833197  36.1662706  69.7404651  55.6279968
  35.0995985  70.4484601  53.7806553  35.1185300  70.9983089  52.9336563
  33.8079794  69.8285472  54.1920031  33.8149499  69.6879078  55.2728690
  32.5747533  70.7061603  53.8111848  32.7182361  71.0020355  52.7719689
  31.7019498  70.0575995  53.8865708  32.3561068  71.9690981  54.6819500
  33.3315506  72.2635751  55.0691107  31.9821500  72.7442557  54.0130807
  31.3761654  71.7850760  55.8503633  31.0497973  72.7909852  56.5386856
  30.9268299  70.6463275  56.0781823  33.6622449  68.3803955  53.6863986
  32.5672363  67.9171623  53.3667048  34.7517429  67.6256692  53.6969102
  35.6326227  68.0663756  53.9203561  34.7450229  66.1757197  53.4197454
  33.7457466  65.8046432  53.1920431  35.7093789  65.8306207  52.1937474
  36.7009299  66.2228879  52.4196975  35.8034706  64.3051686  51.9394158
  34.8123050  63.9122394  51.7129276  36.4694563  64.1170977  51.0972807
  36.1949380  63.8114669  52.8288608  35.2949333  66.4892928  50.9814459
  35.8966406  66.2582703  50.2699846  35.2560977  65.3632167  54.6553030
  36.4086523  65.4508239  54.9975497  34.4274988  64.4267435  55.1351476
  33.4565123  64.4408977  54.8575072  34.8332866  63.5058240  56.2159489
  35.5315441  64.0399720  56.8603257  33.6533888  62.9652392  57.0952438
  33.2376322  63.8125866  57.6404484  32.8990825  62.5638792  56.4184630
  34.0853610  61.8605824  58.1043792  34.0063626  60.9359287  57.5326489
  35.1272630  62.0320349  58.3748297  33.2317286  61.7465203  59.3889719
  33.7399183  61.1726368  60.3729755  32.0503094  62.1713137  59.4126191
  35.7561851  62.3594017  55.7093640  35.4722052  61.6026684  54.7413888
  36.8764356  62.2323086  56.3702363  37.1702830  62.9289680  57.0398770
  37.7857634  61.1085756  56.0869763  37.5833222  60.6216418  55.1330307
  39.2475355  61.6058934  56.1106704  39.4144818  62.1258802  57.0539853
  40.2501937  60.4546778  55.9779898  40.0841586  59.9344679  55.0346369
  41.2650604  60.8517657  55.9996116  40.1155737  59.7577663  56.8052086
  39.4836332  62.6902208  55.0042975  38.9233728  63.5677930  55.3269057
  40.5506861  62.9111410  55.0306036  39.0742560  62.3204301  53.5754860
  38.0071628  62.0998116  53.5482944  39.2893748  63.1547754  52.9078851
  39.6344749  61.4431576  53.2519930  37.5362185  59.9753860  57.0880371
  37.3733949  58.8090973  56.7062960  37.5051884  60.3316906  58.3599263
  37.6052489  61.3078072  58.5992662  37.5248622  59.3465848  59.4418045
  36.7996315  58.5506200  59.2727495  38.9674778  58.6956878  59.5934702
  39.5077600  58.8490400  58.6592976  39.7523952  59.3018498  60.7345316
  39.2129251  59.1484748  61.6691693  40.7302857  58.8244994  60.7975070
  39.8806984  60.3702373  60.5607870  38.8798139  57.2672761  59.7879136
  39.7630217  56.9015628  59.8762196  36.9300305  59.9690875  60.7532188
  36.5662957  61.1557794  60.8081863  36.7608758  59.1402698  61.7712546
  37.1498815  58.2102758  61.7089238  36.1670646  59.5581359  63.0363997
  35.8862265  60.6109499  63.0079062  34.9324655  58.7383833  63.2854953
  34.1836815  59.3787105  63.7517611  34.3483104  58.1348408  61.9432161
  35.0964137  57.4939863  61.4765829  33.4564700  57.5489410  62.1655699
  34.0893541  58.9455361  61.2621762  35.3046186  57.6881528  64.1715111
  34.5391560  57.1390221  64.3562347  37.0460073  59.2118078  64.2254466
  38.0279651  58.4780253  64.0721001  36.6727041  59.7185389  65.4053086
  35.9432948  60.4160893  65.4438413  37.3696420  59.3759490  66.6429898
  38.4310774  59.5685226  66.4868821  36.9076710  60.1533127  67.8804103
  37.0684854  61.2117624  67.6756608  35.8408009  59.9650168  68.0005470
  37.6528209  59.7596412  69.1854878  38.1396838  58.8006874  69.0080814
  38.4094643  60.5214735  69.3731161  36.7059537  59.6430023  70.4351145
  36.6186336  60.6420156  70.8622523  35.7323064  59.3193433  70.0672079
  37.2015252  58.6543213  71.5274590  36.4381989  57.8787304  71.5898484
  38.1243957  58.2246016  71.1379076  37.4527746  59.2227314  72.8998797
  36.5976402  59.6205868  73.2612051  37.7687427  58.4875125  73.5160918
  38.1603674  59.9411342  72.8423565  37.2565712  57.9032853  66.8529007
  38.2528911  57.2721029  67.1099113  36.0556370  57.3466239  66.6936965
  35.2643905  57.9541884  66.5359188  35.8113282  55.9003376  66.8165796
  35.7761534  55.6280311  67.8714308  34.4508102  55.4908840  66.1468650
  34.5822881  55.3476657  65.0743440  34.1686089  54.5441267  66.6074223
  33.3058893  56.5135247  66.3739268  32.7002114  57.0187905  65.4030248
  32.9669109  56.7713322  67.6455105  32.2273943  57.4299219  67.8441924
  33.4526647  56.3057382  68.3987476  36.9468218  55.0414340  66.2344610
  37.3009226  54.0115117  66.7994166  37.4968066  55.4735927  65.1010690
  37.1837578  56.3466843  64.7013052  38.4082073  54.6418456  64.3199657
  38.2458505  53.5911331  64.5602627  38.1679498  54.8448575  62.8108254
  38.6139199  55.8045105  62.5495286  38.7025884  54.0448633  62.2987015
  36.6622265  54.8315805  62.3716873  36.2519961  55.4121063  63.1980055
  36.5021559  55.3682771  61.4365758  35.9426500  53.4364037  62.3042093
  35.5226175  53.0377101  61.1768876  35.6336167  52.8129160  63.3745095
  39.8889140  54.7892536  64.7109370  40.7037771  53.9369794  64.3633843
  40.2231612  55.8133280  65.4463291  39.5049646  56.4637829  65.7312875
  41.5716752  56.0270376  65.9257040  42.3381791  56.0640869  65.1516250
  41.5692555  57.3272317  66.6938878  40.6500167  57.3898889  67.2762747
  42.7590815  57.4049545  67.6216584  43.6787611  57.3428247  67.0399111
  42.7361924  58.3499789  68.1643420  42.7219463  56.5782143  68.3310390
  41.4946808  58.5137921  65.7230768  42.3840661  58.4817988  65.0937351
  40.6074305  58.3789090  65.1044550  41.4209126  59.8611216  66.4288775
  42.3081093  59.9969311  67.0473738  41.3702761  60.6581702  65.6870900
  40.5314743  59.8940403  67.0580958  41.9896739  54.9285125  66.8895388
  41.2821063  54.6246787  67.8323336  43.1491278  54.3488777  66.6617771
  43.6328257  54.4900058  65.7864380  43.7837057  53.4924697  67.6811349
  43.4587379  53.7930923  68.6771877  43.3955332  52.0664986  67.4624516
  43.6933751  51.3771567  68.2525132  42.3090980  52.0698980  67.3744353
  43.9288876  51.5028903  66.1769790  43.2870617  51.7759661  64.9761550
  42.3974421  52.4057675  64.9813421  43.7551738  51.2682899  63.8022398
  43.2161444  51.4344263  62.8695305  44.9197578  50.5402006  63.8020477
  45.2995824  50.1352527  62.8640443  45.6067579  50.3202535  64.9755106
  46.5361487  49.7508571  64.9645292  45.1237032  50.8152975  66.1519058
  45.6828403  50.6676658  67.0758487  45.2894758  53.5505722  67.6339483
  45.8633722  53.9163541  66.6065343  45.8749804  53.1412075  68.7500123
  45.3043217  52.6972896  69.4552675  47.3150575  53.3003841  69.0153981
  47.6969871  54.1765228  68.4913656  47.5570579  53.4882870  70.5387018
  46.7421483  52.9930146  71.0666478  48.4996009  53.0001535  70.7865692
  47.6139429  54.8566782  70.9305213  47.7645525  54.9125157  71.8769878
  48.0603240  52.0893422  68.5525413  48.1905548  51.1471731  69.3071481
  48.5090841  52.0794929  67.3029964  48.2352272  52.7911337  66.6406755
  49.4106952  51.0536272  66.8648802  48.9983738  50.0756938  67.1133488
  49.6247703  51.1215842  65.3738253  49.3654123  52.1434460  65.0970020
  50.6905245  50.9609938  65.2111028  48.8349818  50.1545671  64.5246456
  47.8544858  50.5784298  64.3076922  49.5739878  49.9007851  63.2257535
  50.5544628  49.4764595  63.4418909  49.0036042  49.2027069  62.6130136
  49.6960660  50.8404380  62.6870051  48.6295516  48.8428904  65.2488919
  48.0842910  49.0205811  66.1758310  48.0581223  48.1635980  64.6163323
  49.5979717  48.3977851  65.4772401  50.7251665  51.2475904  67.5450166
  51.3759790  50.2958105  67.9179227  51.1428174  52.4887256  67.6393467
  50.5962783  53.2442642  67.2513315  52.3807967  52.8115534  68.3024858
  53.1063534  52.0247000  68.0962619  52.9693963  54.1647360  67.8281765
  53.1968219  54.0820944  66.7653749  52.2131646  54.9351928  67.9785427
  54.1668105  54.5195865  68.5495309  54.4976716  55.3607940  68.2262649
  52.0992236  52.8994823  69.7627249  51.0391584  53.3150116  70.1715869
  53.0975960  52.5722153  70.5700557  53.9725619  52.2177108  70.2110842
  52.9485129  52.7008760  71.9844325  52.1057687  52.0839230  72.2962827
  54.1951479  52.2677519  72.7770355  54.1931677  51.1877978  72.6294064
  55.1293715  52.6837846  72.3998841  54.0618044  52.5852612  74.3026033
  53.0388107  52.9153842  74.4831682  54.3759093  51.3785031  75.1996423
  55.3989608  51.0480788  75.0199642  54.2653343  51.6641656  76.2457163
  53.6866352  50.5657438  74.9706799  54.8752265  53.8304522  74.7090611
  54.5193419  54.6959233  74.1501287  54.7526011  54.0125920  75.7767171
  55.9295898  53.6643611  74.4880842  52.6556122  54.1671650  72.2560770
  51.8050982  54.5049830  73.0490473  53.3399896  55.0311884  71.5466997
  54.0841492  54.7270616  70.9352810  53.2446448  56.4129870  71.8545113
  53.2066417  56.5336078  72.9371495  54.4049515  57.1848940  71.3302041
  54.8262503  56.8046924  70.3995842  54.2394894  58.2586114  71.2415853
  55.6832255  56.9788232  72.5768212  56.6033466  57.7104380  71.9547158
  51.9318349  57.0456510  71.6029653  51.6039757  57.9846046  72.3178719
  51.1535876  56.5759505  70.6479838  51.4579166  55.8696468  69.9932943
  49.8177612  57.0844158  70.5275636  49.2452005  56.7608519  71.3968045
  49.8629778  58.1732963  70.5077123  49.1444762  56.6104842  69.3068322
  49.7138449  55.8658285  68.5190048  47.9788376  57.1647777  69.0456607
  47.1483180  58.0040657  69.9283090  47.7584731  58.8062629  70.3433883
  46.7513753  57.3933996  70.7392482  46.0654505  58.5154099  69.0099729
  46.3200276  59.5212375  68.6759065  45.1176417  58.5407100  69.5476715
  46.0026468  57.5557060  67.8593256  45.6707133  58.0769363  66.9614180
  45.3496223  56.7032434  68.0463176  47.4392252  57.0807320  67.6811737
  47.5074787  56.0402302  67.3636901  48.1810162  57.9658589  66.6836796
  47.9124504  57.9250169  65.5030190  49.0710016  58.8093801  67.2038937
  49.1556105  58.8587732  68.2091305  49.9455648  59.6366050  66.4001647
  49.9695240  59.2598299  65.3776356  49.4688947  61.0335574  66.3771055
  48.4117183  61.0402911  66.6424954  50.0324740  61.6011701  67.1175744
  49.6469753  61.6525431  65.0388014  50.6729049  62.0007026  64.9189922
  49.4153829  60.9298544  64.2563769  48.5233574  63.0581360  64.8996531
  49.4918991  64.4058483  65.5617381  50.3966647  64.5303293  64.9667569
  48.9067640  65.3248909  65.5289035  49.7639385  64.1856233  66.5940156
  51.3586713  59.6856045  66.9426616  51.5841257  59.8375029  68.1506149
  52.3064371  59.5828001  65.9936024  52.0214190  59.3099691  65.0638566
  53.7224648  59.8504144  66.2333585  53.8992768  60.4868421  67.1004205
  54.4897075  58.5426904  66.4229675  54.3298436  57.8984097  65.5584179
  55.5537156  58.7565043  66.5243117  54.1336580  58.0389580  67.3216230
  54.2432710  60.5898227  65.0060975  53.5825447  60.6577119  63.9873896
  55.4927843  61.0351630  65.0768613  55.9643694  61.0700211  65.9693251
  56.2052649  61.5248273  63.8960962  55.5050626  61.8811323  63.1405417
  57.1150929  62.6963091  64.3160397  57.8278443  62.3528010  65.0657647
  57.6552638  63.0677567  63.4452111  56.5063900  63.4978562  64.7344919
  57.0339847  60.3816435  63.2494438  57.6221923  59.5251292  63.9158770
  56.9875185  60.3473334  61.9164575  56.3050913  60.8953351  61.4123874
  57.8326558  59.4320796  61.1611572  58.6344394  59.0673632  61.8032041
  57.0272064  58.2213304  60.6414732  56.3102974  58.6313177  59.9301004
  57.7099796  57.5490743  60.1218651  56.2819417  57.4497592  61.7266886
  56.9246820  56.5293576  62.5418450  57.9966384  56.3766878  62.4165421
  56.2231860  55.8035139  63.5107879  56.7434884  55.0648449  64.1205053
  54.8547267  55.9841816  63.6567447  54.1649743  55.2962806  64.6235807
  54.7260246  54.7164164  65.1437536  54.1890936  56.9019258  62.8631024
  53.1176444  57.0653122  62.9788695  54.9062087  57.6229854  61.9050294
  54.3933418  58.3454156  61.2700788  58.5369075  60.2147444  60.0438035
  57.9274082  61.1149416  59.4236031  59.8296271  59.9033598  59.7805156
  60.3812939  59.3219694  60.3951279  60.4655322  60.4283502  58.5566084
  59.9434367  61.2955038  58.1521828  61.9702899  60.7230514  58.5665269
  62.3785104  60.4716616  57.5876201  62.2493158  62.1934912  58.8718276
  61.8417663  62.4455267  59.8508488  63.3253459  62.3674424  58.8710339
  61.7802248  62.8182820  58.1117673  62.7235929  59.7515202  59.4160436
  62.5766355  58.7420749  59.0319528  63.7854406  59.9967404  59.3949242
  62.3589595  59.8060754  60.4417955  60.3304115  59.5171848  57.3928739
  60.4799070  58.3244174  57.5508046  60.1460149  60.0968626  56.2082552
  59.8416151  61.0572295  56.1365919  60.2351311  59.3092387  54.9893812
  60.0992174  58.2578241  55.2426678  59.1550177  59.7122749  53.9266851
  59.2162292  58.8604984  53.2493158  58.1391997  59.7964626  54.3128539
  59.4869639  60.9820728  53.1453611  60.1974726  61.8209837  53.6187690
  58.8111140  61.1808811  52.0354422  58.9903063  62.0047701  51.4793874
  58.1158190  60.5088084  51.7439223  61.6520371  59.3717486  54.4493704
  62.5413076  59.9744760  55.0831264  61.9266820  58.6868973  53.3250577
  60.9935659  57.8701318  52.5550400  60.4176534  58.5014345  51.8783701
  60.3149982  57.3462181  53.2282111  61.8969318  56.9506977  51.8401743
  61.4355245  56.6401754  50.9027426  62.0893598  56.0734919  52.4578983
  63.1446067  57.7142138  51.6023691  63.0242943  58.3303033  50.7112699
  64.0255075  57.0821252  51.4902196  63.2935197  58.5897526  52.8112867
  63.9115506  58.2004755  53.6203599  63.8727409  59.9041023  52.3205744
  65.0853005  60.0920231  52.4107188  63.0372712  60.7966963  51.7956922
  62.0806379  60.5376422  51.6011596  63.5098409  62.0775912  51.3226212
  64.5472369  61.9990908  50.9974343  62.6763646  62.5262615  50.1606645
  61.7264211  62.2397165  50.6118834  62.6089491  63.5499408  49.7923767
  62.8595820  61.6615732  48.9755107  63.8883477  61.8754979  48.0894802
  63.9170378  60.8826677  47.2153280  64.6261025  60.8930109  46.3875482
  62.9951407  59.9999080  47.5558159  62.7658193  59.1512152  47.0585914
  62.3885328  60.4234187  48.7088967  61.6738165  59.7767681  49.2179398
  63.6377292  63.1090392  52.4231909  63.9789793  64.2766282  52.1692612
  63.4380771  62.6647868  53.6606539  63.0913240  61.7272973  53.8054815
  63.7057189  63.4949426  54.8360327  63.9905999  62.8166088  55.6402748
  64.5523187  64.1330192  54.5826035  62.5461684  64.3720474  55.3118781
  62.6926921  65.1717635  56.2298607  61.3616609  64.0955654  54.7452938
  61.3764336  63.4161600  53.9981062  60.0791862  64.6930603  55.1135292
  60.2176399  65.7516529  55.3333280  59.0361152  64.5543093  53.9341309
  59.0505200  63.5460882  53.5201477  58.0818834  64.7288135  54.4312123
  59.2157521  65.5683694  52.8086876  59.1769383  66.9255834  53.0899503
  58.8886515  67.2271695  54.0969438  59.4915310  67.8935871  52.1345885
  59.4801798  68.9465481  52.4160956  59.8010513  67.5358872  50.8686367
  60.0730446  68.5897299  49.9805278  60.0039061  69.4543237  50.3919850
  59.8369107  66.1671654  50.5359557  60.1081248  65.8640599  49.5246840
  59.5241575  65.1919811  51.5037294  59.5226736  64.1361750  51.2328576
  59.4543377  64.0453913  56.3493407  59.3613121  62.8236171  56.4519080
  58.9159489  64.8934279  57.2322662  58.8730843  65.8862318  57.0517049
  58.3548478  64.3900728  58.4928924  58.7119056  63.3833574  58.7099940
  58.6153870  65.2735011  59.7109394  57.7579133  65.9236567  59.8845364
  58.8337310  64.3854960  60.9292017  59.6913852  63.7353321  60.7565254
  59.0206209  65.0078724  61.8043133  57.9456462  63.7769556  61.0997464
  59.7762548  66.2391442  59.4901401  59.5528602  66.8893012  58.6442720
  59.9210589  66.8446538  60.3848409  60.6851898  65.6741802  59.2833707
  56.8348838  64.2515272  58.4399718  56.1120372  65.1563421  57.9418044
  56.3408236  63.1480929  58.9870690  56.9297798  62.4585449  59.4317638
  54.8939794  62.8722503  58.8858577  54.3569929  63.7831476  58.6212623
  54.6386833  61.8261017  57.8080733  55.3995741  61.0508441  57.8981850
  53.6498604  61.3758486  57.8952588  54.7415770  62.3675129  56.4159721
  53.9317793  63.3821515  55.9476589  53.2047428  63.8306709  56.4864983
  54.2600193  63.6648903  54.6977640  53.7242897  64.4349938  54.1427566
  55.2640769  62.8826733  54.3449766  55.5881959  62.0665623  55.4042517
  56.4039664  61.3497680  55.3103069  54.3810388  62.4365855  60.2209660
  54.6832620  61.3335779  60.6756751  53.5499742  63.2929209  60.8081246
  53.4306753  64.2341182  60.4616932  52.8409502  62.9093509  62.0069741
  53.4677030  62.2399367  62.5961810  52.4820868  64.1298277  62.8674295
  51.4652217  64.4075046  62.5899767  52.4948233  63.7855603  63.9015561
  53.3984150  65.3440971  62.7239043  54.4019515  64.9906498  62.4870706
  53.0143461  65.9313900  61.8898316  53.4482489  66.2142976  63.9788202
  53.5297803  65.6414103  65.1153384  53.4238965  67.4796135  63.7996791
  51.5896521  62.1264554  61.5234159  50.5758217  62.7113252  61.1060478
  51.6888889  60.8090781  61.5236494  52.5424470  60.3438799  61.7977454
  50.6562099  60.0309596  60.9421326  49.9001527  60.6818390  60.5030055
  51.1453491  59.0728723  59.8793285  51.4268137  59.6386706  58.9912124
  52.3225229  58.3111314  60.3751284  52.0416909  57.7446782  61.2630270
  52.6646309  57.6250959  59.6002629  53.1252416  59.0045362  60.6259932
  50.0649995  58.1876199  59.5152970  50.3667243  57.5752184  58.8403696
  49.8007918  59.3599421  61.9859091  50.2932881  58.9104391  63.0145468
  48.4995164  59.3264318  61.6892655  48.2276347  59.6297475  60.7650474
  47.4654289  58.8511856  62.5891817  47.8253497  58.7801335  63.6155870
  46.3518391  59.8661970  62.5383314  46.8617763  60.8192214  62.6790719
  45.9642730  59.8088232  61.5211781  45.2058554  59.7574368  63.5215081
  44.7891773  58.7524268  63.4549113  45.6631013  60.0220223  64.9448013
  46.0795051  61.0270852  65.0122939  44.8134497  59.9350826  65.6220268
  46.4251061  59.2941335  65.2234177  44.1651390  60.7835222  63.0975856
  43.8282885  60.5629921  62.0846702  43.3156067  60.7431374  63.7793225
  44.6050054  61.7804587  63.1246795  46.9270753  57.5048983  62.1231098
  46.4633651  57.3840981  61.0081784  46.9889417  56.5175715  62.9910351
  47.3479460  56.7034076  63.9166053  46.5988311  55.1516879  62.6622986
  46.8490404  54.9607513  61.6187289  47.5029097  54.2290853  63.5759459
  46.8972712  53.4412243  64.0238047  48.5376809  53.6333734  62.7505248
  49.1440608  54.4206630  62.3026652  49.1704581  52.9936139  63.3656671
  48.0766701  53.0378697  61.9625243  48.2041105  55.0177486  64.5748426
  48.7455103  54.4393119  65.1169656  45.0828847  54.9598671  62.9211000
  44.6571526  55.1231966  64.0338986  44.3141774  54.6702969  61.8838503
  44.7363533  54.5954152  60.9693780  42.8862979  54.5645104  61.9848819
  42.5654000  54.4192088  63.0163911  42.2131267  55.8557475  61.4313130
  41.1319139  55.7180294  61.4207344  42.5614719  57.0425783  62.3024423
  43.6425663  57.1812191  62.3131433  42.0847254  57.9383865  61.9045214
  42.2084592  56.8644390  63.3181932  42.6052687  56.1679483  60.0064252
  42.3125528  55.3413206  59.3590412  42.1021246  57.0787564  59.6818113
  43.6845135  56.3093775  59.9487245  42.3869352  53.2873374  61.2839997
  43.0697235  52.8115775  60.3887105  41.3048801  52.6785025  61.7999286
  40.7491214  53.1507121  62.4986773  40.8997051  51.3365613  61.3822155
  41.7785602  50.7032314  61.2613598  40.0211824  50.7330691  62.3964537
  39.6547901  51.6223503  62.9093229  39.1787822  50.1836451  61.9762213
  40.7406901  49.8712152  63.3582590  41.4574504  48.7594741  62.9233977
  41.5633855  48.5782193  61.8538072  42.0348258  47.8852251  63.8370598
  42.6335716  47.0445126  63.4866204  41.8810992  48.1125440  65.2167091
  42.4231973  47.2386612  66.1354085  42.8876867  46.5048349  65.7263263
  41.1454395  49.1962681  65.6667645  41.0129050  49.3747576  66.7338524
  40.5735754  50.0603570  64.7418153  39.9794477  50.9082038  65.0827967
  40.1491923  51.3281540  60.0709906  40.5080119  50.5943603  59.1960939
  39.1029612  52.1226060  59.8940794  38.5410163  52.4515222  60.6661748
  38.6392330  52.4155730  58.5063555  39.2879352  51.8338160  57.8514940
  37.1860002  51.9589061  58.2907641  37.0965855  50.9010401  58.5377941
  36.5232884  52.5387671  58.9331614  36.7964614  52.1746553  56.8322251
  36.8851903  53.2324327  56.5845660  37.4584848  51.5947044  56.1891978
  35.3559578  51.7219907  56.6185218  35.2665415  50.6641253  56.8655533
  34.6932470  52.3018535  57.2609181  34.9664205  51.9377384  55.1599816
  35.0551500  52.9955154  54.9123214  35.6284423  51.3577853  54.5169569
  33.5778691  51.5014013  54.9539868  32.9642142  52.0389735  55.5494225
  33.3198802  51.6442885  53.9880029  33.4955277  50.5211629  55.1830100
  38.8569385  53.8836630  58.1342359  39.4659152  54.6955656  58.8885704
  38.3547408  54.2431791  56.9516884  38.0496899  53.5358428  56.2984514
  38.2805432  55.6630620  56.5349184  37.5871144  56.1743253  57.2026501
  39.6452411  56.3166679  56.6597098  40.3484649  55.8214043  55.9901649
  39.5698321  57.3704962  56.3916434  39.9985614  56.2280051  57.6870379
  37.7564552  55.8307050  55.0907271  37.9763444  54.9709503  54.1936008
  37.0362598  56.9180029  54.8920675  37.0462869  57.6756492  55.5598780
  36.1573635  57.0223314  53.7521035  36.0823490  56.0566684  53.2521364
  34.7297804  57.4610252  54.2065176  34.7551301  58.5405687  54.3549845
  34.0440637  57.2226155  53.3934657  33.9801187  56.7543928  55.7294894
  32.8374217  57.4300855  55.6483655  36.7154181  57.9931507  52.7017817
  37.6244534  58.7775918  52.9761612  36.1115795  57.9450375  51.5143959
  35.4750137  57.1836082  51.3270225  36.3406632  58.9432879  50.4515150
  35.8090629  58.6512484  49.5458587  35.8310939  60.3127094  50.8964608
  36.4160000  60.5516375  51.7846598  35.9796435  61.0880076  50.1448322
  34.3873624  60.2818101  51.2705284  34.0737391  60.1272459  52.4254727
  33.4987211  60.3230836  50.2801108  32.5111110  60.3041832  50.4907502
  33.8162281  60.3731087  49.3226205  37.7814429  59.1027344  50.0692678
  38.2416872  60.2182715  49.8639483  38.5115825  57.9970879  49.9307472
  38.1301304  57.1033695  50.2061762  39.8823425  58.0367401  49.4039297
  40.1228239  59.0654698  49.1356332  40.9275549  57.5354780  50.4197257
  40.5125482  56.5629576  50.6844383  41.8917123  57.3974862  49.9303805
  41.1147615  58.3737856  51.6898923  40.1269026  58.6262728  52.0752310
  41.9105874  57.6298884  52.7712290  42.8987979  57.3774580  52.3867584
  42.0148300  58.2671386  53.6493784  41.3840780  56.7160522  53.0465318
  41.7339098  59.7204650  51.3370880  41.0778946  60.2534133  50.6488223
  41.8637399  60.3101652  52.2445565  42.7036696  59.5626152  50.8651258
  40.0024154  57.1792822  48.1436926  39.3058230  56.1727813  47.9472774
  40.9826307  57.5364496  47.3330636  41.4490573  58.4217234  47.4703073
  41.4750730  56.6465494  46.2721568  40.7455608  55.8512704  46.1190477
  41.6937260  57.3659796  44.9512245  42.3665700  58.2110074  45.0971979
  42.1529458  56.6500989  44.2695120  40.4279827  57.8646555  44.3374701
  39.3690896  57.7883137  44.9294560  40.5396084  58.4148922  43.1506001
  39.7182335  58.7714978  42.6834005  41.4463325  58.4789964  42.7103243
  42.8427916  56.1189373  46.6731021  43.6503717  56.8284108  47.3011195
  43.1371027  54.9261332  46.1828118  42.4023858  54.3699181  45.7693928
  44.4614745  54.3793653  46.2250035  45.0991567  54.9904415  46.8637887
  44.4208326  53.0036698  46.7737066  44.0387702  52.4113822  45.9422483
  45.4129029  52.6454669  47.0486381  43.4996211  52.8697200  47.9461898
  43.0129660  53.8287884  48.1235467  42.4164270  51.7792982  47.6756166
  42.9023353  50.8197866  47.4986151  41.7576965  51.6983643  48.5402694
  41.8316274  52.0570663  46.7987159  44.3525485  52.6057243  49.1805200
  45.0396460  53.4380721  49.3328147  43.7076603  52.5032589  50.0532864
  44.9214812  51.6866835  49.0398836  45.0486022  54.3589021  44.7966187
  44.3307320  54.2526096  43.7935722  46.3295692  54.6725670  44.7317571
  46.8011359  54.9841686  45.5687926  47.0738955  54.6558162  43.4908124
  46.4907385  54.1785578  42.7032519  47.4491105  56.0730671  43.0587668
  48.2050397  56.0136249  42.2757354  46.2371721  56.8140801  42.5346159
  45.4809358  56.8743340  43.3172887  46.5282268  57.8202974  42.2330954
  45.8286614  56.2818078  41.6756023  48.0692514  56.8671346  44.2048541
  47.5534313  57.8249344  44.2730446  47.9178238  56.3069989  45.1275768
  49.5557544  57.1063357  43.9958742  49.7079516  57.6668617  43.0735151
  49.9544217  57.6749875  44.8359925  50.0723440  56.1489255  43.9280449
  48.2882812  53.7830553  43.6783886  48.9532075  53.8555219  44.7264323
  48.5829644  52.9661317  42.6718486  48.0202964  52.9509022  41.8332354
  49.7406352  52.0590540  42.7525848  50.0091646  51.7321609  41.7480292
  50.5812404  52.5913161  43.1977583  49.4213475  50.8347030  43.6041680
  48.2570922  50.6115455  43.9868862  50.4573814  50.0594527  43.9214798
  51.3761040  50.3069233  43.5826489  50.3005602  48.8073184  44.6201162
  49.2625897  48.6770321  44.9262893  50.6930353  47.6345327  43.6938063
  51.3627936  48.0383759  42.9345740  51.2323231  46.9116013  44.3058839
  49.4929641  46.9346305  43.0045349  49.4298791  45.9270204  43.4154400
  48.5970222  47.4934607  43.2749029  49.6061842  46.8566651  41.4645523
  48.6967811  46.3933693  41.0818750  49.6850735  47.8733715  41.0796054
  50.7665499  46.0810889  40.9910060  51.5090264  46.6035865  40.5484857
  50.9111179  44.7574617  41.1285057  52.0229329  44.1673588  40.7253047
  52.7625770  44.7181270  40.3133812  52.1277514  43.1683867  40.8309807
  49.9638900  44.0238344  41.6897057  49.1175651  44.4645840  42.0207253
  50.0914748  43.0264219  41.7845170  51.0669404  48.8076530  45.9503426
  52.0188118  49.5783132  46.1626243  50.6060312  47.9791332  46.8668488
  50.1764883  46.6345137  46.4781880  51.0079604  46.1011370  46.0174669
  49.3513746  46.7021390  45.7691653  49.7620232  46.0354861  47.7753335
  50.0313876  44.9793077  47.7699298  48.6807504  46.1336627  47.8718316
  50.4685352  46.7766177  48.8762230  51.2042969  46.0907864  49.2962101
  49.8114029  47.1338231  49.6691171  51.1769533  47.9568619  48.2155434
  50.9808159  48.9167228  48.6933462  52.6849672  47.7086798  48.1721891
  53.1465738  46.8157082  47.4788061  53.4328143  48.5271066  48.9214796
  52.9707260  49.2430284  49.4637246  54.8725479  48.4551104  48.9697893
  55.2273298  47.5111223  48.5561284  55.4400191  49.5961603  48.1352310
  55.5366542  49.2602420  47.1027970  54.7501372  50.4388956  48.1795056
  56.6962223  49.9947318  48.6165576  57.0327955  50.7131390  48.0759936
  55.3686993  48.5501894  50.4487770  54.8632478  49.3579211  51.2365518
  56.3821096  47.7498986  50.7377137  56.7323320  47.1499807  50.0045411
  57.0147406  47.6859812  52.0368140  56.3209874  48.0602861  52.7896098
  57.3963941  46.2448100  52.3956209  56.4968462  45.6925052  52.6674171
  58.0528257  45.5832156  51.2276161  58.9527664  46.1347282  50.9555124
  58.3202851  44.5601355  51.4919486  57.3649427  45.5714966  50.3821693
  58.3139199  46.2401836  53.4955314  58.5475199  45.3349237  53.7135588
  58.2748686  48.5204245  52.0607247  59.0528114  48.4307190  53.0048046
  58.5014949  49.3084897  51.0221161  57.8528608  49.3942063  50.2526840
  59.7050972  50.1046657  50.9943988  60.5801316  49.4651813  51.1104750
  59.8111956  50.8395919  49.6593120  60.0249939  50.0907170  48.8967008
  58.8383655  51.2901854  49.4626721  60.8856667  51.9180532  49.6264799
  60.7882562  52.5036884  50.5406153  61.8525662  51.4149110  49.6192341
  60.7861154  52.8321906  48.4312701  59.8240387  52.7007411  47.6601446
  61.6758514  53.6860451  48.2642934  59.6755422  51.1400225  52.0799576
  58.7653767  51.9307378  52.1546496  60.6981868  51.1462245  52.9123334
  61.4194473  50.4418952  52.8506653  60.8252411  52.1658825  53.9183870
  61.6681857  51.9669739  54.5801868  61.0713672  53.4842680  53.2005307
  61.7564335  53.3469463  52.3639148  60.1189067  53.8641715  52.8309467
  61.6541832  54.5556277  54.0575232  61.6076629  55.8870222  53.7084050
  61.1788813  56.2445188  52.8667149  62.2043131  56.6038818  54.6374275
  62.2680235  57.6884854  54.5498200  62.6443880  55.7835519  55.5726606
  62.3149094  54.4977617  55.2325306  62.5976982  53.6718541  55.8852237
  59.5631604  52.2590823  54.7162379  59.1619906  53.3431977  55.0969656
  58.9156782  51.1419489  54.9897149  59.1827255  50.2300151  54.6474258
  57.6787786  51.2586881  55.7547511  57.1837064  52.1826955  55.4560657
  56.7341527  50.1275989  55.5554873  56.3989184  50.0855303  54.5191730
  57.2057770  49.1820034  55.8229187  55.6205388  50.3565246  56.4033295
  54.9875465  49.6422059  56.3000365  57.9062553  51.4319968  57.2617738
  58.7258519  50.7340096  57.8713805  57.1469860  52.3586280  57.8286855
  56.4129899  52.7736111  57.2726837  57.2668843  52.7584244  59.2185795
  58.2985727  53.0031779  59.4711939  56.4136824  53.9956711  59.4145725
  55.4241123  53.7494957  59.0295428  56.3297393  54.3146851  60.4534583
  56.8740674  55.1399118  58.6675833  58.1286819  55.4260671  58.3828472
  58.8823090  54.7015139  58.6913413  58.1998971  56.6166021  57.7385259
  59.0541532  57.0720220  57.4505352  56.9411939  57.1172712  57.5753361
  56.5051871  58.3066361  56.9685305  57.2549338  58.9448422  56.5009073
  55.1748277  58.5924264  56.9996586  54.8034856  59.5145583  56.5525817
  54.2847282  57.7347258  57.5880093  53.2183315  57.9594182  57.6082775
  54.7195164  56.5347928  58.1856590  53.9705789  55.8850817  58.6385041
  56.0808002  56.2313791  58.1732683  56.7314557  51.7334206  60.2014098
  56.9188840  51.8526999  61.4092604  55.9909976  50.7775634  59.6748552
  55.9019127  50.7276697  58.6700299  55.3295100  49.7659987  60.4742638
  55.5662196  49.8989763  61.5299080  53.8245873  49.8940502  60.2936961
  53.6116726  49.8481758  59.2256783  53.2756195  49.1047932  60.8073183
  53.2756416  51.1744196  60.7788442  53.3019480  51.4860079  62.1317395
  53.6998809  50.7549242  62.8354908  52.8435857  52.6749355  62.5799685
  52.9027728  52.9423542  63.6349969  52.2977613  53.5495685  61.6829613
  51.9360003  54.5205508  62.0212250  52.2040699  53.2035441  60.3462347
  51.7335212  53.8882110  59.6406036  52.6942244  52.0200834  59.9149873
  52.6178579  51.7498057  58.8617931  55.7479281  48.3690552  59.9891186
  55.1070327  47.8051048  59.0768033  56.8163109  47.8207625  60.5960866
  57.0507620  47.9998913  62.0441307  56.0957675  47.9584315  62.5679311
  57.5152214  48.9714438  62.2128387  57.9591944  46.8593427  62.4089505
  57.4079272  46.1696548  63.0481173  58.8124332  47.2587957  62.9571496
  58.4060608  46.1885673  61.1282774  58.4076871  45.1160305  61.3225998
  59.3782149  46.4877840  60.7365051  57.3110065  46.5318336  60.1219225
  57.6904921  46.6353584  59.1053736  56.1589517  45.5144730  60.1368247
  55.4395090  45.3753088  61.1496547  55.9476237  44.8742185  58.9926269
  56.5615720  45.0363176  58.2072030  54.8526563  43.9381195  58.8274997
  55.2561587  42.9755843  58.5131574  54.3407403  43.8223920  59.7828262
  53.8613070  44.4167464  57.7935264  53.1360208  43.5991917  57.2160679
  53.8372318  45.7338722  57.5702757  54.5125845  46.3250107  58.0334749
  52.8476421  46.3676000  56.6808798  52.1397089  45.6215292  56.3198973
  52.0806665  47.4403133  57.4325443  52.8970210  47.9636004  57.9303749
  51.5253655  48.1424784  56.8106881  51.1688918  46.8549240  58.4559798
  51.6615838  46.4875836  59.6938213  52.6964439  46.7196221  59.9454603
  50.8634941  45.8375027  60.6021536  51.2637484  45.5357359  61.5700561
  49.5785530  45.4947967  60.2523952  48.8148922  44.9015568  61.1968074
  49.2743784  44.7841994  62.0314925  49.0599648  45.8160908  59.0215628
  48.0390576  45.5464659  58.7510976  49.8518326  46.4884679  58.1260042
  49.4626402  46.7468421  57.1411833  53.4482621  47.0280203  55.4390361
  54.5774112  47.4731435  55.4520208  52.6834944  47.0449130  54.3691837
  51.8329820  46.5010158  54.3992478  52.9980785  47.7707048  53.1417274
  54.0153593  48.1610554  53.1711448  52.8747954  46.8361194  51.9663150
  51.8588796  46.4440764  51.9181761  53.0990950  47.3765458  51.0466795
  53.5770984  46.0106764  52.0825633  52.0582670  48.9565329  52.9741260
  50.8908841  48.9104144  53.3381524  52.5313798  49.9657939  52.2945199
  53.4611568  49.9213288  51.9025545  51.7761448  51.2050705  52.1447451
  50.8506657  51.1537738  52.7182923  52.6144742  52.3901129  52.6666791
  52.0495120  53.3050394  52.4882795  52.7973810  52.2792215  53.7354860
  53.9919454  52.5853194  52.0012548  55.1967408  52.2377325  52.5101118
  55.2090499  51.7969209  53.5069234  56.1755626  52.5323187  51.6150632
  57.1662910  52.4158794  51.7731726  55.6071474  53.0883570  50.4970469
  56.1889722  53.5597605  49.3356358  57.2628845  53.4261551  49.2054035
  55.3822223  54.1634325  48.4238295  55.8186132  54.6118419  47.5313095
  54.0287690  54.2220010  48.6003740  53.3791246  54.6289379  47.8254779
  53.4492688  53.7729657  49.7518221  52.3637565  53.8301499  49.8324056
  54.2538907  53.1970010  50.7330674  51.3408232  51.4475203  50.7047328
  52.0491563  51.1178005  49.7406923  50.1834245  52.0578799  50.5783861
  49.5985421  52.1966928  51.3900158  49.6819332  52.5014324  49.2785424
  50.4715916  52.4918921  48.5272450  48.6148184  51.5349987  48.8638115
  47.6449506  51.9538424  49.1321893  48.6567295  51.2675302  47.3434415
  49.6261984  50.8482154  47.0743600  47.8696544  50.5624033  47.0762187
  48.5039617  52.2029183  46.8050997  48.8612795  50.3011322  49.5805218
  48.1949125  49.6530927  49.3405217  49.1929786  53.8828149  49.4211144
  48.5491945  54.2015690  50.4254808  49.6100237  54.7580642  48.5017266
  50.1553726  54.4517239  47.7087262  49.2969633  56.2009002  48.6235694
  49.6463495  56.5021915  49.6111179  49.9762870  57.0960082  47.5658573
  50.1114689  56.5124530  46.6552045  49.1369927  58.3339602  47.2568898
  49.0017619  58.9183012  48.1670322  49.6459637  58.9410479  46.5082286
  48.1633801  58.0273338  46.8745806  51.2925864  57.5996017  48.0768790
  51.9443129  56.7544508  48.2984070  51.7598797  58.2294620  47.3199030
  51.1319944  58.1815687  48.9844172  47.8127938  56.3722655  48.4914910
  47.1880175  55.7942729  47.5898524  47.2718190  57.1506610  49.4129837
  47.9339972  57.6098463  50.0218912  45.8563248  57.4543441  49.5775393
  45.1525761  56.8515510  49.0035380  45.5541377  57.2789448  51.0513192
  46.2449266  57.8836744  51.6388673  44.5313438  57.5970011  51.2533912
  45.6683660  56.2297545  51.3238093  45.6486272  58.8832306  49.2171850
  46.3354884  59.6499207  49.7879117  44.6822181  59.2404681  48.3607409
  44.2599588  58.5791238  47.7248005  44.3184588  60.6541886  48.2352562
  44.5857837  61.1750182  49.1546979  45.0338795  61.3189630  47.0766461
  44.8985575  62.3954827  47.1810133  46.0931479  61.0764976  47.1618581
  44.5209855  60.8741557  45.7190371  43.9078646  60.0256686  46.0227695
  43.9193964  61.5624260  45.1253397  45.6492732  60.3704836  44.8710470
  46.0667067  59.2227661  45.0179890  46.3097429  61.2891727  44.1613886
  47.0800657  61.0091997  43.5712028  46.0358549  62.2596691  44.2181648
  42.8364550  60.9774953  48.1466075  42.0508667  60.1648605  47.7207982
  42.4637764  62.1841864  48.5398840  43.1984068  62.8193275  48.8173965
  41.0665875  62.6549252  48.6140334  40.5348463  62.0920365  49.3811754
  40.9988538  64.1682120  48.9708602  41.6863607  64.3638297  49.7937619
  41.3033118  64.7464289  48.0984666  39.3679668  64.8517883  49.4936267
  39.7927189  66.0984323  49.6789985  40.3720379  62.4345514  47.2841175
  40.7284854  63.0750949  46.2593584  39.4111994  61.5498962  47.3093452
  39.3666265  60.9256520  48.1020821  38.4644019  61.3528554  46.2219835
  38.9597768  60.7088612  45.4953651  37.2015159  60.6232602  46.7514084
  37.4952644  59.6908653  47.2335399  36.6896090  61.2594681  47.4734131
  36.2642558  60.3198878  45.5873065  35.9696899  61.2518998  45.1049316
  36.7753431  59.6832951  44.8650590  35.0230237  59.6028049  46.1076526
  35.3167712  58.6704108  46.5897859  34.5111169  60.2390143  46.8296557
  34.0857650  59.2994311  44.9435494  33.7911994  60.2314423  44.4611733
  34.5968523  58.6628367  44.2213053  32.8892982  58.6082122  45.4451297
  32.4153307  59.1981020  46.1140726  32.2685565  58.4072877  44.6741504
  33.1619917  57.7443549  45.8917706  38.0680538  62.6594510  45.4883506
  37.9963413  62.6888656  44.2661469  37.8244295  63.7272936  46.2386708
  38.0048288  63.6821364  47.2314025  37.3260810  64.9890026  45.6787678
  36.6464763  64.8516670  44.8377116  36.6362429  65.9073541  46.7702429
  37.3919516  66.5346424  47.2430158  35.5846135  66.7883026  46.1146802
  34.8282592  66.1616795  45.6420575  35.1141686  67.4171620  46.8705362
  36.0564311  67.4185116  45.3608076  36.0664274  65.1342857  48.0033413
  36.8053772  64.3721131  48.2506204  36.0079617  65.8597292  48.8147678
  34.7001884  64.4753352  47.8097817  34.7579885  63.7493778  46.9987670
  34.4067410  63.9692566  48.7294948  33.9605731  65.2369942  47.5629120
  38.4982294  65.8203835  45.0835831  38.5992179  66.0739365  43.8678054
  39.3914357  66.2131159  45.9819135  39.3238579  65.8615784  46.9263467
  40.4049988  67.2221917  45.6899600  40.1076125  67.8184735  44.8273427
  40.5606039  68.1407798  46.8822653  41.2929327  68.9280694  46.7034664
  39.6136681  68.5879678  47.1846485  41.1488882  67.2311587  48.2923817
  41.1773709  68.2681233  49.1247225  41.7664676  66.6610248  45.2553002
  42.6310833  67.4278275  44.7746024  41.9567793  65.3446906  45.3894340
  41.2607105  64.8021363  45.8805779  43.1706209  64.6591336  44.9175813
  42.9736425  63.5870814  44.9158970  43.5234448  65.0910876  43.5012519
  43.7322903  66.1608168  43.4884794  44.4043735  64.5453747  43.1632248
  42.6866784  64.8768236  42.8364120  44.3305218  64.9018764  45.8467207
  45.4319455  64.3525368  45.6526593  44.1122500  65.7642574  46.8395522
  43.2228178  66.2359295  46.9203922  45.1812472  66.1421022  47.7571165
  46.0755361  66.3686102  47.1765645  44.8191800  67.3924672  48.6263143
  45.7539694  67.8263361  48.9813154  44.3111680  68.1061805  47.9777488
  43.9851674  67.0860176  49.7398979  43.7993001  67.8895682  50.2311814
  45.5775201  64.9509797  48.6196019  44.7308540  64.3099381  49.2486268
  46.8665060  64.6325529  48.6064209  47.4896404  65.1643479  48.0156613
  47.3909659  63.4224680  49.2652337  46.7795451  62.5704586  48.9680068
  48.9120016  63.1189503  48.8793616  48.8735317  62.4829508  47.9949839
  49.4915940  64.0149008  48.6569982  49.6871501  62.3510847  49.9325744
  50.4909812  62.9615075  50.8770344  50.6957329  63.9503554  50.8959105
  50.9383576  62.0587556  51.7332086  51.5597319  62.3508980  52.5797579
  50.4989303  60.8771156  51.3506284  49.7067786  61.0328234  50.2349448
  49.2371037  60.1636807  49.7744041  47.1488215  63.4294158  50.8053943
  47.7758984  64.1693337  51.5674481  46.2646851  62.5537367  51.2251917
  45.9031896  61.8692991  50.5763731  45.7835721  62.5192481  52.6160640
  45.8381316  63.5107673  53.0655218  44.3270148  61.9973246  52.6928158
  44.3103202  60.9954957  52.2636765  43.7742049  61.9472718  54.1522616
  43.7901565  62.9488850  54.5819327  42.7503117  61.5736221  54.1408939
  44.3956951  61.2843196  54.7542113  43.4224327  62.8664583  51.8400768
  43.9392446  63.0581330  50.8997220  42.5106899  62.3020366  51.6444938
  43.0674026  64.1890425  52.5017826  43.9786706  64.7542652  52.6972661
  42.4186149  64.7639137  51.8409522  42.5501177  63.9981684  53.4420396
  46.6055023  61.6030331  53.5338186  46.5585687  61.7406240  54.7276988
  47.2876819  60.6300907  52.9576630  47.3376710  60.5660228  51.9509378
  47.9897733  59.6183308  53.7545962  48.9211977  60.0648462  54.1026936
  47.3587824  59.3811349  54.6111520  48.3022957  58.3532139  53.0137601
  48.6820186  58.3753400  51.8441866  48.1463559  57.2341191  53.7110817
  47.8189817  57.2880036  54.6650324  48.4425812  55.8954843  53.1435532
  48.3225471  55.8981991  52.0601864  49.8812449  55.5455230  53.4707897
  49.9831463  55.5888395  54.5551509  50.1594423  54.5518431  53.1196395
  50.9033930  56.5091395  52.9002151  51.4961972  56.4480897  51.6767241
  51.2064013  55.6228582  51.0262543  52.3700499  57.4915597  51.5282595
  52.9532790  57.6633406  50.7217642  52.3564611  58.2406365  52.6727915
  53.0636435  59.3803409  52.9990014  53.7429227  59.7980830  52.2559201
  52.8648562  59.9195582  54.2486551  53.3609351  60.8514974  54.5197548
  52.0580309  59.3125765  55.1601736  51.9605261  59.7064845  56.1718202
  51.3345135  58.1742031  54.8314343  50.6523095  57.7667949  55.5775690
  51.4863314  57.6254962  53.5681857  47.5345440  54.8276454  53.7087066
  47.2324366  54.8551108  54.8973200  47.1810669  53.8564536  52.8687457
  47.3221369  53.9901556  51.8776239  46.5446293  52.6396140  53.3109909
  46.0534045  52.7753244  54.2745157  45.4952453  52.2809897  52.2788539
  45.3802391  53.1418702  51.6202510  45.8778476  51.4354258  51.7072447
  44.1556060  51.9206840  52.8740146  44.3193906  51.5232937  53.8756914
  43.5520054  52.8261052  52.9371081  43.4317591  50.8895175  52.0345086
  42.4016691  51.2196617  51.9002759  43.9238567  50.8322983  51.0635991
  43.4426079  49.5134819  52.6913209  44.4176179  49.3533691  53.1515598
  42.6699184  49.4866487  53.4596504  43.1845698  48.4420202  51.6910655
  43.9006931  48.4664357  50.9792572  43.1969527  47.5426010  52.1504039
  42.2809658  48.5899574  51.2647867  47.5819956  51.5086737  53.5076509
  48.4486703  51.2815274  52.6705263  47.5505223  50.9019398  54.6848426
  46.8072744  51.1232673  55.3319099  48.5293551  49.9278851  55.0795550
  49.3553480  49.9409962  54.3684552  49.0695064  50.2096218  56.4441667
  48.2716886  50.2846001  57.1830605  49.7570660  49.4143296  56.7320419
  49.8113324  51.4399494  56.5132847  49.2039553  52.6236482  56.2313731
  48.1844487  52.6202150  55.8457641  49.8564326  53.8076433  56.4261499
  49.3415106  54.7565165  56.2758313  51.1552864  53.7953573  56.8096141
  51.6933517  54.7305980  56.9642447  51.7906192  52.6022803  57.0025171
  52.8514910  52.5888117  57.2524570  51.1044543  51.4327000  56.8838347
  51.6026802  50.4852639  57.0893480  47.9110365  48.5644932  55.1070640
  46.8459383  48.3722489  55.6366231  48.6581834  47.6368974  54.6222810
  49.6249697  47.8516148  54.4239882  48.1683584  46.3454081  54.2749027
  47.1785102  46.2110544  54.7110781  48.0258399  46.4238754  52.7549585
  47.9658193  45.4174919  52.3406034  46.7442701  47.1990667  52.4055197
  46.8037588  48.2057697  52.8191740  46.6383894  47.2576001  51.3222551
  45.8811062  46.6839993  52.8271287  49.1134883  47.2024470  52.2356877
  49.0377306  47.2608964  51.2804680  49.1736840  45.3107774  54.8303717
  50.3625011  45.5813321  54.8951400  48.6722936  44.1824125  55.3575257
  47.6752664  44.0481059  55.4469561  49.5541348  43.1663630  55.8986999
  50.3296807  43.6853789  56.4619497  48.8146656  42.2480107  56.8328799
  48.0405698  41.7143675  56.2814266  49.5119780  41.5305611  57.2654555
  48.3548695  42.8327222  57.6296228  50.2441431  42.3730202  54.8058812
  49.7584033  42.3004076  53.6798749  51.4260039  41.8548383  55.1176865
  51.8265415  42.0817743  56.0166687  52.1850296  40.9491023  54.2166187
  51.7818474  40.9930640  53.2048822  53.6895872  41.3432678  54.1698642
  54.1499985  40.8545056  53.3112413  53.8648230  42.8663972  54.0472100
  53.4050368  43.3558537  54.9057719  54.9270108  43.1091821  54.0170163
  53.3867815  43.2151002  53.1317958  54.3542082  40.8884155  55.3567342
  55.2810366  41.1357657  55.3192199  52.1101338  39.4931479  54.6924646
  52.2800913  38.5452160  53.9215627  51.7785196  39.3435991  55.9693973
  51.7086895  40.1608883  56.5586862  51.4932824  38.0301178  56.5632725
  51.7424241  37.2420444  55.8526617  52.3257007  37.8227052  57.8384528
  52.0522822  38.6296327  58.5183127  52.0082608  36.8692794  58.2607220
  53.8388764  37.8134422  57.6431546  54.0818345  37.1604740  56.8048798
  54.1716225  38.8274673  57.4214898  54.5435396  37.3104626  58.9003409
  53.8552252  36.6617724  59.4421187  55.4188990  36.7368424  58.5957015
  54.9763333  38.4535979  59.8012718  54.2935875  39.2898469  59.6507848
  54.9173163  38.1188772  60.8369253  56.3705774  38.8897043  59.4986406
  56.4253801  39.2003079  58.5391502  56.6267646  39.6489533  60.1134651
  57.0034377  38.1150792  59.6384359  50.0038589  37.9777818  56.9250232
  49.4283992  38.9786957  57.3790008  49.3979479  36.8097754  56.7470970
  49.9139228  36.0188247  56.3889542  47.9547503  36.6602464  56.9584326
  47.4539501  37.6125477  56.7840173  47.3800038  35.6205695  55.9912762
  47.1722955  34.7248089  56.5765706  46.4447345  36.0282988  55.6077034
  48.3017384  35.2616288  54.8161980  49.1199953  34.6673123  55.2228237
  47.7174323  34.6513788  54.1275157  48.8721100  36.4713446  54.0682282
  48.7767968  37.3486347  54.7080536  49.9262589  36.2844461  53.8634395
  48.1401777  36.7157870  52.7641281  48.5463557  37.6090170  52.2895122
  48.2857530  35.8579839  52.1075607  46.6831328  36.9064070  53.0165487
  46.5479955  37.7014816  53.6245734  46.2079741  37.0681946  52.1401077
  46.3064751  36.0786648  53.4559472  47.6181003  36.3180977  58.4195661
  46.4591427  36.0320644  58.7389394  48.6171281  36.4300759  59.2980251
  49.5339809  36.7082216  58.9784703  48.4490160  36.0917446  60.7069815
  47.4219743  35.7776197  60.8930199  49.3906693  34.9441860  61.0951301
  49.0579355  34.4607886  62.0136693  49.3278535  34.2358390  60.2690557
  50.8085553  35.3985760  61.2559088  51.3040724  36.0889152  60.3424738
  51.4064113  35.1318900  62.3162842  48.6822555  37.3122750  61.5856616
  48.5054366  37.2481978  62.8112718  48.9200062  38.4790358  60.9587384
  49.1008867  38.4668228  59.9651427  48.9484185  39.7658081  61.6527924
  49.4058099  39.6375712  62.6338365  49.7499917  40.7971457  60.8739521
  49.6582458  40.5592862  59.8141857  49.3093855  41.7755169  61.0656704
  51.1965199  40.8182325  61.2566902  51.3460995  41.5800194  62.0218096
  51.4674833  39.8420233  61.6588052  52.2351629  41.1834282  59.8555125
  53.7904401  41.4124310  60.7218927  54.0504110  40.4957980  61.2513245
  54.5749994  41.6517750  60.0040614  53.6916946  42.2289819  61.4371515
  47.5482643  40.3275660  61.8710797  46.6873722  40.2399796  60.9886765
  47.3514225  40.9583370  63.0294363  48.0122745  40.8692954  63.7880177
  46.1340745  41.7332363  63.2586170  45.3583010  41.4005190  62.5689983
  45.6317231  41.5604773  64.6676335  45.7082252  40.5070391  64.9369188
  46.2586660  42.1519707  65.3348503  44.2874730  41.9810349  64.7886159
  43.9945973  41.8598278  65.6947796  46.3318952  43.2344700  62.9548648
  47.4366193  43.7569206  63.0500438  45.2270017  43.9692430  62.7426955
  45.0638600  44.8805149  63.8800377  45.7180158  44.5759575  64.6969987
  44.0284510  44.8681868  64.2204421  45.4601254  46.2157998  63.2843356
  46.4587357  46.4668651  63.6418866  44.7512908  46.9684807  63.6294826
  45.4277748  46.0955191  61.7908351  46.4180186  46.2123764  61.3505390
  44.7494816  46.8312908  61.3587958  44.9059483  44.6888953  61.5258885
  43.8196181  44.6814872  61.4368383  45.5225083  44.1189856  60.2556185
  46.7338600  44.1576011  60.0646714  44.6871621  43.5649291  59.4063669
  43.7250320  43.4258278  59.6803300  45.0939468  43.1527322  58.0533019
  46.0466696  42.6245244  58.0909167  44.0444118  42.2212276  57.4647438
  43.0978159  42.4351291  57.9610316  43.9573994  42.4511557  56.4028295
  44.3784727  40.7820862  57.6342260  44.5448935  40.5513612  58.6864479
  43.5498735  40.1821707  57.2578927  45.6069278  40.4296280  56.8696677
  45.6920073  40.7133989  55.6760662  46.5867134  39.8227854  57.5530586
  47.4410183  39.5625800  57.0812983  46.4665068  39.6283202  58.5368447
  45.2158180  44.3723749  57.1390645  45.9529657  44.3733874  56.1566424
  44.4169329  45.3891741  57.4648635  43.7288354  45.2403763  58.1890737
  44.4870856  46.7078827  56.8351506  45.5072984  46.8500942  56.4787226
  43.5220402  46.8975707  55.6520349  43.7430506  46.1601429  54.8803783
  42.4956983  46.7672096  55.9951503  43.6914032  48.3001216  55.0777600
  43.4700986  49.0381476  55.8487611  44.7174496  48.4310814  54.7339864
  42.7348398  48.4881436  53.9050455  42.9558482  47.7507151  53.1333892
  41.7084985  48.3577841  54.2481625  42.9042051  49.8906944  53.3307698
  42.6829017  50.6287211  54.1017704  43.9302500  50.0216512  52.9869946
  41.9821393  50.0719354  52.2003516  41.0313016  49.9510540  52.5187774
  42.0943094  51.0008372  51.8200104  42.1873139  49.3884338  51.4856293
  44.1496300  47.7861587  57.8260883  43.5598171  47.5434277  58.8577609
  44.5531079  48.9891611  57.4802969  45.0616698  49.1127344  56.6164718
  44.3012020  50.1769551  58.3203338  43.2288708  50.2811635  58.4856987
  45.0059068  50.0571900  59.6974560  44.5868041  50.6560421  60.5060525
  44.8881281  48.9990392  59.9310049  46.4803046  50.3312668  59.6802837
  46.9459194  51.6192141  59.6689820  46.2421299  52.4513044  59.6488340
  48.3024125  51.8640212  59.6830470  48.6581870  52.8923902  59.6199402
  49.2218069  50.8080229  59.7772359  50.2937941  51.0051534  59.7863404
  48.7590105  49.5134732  59.8585838  49.4526002  48.6749620  59.9212935
  47.3888727  49.2832667  59.8600637  47.0061786  48.2727064  60.0029380
  44.8213596  51.3679304  57.5795991  45.7309590  51.2099437  56.7795877
  44.3314482  52.5617104  57.9051940  43.5316141  52.6523559  58.5152335
  44.8623571  53.7495120  57.2977534  45.4938678  53.4758274  56.4525373
  43.7764455  54.6269114  56.8115103  43.0009330  54.3778843  57.5358480
  43.9275692  55.7063051  56.7984349  43.2582166  54.2655575  55.5093367
  43.4474451  54.9426294  54.3304431  44.1619835  55.7654086  54.3542946
  42.6726878  54.4202875  53.3501298  42.6470754  54.7104829  52.3830568
  41.9086482  53.4386194  53.9008513  40.9085000  52.6655864  53.3202752
  40.7079075  52.7891294  52.2560391  40.2355615  51.7930979  54.1284426
  39.4380212  51.1736720  53.7181489  40.5567190  51.6769314  55.5000363
  40.0068364  50.9944759  56.1480973  41.5961626  52.4386740  56.0711572
  41.7331155  52.3947383  57.1516267  42.2863214  53.3134982  55.2629168
  45.7977348  54.5020798  58.2048060  45.6269476  54.5623927  59.4221257
  46.8321575  55.0457210  57.5996474  47.0031882  54.8240549  56.6292290
  47.7574885  55.9688471  58.2786279  47.4998716  56.0624556  59.3336019
  48.7853361  55.6180946  58.1858836  47.6394494  57.3229937  57.6221380
  47.9512355  57.4839547  56.4302382  47.1325061  58.2981005  58.3720134
  46.9611595  58.1612215  59.3579159  46.7641130  59.5589872  57.7840762
  46.9442484  59.5153941  56.7099486  45.2793514  59.8986775  58.0211405
  45.2350589  60.0260248  59.1027689  45.0335956  60.8424603  57.5343365
  44.2719616  58.8245285  57.5913978  44.6341856  57.8498924  57.9184745
  42.9058711  59.0910828  58.2084639  42.5427631  60.0654112  57.8814540
  42.2061527  58.3179158  57.8911191  42.9892883  59.0810264  59.2952209
  44.1672186  58.6912100  56.0695010  45.1403546  58.4199801  55.6601844
  43.4407315  57.9174829  55.8211785  43.8459072  59.6411352  55.6423005
  47.6180854  60.6711164  58.3208077  47.7152916  60.8612731  59.5271200
  48.2133070  61.4229089  57.4275841  48.1587303  61.2020085  56.4435497
  49.0587406  62.5367383  57.8400731  49.6655737  62.3194018  58.7190599
  50.0015963  63.0049121  56.6858879  50.4711983  62.1302294  56.2358830
  49.1956114  63.7777438  55.5995926  48.7260689  64.6528783  56.0487798
  49.8694735  64.0957351  54.8040484  48.4265567  63.1261212  55.1848114
  51.1237905  63.7870163  57.2097145  51.6880027  64.0629866  56.4836943
  48.2100899  63.6935547  58.3719608  47.2851962  64.1382881  57.7520562
  48.6178908  64.1944634  59.5280827  49.2978307  63.6483030  60.0374843
  48.0416566  65.3683116  60.1816427  46.9676738  65.2240197  60.2992868
  48.6796742  65.6091467  61.6114560  48.3530517  64.7609282  62.2130725
  49.7565716  65.5490488  61.4540386  48.3376830  66.9322824  62.3529220
  48.4496241  67.7280956  61.6165448  47.2904388  66.8524405  62.6444817
  49.1961996  67.2581043  63.5986091  48.5397686  67.5351485  64.4234993
  49.7745811  66.3766778  63.8754874  50.1333201  68.3796746  63.3392368
  50.7909940  68.2088256  62.5919918  50.1897902  69.5622605  63.9898056
  51.0983667  70.5018648  63.6134393  51.7288519  70.3120301  62.8475730
  51.1384755  71.3851916  64.1015220  49.3750205  69.8278928  65.0010271
  48.6981804  69.1381938  65.2948006  49.4347850  70.7187708  65.4731110
  48.0516082  66.6473999  59.3434398  47.1675207  67.4261848  59.4620705
  49.0175638  66.8473724  58.4820916  49.7871584  66.1934641  58.4670125
  49.0715503  67.9996065  57.5892724  48.9969110  68.9207320  58.1672480
  50.4408585  68.0123464  56.7904114  50.2614227  68.6036689  55.8925029
  51.1579503  68.5293744  57.4280332  50.9744444  66.7133898  56.4160269
  51.7996565  66.8315786  55.9399428  47.8798302  68.0344734  56.5977683
  47.4936405  69.0897241  56.0817900  47.3402879  66.8585049  56.3416705
  47.7500829  66.0273776  56.7434102  46.2735122  66.7013517  55.3926533
  46.3583211  67.5232813  54.6817817  46.4688415  65.3959423  54.6489372
  46.3776826  64.5629106  55.3459654  45.7105279  65.3031296  53.8714756
  47.4590438  65.3812723  54.1935433  44.8577768  66.8409321  56.0444904
  43.8360187  66.8073025  55.3382372  44.8039498  67.0046275  57.3515786
  45.6472252  67.1979391  57.8727470  43.5293798  66.8855680  58.0970464
  42.7378037  66.5720605  57.4164441  43.6426859  65.8607837  59.2159735
  44.4061575  66.3211631  59.8430789  42.7142899  65.7727348  59.7802681
  44.1082783  64.4739161  58.7841298  45.1505534  64.5221250  58.4687898
  43.9750148  63.4985193  59.9625322  42.9328665  63.4494235  60.2781511
  44.3077242  62.5074682  59.6539502  44.5897202  63.8452851  60.7931892
  43.3970607  63.9934743  57.5028944  43.6044257  64.6884840  56.6892233
  43.7612670  63.0017573  57.2346547  42.3220810  63.9501197  57.6779314
  43.0460189  68.1932059  58.7339972  43.8445880  69.0390510  59.0926606
  41.7473842  68.2526055  58.9918451  41.1692381  67.5018623  58.6422296
  41.1027334  69.3360521  59.7372296  41.8359090  69.9258672  60.2873850
  40.3988714  70.2520144  58.7178786  41.2214503  70.5351916  58.0611641
  39.6757388  69.6585760  58.1584056  39.7230215  71.5027343  59.2498802
  39.8116724  72.2800786  58.4909483  38.2533596  71.2796699  59.5780112
  38.1639250  70.5027299  60.3372639  37.8198498  72.2062759  59.9542708
  37.7224822  70.9700542  58.6777847  40.4894877  72.0203571  60.4658840
  41.5134984  72.2569347  60.1768640  40.0034149  72.9184067  60.8471206
  40.4991713  71.2555582  61.2424712  40.0947100  68.7157494  60.7198456
  39.0754005  68.2133987  60.3070044  40.4035857  68.7010114  62.0284279
  41.7716884  68.4135211  62.4765466  42.4075938  69.2736405  62.2669776
  42.1507050  67.5430548  61.9410713  41.6122910  68.1528032  63.9724583
  42.2874817  68.8197357  64.5085719  41.8917360  67.1179591  64.1702198
  40.2158188  68.3966676  64.3404859  40.1138435  69.4106859  64.7270955
  39.8279704  67.6884883  65.0727122  39.4437566  68.2613176  63.0213748
  39.1881458  67.2226701  62.8116776  38.1697526  69.1132105  63.0066024
  38.2431057  70.3473098  62.9043324  36.9975035  68.4523094  63.0461375
  36.9486226  67.4686625  62.8221984  35.7680649  69.1830640  63.1751929
  36.0270203  70.2004003  63.4685666  34.8942471  69.2436835  61.8758497
  34.4235972  68.2713135  61.7306408  33.7685054  70.3685444  61.9798620
  34.2384427  71.3413252  62.1246238  33.1817665  70.3821395  61.0613568
  33.1148066  70.1520671  62.8247975  35.7194128  69.5503368  60.7503208
  35.1790239  69.5861409  59.9576682  34.9813423  68.7549722  64.4016961
  35.1236883  67.6028593  64.9272640  34.3864224  69.7966365  64.9798618
  34.8302438  70.6957677  64.8586799  33.1901826  69.7295085  65.7686598
  33.0496793  68.8514401  66.3990199  33.1673054  71.0037242  66.6469872
  33.9492903  70.9248539  67.4022220  33.4075703  72.2704743  65.7848347
  32.6256644  72.3502801  65.0296163  33.3873218  73.1540303  66.4228156
  34.3788124  72.1986000  65.2953227  31.8925257  71.0455383  67.5037639
  32.0379715  71.8241175  68.2526035  31.0735456  71.3271717  66.8419077
  31.5565584  69.7340812  68.1954367  32.3749312  69.4520171  68.8578609
  30.6430142  69.8535276  68.7779044  31.4105074  68.9550704  67.4471645
  31.9381765  69.6531604  64.8470327  31.5214624  70.6669520  64.2149924
  31.3058638  68.4458100  64.7987446  31.7742921  67.2308847  65.4823975
  32.3041585  67.4979987  66.3967235  32.4402677  66.6680143  64.8283696
  30.5043226  66.5131947  65.7491323  30.0351736  66.9045151  66.6518320
  30.6952892  65.4471575  65.8724114  29.6703084  66.7652874  64.5544203
  28.6091756  66.7458053  64.8028485  29.8758898  66.0236929  63.7824919
  30.0637516  68.1621095  64.0563717  30.3305365  68.2087259  63.0005540
  28.8869494  69.0861992  64.3220249  28.8741317  69.7012328  65.3598102
  27.9941957  69.2419904  63.3405398  28.1142632  68.6590940  62.5245037
  26.9473508  70.3073302  63.3022266  26.1747162  70.0043405  62.5955922
  26.2837457  70.5677202  64.6814247  26.9891804  70.9956596  65.3936950
  25.5109680  71.3010695  64.4509610  25.6492720  69.3425522  65.2793740
  26.2755412  68.2596568  65.2155751  24.5721180  69.4917290  65.9023744
  27.3389014  71.6941732  62.6822648  28.5370317  71.9983573  62.3760461
  26.2612154  72.4683254  62.4495278  25.4107543  71.9747432  62.2188941
  26.2494606  73.9462360  62.4001319  27.2557560  74.3577938  62.4781634
  25.5818640  74.4831129  61.0534523  26.2487241  75.2335716  60.6289414
  25.3319623  73.3451424  59.9953056  24.6647708  72.5944954  60.4189614
  24.8765622  73.7725750  59.1019909  26.2812378  72.8791262  59.7310983
  24.3386704  75.1544783  61.3116462  23.9642876  75.4641919  60.4836876
  25.5519933  74.5513306  63.6693930  24.8854426  75.5778788  63.5651670
  25.8096829  73.9727271  64.8627849  26.4890899  73.2259481  64.8915356
  25.0544284  74.3015410  66.1266029  24.2693917  75.0264095  65.9112372
  24.4047981  73.0300790  66.7091205  25.1592458  72.2448090  66.6615921
  24.1731701  73.2480488  67.7516835  23.1351938  72.5619427  65.9914992
  23.2045320  72.8073281  64.9317449  23.1310590  71.4788114  66.1135995
  21.8337351  73.1484105  66.5698346  21.7857162  74.3828731  66.7933707
  20.8397156  72.3812124  66.7450352  25.8607744  75.0431362  67.2721014
  25.2298925  75.5424517  68.2339928  27.2132411  74.9137997  67.2698781
  27.5784232  73.9741052  67.2089227  28.1975134  76.0602968  67.5062602
  27.7199706  76.9816199  67.1727696  28.6478170  76.2406646  69.0083518
  29.7248306  76.3330135  68.8683069  28.2646151  77.1448031  69.4814161
  28.3508778  75.0309911  69.9028198  27.1528646  74.6908070  70.0711291
  29.3044707  74.5397131  70.5706615  29.4805213  76.0382541  66.5929115
  30.5222353  76.5818019  66.9788113  29.3653281  75.5044599  65.3681947
  28.4524573  75.2402610  65.0261930  30.5410280  75.1886634  64.5374335
  31.2196029  74.5949512  65.1499212  30.1164727  74.3439623  63.3062373
  29.6062151  73.4414333  63.6426563  29.4438545  74.9284078  62.6784569
  31.3420148  73.9621396  62.5110277  31.8525816  74.8642125  62.1738529
  32.0149411  73.3772365  63.1380506  30.9243774  73.1312041  61.2998907
  30.6646165  73.7541639  60.2359139  30.8690933  71.8814296  61.4502487
  31.3195154  76.4693217  64.1116204  32.4355449  76.7561493  64.5953209
  35.5428349  77.0455958  63.2743703  35.5547677  77.0572931  62.2645089
  36.8269859  77.1915530  63.9922174  37.5293889  76.4403353  63.6311065
  37.4535022  78.5959527  63.7858785  37.6437010  78.7571882  62.7247815
  36.4905331  79.6622332  64.2971128  36.3002020  79.5019193  65.3583265
  36.9301987  80.6490712  64.1523872  35.5519301  79.5989215  63.7465517
  38.7664021  78.6850670  64.5565775  39.4550429  77.9230843  64.1915319
  39.2069717  79.6715169  64.4119582  38.5769283  78.5243818  65.6178883
  36.6077706  76.9541672  65.4937345  36.1232810  77.8554930  66.1934085
  36.8382626  75.6924866  65.9233536  36.8095539  74.9713676  65.2167685
  37.0654581  75.2865112  67.3369105  36.0926290  75.2746795  67.8284008
  37.6904319  73.8526838  67.3834478  37.0325691  73.1521530  66.8690808
  39.0518232  73.8690491  66.6964469  39.7104291  74.5690598  67.2105712
  39.4876218  72.8704763  66.7285841  38.9318647  74.1793262  65.6584501
  37.8589939  73.4185509  68.8355983  38.5171482  74.1183939  69.3505289
  36.8861646  73.4067210  69.3270887  38.4680716  72.0211987  68.8809524
  39.4411938  72.0323407  68.3900258  38.5887700  71.7104030  69.9187083
  37.8102108  71.3206679  68.3665833  37.9863281  76.3066963  68.1100061
  38.8457952  76.9435360  67.5032405  37.7411977  76.5375366  69.4104914
  36.8512521  76.2683175  69.8049748  38.7344198  77.1926611  70.2971518
  39.6830497  77.3777173  69.7932126  38.1895289  78.5229801  70.8163969
  38.0293011  79.2022132  69.9790984  37.2441379  78.3527421  71.3315230
  39.1924450  79.1394041  71.7858323  39.3528469  78.4609001  72.6236893
  40.5150550  79.3783073  71.0652388  40.3555300  80.0571322  70.2274755
  41.2322869  79.8189103  71.7577330  40.9040335  78.4298784  70.6947272
  38.6487967  80.4666880  72.3038951  37.7034069  80.2964486  72.8190224
  39.3652882  80.9077249  72.9968796  38.4885668  81.1459213  71.4665973
  39.0163952  76.2275825  71.4707404  38.0871232  75.7048368  72.0558066
  40.2824856  75.9303389  71.7754981  41.0362587  76.3223730  71.2293894
  40.6278618  74.9766801  72.8868379  40.1449948  74.0143372  72.7170298
  42.1610444  74.7548429  72.9660172  42.5163729  74.3311714  72.0266859
  42.6578949  75.7083852  73.1448935  42.7348488  73.6376453  74.2693669
  44.0289913  73.7395699  73.9800491  40.0745385  75.5411780  74.2436229
  40.0181191  76.7654699  74.4203831  39.6258374  74.6755620  75.1681191
  39.6077704  73.6866860  74.9634312  38.9892670  75.1508447  76.4438944
  38.9516014  76.2338642  76.3266368  37.5340590  74.6158231  76.5979483
  36.9586298  74.8645874  75.7062663  37.5558998  73.5335225  76.7254176
  36.8829056  75.2580095  77.8182844  37.4575563  75.0092911  78.7104820
  36.8516108  76.7722242  77.6399548  36.2767044  77.0217555  76.7481501
  36.3862718  77.2317462  78.5119639  37.8694571  77.1470014  77.5321063
  35.4585934  74.7343459  77.9690695  35.4804356  73.6520458  78.0965405
  34.9926998  75.1930601  78.8412081  34.8831639  74.9831080  77.0773873
  39.8478280  74.8632913  77.7191916  40.7365640  75.6550834  78.1115326
  39.5999980  73.8935512  78.4323704  61.6128233  56.4398323  46.6942495
  64.0823912  56.7126265  46.2134222  64.3419316  57.1332999  44.7598378
  62.9333876  56.9233757  45.2271842  63.0341053  56.3777847  47.2014236
  65.5663832  56.7575627  46.3473941  63.2202544  55.9977897  48.5991941
  66.3820923  56.4692298  47.5439950  64.5009168  55.8615526  49.3421054
  65.9106900  56.0709926  48.8752636  66.9837579  55.8534900  49.8695739
  66.6224981  55.4502129  51.2408203  68.4277221  56.0465997  49.4662874
  69.2217849  57.1319914  50.0836845  69.1819400  58.5199591  49.4891527
  68.0087588  58.9444726  48.6936534  70.3443558  59.4996118  49.6982432
  67.9689139  60.3324402  48.0991215  70.3054750  60.8877439  49.1035024
  69.1313297  61.3120930  48.3082120  60.5700127  57.1254810  47.5007040
  59.9082264  56.3979757  48.6468174  60.2029307  58.5073857  47.1624925
  58.8653976  57.0828812  49.4526030  59.1601018  59.1922913  47.9682780
  58.4983156  58.4647860  49.1143914  58.2033461  56.3560246  50.5980030
  58.5466655  54.9361224  50.8684463  57.1765942  57.0680868  51.4897889
  56.9467932  58.0089031  51.3134536  56.5138439  56.3404170  52.6361111
  57.3340418  55.8751850  53.8482215  55.0542112  56.0699737  52.5950272
  58.8400221  56.1295226  53.9373314  56.6722555  55.1476797  54.9943349
  54.3924249  55.3424684  53.7411406  55.2123576  54.8778850  54.9525376
  54.5508366  54.1497310  56.0993644  57.2072956  54.8534694  55.7670758
  61.6449045  56.9460485  45.7184053  61.2915236  55.3872794  46.7047296
  65.9361863  56.0580105  45.5836543  65.7017754  57.8489494  46.3137772
  62.6427725  56.7398322  49.1703874  62.9558380  54.9324201  48.5222041
  67.0584157  55.6603473  47.2327320  66.7073154  57.4936598  47.7784286
  64.3940467  56.5523312  50.1921600  64.5259386  54.7632484  49.3925000
  68.9488473  55.1043531  49.6886137  68.3603468  56.3472352  48.4105811
  67.1684852  58.2513986  48.5356606  71.2185983  59.1872260  50.2891038
  67.0956355  60.6449905  47.5080519  71.1447663  61.5799104  49.2610351
  69.0928594  62.3202083  47.8710215  60.1970350  55.3639315  48.8832582
  60.6923413  59.0259054  46.3249899  58.8710280  60.2269841  47.7311239
  57.7268855  58.9783701  49.7069596  56.7067089  55.3793924  52.1377581
  54.5529359  57.0451043  52.5045593  54.9488052  55.3698185  51.7536865
  53.6112049  56.0130537  54.1296603  54.0765798  54.3950989  53.2803186
  89.4773733  47.7257627  68.3533322  93.4401924  49.2737158  75.1850451
  93.8232256  54.6186600  74.8220631  91.3556462  55.8801541  70.7489138
  94.7429013  51.7218860  71.2839172  92.2277713  47.7888873  69.4274649
  95.5792249  47.8135394  73.1428988  99.0610945  48.3595131  71.3362177
 102.0838257  47.9795438  68.0120784  95.4462548  57.1397026  72.3972130
  95.7608253  57.9800486  68.4312398  95.5840949  55.1452619  68.1654023
  95.2579359  56.2548244  64.6665772  93.5006145  58.6038372  61.3417490
  95.4502161  58.6133388  57.1854206  97.0843396  59.3248217  66.5162787
  93.0846341  60.6948348  74.4466078  92.9037276  62.2075789  84.8613905
  92.4444056  64.6543089  86.1000846  94.9865327  63.4746338  76.7073957
  97.6955404  64.5939155  72.9022399  96.8963918  67.3932066  69.1167416
  94.7421479  64.4453624  66.0856082  94.4151892  62.4149163  72.0660197
 101.1433468  16.7390966  22.7985269  99.9512305  19.7896589  22.0164137
  99.1772251  67.3015262  63.1516214  98.1223201  63.6229556  65.8387184
  96.3199988  61.8852187  70.2472527  97.3615168  65.2265239  63.0871099
  96.1313953  62.0852174  63.2283078  97.5392986  61.7022466  56.8954743
  92.9353516  54.4948190  66.9377469 106.4093789  47.7979896  67.7741631
 109.6319207  45.3070614  65.8100164 111.2380768  44.6405201  63.5714804
 111.9286934  41.4705183  59.7121645 115.6538486  39.2994457  58.6716272
 109.9580619  28.2241807  60.2615455 107.8526715  24.3495395  61.3275853
 105.3607036  22.7070664  64.5735852 103.7997488  20.5632934  67.6514188
  96.4995167  76.0965167  63.8334313  95.2930047  73.4706319  68.3388414
  94.5768421  70.3148633  71.5934722  98.0164809  71.5200889  60.9248233
  96.1386173  69.1329510  67.1379146  97.5558892  67.2850923  73.3322344
  98.3536546  66.0218719  56.5775959  96.0098827  79.2210728  62.3633520
  96.4928666  67.8446982  78.9031886  92.6834322  66.8878835  81.7242363
  90.9396721  63.9668208  77.8080519  89.7426720  59.8274946  77.1721317
  91.0213643  59.7807457  81.3511265  94.8519113  70.8180395  75.2457614
  92.2277711  70.7826751  82.7029343  92.9603732  74.2154647  80.9268878
  92.2018735  76.2981287  82.9179633  90.6239411  73.8983142  86.0184207
  94.5213280  76.3592377  77.8490542  92.8105243  81.0600559  81.5580017
  93.0846342  83.6886224  61.1711381  91.8432451  82.7851346  58.6598837
  95.4462549  80.1334901  59.1217433  95.7608254  80.9738361  55.1557702
  93.8616831  83.5238656  53.6270371  91.4777963  84.8227132  49.6985653
  89.5593261  82.9634995  50.2960105  90.3992978  50.2647356  68.0560631
  90.6239413  50.9045264  72.7429514  91.0698144  53.1793811  75.6676306
  90.0404780  56.7554618  77.5053014  93.8159307  57.6628940  77.1689831
 100.7347348  21.1888008  70.2485597  87.5815911  57.2112983  79.3250541
  90.2531709  51.0377889  79.9227616  97.9595032  25.2833161  72.3077854
  98.1357683  28.2197256  69.1929524 101.6343245  25.6834279  67.4418174
  68.2172574  55.2869342 132.0058717  67.5434272  55.5901039 132.6143675
  68.6038395  56.0898423 131.6564174  72.1829314  52.8654826 133.2798540
  72.8780219  53.4861519 133.4985855  72.5252464  52.0150177 133.5550918
  66.2744183  52.9716578 132.1873634  65.7018150  53.5906765 131.7344106
  66.8476976  53.5215939 132.7213556  69.4941442  53.2553728 133.3182216
  70.4272116  53.1899289 133.5215092  69.4064655  54.0909995 132.8596749
  72.1229459  52.5719598 130.2786164  72.0443091  52.2379462 131.1721922
  72.9439126  53.0641366 130.2777636  69.6933411  49.8887593 129.8996142
  70.3969261  50.0937596 130.5153798  68.9696060  50.4564355 130.1645226
  71.6020108  50.3270123 131.9494602  72.4365712  49.8951321 131.7672077
  71.4404451  50.1552136 132.8771497  73.0633964  56.7807670 132.4629555
  72.2271276  57.1182356 132.7838830  72.9238733  56.6456650 131.5256692
  72.9372344  56.6254897 129.6627462  72.0601810  56.5043698 129.2989708
  73.4130097  55.8340976 129.4106350  70.6390812  57.5653900 133.2209117
  69.9460057  57.6398255 132.5649153  70.3942564  56.8014244 133.7430634
  75.6827653  57.5619284 129.4644572  74.7759108  57.2652397 129.5407285
  75.9603634  57.2649103 128.5978858  74.4526437  54.4206220 129.6056551
  75.3145601  54.7461118 129.8652368  74.6376782  53.6337716 129.0929617
  75.4055880  51.6602263 132.8936260  75.3934550  52.6044103 133.0504531
  76.2979302  51.4772408 132.5995721  68.2172575  32.2931465 118.7304024
  67.5434274  32.5963162 119.3388982  68.6038397  33.0960545 118.3809481
  72.1829316  29.8716949 120.0043847  72.8780220  30.4923641 120.2231162
  72.5252466  29.0212300 120.2796225  66.2744184  29.9778700 118.9118941
  65.7018151  30.5968887 118.4589413  66.8476978  30.5278062 119.4458863
  69.4941444  30.2615850 120.0427523  70.4272117  30.1961412 120.2460398
  69.4064657  31.0972117 119.5842056  72.1229460  29.5781721 117.0031471
  72.0443092  29.2441584 117.8967228  72.9439127  30.0703489 117.0022943
  69.6933412  26.8949716 116.6241449  70.3969262  27.0999719 117.2399104
  68.9696061  27.4626478 116.8890532  71.6020110  27.3332245 118.6739909
  72.4365714  26.9013444 118.4917384  71.4404453  27.1614259 119.6016803
  80.2304385  37.8501896 128.7695086  80.8682795  37.7308644 128.0658426
  80.1125228  38.7982740 128.8283038  72.8980907  39.6564801 124.6953501
  72.3345772  39.5654738 123.9269789  72.7833302  38.8364705 125.1755994
  78.4780465  43.3235769 120.0067966  77.8268445  43.9089849 119.6201980
  79.2724828  43.8541964 120.0663004  72.4036093  40.4124906 120.4055101
  73.1766969  39.8653893 120.2667976  72.7561491  41.2769155 120.6169562
  74.7402370  36.5717572 118.0373550  74.9927891  36.0499093 117.2757013
  73.8026929  36.4083717 118.1400234  79.7845653  35.5753350 125.8448294
  80.5708742  35.1572773 125.4938711  80.0484357  36.4799442 126.0129942
  79.9555731  41.0126201 120.5436951  79.3201564  41.0860827 121.2557855
  79.6253137  41.6019799 119.8656030  74.4598659  38.4745678 120.2397925
  74.3434917  37.7990581 120.9079010  74.5700919  37.9878052 119.4230078
  76.8030200  37.9355825 123.9444615  76.4388407  37.4086446 124.6557536
  77.6597316  37.5454294 123.7711100  76.4435687  32.9645725 118.9405963
  76.6110089  33.8325961 119.3076434  76.2532856  33.1273006 118.0167252
  76.4224908  35.4203382 119.9252630  76.3024533  35.8660433 120.7638110
  75.7277496  35.7688700 119.3666168  74.1831800  48.1907024 123.5742761
  74.1055830  49.1414849 123.6531242  73.5793444  47.8452896 124.2317688
  82.1209974  35.8924855 120.7532964  83.0327830  36.1252242 120.5780662
  81.6119621  36.4761900 120.1908043  80.7279556  40.8750674 128.1446546
  80.0988419  41.0396388 127.4422613  80.3405218  41.2892283 128.9157510
  84.6068788  41.8105112 125.4990909  83.9219826  42.1904013 124.9487943
  84.6912638  42.4200438 126.2322857  76.2807518  40.6125082 125.4096631
  76.7445864  40.8912785 124.6201253  76.0164316  39.7108526 125.2269721
  75.2176404  36.7348234 122.2186196  75.9200448  37.1869278 122.6860122
  74.8857033  36.0932053 122.8466089  76.4570169  43.5489177 122.2948301
  76.3215844  44.3940713 122.7233149  76.9979981  43.7508454 121.5314235
  69.9099566  41.0664615 122.8676226  70.4224087  41.8607865 123.0181791
  70.5622279  40.3690905 122.8009828  71.7194451  44.1830371 124.9498979
  71.8961079  45.1048336 124.7619963  72.5151285  43.8688790 125.3793359
  72.8425766  45.7008545 130.9509322  73.3933192  45.5725608 130.1786315
  72.0037242  46.0003434 130.6004214  67.8748483  39.3953269 123.6435797
  68.7123705  39.8050278 123.4269504  68.0526751  38.4552711 123.6135990
  79.7712915  37.0628350 119.3319630  79.2559539  37.8332954 119.5708017
  79.4990224  36.3893486 119.9552691  77.3560026  31.9078051 124.3904868
  76.5001623  31.5184901 124.2110507  77.7686978  31.9870011 123.5304653
  84.7447189  39.8160704 121.2672803  83.9676632  39.4771864 120.8227965
  85.4238670  39.8213328 120.5927768  79.5599218  34.9355442 121.1579411
  79.2549354  35.2501591 122.0089554  80.5129660  35.0136862 121.2006744
  78.0045650  41.0945665 122.8072365  77.4767012  40.3598425 122.4945602
  77.5033153  41.8720342 122.5612333  82.9838496  39.2894686 127.9239411
  82.3262171  39.9793947 128.0119540  83.7878895  39.6791118 128.2673397
  81.7943955  37.6439058 125.9743353  82.3075837  38.2769050 126.4765062
  82.4445179  37.0440254 125.6086713  73.0633965  33.7869793 119.1874861
  72.2271277  34.1244479 119.5084136  72.9238735  33.6518772 118.2501998
  76.1498250  38.9125876 115.8107338  75.2425312  38.6815129 116.0098487
  76.6469282  38.1163495 115.9981319  79.0566329  47.6223383 118.7304024
  78.3828028  47.9255079 119.3388982  79.4432151  48.4252463 118.3809481
  79.0559834  36.5179930 123.3504374  79.8031653  37.0301327 123.0411496
  79.3251423  36.1963982 124.2108767  77.3286484  39.0138470 120.3331328
  76.4197703  38.7297503 120.4303798  77.3581568  39.4337549 119.4734635
  82.5605751  42.6245060 124.1022495  82.1068078  41.7835970 124.1587686
  81.9299718  43.2606458 124.4397276  81.5038671  33.5537046 125.3323163
  80.7661428  33.0414432 125.6633405  81.7565444  33.1137428 124.5206440
  81.0038690  44.4621557 125.0372314  81.2961665  45.0226614 124.3184679
  81.5137311  44.7550118 125.7925473  75.8771378  36.6267091 126.4341123
  75.9319988  35.6740927 126.3583600  75.0662580  36.7826530 126.9182422
  77.0262572  40.5547214 117.6719406  76.5882002  39.8383073 117.2125044
  77.7673012  40.7823329 117.1104498  73.8163738  35.2444151 124.1931502
  73.0031603  35.5438321 124.5996694  74.3122732  34.8499839 124.9105984
  75.9672316  45.2401908 126.1265767  75.9248494  45.4662754 125.1974299
  76.8835015  45.0065282 126.2751568  85.1435686  38.8304411 123.7295725
  85.0053585  39.0206007 122.8016914  84.7871905  39.5923794 124.1863776
  74.0838116  42.1164937 125.9227729  74.8778715  41.6215257 125.7210304
  73.3729809  41.5882800 125.5595435  78.9032961  44.4983032 130.2740097
  78.9569983  45.0673969 131.0417813  78.0347742  44.6684917 129.9094134
  70.3920880  36.2608018 121.9987482  69.4618468  36.1992474 122.2157444
  70.4878352  35.7383971 121.2024123  76.6609392  42.6893959 129.6025567
  76.5220478  42.3212743 130.4751505  75.8723989  43.2041598 129.4309524
  77.2557544  47.7903055 120.9451103  77.4309300  47.3191098 121.7596726
  76.5690332  48.4168821 121.1732364  78.2114608  42.0675561 126.9914404
  77.8764440  42.0276331 127.8872054  77.7118553  41.4020277 126.5184815
  81.1473799  39.4131596 117.2651464  80.5302970  38.6878424 117.1684517
  80.6790288  40.1740956 116.9218538  71.8218630  50.9392418 127.7190963
  72.0615228  51.5710942 128.3969982  70.9787826  50.5880458 128.0056323
  72.9372345  33.6317020 116.3872768  72.0601811  33.5105821 116.0235015
  73.4130098  32.8403098 116.1351657  76.3346492  46.7471540 130.1232467
  76.2616663  47.5526512 130.6351772  75.8923885  46.9463506 129.2980489
  76.1236271  45.9843310 123.6335289  75.3403793  46.5264991 123.7273513
  76.8229016  46.5017290 124.0329530  78.7945175  46.6458374 132.2790626
  79.5073147  47.2805839 132.2066527  78.3035204  46.7422240 131.4630628
  80.5162702  40.5509627 123.8507918  79.5818981  40.6711089 123.6812622
  80.6939370  39.6482094 123.5867927  83.9035253  36.3926946 124.3857952
  84.3695706  37.2254938 124.3118254  84.3542754  35.9271928 125.0903210
  81.9711484  42.7370768 121.3844104  82.2471328  42.6227362 122.2937978
  81.1015983  42.3388252 121.3456277  78.6065548  46.9857118 125.0276917
  78.7887943  46.1678774 125.4904670  79.4298534  47.2024811 124.5901807
  78.9407714  45.9125304 122.2891966  79.4695480  45.4017758 121.6762128
  79.2035934  45.5967834 123.1537499  72.2963462  46.9640420 125.0489742
  71.6273837  47.4486548 124.5653782  72.1576332  47.2109641 125.9633120
  76.4368730  48.9984164 131.6472400  76.9887039  49.1615785 132.4121485
  76.7774924  49.5888602 130.9752425  67.6651039  35.2258875 121.8285674
  67.9604480  34.3169554 121.7752728  66.7639075  35.2046615 121.5066676
  79.5737118  46.9466139 128.6336082  79.4488257  46.1455879 128.1247028
  80.2316209  47.4412333 128.1450052  81.6372026  44.7475159 130.2615632
  80.6902362  44.6280511 130.1893959  81.9854799  43.8597657 130.3441894
  78.6418459  44.5427876 126.4619985  78.4943422  43.6144583 126.6427555
  79.4671953  44.5647966 125.9777060  72.5080704  33.1945943 122.3200477
  72.8476776  33.7231864 121.5979085  72.9552824  33.5326349 123.0959043
  82.2452581  45.3656434 127.5484857  83.1699129  45.1599296 127.4109309
  82.0767885  45.1172835 128.4574199  74.4948851  31.6920564 120.5193770
  75.2157213  32.0701817 120.0157486  73.8714155  32.4109441 120.6228747
  78.6379974  32.3965713 121.4552102  78.8543588  33.2790351 121.1540930
  78.1574041  32.0051927 120.7257744  82.0347898  45.8842102 122.9046949
  82.2084775  45.3188524 122.1520801  82.5276789  46.6842997 122.7226439
  87.8887289  38.6478525 124.5237249  88.3318435  37.8985850 124.1256372
  87.0113799  38.6388661 124.1410981  83.0223070  45.2008866 120.0043847
  83.7173975  45.8215559 120.2231162  83.3646220  44.3504217 120.2796225
  84.9214493  42.6508572 121.5331178  85.4465817  42.9895844 120.8080498
  84.8336846  41.7155587 121.3494312  76.6055154  48.7180555 125.8926431
  76.1660144  48.2256934 126.5859288  77.3563271  48.1753523 125.6518506
  69.0847493  44.9092096 125.8951059  69.9105513  44.6095868 125.5149703
  68.7341545  44.1399718 126.3440848  74.0529026  44.2618564 127.9648733
  73.4309035  43.5989269 127.6650961  74.7233893  44.2879696 127.2822380
  73.6142533  42.8122487 121.4407193  73.7630653  43.4957952 120.7873866
  74.4208976  42.7927577 121.9556649  71.3695166  38.8387665 122.4468262
  71.1241208  37.9349995 122.6448472  71.5391080  38.8404816 121.5047740
  70.6390813  34.5716023 119.9454424  69.9460058  34.6460378 119.2894460
  70.3942565  33.8076366 120.4675941  77.1137938  45.3070618 118.9118941
  76.5411906  45.9260805 118.4589413  77.6870732  45.8569980 119.4458863
  80.3335198  45.5907768 120.0427523  81.2665871  45.5253330 120.2460398
  80.2458411  46.4264035 119.5842056  82.9623215  44.9073638 117.0031471
  82.8836846  44.5733502 117.8967228  83.7832882  45.3995406 117.0022943
  77.4984737  36.6431431 116.2534993  78.4443842  36.5137639 116.3223411
  77.1198982  35.9046093 116.7304421  75.6827654  34.5681407 116.1889878
  74.7759109  34.2714520 116.2652592  75.9603635  34.2711225 115.3224165
  77.2989720  29.1118297 122.3434120  76.4890448  28.7665382 122.7189366
  77.9874137  28.8025840 122.9321731  74.4526439  31.4268342 116.3301858
  75.3145603  31.7523241 116.5897675  74.6376783  30.6399838 115.8174923
  82.6059075  30.2996869 123.4737081  82.0257744  30.9581673 123.0915133
  82.3395008  29.4774213 123.0624498  81.3883953  32.4596959 122.5293429
  80.5009808  32.7446610 122.3113624  81.8037942  32.2990722 121.6820706
  69.3968204  47.0404710 127.6164874  69.2622672  46.2805111 127.0502872
  68.9800266  47.7645610 127.1493662  80.5327167  42.2241634 116.6241449
  81.2363017  42.4291636 117.2399104  79.8089815  42.7918396 116.8890532
  81.3624977  37.9751495 122.7443719  81.3060178  38.4320046 121.9051351
  81.9153319  37.2142180 122.5666562  85.1729783  33.7641227 123.5693839
  84.9166717  33.3637863 124.4002046  84.5482651  34.4785021 123.4443978
  72.5537330  47.9374027 127.8283316  72.4369714  48.8819460 127.7262006
  71.7329776  47.6347589 128.2169115  82.4413864  42.6624163 118.6739909
  83.2759468  42.2305361 118.4917384  82.2798207  42.4906177 119.6016803
  82.0959756  39.1656276 120.0396248  82.0408560  39.0000548 119.0984692
  81.4705812  39.8732309 120.1958438  75.4055882  28.6664385 119.6181567
  75.3934552  29.6106225 119.7749837  76.2979304  28.4834531 119.3241028
  73.5791844  48.5902289 131.0439245  74.4819090  48.6225899 131.3605740
  73.3529214  47.6602740 131.0585580  75.3345446  47.3433276 127.7049323
  74.3841077  47.3435137 127.5913696  75.6377932  46.5966010 127.1885358
  83.7374661  54.9856719 124.6953501  83.1739526  54.8946656 123.9269789
  83.6227056  54.1656623 125.1755994  81.2839093  56.4807910 127.5337722
  82.0760385  56.1398735 127.1184021  81.5235743  56.5902885 128.4539875
  89.3174220  58.6527686 120.0067966  88.6662200  59.2381767 119.6201980
  90.1118583  59.1833881 120.0663004  83.2429847  55.7416823 120.4055101
  84.0160723  55.1945811 120.2667976  83.5955246  56.6061073 120.6169562
  85.5796125  51.9009490 118.0373550  85.8321646  51.3791011 117.2757013
  84.6420684  51.7375635 118.1400234  90.6239408  50.9045268 125.8448294
  91.4102497  50.4864691 125.4938711  90.8878112  51.8091360 126.0129942
  90.7949485  56.3418118 120.5436951  90.1595318  56.4152745 121.2557855
  90.4646891  56.9311717 119.8656030  85.2992414  53.8037596 120.2397925
  85.1828672  53.1282499 120.9079010  85.4094673  53.3169969 119.4230078
  87.6423955  53.2647743 123.9444615  87.2782162  52.7378364 124.6557536
  88.4991070  52.8746212 123.7711100  87.2829441  48.2937642 118.9405963
  87.4503844  49.1617879 119.3076434  87.0926611  48.4564924 118.0167252
  83.4917256  53.2068418 126.6408498  82.5667753  53.0744632 126.8486190
  83.7401669  53.9862637 127.1378440  87.2618662  50.7495300 119.9252630
  87.1418288  51.1952351 120.7638110  86.5671251  51.0980617 119.3666168
  80.8526067  52.8501692 127.4752287  80.9818448  53.1036171 128.3891699
  80.1723519  53.4429400 127.1556942  92.9603729  51.2216773 120.7532964
  93.8721585  51.4544160 120.5780662  92.4513376  51.8053817 120.1908043
  87.1201273  55.9417000 125.4096631  87.5839618  56.2204703 124.6201253
  86.8558071  55.0400444 125.2269721  86.0570159  52.0640152 122.2186196
  86.7594202  52.5161196 122.6860122  85.7250787  51.4223971 122.8466089
  79.7995493  50.3223705 127.5203329  79.0094547  50.5781233 127.0443440
  80.2906740  51.1372042 127.6255370  81.7510238  50.6868284 124.4786806
  80.9541401  50.7986978 124.9970302  81.5235830  51.0254936 123.6127697
  78.0833196  50.5754195 129.9518320  78.3341234  51.4601205 130.2175896
  78.6192744  50.3958797 129.1793412  87.2963923  58.8781095 122.2948301
  87.1609598  59.7232630 122.7233149  87.8373736  59.0800372 121.5314235
  80.7493321  56.3956533 122.8676226  81.2617841  57.1899783 123.0181791
  81.4016034  55.6982823 122.8009828  82.5588205  59.5122289 124.9498979
  82.7354834  60.4340254 124.7619963  83.3545039  59.1980708 125.3793359
  78.7142238  54.7245187 123.6435797  79.5517460  55.1342195 123.4269504
  78.8920505  53.7844629 123.6135990  90.6106670  52.3920267 119.3319630
  90.0953293  53.1624872 119.5708017  90.3383978  51.7185404 119.9552691
  88.1953781  47.2369968 124.3904868  87.3395377  46.8476819 124.2110507
  88.6080732  47.3161929 123.5304653  85.9695813  44.8555041 127.7962609
  86.8348810  44.6597850 127.4368499  86.0373322  44.6265393 128.7231966
  95.5840944  55.1452622 121.2672803  94.8070387  54.8063782 120.8227965
  96.2632425  55.1505245 120.5927768  90.3992973  50.2647360 121.1579411
  90.0943108  50.5793509 122.0089554  91.3523415  50.3428779 121.2006744
  88.8439405  56.4237583 122.8072365  88.3160766  55.6890342 122.4945602
  88.3426907  57.2012259 122.5612333  83.5758132  47.0857249 125.1678976
  84.1501884  46.8632431 124.4352169  84.1629115  47.1545944 125.9207578
  83.9027719  49.1161710 119.1874861  83.0665032  49.4536397 119.5084136
  83.7632489  48.9810690 118.2501998  85.8780800  43.9598498 123.8954046
  85.2245212  43.6447515 123.2710660  85.8361274  43.3374239 124.6213869
  86.9892005  54.2417793 115.8107338  86.0819067  54.0107047 116.0098487
  87.4863037  53.4455412 115.9981319  89.8960084  62.9515300 118.7304024
  89.2221783  63.2546997 119.3388982  90.2825906  63.7544381 118.3809481
  89.1118540  50.4480432 128.2201693  88.1941102  50.6695379 128.0623381
  89.5278684  50.5226742 127.3613401  89.8953588  51.8471847 123.3504374
  90.6425407  52.3593245 123.0411496  90.1645178  51.5255900 124.2108767
  88.1680238  54.3430388 120.3331328  87.2591458  54.0589421 120.4303798
  88.1975322  54.7629467 119.4734635  92.3432425  48.8828964 125.3323163
  91.6055182  48.3706350 125.6633405  92.5959199  48.4429345 124.5206440
  78.7368409  52.0635902 124.3146530  78.5392809  51.4705263 123.5897597
  78.1815073  51.7588112 125.0322469  86.7165132  51.9559009 126.4341123
  86.7713742  51.0032845 126.3583600  85.9056334  52.1118448 126.9182422
  87.8656326  55.8839132 117.6719406  87.4275756  55.1674991 117.2125044
  88.6066767  56.1115247 117.1104498  84.6557492  50.5736068 124.1931502
  83.8425358  50.8730239 124.5996694  85.1516486  50.1791757 124.9105984
  95.9829441  54.1596329 123.7295725  95.8447339  54.3497925 122.8016914
  95.6265660  54.9215712 124.1863776  84.1471567  48.1454424 129.8092737
  84.7870946  48.0043183 129.1115700  83.3149098  47.8588937 129.4331339
  84.9231871  57.4456854 125.9227729  85.7172469  56.9507174 125.7210304
  84.2123563  56.9174717 125.5595435  81.2314634  51.5899936 121.9987482
  80.3012223  51.5284392 122.2157444  81.3272106  51.0675889 121.2024123
  81.1500183  48.1154749 124.5865724  81.4107001  49.0300082 124.4774884
  81.9717356  47.6479191 124.7362337  82.6225109  49.5292506 131.7564548
  83.2948162  49.3209868 131.1077197  81.7954895  49.3314592 131.3169781
  88.0951299  63.1194973 120.9451103  88.2703055  62.6483016 121.7596726
  87.4084087  63.7460739 121.1732364  91.9867554  54.7423513 117.2651464
  91.3696724  54.0170342 117.1684517  91.5184042  55.5032874 116.9218538
  83.7766100  48.9608938 116.3872768  82.8995566  48.8397738 116.0235015
  84.2523853  48.1695016 116.1351657  75.2968240  53.7486097 126.4814275
  75.9839280  53.4347827 125.8935291  75.1416368  54.6527462 126.2081527
  80.1002962  48.6376294 130.9099299  80.0161151  48.0301964 130.1749709
  79.2785668  49.1285312 130.9108795  90.2726676  47.1229857 126.2769494
  90.7695375  46.3699820 125.9570564  89.5013657  47.1594174 125.7112703
  91.3556456  55.8801545 123.8507918  90.4212735  56.0003007 123.6812622
  91.5333125  54.9774011 123.5867927  86.8561645  49.2647240 126.0041179
  86.4859432  48.7118281 126.6922084  87.3520737  48.6605374 125.4516179
  94.7429008  51.7218864 124.3857952  95.2089460  52.5546856 124.3118254
  95.1936508  51.2563846 125.0903210  92.8105239  58.0662685 121.3844104
  93.0865083  57.9519280 122.2937978  91.9409738  57.6680170 121.3456277
  89.7801468  61.2417221 122.2891966  90.3089235  60.7309676 121.6762128
  90.0429688  60.9259751 123.1537499  74.8736216  51.8286691 128.7531743
  74.9120315  51.2950281 129.5468861  74.3676509  51.3021896 128.1342720
  82.2526978  46.6751231 132.2494285  82.3168305  47.5366062 131.8371683
  82.1894098  46.0625233 131.5166643  78.5044793  50.5550793 121.8285674
  78.7998235  49.6461471 121.7752728  77.6032829  50.5338532 121.5066676
  82.0339040  48.6306789 127.8113223  81.3125626  49.2442757 127.6720696
  82.8232296  49.1664554 127.7329868  80.2332635  48.2364891 121.9524999
  79.9045341  47.3562269 121.7700105  80.5872006  48.1812559 122.8401388
  83.3474458  48.5237860 122.3200477  83.6870531  49.0523782 121.5979085
  83.7946579  48.8618266 123.0959043  85.3342605  47.0212482 120.5193770
  86.0550968  47.3993735 120.0157486  84.7107909  47.7401359 120.6228747
  89.4773728  47.7257631 121.4552102  89.6937343  48.6082269 121.1540930
  88.9967795  47.3343844 120.7257744  84.2172950  50.6843344 128.0322846
  84.0717530  50.9983647 128.9247128  83.7398153  51.3028244 127.4793745
  86.0769333  47.6745892 128.0803736  86.0630901  46.7786985 127.7436034
  86.7941761  47.6816556 128.7142022  78.6918612  53.2248689 130.9710508
  78.1472080  54.0008497 131.1030782  79.5697962  53.5719493 130.8129629
  85.4806228  46.5560272 123.3491306  85.6022140  45.6276919 123.5482194
  85.1908271  46.5698958 122.4369622  88.3497419  44.2415183 126.4858026
  88.3719116  44.3054516 125.5310006  88.7665478  43.4019691 126.6798532
  93.8616824  60.5300784 120.0043847  94.5567729  61.1507477 120.2231162
  94.2039975  59.6796135 120.2796225  95.7608248  57.9800489 121.5331178
  96.2859572  58.3187762 120.8080498  95.6730600  57.0447505 121.3494312
  79.9241247  60.2384014 125.8951059  80.7499267  59.9387785 125.5149703
  79.5735299  59.4691636 126.3440848  78.1249852  58.1570340 126.8539993
  77.2881761  57.7292514 126.6723994  78.0973498  58.3502783 127.7910784
  84.4536287  58.1414405 121.4407193  84.6024408  58.8249869 120.7873866
  85.2602731  58.1219495 121.9556649  82.2088920  54.1679583 122.4468262
  81.9634962  53.2641913 122.6448472  82.3784835  54.1696733 121.5047740
  81.4784568  49.9007940 119.9454424  80.7853813  49.9752295 119.2894460
  81.2336320  49.1368284 120.4675941  87.9531693  60.6362536 118.9118941
  87.3805660  61.2552723 118.4589413  88.5264487  61.1861897 119.4458863
  91.1728953  60.9199686 120.0427523  92.1059626  60.8545247 120.2460398
  91.0852166  61.7555953 119.5842056  93.8016969  60.2365556 117.0031471
  93.7230601  59.9025420 117.8967228  94.6226636  60.7287324 117.0022943
  88.3378491  51.9723348 116.2534993  89.2837596  51.8429556 116.3223411
  87.9592736  51.2338010 116.7304421  86.5221409  49.8973325 116.1889878
  85.6152864  49.6006437 116.2652592  86.7997390  49.6003143 115.3224165
  77.4399349  51.2179688 126.6388925  77.1202133  50.3644996 126.3463299
  76.8932777  51.4328266 127.3946892  88.1383474  44.4410214 122.3434120
  87.3284203  44.0957299 122.7189366  88.8267891  44.1317758 122.9321731
  90.0674023  43.5188261 123.9658416  90.6205061  43.9383715 124.6248439
  90.3044109  42.5924009 124.0081372  85.2920193  46.7560260 116.3301858
  86.1539357  47.0815158 116.5897675  85.4770537  45.9691756 115.8174923
  77.3087609  54.8382600 128.6082046  76.6151080  54.4236552 128.0952001
  78.0560600  54.8803136 128.0115465  93.4452830  45.6288786 123.4737081
  92.8651499  46.2873590 123.0915133  93.1788762  44.8066131 123.0624498
  79.2224351  54.7700853 126.4848061  79.1995040  54.8688541 125.5329944
  79.5324988  55.6166004 126.8065227  92.2277708  47.7888877 122.5293429
  91.3403563  48.0738527 122.3113624  92.6431697  47.6282640 121.6820706
  91.3720921  57.5533551 116.6241449  92.0756771  57.7583554 117.2399104
  90.6483570  58.1210313 116.8890532  92.2018731  53.3043413 122.7443719
  92.1453933  53.7611964 121.9051351  92.7547074  52.5434097 122.5666562
  96.0123537  49.0933145 123.5693839  95.7560472  48.6929780 124.4002046
  95.3876405  49.8076938 123.4443978  93.2807619  57.9916081 118.6739909
  94.1153223  57.5597279 118.4917384  93.1191961  57.8198094 119.6016803
  92.9353511  54.4948194 120.0396248  92.8802315  54.3292465 119.0984692
  92.3099566  55.2024227 120.1958438  77.7246026  49.7316258 133.8657670
  78.3704889  49.2215212 134.3544896  77.5163177  50.4684940 134.4401096
  86.2449636  43.9956303 119.6181567  86.2328306  44.9398143 119.7749837
  87.1373058  43.8126448 119.3241028  94.7421474  64.4453628 119.1874861
  93.9058786  64.7828314 119.5084136  94.6026244  64.3102608 118.2501998
  94.6159854  64.2900855 116.3872768  93.7389320  64.1689656 116.0235015
  95.0917607  63.4986934 116.1351657  92.3178322  65.2299858 119.9454424
  91.6247567  65.3044213 119.2894460  92.0730074  64.4660202 120.4675941
  97.3615163  65.2265242 116.1889878  96.4546618  64.9298355 116.2652592
  97.6391144  64.9295060 115.3224165  96.1313948  62.0852178 116.3301858
  96.9933112  62.4107076 116.5897675  96.3164292  61.2983673 115.8174923
  97.0843391  59.3248221 119.6181567  97.0722061  60.2690061 119.7749837
  97.9766813  59.1418366 119.3241028  68.2172576   9.2993588 105.4549331
  67.5434275   9.6025284 106.0634288  68.6038398  10.1022668 105.1054788
  72.1829317   6.8779071 106.7289154  72.8780221   7.4985764 106.9476468
  72.5252467   6.0274422 107.0041532  66.2744185   6.9840823 105.6364247
  65.7018152   7.6031010 105.1834719  66.8476979   7.5340184 106.1704169
  69.4941445   7.2677973 106.7672830  70.4272118   7.2023535 106.9705705
  69.4064658   8.1034240 106.3087362  72.1229462   6.5843843 103.7276777
  72.0443093   6.2503707 104.6212535  72.9439128   7.0765611 103.7268250
  69.6933413   3.9011839 103.3486755  70.3969264   4.1061841 103.9644411
  68.9696062   4.4688601 103.6135839  71.6020111   4.3394368 105.3985216
  72.4365715   3.9075566 105.2162690  71.4404454   4.1676382 106.3262110
  80.2304386  14.8564019 115.4940392  80.8682796  14.7370766 114.7903732
  80.1125229  15.8044863 115.5528344  72.8980908  16.6626923 111.4198808
  72.3345773  16.5716860 110.6515096  72.7833303  15.8426828 111.9001300
  78.4780467  20.3297891 106.7313273  77.8268446  20.9151972 106.3447287
  79.2724829  20.8604086 106.7908310  72.4036094  17.4187028 107.1300407
  73.1766970  16.8716015 106.9913283  72.7561493  18.2831278 107.3414869
  74.7402372  13.5779694 104.7618857  74.9927892  13.0561216 104.0002320
  73.8026931  13.4145840 104.8645541  79.7845654  12.5815473 112.5693600
  80.5708744  12.1634896 112.2184017  80.0484359  13.4861565 112.7375249
  79.9555732  18.0188323 107.2682257  79.3201565  18.0922950 107.9803162
  79.6253138  18.6081922 106.5901336  74.4598660  15.4807800 106.9643232
  74.3434918  14.8052704 107.6324316  74.5700920  14.9940174 106.1475385
  76.8030201  14.9417948 110.6689921  76.4388409  14.4148568 111.3802843
  77.6597317  14.5516417 110.4956407  76.4435688   9.9707847 105.6651270
  76.6110091  10.8388084 106.0321741  76.2532857  10.1335129 104.7412559
  76.4224909  12.4265505 106.6497937  76.3024534  12.8722555 107.4883417
  75.7277498  12.7750822 106.0911475  74.1831801  25.1969146 110.2988068
  74.1055831  26.1476972 110.3776548  73.5793445  24.8515019 110.9562994
  82.1209975  12.8986978 107.4778271  83.0327831  13.1314365 107.3025968
  81.6119622  13.4824022 106.9153349  80.7279558  17.8812796 114.8691852
  80.0988420  18.0458510 114.1667920  80.3405220  18.2954406 115.6402816
  84.6068790  18.8167234 112.2236216  83.9219828  19.1966136 111.6733249
  84.6912639  19.4262561 112.9568164  76.2807519  17.6187204 112.1341937
  76.7445865  17.8974907 111.3446560  76.0164318  16.7170649 111.9515028
  75.2176406  13.7410357 108.9431502  75.9200449  14.1931400 109.4105429
  74.8857034  13.0994176 109.5711395  76.4570170  20.5551299 109.0193608
  76.3215845  21.4002835 109.4478455  76.9979983  20.7570577 108.2559541
  69.9099568  18.0726737 109.5921533  70.4224088  18.8669988 109.7427097
  70.5622280  17.3753028 109.5255134  71.7194452  21.1892494 111.6744286
  71.8961081  22.1110458 111.4865270  72.5151286  20.8750913 112.1038666
  72.8425768  22.7070668 117.6754628  73.3933193  22.5787731 116.9031622
  72.0037244  23.0065557 117.3249521  67.8748484  16.4015392 110.3681103
  68.7123706  16.8112400 110.1514811  68.0526752  15.4614834 110.3381297
  79.7712916  14.0690472 106.0564936  79.2559540  14.8395077 106.2953324
  79.4990225  13.3955609 106.6797998  77.3560027   8.9140173 111.1150175
  76.5001624   8.5247024 110.9355813  77.7686979   8.9932134 110.2549960
  84.7447191  16.8222827 107.9918110  83.9676633  16.4833987 107.5473272
  85.4238672  16.8275450 107.3173075  79.5599220  11.9417565 107.8824717
  79.2549355  12.2563714 108.7334861  80.5129662  12.0198984 107.9252050
  78.0045651  18.1007788 109.5317671  77.4767013  17.3660547 109.2190909
  77.5033154  18.8782464 109.2857640  82.9838497  16.2956808 114.6484718
  82.3262172  16.9856070 114.7364846  83.7878897  16.6853240 114.9918704
  81.7943956  14.6501181 112.6988659  82.3075838  15.2831173 113.2010369
  82.4445180  14.0502377 112.3332019  73.0633966  10.7931915 105.9120168
  72.2271278  11.1306602 106.2329443  72.9238736  10.6580895 104.9747305
  76.1498252  15.9187998 102.5352644  75.2425313  15.6877252 102.7343793
  76.6469284  15.1225617 102.7226626  79.0566331  24.6285505 105.4549331
  78.3828029  24.9317202 106.0634288  79.4432152  25.4314586 105.1054788
  79.0559835  13.5242052 110.0749680  79.8031654  14.0363449 109.7656802
  79.3251424  13.2026105 110.9354074  77.3286485  16.0200593 107.0576634
  76.4197704  15.7359626 107.1549104  77.3581569  16.4399672 106.1979941
  82.5605752  19.6307182 110.8267802  82.1068080  18.7898092 110.8832992
  81.9299719  20.2668581 111.1642582  81.5038672  10.5599168 112.0568469
  80.7661429  10.0476555 112.3878712  81.7565446  10.1199550 111.2451746
  81.0038692  21.4683679 111.7617620  81.2961666  22.0288736 111.0429986
  81.5137312  21.7612240 112.5170779  75.8771379  13.6329214 113.1586430
  75.9319989  12.6803050 113.0828906  75.0662581  13.7888653 113.6427728
  77.0262573  17.5609337 104.3964713  76.5882003  16.8445196 103.9370350
  77.7673014  17.7885451 103.8349804  73.8163739  12.2506273 110.9176809
  73.0031605  12.5500444 111.3242001  74.3122733  11.8561962 111.6351291
  75.9672317  22.2464030 112.8511073  75.9248496  22.4724877 111.9219605
  76.8835016  22.0127405 112.9996875  85.1435688  15.8366534 110.4541032
  85.0053586  16.0268130 109.5262221  84.7871906  16.5985916 110.9109083
  74.0838118  19.1227059 112.6473036  74.8778716  18.6277379 112.4455611
  73.3729810  18.5944922 112.2840742  78.9032962  21.5045155 116.9985404
  78.9569984  22.0736091 117.7663120  78.0347744  21.6747040 116.6339441
  70.3920881  13.2670141 108.7232789  69.4618469  13.2054596 108.9402751
  70.4878353  12.7446094 107.9269430  76.6609394  19.6956081 116.3270873
  76.5220479  19.3274866 117.1996811  75.8723990  20.2103721 116.1554831
  77.2557546  24.7965178 107.6696410  77.4309301  24.3253221 108.4842032
  76.5690334  25.4230944 107.8977670  78.2114609  19.0737684 113.7159711
  77.8764441  19.0338454 114.6117361  77.7118555  18.4082400 113.2430121
  81.1473800  16.4193718 103.9896771  80.5302971  15.6940546 103.8929823
  80.6790289  17.1803079 103.6463845  71.8218631  27.9454540 114.4436270
  72.0615229  28.5773065 115.1215288  70.9787827  27.5942580 114.7301629
  72.9372346  10.6379143 103.1118075  72.0601813  10.5167943 102.7480322
  73.4130099   9.8465221 102.8596964  76.3346493  23.7533663 116.8477774
  76.2616664  24.5588634 117.3597078  75.8923886  23.9525629 116.0225795
  76.1236272  22.9905433 110.3580595  75.3403794  23.5327113 110.4518820
  76.8229018  23.5079413 110.7574837  78.7945176  23.6520497 119.0035933
  79.5073149  24.2867962 118.9311834  78.3035205  23.7484363 118.1875934
  80.5162703  17.5571750 110.5753224  79.5818982  17.6773212 110.4057929
  80.6939372  16.6544216 110.3113234  83.9035255  13.3989069 111.1103258
  84.3695707  14.2317060 111.0363561  84.3542755  12.9334050 111.8148517
  81.9711486  19.7432890 108.1089410  82.2471330  19.6289485 109.0183284
  81.1015984  19.3450375 108.0701583  78.6065550  23.9919241 111.7522224
  78.7887944  23.1740897 112.2149976  79.4298536  24.2086933 111.3147114
  78.9407715  22.9187426 109.0137272  79.4695482  22.4079881 108.4007435
  79.2035935  22.6029956 109.8782805  72.2963463  23.9702543 111.7735048
  71.6273838  24.4548670 111.2899088  72.1576333  24.2171763 112.6878427
  76.4368732  26.0046286 118.3717707  76.9887040  26.1677908 119.1366792
  76.7774925  26.5950724 117.6997732  67.6651040  12.2320998 108.5530981
  67.9604481  11.3231676 108.4998034  66.7639076  12.2108737 108.2311983
  79.5737119  23.9528262 115.3581389  79.4488258  23.1518002 114.8492334
  80.2316210  24.4474455 114.8695359  81.6372027  21.7537282 116.9860939
  80.6902363  21.6342633 116.9139266  81.9854801  20.8659780 117.0687200
  78.6418461  21.5489998 113.1865291  78.4943423  20.6206706 113.3672861
  79.4671954  21.5710089 112.7022366  72.5080705  10.2008065 109.0445783
  72.8476777  10.7293987 108.3224392  72.9552825  10.5388471 109.8204350
  82.2452583  22.3718557 114.2730164  83.1699130  22.1661418 114.1354615
  82.0767886  22.1234958 115.1819505  74.4948852   8.6982687 107.2439076
  75.2157215   9.0763940 106.7402793  73.8714156   9.4171564 107.3474054
  78.6379975   9.4027836 108.1797408  78.8543589  10.2852474 107.8786237
  78.1574042   9.0114049 107.4503050  82.0347899  22.8904224 109.6292255
  82.2084776  22.3250647 108.8766108  82.5276790  23.6905119 109.4471745
  87.8887290  15.6540647 111.2482555  88.3318436  14.9047973 110.8501678
  87.0113800  15.6450784 110.8656287  83.0223071  22.2070989 106.7289154
  83.7173976  22.8277681 106.9476468  83.3646221  21.3566340 107.0041532
  84.9214494  19.6570694 108.2576484  85.4465818  19.9957967 107.5325805
  84.8336847  18.7217710 108.0739619  76.6055155  25.7242678 112.6171738
  76.1660145  25.2319056 113.3104594  77.3563272  25.1815645 112.3763813
  69.0847494  21.9154218 112.6196366  69.9105514  21.6157990 112.2395009
  68.7341546  21.1461841 113.0686154  74.0529027  21.2680687 114.6894039
  73.4309037  20.6051392 114.3896267  74.7233894  21.2941819 114.0067687
  73.6142534  19.8184610 108.1652500  73.7630655  20.5020074 107.5119173
  74.4208978  19.7989700 108.6801956  71.3695167  15.8449788 109.1713569
  71.1241209  14.9412118 109.3693779  71.5391082  15.8466938 108.2293047
  70.6390815  11.5778145 106.6699730  69.9460060  11.6522500 106.0139766
  70.3942567  10.8138489 107.1921247  77.1137940  22.3132740 105.6364247
  76.5411907  22.9322928 105.1834719  77.6870733  22.8632102 106.1704169
  80.3335199  22.5969891 106.7672830  81.2665873  22.5315452 106.9705705
  80.2458412  23.4326157 106.3087362  82.9623216  21.9135761 103.7276777
  82.8836848  21.5795625 104.6212535  83.7832883  22.4057529 103.7268250
  77.4984738  13.6493553 102.9780300  78.4443843  13.5199761 103.0468718
  77.1198983  12.9108215 103.4549728  75.6827655  11.5743530 102.9135185
  74.7759111  11.2776642 102.9897899  75.9603636  11.2773348 102.0469471
  77.2989721   6.1180419 109.0679426  76.4890449   5.7727504 109.4434672
  77.9874138   5.8087963 109.6567038  74.4526440   8.4330465 103.0547164
  75.3145604   8.7585363 103.3142982  74.6376784   7.6461961 102.5420230
  82.6059076   7.3058991 110.1982387  82.0257746   7.9643795 109.8160440
  82.3395009   6.4836336 109.7869805  81.3883954   9.4659082 109.2538736
  80.5009809   9.7508732 109.0358930  81.8037944   9.3052845 108.4066012
  69.3968205  24.0466833 114.3410180  69.2622673  23.2867234 113.7748178
  68.9800267  24.7707733 113.8738969  80.5327168  19.2303756 103.3486755
  81.2363018  19.4353759 103.9644411  79.8089817  19.7980518 103.6135839
  81.3624978  14.9813618 109.4689026  81.3060180  15.4382169 108.6296658
  81.9153321  14.2204302 109.2911868  85.1729784  10.7703349 110.2939145
  84.9166718  10.3699985 111.1247353  84.5482652  11.4847143 110.1689284
  72.5537331  24.9436150 114.5528623  72.4369715  25.8881582 114.4507313
  71.7329777  24.6409711 114.9414422  82.4413865  19.6686286 105.3985216
  83.2759469  19.2367484 105.2162690  82.2798208  19.4968299 106.3262110
  82.0959758  16.1718399 106.7641555  82.0408561  16.0062670 105.8229999
  81.4705813  16.8794432 106.9203745  75.4055883   5.6726508 106.3426873
  75.3934553   6.6168348 106.4995144  76.2979305   5.4896653 106.0486334
  73.5791845  25.5964412 117.7684551  74.4819092  25.6288022 118.0851046
  73.3529215  24.6664863 117.7830887  75.3345447  24.3495398 114.4294630
  74.3841078  24.3497260 114.3159002  75.6377933  23.6028133 113.9130665
  91.0698140  30.1855937 115.4940392  91.7076550  30.0662684 114.7903732
  90.9518983  31.1336781 115.5528344  87.8787847  30.1383365 115.4301917
  87.5406358  30.0224429 114.5422452  88.7477615  29.7374530 115.4102923
  83.7374662  31.9918841 111.4198808  83.1739528  31.9008778 110.6515096
  83.6227057  31.1718746 111.9001300  81.2839094  33.4870033 114.2583028
  82.0760386  33.1460857 113.8429328  81.5235745  33.5965008 115.1785182
  89.3174221  35.6589809 106.7313273  88.6662201  36.2443889 106.3447287
  90.1118584  36.1896004 106.7908310  83.2429848  32.7478946 107.1300407
  84.0160724  32.2007933 106.9913283  83.5955247  33.6123195 107.3414869
  85.0814891  34.0755328 120.3367306  84.7904757  34.9800959 120.2213973
  85.7171875  34.1171856 121.0511376  86.0071098  31.4532177 116.9268666
  86.6034670  31.2288199 116.2125629  86.0646069  30.7116922 117.5294114
  85.5796126  28.9071612 104.7618857  85.8321647  28.3853133 104.0002320
  84.6420685  28.7437758 104.8645541  90.6239409  27.9107390 112.5693600
  91.4102498  27.4926814 112.2184017  90.8878113  28.8153483 112.7375249
  90.7949486  33.3480241 107.2682257  90.1595319  33.4214867 107.9803162
  90.4646893  33.9373840 106.5901336  85.2992415  30.8099718 106.9643232
  85.1828673  30.1344621 107.6324316  85.4094675  30.3232092 106.1475385
  87.6423956  30.2709865 110.6689921  87.2782163  29.7440486 111.3802843
  88.4991072  29.8808334 110.4956407  87.2829443  25.2999765 105.6651270
  87.4503845  26.1680001 106.0321741  87.0926612  25.4627047 104.7412559
  90.0404776  33.7616744 117.3317100  89.7405499  34.6641783 117.2232907
  89.6955835  33.4948927 118.1838253  83.4917257  30.2130541 113.3653805
  82.5667754  30.0806755 113.5731496  83.7401671  30.9924760 113.8623747
  87.2618664  27.7557422 106.6497937  87.1418289  28.2014473 107.4883417
  86.5671252  28.1042740 106.0911475  80.8526068  29.8563814 114.1997594
  80.9818450  30.1098293 115.1137005  80.1723520  30.4491522 113.8802249
  85.0225556  40.5261064 110.2988068  84.9449585  41.4768889 110.3776548
  84.4187199  40.1806937 110.9562994  92.9603730  28.2278896 107.4778271
  93.8721586  28.4606282 107.3025968  92.4513377  28.8115940 106.9153349
  91.5673312  33.2104714 114.8691852  90.9382175  33.3750428 114.1667920
  91.1798974  33.6246324 115.6402816  95.4462544  34.1459152 112.2236216
  94.7613582  34.5258053 111.6733249  95.5306393  34.7554479 112.9568164
  87.1201274  32.9479122 112.1341937  87.5839620  33.2266825 111.3446560
  86.8558072  32.0462567 111.9515028  84.0125355  32.4950604 115.0721700
  84.5826712  32.9237872 114.4339185  84.6033467  32.2133188 115.7705886
  86.0570160  29.0702274 108.9431502  86.7594203  29.5223318 109.4105429
  85.7250789  28.4286093 109.5711395  79.7995494  27.3285827 114.2448636
  79.0094548  27.5843356 113.7688747  80.2906741  28.1434165 114.3500676
  81.7510239  27.6930406 111.2032113  80.9541403  27.8049101 111.7215608
  81.5235832  28.0317059 110.3373003  87.5815907  34.2175110 119.1514627
  87.6460340  34.6795517 119.9872799  86.8726831  33.5872475 119.2796937
  78.0833197  27.5816318 116.6763627  78.3341235  28.4663328 116.9421203
  78.6192745  27.4020919 115.9038719  87.2963925  35.8843217 109.0193608
  87.1609599  36.7294753 109.4478455  87.8373737  36.0862495 108.2559541
  80.7493322  33.4018655 109.5921533  81.2617843  34.1961905 109.7427097
  81.4016035  32.7044946 109.5255134  82.5588207  36.5184411 111.6744286
  82.7354835  37.4402376 111.4865270  83.3545040  36.2042831 112.1038666
  81.8440563  28.5649043 121.5506449  81.7294078  27.6634301 121.8513548
  80.9885081  28.8112740 121.1991266  83.6819522  38.0362585 117.6754628
  84.2326947  37.9079649 116.9031622  82.8430998  38.3357474 117.3249521
  87.4786693  34.3013713 122.0198859  88.0115030  33.5402001 121.7898167
  86.9500774  34.0087365 122.7623014  78.7142239  31.7307309 110.3681103
  79.5517461  32.1404318 110.1514811  78.8920507  30.7906752 110.3381297
  90.6106671  29.3982390 106.0564936  90.0953294  30.1686995 106.2953324
  90.3383979  28.7247526 106.6797998  88.1953782  24.2432091 111.1150175
  87.3395378  23.8538941 110.9355813  88.6080734  24.3224052 110.2549960
  85.9695814  21.8617164 114.5207916  86.8348811  21.6659973 114.1613806
  86.0373323  21.6327516 115.4477273  95.5840945  32.1514745 107.9918110
  94.8070388  31.8125904 107.5473272  96.2632426  32.1567368 107.3173075
  90.3992974  27.2709482 107.8824717  90.0943110  27.5855631 108.7334861
  91.3523416  27.3490902 107.9252050  88.8439406  33.4299706 109.5317671
  88.3160768  32.6952465 109.2190909  88.3426909  34.2074382 109.2857640
  93.8232252  31.6248726 114.6484718  93.1655926  32.3147987 114.7364846
  94.6272651  32.0145158 114.9918704  83.5758134  24.0919372 111.8924283
  84.1501885  23.8694553 111.1597476  84.1629116  24.1608066 112.6452884
  92.6337711  29.9793099 112.6988659  93.1469593  30.6123091 113.2010369
  93.2838935  29.3794294 112.3332019  83.9027721  26.1223833 105.9120168
  83.0665033  26.4598519 106.2329443  83.7632490  25.9872813 104.9747305
  85.8780801  20.9660621 110.6199352  85.2245214  20.6509638 109.9955967
  85.8361275  20.3436361 111.3459175  86.9892006  31.2479916 102.5352644
  86.0819068  31.0169169 102.7343793  87.4863038  30.4517535 102.7226626
  89.8960085  39.9577423 105.4549331  89.2221784  40.2609120 106.0634288
  90.2825907  40.7606503 105.1054788  89.1118542  27.4542554 114.9447000
  88.1941103  27.6757501 114.7868688  89.5278685  27.5288865 114.0858707
  89.8953589  28.8533970 110.0749680  90.6425408  29.3655367 109.7656802
  90.1645179  28.5318023 110.9354074  88.1680240  31.3492511 107.0576634
  87.2591459  31.0651543 107.1549104  88.1975323  31.7691589 106.1979941
  93.3999507  34.9599100 110.8267802  92.9461834  34.1190010 110.8832992
  92.7693474  35.5960499 111.1642582  92.3432427  25.8891086 112.0568469
  91.6055183  25.3768472 112.3878712  92.5959200  25.4491468 111.2451746
  91.8432446  36.7975597 111.7617620  92.1355421  37.3580654 111.0429986
  92.3531067  37.0904158 112.5170779  78.7368410  29.0698025 111.0391837
  78.5392810  28.4767385 110.3142903  78.1815074  28.7650235 111.7567775
  86.7165134  28.9621131 113.1586430  86.7713743  28.0094968 113.0828906
  85.9056336  29.1180570 113.6427728  87.8656327  32.8901254 104.3964713
  87.4275757  32.1737113 103.9370350  88.6066768  33.1177369 103.8349804
  84.6557494  27.5798191 110.9176809  83.8425359  27.8792362 111.3242001
  85.1516488  27.1853880 111.6351291  86.8066071  37.5755948 112.8511073
  86.7642250  37.8016794 111.9219605  87.7228770  37.3419323 112.9996875
  95.9829442  31.1658451 110.4541032  95.8447341  31.3560047 109.5262221
  95.6265661  31.9277834 110.9109083  84.1471568  25.1516547 116.5338044
  84.7870948  25.0105306 115.8361007  83.3149099  24.8651060 116.1576646
  84.9231872  34.4518977 112.6473036  85.7172471  33.9569297 112.4455611
  84.2123565  33.9236840 112.2840742  89.7426717  36.8337072 116.9985404
  89.7963739  37.4028009 117.7663120  88.8741498  37.0038957 116.6339441
  81.2314636  28.5962059 108.7232789  80.3012224  28.5346514 108.9402751
  81.3272108  28.0738011 107.9269430  81.1500185  25.1216871 111.3111030
  81.4107002  26.0362205 111.2020191  81.9717357  24.6541314 111.4607643
  82.6225110  26.5354629 118.4809855  83.2948163  26.3271991 117.8322504
  81.7954897  26.3376715 118.0415087  88.7014816  30.9997334 118.5572336
  89.6306876  31.1508494 118.3841303  88.2805846  31.0881355 117.7020982
  87.5003148  35.0247999 116.3270873  87.3614234  34.6566783 117.1996811
  86.7117744  35.5395638 116.1554831  88.0951300  40.1257095 107.6696410
  88.2703056  39.6545139 108.4842032  87.4084088  40.7522862 107.8977670
  89.0508363  34.4029602 113.7159711  88.7158196  34.3630372 114.6117361
  88.5512309  33.7374318 113.2430121  83.0252607  29.8097232 119.2412292
  82.8872405  29.0777470 119.8423831  83.9357531  29.7206132 118.9596480
  91.9867555  31.7485636 103.9896771  91.3696726  31.0232464 103.8929823
  91.5184043  32.5094996 103.6463845  85.6534908  29.5217191 118.7295972
  86.3634526  28.8810383 118.6882590  85.6104216  29.7730086 119.6522153
  82.6612385  43.2746458 114.4436270  82.9008984  43.9064982 115.1215288
  81.8181582  42.9234498 114.7301629  83.7766101  25.9671060 103.1118075
  82.8995567  25.8459861 102.7480322  84.2523854  25.1757139 102.8596964
  75.2968241  30.7548220 113.2059582  75.9839281  30.4409950 112.6180597
  75.1416370  31.6589585 112.9326833  80.1002963  25.6438417 117.6344606
  80.0161152  25.0364086 116.8995016  79.2785670  26.1347435 117.6354102
  87.1740247  39.0825581 116.8477774  87.1010419  39.8880552 117.3597078
  86.7317640  39.2817546 116.0225795  86.9630027  38.3197351 110.3580595
  86.1797549  38.8619031 110.4518820  87.6622772  38.8371330 110.7574837
  90.2726677  24.1291980 113.0014801  90.7695377  23.3761942 112.6815871
  89.5013659  24.1656297 112.4358010  89.6338931  38.9812415 119.0035933
  90.3466903  39.6159879 118.9311834  89.1428959  39.0776281 118.1875934
  91.3556458  32.8863667 110.5753224  90.4212736  33.0065130 110.4057929
  91.5333126  31.9836134 110.3113234  86.8561646  26.2709363 112.7286485
  86.4859433  25.7180403 113.4167391  87.3520738  25.6667497 112.1761485
  94.7429009  28.7280987 111.1103258  95.2089461  29.5608978 111.0363561
  95.1936510  28.2625968 111.8148517  84.6850844  36.7306858 119.8241503
  85.3860304  37.3643341 119.9770898  84.2145959  37.0721590 119.0637143
  92.8105240  35.0724808 108.1089410  93.0865084  34.9581402 109.0183284
  91.9409739  34.6742293 108.0701583  89.4459304  39.3211159 111.7522224
  89.6281699  38.5032815 112.2149976  90.2692290  39.5378851 111.3147114
  89.7801470  38.2479344 109.0137272  90.3089236  37.7371798 108.4007435
  90.0429689  37.9321874 109.8782805  80.2818562  36.2643213 116.7572606
  80.8671999  35.5186901 116.8900510  80.0843401  36.5747170 117.6409270
  83.1357218  39.2994461 111.7735048  82.4667593  39.7840588 111.2899088
  82.9970087  39.5463681 112.6878427  74.8736217  28.8348813 115.4777049
  74.9120317  28.3012404 116.2714167  74.3676510  28.3084019 114.8588026
  87.2762486  41.3338204 118.3717707  87.8280794  41.4969826 119.1366792
  87.6168680  41.9242642 117.6997732  82.2526979  23.6813354 118.9739591
  82.3168306  24.5428185 118.5616989  82.1894100  23.0687356 118.2411950
  78.5044795  27.5612916 108.5530981  78.7998236  26.6523594 108.4998034
  77.6032831  27.5400655 108.2311983  90.4130874  39.2820180 115.3581389
  90.2882013  38.4809919 114.8492334  91.0709965  39.7766373 114.8695359
  82.0339042  25.6368912 114.5358529  81.3125627  26.2504880 114.3966002
  82.8232298  26.1726677 114.4575175  92.4765782  37.0829200 116.9860939
  91.5296117  36.9634551 116.9139266  92.8248555  36.1951698 117.0687200
  80.2332636  25.2427013 108.6770306  79.9045342  24.3624392 108.4945412
  80.5872007  25.1874682 109.5646695  89.4812215  36.8781916 113.1865291
  89.3337178  35.9498623 113.3672861  90.3065709  36.9002007 112.7022366
  83.3474459  25.5299983 109.0445783  83.6870532  26.0585904 108.3224392
  83.7946580  25.8680389 109.8204350  93.0846337  37.7010475 114.2730164
  94.0092885  37.4953336 114.1354615  92.9161640  37.4526876 115.1819505
  85.3342607  24.0274605 107.2439076  86.0550969  24.4055857 106.7402793
  84.7107911  24.7463481 107.3474054  89.4773730  24.7319754 108.1797408
  89.6937344  25.6144391 107.8786237  88.9967797  24.3405967 107.4503050
  84.2172951  27.6905467 114.7568153  84.0717532  28.0045770 115.6492435
  83.7398155  28.3090367 114.2039052  86.0769334  24.6808015 114.8049043
  86.0630903  23.7849108 114.4681341  86.7941762  24.6878678 115.4387329
  92.8741653  38.2196142 109.6292255  93.0478531  37.6542565 108.8766108
  93.3670544  39.0197037 109.4471745  78.6918613  30.2310811 117.6955814
  78.1472081  31.0070619 117.8276089  79.5697963  30.5781616 117.5374936
  85.4806230  23.5622395 110.0736613  85.6022141  22.6339041 110.2727500
  85.1908272  23.5761081 109.1614928  88.3497420  21.2477305 113.2103333
  88.3719117  21.3116639 112.2555312  88.7665479  20.4081814 113.4043839
  98.7281044  30.9832565 111.2482555  99.1712190  30.2339890 110.8501678
  97.8507555  30.9742701 110.8656287  93.8616826  37.5362906 106.7289154
  94.5567730  38.1569599 106.9476468  94.2039976  36.6858258 107.0041532
  79.4784635  29.3580707 120.5885971  78.7366371  29.5063343 121.1750602
  79.1577379  29.6188973 119.7252721  95.7608249  34.9862612 108.2576484
  96.2859573  35.3249885 107.5325805  95.6730601  34.0509627 108.0739619
  87.4228298  38.8996686 120.3866361  87.7315424  38.6545832 121.2589061
  88.2203780  39.1043324 119.8985231  87.4448910  41.0534595 112.6171738
  87.0053900  40.5610974 113.3104594  88.1957027  40.5107563 112.3763813
  79.9241249  37.2446136 112.6196366  80.7499268  36.9449908 112.2395009
  79.5735301  36.4753759 113.0686154  84.8922782  36.5972604 114.6894039
  84.2702791  35.9343309 114.3896267  85.5627649  36.6233736 114.0067687
  78.1249854  35.1632463 113.5785299  77.2881762  34.7354637 113.3969301
  78.0973499  35.3564906 114.5156091  84.4536289  35.1476528 108.1652500
  84.6024409  35.8311992 107.5119173  85.2602732  35.1281618 108.6801956
  82.2088922  31.1741705 109.1713569  81.9634964  30.2704035 109.3693779
  82.3784836  31.1758856 108.2293047  81.4784569  26.9070063 106.6699730
  80.7853814  26.9814418 106.0139766  81.2336321  26.1430407 107.1921247
  87.9531694  37.6424658 105.6364247  87.3805661  38.2614845 105.1834719
  88.5264488  38.1924020 106.1704169  91.1728954  37.9261808 106.7672830
  92.1059627  37.8607370 106.9705705  91.0852167  38.7618075 106.3087362
  93.8016971  37.2427679 103.7276777  93.7230602  36.9087542 104.6212535
  94.6226637  37.7349447 103.7268250  88.3378493  28.9785471 102.9780300
  89.2837597  28.8491679 103.0468718  87.9592738  28.2400133 103.4549728
  86.5221410  26.9035447 102.9135185  85.6152865  26.6068560 102.9897899
  86.7997391  26.6065265 102.0469471  77.4399350  28.2241811 113.3634231
  77.1202135  27.3707119 113.0708605  76.8932778  28.4390389 114.1192199
  81.2179258  30.9404252 117.0803738  81.4365268  31.8721360 117.0991772
  81.6305032  30.5812226 117.8658542  88.1383476  21.4472337 109.0679426
  87.3284204  21.1019422 109.4434672  88.8267892  21.1379881 109.6567038
  90.0674024  20.5250384 110.6903723  90.6205062  20.9445837 111.3493746
  90.3044110  19.5986132 110.7326679  85.2920194  23.7622383 103.0547164
  86.1539358  24.0877281 103.3142982  85.4770539  22.9753878 102.5420230
  77.3087610  31.8444722 115.3327353  76.6151082  31.4298675 114.8197307
  78.0560601  31.8865259 114.7360772  93.4452831  22.6350909 110.1982387
  92.8651500  23.2935713 109.8160440  93.1788764  21.8128254 109.7869805
  79.2224353  31.7762976 113.2093368  79.1995041  31.8750663 112.2575251
  79.5324989  32.6228127 113.5310534  81.8811731  33.8339131 117.3239982
  82.8354984  33.8023073 117.2569914  81.6824254  33.3729755 118.1390208
  82.4711113  32.4040247 119.8910780  83.2904002  32.8984326 119.9145617
  82.7447920  31.4872215 119.8628347  92.2277709  24.7950999 109.2538736
  91.3403564  25.0800650 109.0358930  92.6431698  24.6344763 108.4066012
  80.2361959  39.3758750 114.3410180  80.1016427  38.6159151 113.7748178
  79.8194022  40.0999650 113.8738969  91.3720922  34.5595674 103.3486755
  92.0756773  34.7645677 103.9644411  90.6483571  35.1272436 103.6135839
  92.2018733  30.3105535 109.4689026  92.1453934  30.7674087 108.6296658
  92.7547075  29.5496220 109.2911868  96.0123539  26.0995267 110.2939145
  95.7560473  25.6991903 111.1247353  95.3876407  26.8139061 110.1689284
  83.3931085  40.2728068 114.5528623  83.2763469  41.2173500 114.4507313
  82.5723532  39.9701629 114.9414422  93.2807620  34.9978203 105.3985216
  94.1153224  34.5659402 105.2162690  93.1191963  34.8260217 106.3262110
  92.9353512  31.5010317 106.7641555  92.8802316  31.3354588 105.8229999
  92.3099567  32.2086349 106.9203745  77.7246027  26.7378381 120.5902977
  78.3704891  26.2277335 121.0790202  77.5163178  27.4747063 121.1646402
  86.2449637  21.0018426 106.3426873  86.2328307  21.9460265 106.4995144
  87.1373059  20.8188571 106.0486334  84.4185599  40.9256329 117.7684551
  85.3212846  40.9579940 118.0851046  84.1922969  39.9956780 117.7830887
  86.1739201  39.6787316 114.4294630  85.2234832  39.6789178 114.3159002
  86.4771688  38.9320051 113.9130665 101.9091895  45.5147854 115.4940392
 102.5470305  45.3954602 114.7903732 101.7912738  46.4628698 115.5528344
  98.7181601  45.4675282 115.4301917  98.3800113  45.3516347 114.5422452
  99.5871369  45.0666448 115.4102923  94.5768417  47.3210759 111.4198808
  94.0133282  47.2300696 110.6515096  94.4620812  46.5010663 111.9001300
  92.1232849  48.8161950 114.2583028  92.9154141  48.4752775 113.8429328
  92.3629499  48.9256925 115.1785182 100.1567976  50.9881727 106.7313273
  99.5055955  51.5735807 106.3447287 100.9512338  51.5187921 106.7908310
  94.0823603  48.0770864 107.1300407  94.8554479  47.5299851 106.9913283
  94.4349002  48.9415113 107.3414869  95.9208645  49.4047246 120.3367306
  95.6298511  50.3092877 120.2213973  96.5565630  49.4463774 121.0511376
  96.8464852  46.7824094 116.9268666  97.4428424  46.5580117 116.2125629
  96.9039824  46.0408840 117.5294114  96.4189881  44.2363530 104.7618857
  96.6715401  43.7145051 104.0002320  95.4814440  44.0729675 104.8645541
 101.4633163  43.2399308 112.5693600 102.2496253  42.8218731 112.2184017
 101.7271868  44.1445400 112.7375249 101.6343241  48.6772158 107.2682257
 100.9989074  48.7506785 107.9803162 101.3040647  49.2665757 106.5901336
  96.1386169  46.1391636 106.9643232  96.0222427  45.4636539 107.6324316
  96.2488429  45.6524010 106.1475385  98.4817710  45.6001783 110.6689921
  98.1175917  45.0732404 111.3802843  99.3384826  45.2100252 110.4956407
  98.1223197  40.6291683 105.6651270  98.2897600  41.4971919 106.0321741
  97.9320366  40.7918964 104.7412559 100.8798530  49.0908661 117.3317100
 100.5799254  49.9933700 117.2232907 100.5349590  48.8240845 118.1838253
  94.3311012  45.5422458 113.3653805  93.4061508  45.4098672 113.5731496
  94.5795425  46.3216678 113.8623747  98.1012418  43.0849340 106.6497937
  97.9812043  43.5306391 107.4883417  97.4065006  43.4334658 106.0911475
  91.6919823  45.1855732 114.1997594  91.8212204  45.4390211 115.1137005
  91.0117274  45.7783440 113.8802249  95.8619310  55.8552982 110.2988068
  95.7843340  56.8060807 110.3776548  95.2580954  55.5098854 110.9562994
 103.7997484  43.5570813 107.4778271 104.7115340  43.7898200 107.3025968
 103.2907131  44.1407857 106.9153349 102.4067067  48.5396632 114.8691852
 101.7775929  48.7042346 114.1667920 102.0192729  48.9538241 115.6402816
 106.2856298  49.4751070 112.2236216 105.6007337  49.8549971 111.6733249
 106.3700148  50.0846396 112.9568164  97.9595028  48.2771040 112.1341937
  98.4233374  48.5558743 111.3446560  97.6951827  47.3754484 111.9515028
  94.8519110  47.8242521 115.0721700  95.4220467  48.2529790 114.4339185
  95.4427221  47.5425106 115.7705886  96.8963915  44.3994192 108.9431502
  97.5987958  44.8515236 109.4105429  96.5644543  43.7578011 109.5711395
  90.6389248  42.6577745 114.2448636  89.8488302  42.9135273 113.7688747
  91.1300496  43.4726083 114.3500676  92.5903994  43.0222324 111.2032113
  91.7935157  43.1341018 111.7215608  92.3629586  43.3608976 110.3373003
  98.4209661  49.5467027 119.1514627  98.4854094  50.0087435 119.9872799
  97.7120585  48.9164392 119.2796937  88.9226951  42.9108235 116.6763627
  89.1734990  43.7955245 116.9421203  89.4586500  42.7312837 115.9038719
  98.1357679  51.2135135 109.0193608  98.0003354  52.0586671 109.4478455
  98.6767492  51.4154412 108.2559541  91.5887077  48.7310573 109.5921533
  92.1011597  49.5253823 109.7427097  92.2409789  48.0336863 109.5255134
  93.3981961  51.8476329 111.6744286  93.5748590  52.7694294 111.4865270
  94.1938795  51.5334748 112.1038666  92.6834318  43.8940961 121.5506449
  92.5687833  42.9926218 121.8513548  91.8278836  44.1404658 121.1991266
  94.5213277  53.3654503 117.6754628  95.0720702  53.2371566 116.9031622
  93.6824753  53.6649392 117.3249521  98.3180448  49.6305631 122.0198859
  98.8508785  48.8693919 121.7898167  97.7894529  49.3379283 122.7623014
  89.5535993  47.0599227 110.3681103  90.3911215  47.4696235 110.1514811
  89.7314261  46.1198669 110.3381297 101.4500425  44.7274308 106.0564936
 100.9347049  45.4978912 106.2953324 101.1777734  44.0539444 106.6797998
  99.0347536  39.5724009 111.1150175  98.1789133  39.1830859 110.9355813
  99.4474488  39.6515969 110.2549960  96.8089569  37.1909082 114.5207916
  97.6742566  36.9951890 114.1613806  96.8767078  36.9619433 115.4477273
 106.4234700  47.4806662 107.9918110 105.6464142  47.1417822 107.5473272
 107.1026181  47.4859286 107.3173075 101.2386729  42.6001400 107.8824717
 100.9336864  42.9147549 108.7334861 102.1917171  42.6782820 107.9252050
  99.6833160  48.7591623 109.5317671  99.1554522  48.0244383 109.2190909
  99.1820663  49.5366300 109.2857640 104.6626006  46.9540644 114.6484718
 104.0049681  47.6439905 114.7364846 105.4666406  47.3437076 114.9918704
  94.4151888  39.4211289 111.8924283  94.9895640  39.1986471 111.1597476
  95.0022870  39.4899984 112.6452884 103.4731465  45.3085016 112.6988659
 103.9863347  45.9415008 113.2010369 104.1232689  44.7086212 112.3332019
  94.7421475  41.4515750 105.9120168  93.9058787  41.7890437 106.2329443
  94.6026245  41.3164730 104.9747305  96.7174556  36.2952538 110.6199352
  96.0638968  35.9801556 109.9955967  96.6755030  35.6728279 111.3459175
  97.8285761  46.5771833 102.5352644  96.9212822  46.3461087 102.7343793
  98.3256793  45.7809453 102.7226626 100.7353840  55.2869341 105.4549331
 100.0615538  55.5901037 106.0634288 101.1219661  56.0898421 105.1054788
  99.9512296  42.7834472 114.9447000  99.0334857  43.0049419 114.7868688
 100.3672440  42.8580782 114.0858707 100.7347344  44.1825888 110.0749680
 101.4819163  44.6947285 109.7656802 101.0038933  43.8609940 110.9354074
  99.0073994  46.6784428 107.0576634  98.0985213  46.3943461 107.1549104
  99.0369078  47.0983507 106.1979941 104.2393261  50.2891018 110.8267802
 103.7855589  49.4481928 110.8832992 103.6087228  50.9252416 111.1642582
 103.1826181  41.2183004 112.0568469 102.4448938  40.7060390 112.3878712
 103.4352955  40.7783385 111.2451746 102.6826201  52.1267515 111.7617620
 102.9749175  52.6872572 111.0429986 103.1924821  52.4196076 112.5170779
  89.5762164  44.3989942 111.0391837  89.3786564  43.8059303 110.3142903
  89.0208828  44.0942153 111.7567775  97.5558888  44.2913049 113.1586430
  97.6107498  43.3386885 113.0828906  96.7450090  44.4472488 113.6427728
  98.7050082  48.2193172 104.3964713  98.2669512  47.5029031 103.9370350
  99.4460523  48.4469287 103.8349804  95.4951248  42.9090109 110.9176809
  94.6819114  43.2084279 111.3242001  95.9910242  42.5145797 111.6351291
  97.6459826  52.9047866 112.8511073  97.6036005  53.1308712 111.9219605
  98.5622525  52.6711240 112.9996875 106.8223197  46.4950369 110.4541032
 106.6841095  46.6851965 109.5262221 106.4659415  47.2569752 110.9109083
  94.9865323  40.4808464 116.5338044  95.6264702  40.3397223 115.8361007
  94.1542853  40.1942978 116.1576646  95.7625627  49.7810895 112.6473036
  96.5566225  49.2861215 112.4455611  95.0517319  49.2528758 112.2840742
 100.5820471  52.1628990 116.9985404 100.6357493  52.7319926 117.7663120
  99.7135253  52.3330875 116.6339441  92.0708390  43.9253976 108.7232789
  91.1405978  43.8638432 108.9402751  92.1665862  43.4029929 107.9269430
  91.9893939  40.4508789 111.3111030  92.2500757  41.3654122 111.2020191
  92.8111112  39.9833232 111.4607643  93.4618865  41.8646546 118.4809855
  94.1341918  41.6563908 117.8322504  92.6348651  41.6668632 118.0415087
  99.5408571  46.3289252 118.5572336 100.4700631  46.4800412 118.3841303
  99.1199601  46.4173273 117.7020982  98.3396903  50.3539917 116.3270873
  98.2007988  49.9858701 117.1996811  97.5511499  50.8687556 116.1554831
  98.9345055  55.4549013 107.6696410  99.1096810  54.9837056 108.4842032
  98.2477843  56.0814779 107.8977670  99.8902118  49.7321519 113.7159711
  99.5551950  49.6922289 114.6117361  99.3906064  49.0666235 113.2430121
  93.8646362  45.1389149 119.2412292  93.7266160  44.4069388 119.8423831
  94.7751285  45.0498049 118.9596480 102.8261309  47.0777554 103.9896771
 102.2090480  46.3524382 103.8929823 102.3577798  47.8386914 103.6463845
  96.4928662  44.8509109 118.7295972  97.2028281  44.2102301 118.6882590
  96.4497971  45.1022003 119.6522153  93.5006140  58.6038376 114.4436270
  93.7402738  59.2356900 115.1215288  92.6575336  58.2526416 114.7301629
  94.6159855  41.2962978 103.1118075  93.7389322  41.1751779 102.7480322
  95.0917608  40.5049056 102.8596964  86.1361996  46.0840138 113.2059582
  86.8233035  45.7701868 112.6180597  85.9810124  46.9881502 112.9326833
  90.9396718  40.9730334 117.6344606  90.8554906  40.3656004 116.8995016
  90.1179424  41.4639353 117.6354102  98.0134002  54.4117498 116.8477774
  97.9404173  55.2172470 117.3597078  97.5711395  54.6109464 116.0225795
  97.8023781  53.6489268 110.3580595  97.0191303  54.1910948 110.4518820
  98.5016527  54.1663248 110.7574837 101.1120432  39.4583898 113.0014801
 101.6089131  38.7053860 112.6815871 100.3407413  39.4948214 112.4358010
 100.4732685  54.3104332 119.0035933 101.1860658  54.9451797 118.9311834
  99.9822714  54.4068198 118.1875934 102.1950212  48.2155585 110.5753224
 101.2606491  48.3357047 110.4057929 102.3726881  47.3128052 110.3113234
  97.6955400  41.6001281 112.7286485  97.3253188  41.0472321 113.4167391
  98.1914493  40.9959414 112.1761485 105.5822764  44.0572904 111.1103258
 106.0483216  44.8900896 111.0363561 106.0330264  43.5917886 111.8148517
  95.5244599  52.0598776 119.8241503  96.2254058  52.6935259 119.9770898
  95.0539714  52.4013507 119.0637143 103.6498995  50.4016726 108.1089410
 103.9258839  50.2873320 109.0183284 102.7803493  50.0034210 108.0701583
 100.2853059  54.6503076 111.7522224 100.4675453  53.8324732 112.2149976
 101.1086045  54.8670769 111.3147114 100.6195224  53.5771262 109.0137272
 101.1482991  53.0663716 108.4007435 100.8823444  53.2613792 109.8782805
  91.1212317  51.5935131 116.7572606  91.7065754  50.8478819 116.8900510
  90.9237155  51.9039088 117.6409270  93.9750972  54.6286378 111.7735048
  93.3061347  55.1132506 111.2899088  93.8363842  54.8755599 112.6878427
  85.7129972  44.1640731 115.4777049  85.7514071  43.6304322 116.2714167
  85.2070264  43.6375937 114.8588026  98.1156241  56.6630122 118.3717707
  98.6674549  56.8261743 119.1366792  98.4562434  57.2534560 117.6997732
  93.0920734  39.0105272 118.9739591  93.1562060  39.8720102 118.5616989
  93.0287854  38.3979273 118.2411950  89.3438549  42.8904833 108.5530981
  89.6391990  41.9815512 108.4998034  88.4426585  42.8692573 108.2311983
 101.2524628  54.6112097 115.3581389 101.1275767  53.8101837 114.8492334
 101.9103719  55.1058291 114.8695359  92.8732796  40.9660830 114.5358529
  92.1519382  41.5796797 114.3966002  93.6626052  41.5018595 114.4575175
 103.3159536  52.4121117 116.9860939 102.3689872  52.2926469 116.9139266
 103.6642309  51.5243615 117.0687200  91.0726391  40.5718931 108.6770306
  90.7439097  39.6916310 108.4945412  91.4265762  40.5166600 109.5646695
 100.3205970  52.2073834 113.1865291 100.1730932  51.2790541 113.3672861
 101.1459463  52.2293924 112.7022366  94.1868214  40.8591901 109.0445783
  94.5264286  41.3877822 108.3224392  94.6340334  41.1972307 109.8204350
 103.9240092  53.0302392 114.2730164 104.8486639  52.8245254 114.1354615
 103.7555395  52.7818793 115.1819505  96.1736361  39.3566522 107.2439076
  96.8944724  39.7347775 106.7402793  95.5501665  40.0755399 107.3474054
 100.3167484  40.0611671 108.1797408 100.5331098  40.9436309 107.8786237
  99.8361551  39.6697885 107.4503050  95.0566705  43.0197384 114.7568153
  94.9111286  43.3337687 115.6492435  94.5791909  43.6382285 114.2039052
  96.9163088  40.0099932 114.8049043  96.9024657  39.1141026 114.4681341
  97.6335516  40.0170596 115.4387329 103.7135408  53.5488060 109.6292255
 103.8872285  52.9834482 108.8766108 104.2064299  54.3488955 109.4471745
  89.5312368  45.5602729 117.6955814  88.9865836  46.3362537 117.8276089
  90.4091717  45.9073533 117.5374936  96.3199984  38.8914313 110.0736613
  96.4415895  37.9630959 110.2727500  96.0302027  38.9052999 109.1614928
  99.1891175  36.5769223 113.2103333  99.2112871  36.6408556 112.2555312
  99.6059234  35.7373732 113.4043839 109.5674799  46.3124483 111.2482555
 110.0105945  45.5631808 110.8501678 108.6901309  46.3034619 110.8656287
 104.7010580  52.8654824 106.7289154 105.3961485  53.4861517 106.9476468
 105.0433730  52.0150175 107.0041532  90.3178389  44.6872625 120.5885971
  89.5760125  44.8355260 121.1750602  89.9971134  44.9480891 119.7252721
 106.6002003  50.3154530 108.2576484 107.1253327  50.6541802 107.5325805
 106.5124356  49.3801545 108.0739619  98.2622052  54.2288603 120.3866361
  98.5709178  53.9837750 121.2589061  99.0597534  54.4335242 119.8985231
  98.2842664  56.3826513 112.6171738  97.8447654  55.8902892 113.3104594
  99.0350781  55.8399481 112.3763813  90.7635003  52.5738054 112.6196366
  91.5893023  52.2741826 112.2395009  90.4129055  51.8045676 113.0686154
  95.7316536  51.9264522 114.6894039  95.1096546  51.2635227 114.3896267
  96.4021403  51.9525654 114.0067687  88.9643608  50.4924380 113.5785299
  88.1275516  50.0646555 113.3969301  88.9367254  50.6856824 114.5156091
  95.2930043  50.4768445 108.1652500  95.4418164  51.1603910 107.5119173
  96.0996487  50.4573535 108.6801956  93.0482676  46.5033623 109.1713569
  92.8028718  45.5995953 109.3693779  93.2178591  46.5050773 108.2293047
  92.3178324  42.2361981 106.6699730  91.6247569  42.3106336 106.0139766
  92.0730076  41.4722324 107.1921247  98.7925449  52.9716576 105.6364247
  98.2199416  53.5906763 105.1834719  99.3658242  53.5215938 106.1704169
 102.0122708  53.2553726 106.7672830 102.9453382  53.1899288 106.9705705
 101.9245921  54.0909993 106.3087362 104.6410725  52.5719596 103.7276777
 104.5624357  52.2379460 104.6212535 105.4620392  53.0641364 103.7268250
  99.1772247  44.3077389 102.9780300 100.1231352  44.1783597 103.0468718
  98.7986492  43.5692050 103.4549728  97.3615164  42.2327365 102.9135185
  96.4546620  41.9360478 102.9897899  97.6391145  41.9357183 102.0469471
  88.2793105  43.5533728 113.3634231  87.9595889  42.6999037 113.0708605
  87.7326533  43.7682307 114.1192199  92.0573012  46.2696169 117.0803738
  92.2759022  47.2013277 117.0991772  92.4698786  45.9104144 117.8658542
  98.9777230  36.7764255 109.0679426  98.1677958  36.4311340 109.4434672
  99.6661647  36.4671798 109.6567038 100.9067778  35.8542301 110.6903723
 101.4598817  36.2737755 111.3493746 101.1437865  34.9278050 110.7326679
  96.1313949  39.0914300 103.0547164  96.9933113  39.4169198 103.3142982
  96.3164293  38.3045796 102.5420230  88.1481365  47.1736640 115.3327353
  87.4544836  46.7590593 114.8197307  88.8954356  47.2157176 114.7360772
 104.2846585  37.9642827 110.1982387 103.7045254  38.6227631 109.8160440
 104.0182518  37.1420171 109.7869805  90.0618107  47.1054894 113.2093368
  90.0388795  47.2042581 112.2575251  90.3718744  47.9520044 113.5310534
  92.7205485  49.1631049 117.3239982  93.6748739  49.1314991 117.2569914
  92.5218009  48.7021672 118.1390208  93.3104867  47.7332165 119.8910780
  94.1297756  48.2276243 119.9145617  93.5841675  46.8164133 119.8628347
 103.0671463  40.1242917 109.2538736 102.1797318  40.4092568 109.0358930
 103.4825453  39.9636680 108.4066012  91.0755714  54.7050668 114.3410180
  90.9410182  53.9451069 113.7748178  90.6587776  55.4291568 113.8738969
 102.2114677  49.8887592 103.3486755 102.9150527  50.0937594 103.9644411
 101.4877326  50.4564354 103.6135839 103.0412487  45.6397453 109.4689026
 102.9847689  46.0966004 108.6296658 103.5940830  44.8788138 109.2911868
 106.8517293  41.4287185 110.2939145 106.5954227  41.0283820 111.1247353
 106.2270161  42.1430979 110.1689284  94.2324840  55.6019985 114.5528623
  94.1157224  56.5465418 114.4507313  93.4117286  55.2993547 114.9414422
 104.1201374  50.3270121 105.3985216 104.9546978  49.8951319 105.2162690
 103.9585717  50.1552135 106.3262110 103.7747267  46.8302234 106.7641555
 103.7196070  46.6646506 105.8229999 103.1493322  47.5378267 106.9203745
  88.5639781  42.0670299 120.5902977  89.2098645  41.5569253 121.0790202
  88.3556933  42.8038980 121.1646402  97.0843392  36.3310343 106.3426873
  97.0722062  37.2752183 106.4995144  97.9766814  36.1480489 106.0486334
  95.2579354  56.2548247 117.7684551  96.1606601  56.2871857 118.0851046
  95.0316724  55.3248698 117.7830887  97.0132956  55.0079234 114.4294630
  96.0628587  55.0081095 114.3159002  97.3165442  54.2611968 113.9130665
 105.4162171  62.6502677 111.4198808 104.8527037  62.5592613 110.6515096
 105.3014566  61.8302581 111.9001300 102.9626603  64.1453868 114.2583028
 103.7547895  63.8044693 113.8429328 103.2023253  64.2548843 115.1785182
 110.9961730  66.3173644 106.7313273 110.3449710  66.9027725 106.3447287
 111.7906093  66.8479839 106.7908310 104.9217357  63.4062781 107.1300407
 105.6948233  62.8591768 106.9913283 105.2742756  64.2707031 107.3414869
 107.2583635  59.5655447 104.7618857 107.5109156  59.0436969 104.0002320
 106.3208194  59.4021593 104.8645541 112.3026918  58.5691226 112.5693600
 113.0890007  58.1510649 112.2184017 112.5665622  59.4737318 112.7375249
 112.4736995  64.0064076 107.2682257 111.8382828  64.0798703 107.9803162
 112.1434402  64.5957675 106.5901336 106.9779924  61.4683553 106.9643232
 106.8616182  60.7928457 107.6324316 107.0882184  60.9815927 106.1475385
 109.3211465  60.9293701 110.6689921 108.9569672  60.4024322 111.3802843
 110.1778581  60.5392170 110.4956407 108.9616952  55.9583600 105.6651270
 109.1291354  56.8263837 106.0321741 108.7714121  56.1210882 104.7412559
 105.1704766  60.8714376 113.3653805 104.2455263  60.7390590 113.5731496
 105.4189180  61.6508595 113.8623747 108.9406173  58.4141258 106.6497937
 108.8205798  58.8598309 107.4883417 108.2458761  58.7626575 106.0911475
 102.5313577  60.5147650 114.1997594 102.6605959  60.7682128 115.1137005
 101.8511029  61.1075358 113.8802249 114.6391239  58.8862731 107.4778271
 115.5509095  59.1190118 107.3025968 114.1300886  59.4699775 106.9153349
 108.7988783  63.6062957 112.1341937 109.2627128  63.8850660 111.3446560
 108.5345581  62.7046402 111.9515028 107.7357669  59.7286110 108.9431502
 108.4381712  60.1807154 109.4105429 107.4038298  59.0869929 109.5711395
 101.4783003  57.9869662 114.2448636 100.6882057  58.2427191 113.7688747
 101.9694250  58.8018000 114.3500676 103.4297748  58.3514242 111.2032113
 102.6328912  58.4632936 111.7215608 103.2023341  58.6900894 110.3373003
  99.7620706  58.2400153 116.6763627 100.0128744  59.1247163 116.9421203
 100.2980254  58.0604754 115.9038719 108.9751434  66.5427052 109.0193608
 108.8397108  67.3878588 109.4478455 109.5161246  66.7446330 108.2559541
 102.4280831  64.0602490 109.5921533 102.9405352  64.8545741 109.7427097
 103.0803544  63.3628781 109.5255134 104.2375716  67.1768247 111.6744286
 104.4142344  68.0986211 111.4865270 105.0332549  66.8626666 112.1038666
 100.3929748  62.3891145 110.3681103 101.2304970  62.7988153 110.1514811
 100.5708016  61.4490587 110.3381297 112.2894180  60.0566225 106.0564936
 111.7740803  60.8270830 106.2953324 112.0171488  59.3831362 106.6797998
 109.8741291  54.9015926 111.1150175 109.0182887  54.5122777 110.9355813
 110.2868243  54.9807887 110.2549960 107.6483323  52.5200999 114.5207916
 108.5136320  52.3243808 114.1613806 107.7160832  52.2911351 115.4477273
 117.2628454  62.8098580 107.9918110 116.4857897  62.4709740 107.5473272
 117.9419935  62.8151203 107.3173075 112.0780483  57.9293318 107.8824717
 111.7730619  58.2439467 108.7334861 113.0310925  58.0074737 107.9252050
 110.5226915  64.0883541 109.5317671 109.9948277  63.3536300 109.2190909
 110.0214418  64.8658217 109.2857640 105.2545643  54.7503207 111.8924283
 105.8289394  54.5278389 111.1597476 105.8416625  54.8191902 112.6452884
 105.5815230  56.7807668 105.9120168 104.7452542  57.1182355 106.2329443
 105.4419999  56.6456648 104.9747305 107.5568310  51.6244456 110.6199352
 106.9032723  51.3093473 109.9955967 107.5148784  51.0020197 111.3459175
 108.6679515  61.9063751 102.5352644 107.7606577  61.6753005 102.7343793
 109.1650547  61.1101370 102.7226626 111.5747594  70.6161258 105.4549331
 110.9009293  70.9192955 106.0634288 111.9613416  71.4190339 105.1054788
 110.7906051  58.1126390 114.9447000 109.8728612  58.3341337 114.7868688
 111.2066194  58.1872700 114.0858707 111.5741098  59.5117805 110.0749680
 112.3212917  60.0239202 109.7656802 111.8432688  59.1901858 110.9354074
 109.8467749  62.0076346 107.0576634 108.9378968  61.7235379 107.1549104
 109.8762832  62.4275425 106.1979941 114.0219936  56.5474922 112.0568469
 113.2842692  56.0352308 112.3878712 114.2746709  56.1075303 111.2451746
 100.4155919  59.7281860 111.0391837 100.2180319  59.1351221 110.3142903
  99.8602583  59.4234070 111.7567775 108.3952643  59.6204967 113.1586430
 108.4501252  58.6678803 113.0828906 107.5843845  59.7764406 113.6427728
 109.5443836  63.5485090 104.3964713 109.1063266  62.8320949 103.9370350
 110.2854277  63.7761204 103.8349804 106.3345003  58.2382026 110.9176809
 105.5212868  58.5376197 111.3242001 106.8303997  57.8437715 111.6351291
 117.6616951  61.8242287 110.4541032 117.5234850  62.0143883 109.5262221
 117.3053170  62.5861670 110.9109083 105.8259077  55.8100382 116.5338044
 106.4658457  55.6689141 115.8361007 104.9936608  55.5234895 116.1576646
 106.6019381  65.1102812 112.6473036 107.3959980  64.6153132 112.4455611
 105.8911074  64.5820675 112.2840742 102.9102145  59.2545894 108.7232789
 101.9799733  59.1930350 108.9402751 103.0059617  58.7321847 107.9269430
 102.8287694  55.7800707 111.3111030 103.0894511  56.6946040 111.2020191
 103.6504866  55.3125149 111.4607643 104.3012619  57.1938464 118.4809855
 104.9735672  56.9855826 117.8322504 103.4742406  56.9960550 118.0415087
 109.7738809  70.7840931 107.6696410 109.9490565  70.3128974 108.4842032
 109.0871597  71.4106697 107.8977670 113.6655064  62.4069471 103.9896771
 113.0484235  61.6816299 103.8929823 113.1971552  63.1678832 103.6463845
 105.4553610  56.6254896 103.1118075 104.5783076  56.5043696 102.7480322
 105.9311363  55.8340974 102.8596964  96.9755750  61.4132055 113.2059582
  97.6626790  61.0993785 112.6180597  96.8203879  62.3173420 112.9326833
 101.7790472  56.3022252 117.6344606 101.6948661  55.6947921 116.8995016
 100.9573179  56.7931270 117.6354102 111.9514186  54.7875815 113.0014801
 112.4482886  54.0345778 112.6815871 111.1801168  54.8240132 112.4358010
 113.0343967  63.5447503 110.5753224 112.1000245  63.6648965 110.4057929
 113.2120635  62.6419969 110.3113234 108.5349155  56.9293198 112.7286485
 108.1646942  56.3764239 113.4167391 109.0308247  56.3251332 112.1761485
 116.4216518  59.3864822 111.1103258 116.8876970  60.2192814 111.0363561
 116.8724019  58.9209804 111.8148517 114.4892749  65.7308643 108.1089410
 114.7652593  65.6165238 109.0183284 113.6197248  65.3326128 108.0701583
 111.4588979  68.9063179 109.0137272 111.9876745  68.3955634 108.4007435
 111.7217198  68.5905709 109.8782805  96.5523726  59.4932649 115.4777049
  96.5907826  58.9596239 116.2714167  96.0464019  58.9667854 114.8588026
 103.9314488  54.3397189 118.9739591 103.9955815  55.2012020 118.5616989
 103.8681609  53.7271191 118.2411950 100.1832304  58.2196751 108.5530981
 100.4785745  57.3107429 108.4998034  99.2820339  58.1984490 108.2311983
 103.7126551  56.2952747 114.5358529 102.9913136  56.9088715 114.3966002
 104.5019806  56.8310512 114.4575175 101.9120145  55.9010849 108.6770306
 101.5832851  55.0208227 108.4945412 102.2659516  55.8458517 109.5646695
 105.0261968  56.1883818 109.0445783 105.3658041  56.7169740 108.3224392
 105.4734089  56.5264224 109.8204350 107.0130116  54.6858440 107.2439076
 107.7338478  55.0639693 106.7402793 106.3895420  55.4047317 107.3474054
 111.1561238  55.3903589 108.1797408 111.3724853  56.2728227 107.8786237
 110.6755306  54.9989802 107.4503050 105.8960460  58.3489302 114.7568153
 105.7505041  58.6629605 115.6492435 105.4185663  58.9674202 114.2039052
 107.7556843  55.3391850 114.8049043 107.7418412  54.4432943 114.4681341
 108.4729271  55.3462514 115.4387329 100.3706122  60.8894646 117.6955814
  99.8259590  61.6654454 117.8276089 101.2485472  61.2365451 117.5374936
 107.1593739  54.2206230 110.0736613 107.2809650  53.2922877 110.2727500
 106.8695781  54.2344916 109.1614928 110.0284929  51.9061141 113.2103333
 110.0506626  51.9700474 112.2555312 110.4452988  51.0665649 113.4043839
 115.5404335  68.1946742 106.7289154 116.2355239  68.8153434 106.9476468
 115.8827485  67.3442093 107.0041532 117.4395758  65.6446447 108.2576484
 117.9647082  65.9833720 107.5325805 117.3518110  64.7093463 108.0739619
 101.6028758  67.9029971 112.6196366 102.4286777  67.6033743 112.2395009
 101.2522810  67.1337594 113.0686154  99.8037363  65.8216298 113.5785299
  98.9669271  65.3938472 113.3969301  99.7761008  66.0148741 114.5156091
 106.1323798  65.8060363 108.1652500 106.2811918  66.4895827 107.5119173
 106.9390241  65.7865453 108.6801956 103.8876431  61.8325541 109.1713569
 103.6422473  60.9287871 109.3693779 104.0572345  61.8342691 108.2293047
 103.1572078  57.5653898 106.6699730 102.4641323  57.6398253 106.0139766
 102.9123830  56.8014242 107.1921247 109.6319203  68.3008493 105.6364247
 109.0593170  68.9198681 105.1834719 110.2051997  68.8507855 106.1704169
 112.8516463  68.5845644 106.7672830 113.7847136  68.5191205 106.9705705
 112.7639676  69.4201910 106.3087362 115.4804480  67.9011514 103.7276777
 115.4018111  67.5671378 104.6212535 116.3014146  68.3933282 103.7268250
 110.0166002  59.6369306 102.9780300 110.9625106  59.5075514 103.0468718
 109.6380247  58.8983968 103.4549728 108.2008919  57.5619283 102.9135185
 107.2940374  57.2652395 102.9897899 108.4784900  57.2649101 102.0469471
  99.1186859  58.8825646 113.3634231  98.7989644  58.0290954 113.0708605
  98.5720287  59.0974224 114.1192199 109.8170985  52.1056172 109.0679426
 109.0071713  51.7603257 109.4434672 110.5055401  51.7963716 109.6567038
 111.7461533  51.1834219 110.6903723 112.2992571  51.6029673 111.3493746
 111.9831619  50.2569967 110.7326679 106.9707703  54.4206218 103.0547164
 107.8326867  54.7461116 103.3142982 107.1558048  53.6337714 102.5420230
  98.9875119  62.5028558 115.3327353  98.2938591  62.0882510 114.8197307
  99.7348110  62.5449094 114.7360772 115.1240340  53.2934744 110.1982387
 114.5439009  53.9519548 109.8160440 114.8576273  52.4712089 109.7869805
 100.9011862  62.4346811 113.2093368 100.8782550  62.5334499 112.2575251
 101.2112498  63.2811962 113.5310534 113.9065218  55.4534835 109.2538736
 113.0191073  55.7384485 109.0358930 114.3219207  55.2928598 108.4066012
 113.0508431  65.2179509 103.3486755 113.7544282  65.4229512 103.9644411
 112.3271080  65.7856271 103.6135839 113.8806242  60.9689371 109.4689026
 113.8241443  61.4257922 108.6296658 114.4334584  60.2080055 109.2911868
 117.6911048  56.7579102 110.2939145 117.4347982  56.3575738 111.1247353
 117.0663916  57.4722896 110.1689284 114.9595129  65.6562039 105.3985216
 115.7940733  65.2243237 105.2162690 114.7979472  65.4844052 106.3262110
 114.6141021  62.1594152 106.7641555 114.5589825  61.9938423 105.8229999
 113.9887076  62.8670185 106.9203745  99.4033536  57.3962216 120.5902977
 100.0492400  56.8861170 121.0790202  99.1950687  58.1330898 121.1646402
 107.9237146  51.6602261 106.3426873 107.9115816  52.6044101 106.4995144
 108.8160568  51.4772406 106.0486334 116.4208984  72.1099586 105.9120168
 115.5846296  72.4474272 106.2329443 116.2813754  71.9748566 104.9747305
 116.2947364  71.9546813 103.1118075 115.4176831  71.8335614 102.7480322
 116.7705117  71.1632892 102.8596964 113.9965833  72.8945816 106.6699730
 113.3035078  72.9690171 106.0139766 113.7517585  72.1306160 107.1921247
 119.0402673  72.8911200 102.9135185 118.1334129  72.5944313 102.9897899
 119.3178654  72.5941018 102.0469471 117.8101458  69.7498136 103.0547164
 118.6720622  70.0753034 103.3142982 117.9951802  68.9629631 102.5420230
 118.7630901  66.9894179 106.3426873 118.7509571  67.9336018 106.4995144
 119.6554323  66.8064324 106.0486334  74.1831803   2.2031269  97.0233375
  74.1055832   3.1539094  97.1021855  73.5793446   1.8577142  97.6808301
  71.8218632   4.9516663 101.1681577  72.0615230   5.5835187 101.8460595
  70.9787829   4.6004703 101.4546936  72.2963464   0.9764665  98.4980355
  71.6273840   1.4610793  98.0144395  72.1576334   1.2233886  99.4123734
  76.4368733   3.0108409 105.0963013  76.9887041   3.1740030 105.8612099
  76.7774926   3.6012847 104.4243038  69.3968206   1.0528955 101.0655487
  69.2622674   0.2929356 100.4993485  68.9800268   1.7769855 100.5984276
  72.5537332   1.9498272 101.2773929  72.4369716   2.8943705 101.1752620
  71.7329778   1.6471834 101.6659729  73.5791846   2.6026534 104.4929858
  74.4819093   2.6350145 104.8096353  73.3529216   1.6726985 104.5076194
  87.8787848   7.1445487 102.1547224  87.5406359   7.0286552 101.2667758
  88.7477616   6.7436652 102.1348230  83.7374664   8.9980964  98.1444115
  83.1739529   8.9070901  97.3760402  83.6227059   8.1780868  98.6246607
  81.2839096  10.4932155 100.9828335  82.0760388  10.1522980 100.5674634
  81.5235746  10.6027130 101.9030488  89.3174222  12.6651931  93.4558579
  88.6662202  13.2506012  93.0692593  90.1118585  13.1958126  93.5153617
  83.2429850   9.7541069  93.8545714  84.0160726   9.2070056  93.7158590
  83.5955248  10.6185318  94.0660175  85.0814892  11.0817451 107.0612613
  84.7904758  11.9863082 106.9459279  85.7171876  11.1233978 107.7756683
  86.0071099   8.4594299 103.6513973  86.6034671   8.2350322 102.9370936
  86.0646070   7.7179045 104.2539421  90.7949488  10.3542363  93.9927564
  90.1595321  10.4276990  94.7048468  90.4646894  10.9435962  93.3146643
  85.2992416   7.8161841  93.6888539  85.1828674   7.1406744  94.3569623
  85.4094676   7.3294215  92.8720692  87.6423957   7.2771988  97.3935228
  87.2782164   6.7502609  98.1048149  88.4991073   6.8870457  97.2201713
  90.0404777  10.7678866 104.0562407  89.7405500  11.6703905 103.9478214
  89.6955837  10.5011050 104.9083560  83.4917259   7.2192663 100.0899111
  82.5667755   7.0868877 100.2976803  83.7401672   7.9986882 100.5869054
  80.8526070   6.8625937 100.9242900  80.9818451   7.1160416 101.8382312
  80.1723521   7.4553645 100.6047555  85.0225557  17.5323187  97.0233375
  84.9449587  18.4831012  97.1021855  84.4187201  17.1869059  97.6808301
  91.5673313  10.2166837 101.5937159  90.9382176  10.3812551 100.8913227
  91.1798975  10.6308446 102.3648123  95.4462545  11.1521274  98.9481523
  94.7613583  11.5320176  98.3978556  95.5306395  11.7616601  99.6813470
  87.1201275   9.9541245  98.8587244  87.5839621  10.2328948  98.0691866
  86.8558073   9.0524689  98.6760335  84.0125356   9.5012726 101.7967007
  84.5826713   9.9299995 101.1584492  84.6033468   9.2195311 102.4951193
  79.7995495   4.3347950 100.9693943  79.0094549   4.5905478 100.4934053
  80.2906743   5.1496288 101.0745983  81.7510241   4.6992529  97.9277419
  80.9541404   4.8111223  98.4460915  81.5235833   5.0379181  97.0618310
  87.5815908  11.2237232 105.8759934  87.6460341  11.6857639 106.7118106
  86.8726832  10.5934597 106.0042244  78.0833198   4.5878440 103.4008933
  78.3341237   5.4725450 103.6666509  78.6192747   4.4083042 102.6284025
  87.2963926  12.8905340  95.7438914  87.1609601  13.7356875  96.1723762
  87.8373738  13.0924617  94.9804848  80.7493323  10.4080778  96.3166839
  81.2617844  11.2024028  96.4672404  81.4016036   9.7107068  96.2500441
  82.5588208  13.5246534  98.3989593  82.7354836  14.4464499  98.2110576
  83.3545042  13.2104953  98.8283972  81.8440565   5.5711166 108.2751756
  81.7294080   4.6696423 108.5758855  80.9885082   5.8174863 107.9236572
  83.6819523  15.0424708 104.3999935  84.2326949  14.9141771 103.6276929
  82.8430999  15.3419597 104.0494828  87.4786695  11.3075836 108.7444166
  88.0115031  10.5464124 108.5143474  86.9500776  11.0149487 109.4868320
  78.7142240   8.7369432  97.0926410  79.5517462   9.1466440  96.8760118
  78.8920508   7.7968874  97.0626604  88.8439407  10.4361828  96.2562978
  88.3160769   9.7014588  95.9436215  88.3426910  11.2136504  96.0102946
  93.8232253   8.6310849 101.3730024  93.1655928   9.3210110 101.4610153
  94.6272652   9.0207281 101.7164011  86.9892007   8.2542038  89.2597951
  86.0819069   8.0231292  89.4589100  87.4863039   7.4579658  89.4471933
  89.8960086  16.9639546  92.1794637  89.2221785  17.2671242  92.7879595
  90.2825908  17.7668626  91.8300094  88.1680241   8.3554633  93.7821941
  87.2591460   8.0713666  93.8794411  88.1975325   8.7753712  92.9225248
  93.3999508  11.9661223  97.5513109  92.9461835  11.1252133  97.6078299
  92.7693475  12.6022621  97.8887889  91.8432447  13.8037719  98.4862927
  92.1355422  14.3642777  97.7675292  92.3531068  14.0966280  99.2416086
  78.7368411   6.0760147  97.7637143  78.5392811   5.4829508  97.0388210
  78.1815075   5.7712358  98.4813082  87.8656329   9.8963377  91.1210020
  87.4275759   9.1799236  90.6615657  88.6066769  10.1239492  90.5595111
  86.8066073  14.5818071  99.5756380  86.7642251  14.8078917  98.6464912
  87.7228772  14.3481445  99.7242181  84.9231873  11.4581100  99.3718343
  85.7172472  10.9631420  99.1700918  84.2123566  10.9298963  99.0086048
  89.7426718  13.8399195 103.7230710  89.7963740  14.4090131 104.4908426
  88.8741499  14.0101080 103.3584747  81.2314637   5.6024181  95.4478095
  80.3012225   5.5408637  95.6648058  81.3272109   5.0800134  94.6514737
  88.7014818   8.0059457 105.2817642  89.6306878   8.1570617 105.1086610
  88.2805848   8.0943478 104.4266289  87.5003149  12.0310122 103.0516180
  87.3614235  11.6628906 103.9242118  86.7117746  12.5457761 102.8800138
  88.0951301  17.1319218  94.3941716  88.2703057  16.6607261  95.2087339
  87.4084089  17.7584984  94.6222977  89.0508365  11.4091724 100.4405018
  88.7158197  11.3692494 101.3362667  88.5512310  10.7436440  99.9675428
  83.0252609   6.8159354 105.9657599  82.8872406   6.0839593 106.5669138
  83.9357532   6.7268254 105.6841787  91.9867556   8.7547759  90.7142077
  91.3696727   8.0294587  90.6175130  91.5184045   9.5157119  90.3709152
  85.6534909   6.5279314 105.4541278  86.3634528   5.8872506 105.4127897
  85.6104217   6.7792208 106.3767459  82.6612387  20.2808581 101.1681577
  82.9008985  20.9127105 101.8460595  81.8181583  19.9296621 101.4546936
  75.2968242   7.7610343  99.9304889  75.9839282   7.4472073  99.3425904
  75.1416371   8.6651707  99.6572140  87.1740249  16.0887703 103.5723081
  87.1010420  16.8942675 104.0842385  86.7317642  16.2879669 102.7471102
  86.9630028  15.3259473  97.0825902  86.1797550  15.8681153  97.1764127
  87.6622773  15.8433453  97.4820143  89.6338932  15.9874537 105.7281239
  90.3466904  16.6222002 105.6557141  89.1428961  16.0838403 104.9121241
  91.3556459   9.8925790  97.2998531  90.4212738  10.0127252  97.1303235
  91.5333127   8.9898257  97.0358541  84.6850846  13.7368981 106.5486810
  85.3860305  14.3705464 106.7016204  84.2145961  14.0783712 105.7882449
  92.8105241  12.0786930  94.8334717  93.0865085  11.9643525  95.7428591
  91.9409740  11.6804415  94.7946890  89.4459305  16.3273281  98.4767531
  89.6281700  15.5094937  98.9395283  90.2692291  16.5440974  98.0392421
  89.7801471  15.2541466  95.7382579  90.3089237  14.7433921  95.1252741
  90.0429691  14.9383997  96.6028112  80.2818564  13.2705336 103.4817913
  80.8672001  12.5249024 103.6145817  80.0843402  13.5809292 104.3654577
  83.1357219  16.3056583  98.4980355  82.4667594  16.7902711  98.0144395
  82.9970089  16.5525804  99.4123734  74.8736218   5.8410936 102.2022356
  74.9120318   5.3074527 102.9959474  74.3676511   5.3146141 101.5833333
  87.2762487  18.3400327 105.0963013  87.8280796  18.5031948 105.8612099
  87.6168681  18.9304764 104.4243038  78.5044796   4.5675038  95.2776287
  78.7998237   3.6585717  95.2243341  77.6032832   4.5462778  94.9557290
  90.4130875  16.2882302 102.0826696  90.2882014  15.4872042 101.5737641
  91.0709966  16.7828496 101.5940666  92.4765783  14.0891322 103.7106246
  91.5296119  13.9696673 103.6384572  92.8248556  13.2013820 103.7932507
  89.4812216  13.8844038  99.9110598  89.3337179  12.9560746 100.0918168
  90.3065710  13.9064129  99.4267673  93.0846338  14.7072597 100.9975471
  94.0092886  14.5015459 100.8599922  92.9161642  14.4588998 101.9064812
  92.8741655  15.2258265  96.3537562  93.0478532  14.6604687  95.6011415
  93.3670546  16.0259160  96.1717052  78.6918614   7.2372934 104.4201121
  78.1472082   8.0132742 104.5521395  79.5697964   7.5843738 104.2620242
  93.8616827  14.5425029  93.4534460  94.5567732  15.1631722  93.6721775
  94.2039977  13.6920380  93.7286838  79.4784636   6.3642830 107.3131278
  78.7366372   6.5125465 107.8995908  79.1577380   6.6251096 106.4498027
  95.7608250  11.9924735  94.9821791  96.2859574  12.3312007  94.2571111
  95.6730603  11.0571750  94.7984926  87.4228299  15.9058808 107.1111668
  87.7315425  15.6607955 107.9834367  88.2203781  16.1105447 106.6230538
  87.4448911  18.0596718  99.3417044  87.0053901  17.5673097 100.0349901
  88.1957028  17.5169686  99.1009120  79.9241250  14.2508259  99.3441672
  80.7499270  13.9512031  98.9640316  79.5735302  13.4815881  99.7931461
  84.8922783  13.6034727 101.4139346  84.2702792  12.9405432 101.1141574
  85.5627650  13.6295859 100.7312994  78.1249855  12.1694585 100.3030606
  77.2881763  11.7416760 100.1214607  78.0973500  12.3627029 101.2401397
  84.4536290  12.1538650  94.8897807  84.6024410  12.8374115  94.2364479
  85.2602733  12.1343740  95.4047262  82.2088923   8.1803828  95.8958875
  81.9634965   7.2766158  96.0939086  82.3784837   8.1820978  94.9538353
  87.9531695  14.6486781  92.3609554  87.3805663  15.2676968  91.9080026
  88.5264489  15.1986142  92.8949476  91.1728955  14.9323931  93.4918136
  92.1059628  14.8669493  93.6951012  91.0852168  15.7680198  93.0332669
  93.8016972  14.2489801  90.4522084  93.7230603  13.9149665  91.3457842
  94.6226639  14.7411569  90.4513556  77.4399351   5.2303933 100.0879538
  77.1202136   4.3769241  99.7953912  76.8932780   5.4452511 100.8437505
  81.2179259   7.9466374 103.8049045  81.4365269   8.8783482 103.8237078
  81.6305033   7.5874349 104.5903848  77.3087611   8.8506845 102.0572660
  76.6151083   8.4360798 101.5442614  78.0560602   8.8927381 101.4606079
  79.2224354   8.7825099  99.9338675  79.1995042   8.8812786  98.9820558
  79.5324991   9.6290249 100.2555841  81.8811732  10.8401254 104.0485289
  82.8354985  10.8085196 103.9815221  81.6824255  10.3791877 104.8635515
  82.4711114   9.4102370 106.6156087  83.2904003   9.9046448 106.6390924
  82.7447922   8.4934338 106.5873654  80.2361961  16.3820873 101.0655487
  80.1016429  15.6221274 100.4993485  79.8194023  17.1061773 100.5984276
  91.3720924  11.5657797  90.0732062  92.0756774  11.7707799  90.6889718
  90.6483572  12.1334559  90.3381146  83.3931087  17.2790190 101.2773929
  83.2763471  18.2235623 101.1752620  82.5723533  16.9763752 101.6659729
  93.2807621  12.0040326  92.1230522  94.1153225  11.5721524  91.9407997
  93.1191964  11.8322340  93.0507417  92.9353513   8.5072439  93.4886861
  92.8802317   8.3416711  92.5475306  92.3099569   9.2148472  93.6449051
  77.7246028   3.7440504 107.3148284  78.3704892   3.2339457 107.8035509
  77.5163179   4.4809185 107.8891709  84.4185601  17.9318452 104.4929858
  85.3212847  17.9642062 104.8096353  84.1922971  17.0018903 104.5076194
  86.1739203  16.6849439 101.1539937  85.2234834  16.6851300 101.0404309
  86.4771689  15.9382173 100.6375971 101.9091896  22.5209977 102.2185699
 102.5470306  22.4016724 101.5149039 101.7912739  23.4690821 102.2773651
  98.7181602  22.4737405 102.1547224  98.3800114  22.3578470 101.2667758
  99.5871371  22.0728570 102.1348230  94.5768418  24.3272881  98.1444115
  94.0133283  24.2362818  97.3760402  94.4620813  23.5072786  98.6246607
  92.1232850  25.8224073 100.9828335  92.9154142  25.4814898 100.5674634
  92.3629500  25.9319048 101.9030488 100.1567977  27.9943849  93.4558579
  99.5055957  28.5797930  93.0692593 100.9512340  28.5250044  93.5153617
  94.0823604  25.0832986  93.8545714  94.8554480  24.5361973  93.7158590
  94.4349003  25.9477236  94.0660175  95.9208647  26.4109369 107.0612613
  95.6298513  27.3154999 106.9459279  96.5565631  26.4525896 107.7756683
  96.8464853  23.7886217 103.6513973  97.4428426  23.5642239 102.9370936
  96.9039825  23.0470963 104.2539421  96.4189882  21.2425652  91.4864164
  96.6715403  20.7207174  90.7247627  95.4814441  21.0791798  91.5890847
 101.4633165  20.2461431  99.2938907 102.2496254  19.8280854  98.9429324
 101.7271869  21.1507523  99.4620555 101.6343242  25.6834281  93.9927564
 100.9989075  25.7568908  94.7048468 101.3040648  26.2727880  93.3146643
  96.1386171  23.1453758  93.6888539  96.0222429  22.4698662  94.3569623
  96.2488430  22.6586132  92.8720692  98.4817712  22.6063905  97.3935228
  98.1175919  22.0794526  98.1048149  99.3384827  22.2162375  97.2201713
  98.1223199  17.6353805  92.3896576  98.2897601  18.5034042  92.7567047
  97.9320368  17.7981087  91.4657866 100.8798532  26.0970784 104.0562407
 100.5799255  26.9995823 103.9478214 100.5349591  25.8302967 104.9083560
  94.3311013  22.5484581 100.0899111  93.4061510  22.4160795 100.2976803
  94.5795426  23.3278800 100.5869054  98.1012419  20.0911463  93.3743243
  97.9812045  20.5368513  94.2128724  97.4065008  20.4396780  92.8156781
  91.6919824  22.1917854 100.9242900  91.8212205  22.4452333 101.8382312
  91.0117276  22.7845562 100.6047555  95.8619311  32.8615104  97.0233375
  95.7843341  33.8122930  97.1021855  95.2580955  32.5160977  97.6808301
 103.7997486  20.5632936  94.2023577 104.7115342  20.7960323  94.0271275
 103.2907133  21.1469980  93.6398656 102.4067068  25.5458754 101.5937159
 101.7775930  25.7104468 100.8913227 102.0192730  25.9600364 102.3648123
 106.2856300  26.4813192  98.9481523 105.6007338  26.8612094  98.3978556
 106.3700149  27.0908519  99.6813470  97.9595030  25.2833162  98.8587244
  98.4233375  25.5620865  98.0691866  97.6951828  24.3816607  98.6760335
  94.8519111  24.8304644 101.7967007  95.4220468  25.2591912 101.1584492
  95.4427223  24.5487229 102.4951193  96.8963916  21.4056315  95.6676809
  97.5987959  21.8577358  96.1350735  96.5644544  20.7640134  96.2956702
  90.6389250  19.6639867 100.9693943  89.8488304  19.9197396 100.4934053
  91.1300497  20.4788205 101.0745983  92.5903995  20.0284447  97.9277419
  91.7935158  20.1403141  98.4460915  92.3629587  20.3671099  97.0618310
  98.4209663  26.5529150 105.8759934  98.4854095  27.0149557 106.7118106
  97.7120587  25.9226515 106.0042244  88.9226953  19.9170358 103.4008933
  89.1734991  20.8017368 103.6666509  89.4586501  19.7374959 102.6284025
  98.1357680  28.2197257  95.7438914  98.0003355  29.0648793  96.1723762
  98.6767493  28.4216535  94.9804848  91.5887078  25.7372695  96.3166839
  92.1011598  26.5315946  96.4672404  92.2409791  25.0398986  96.2500441
  93.3981962  28.8538452  98.3989593  93.5748591  29.7756416  98.2110576
  94.1938796  28.5396871  98.8283972  92.6834319  20.9003084 108.2751756
  92.5687834  19.9988341 108.5758855  91.8278837  21.1466780 107.9236572
  94.5213278  30.3716625 104.3999935  95.0720703  30.2433689 103.6276929
  93.6824754  30.6711514 104.0494828  98.3180449  26.6367753 108.7444166
  98.8508786  25.8756041 108.5143474  97.7894530  26.3441405 109.4868320
  89.5535995  24.0661350  97.0926410  90.3911217  24.4758358  96.8760118
  89.7314262  23.1260792  97.0626604 101.4500427  21.7336430  92.7810243
 100.9347050  22.5041035  93.0198630 101.1777735  21.0601567  93.4043304
  99.0347538  16.5786131  97.8395481  98.1789134  16.1892982  97.6601120
  99.4474489  16.6578092  96.9795267  96.8089570  14.1971204 101.2453223
  97.6742567  14.0014013 100.8859112  96.8767079  13.9681556 102.1722579
 106.4234701  24.4868785  94.7163416 105.6464144  24.1479945  94.2718578
 107.1026182  24.4921408  94.0418381 101.2386730  19.6063522  94.6070024
 100.9336865  19.9209672  95.4580167 102.1917172  19.6844942  94.6497357
  99.6833162  25.7653746  96.2562978  99.1554523  25.0306505  95.9436215
  99.1820664  26.5428422  96.0102946 104.6626008  23.9602766 101.3730024
 104.0049682  24.6502028 101.4610153 105.4666407  24.3499198 101.7164011
  94.4151889  16.4273412  98.6169589  94.9895641  16.2048594  97.8842782
  95.0022872  16.4962107  99.3698191 103.4731467  22.3147139  99.4233966
 103.9863348  22.9477131  99.9255676 104.1232690  21.7148334  99.0577326
  94.7421476  18.4577873  92.6365475  93.9058789  18.7952560  92.9574749
  94.6026246  18.3226853  91.6992612  96.7174557  13.3014661  97.3444659
  96.0638969  12.9863678  96.7201274  96.6755031  12.6790401  98.0704482
  97.8285762  23.5833956  89.2597951  96.9212824  23.3523209  89.4589100
  98.3256794  22.7871575  89.4471933 100.7353841  32.2931463  92.1794637
 100.0615540  32.5963160  92.7879595 101.1219663  33.0960544  91.8300094
  99.9512297  19.7896595 101.6692307  99.0334859  20.0111542 101.5113995
 100.3672441  19.8642905 100.8104014 100.7347345  21.1888010  96.7994987
 101.4819164  21.7009407  96.4902109 101.0038935  20.8672063  97.6599380
  99.0073995  23.6846551  93.7821941  98.0985215  23.4005584  93.8794411
  99.0369079  24.1045629  92.9225248 104.2393263  27.2953140  97.5513109
 103.7855590  26.4544050  97.6078299 103.6087229  27.9314539  97.8887889
 103.1826182  18.2245126  98.7813776 102.4448939  17.7122513  99.1124019
 103.4352956  17.7845508  97.9697053 102.6826202  29.1329637  98.4862927
 102.9749176  29.6934694  97.7675292 103.1924823  29.4258198  99.2416086
  89.5762166  21.4052065  97.7637143  89.3786566  20.8121426  97.0388210
  89.0208830  21.1004275  98.4813082  97.5558889  21.2975172  99.8831736
  97.6107499  20.3449008  99.8074213  96.7450091  21.4534611 100.3673035
  98.7050083  25.2255295  91.1210020  98.2669513  24.5091154  90.6615657
  99.4460524  25.4531409  90.5595111  95.4951249  19.9152231  97.6422115
  94.6819115  20.2146402  98.0487307  95.9910243  19.5207920  98.3596598
  97.6459827  29.9109988  99.5756380  97.6036006  30.1370834  98.6464912
  98.5622526  29.6773363  99.7242181 106.8223198  23.5012492  97.1786338
 106.6841096  23.6914088  96.2507527 106.4659417  24.2631874  97.6354389
  94.9865324  17.4870587 103.2583350  95.6264703  17.3459346 102.5606314
  94.1542855  17.2005100 102.8821952  95.7625628  26.7873017  99.3718343
  96.5566226  26.2923337  99.1700918  95.0517320  26.2590880  99.0086048
 100.5820472  29.1691113 103.7230710 100.6357495  29.7382049 104.4908426
  99.7135254  29.3392998 103.3584747  92.0708391  20.9316099  95.4478095
  91.1405980  20.8700554  95.6648058  92.1665863  20.4092052  94.6514737
  91.9893940  17.4570912  98.0356337  92.2500758  18.3716245  97.9265498
  92.8111113  16.9895354  98.1852950  93.4618866  18.8708669 105.2055162
  94.1341919  18.6626031 104.5567811  92.6348652  18.6730755 104.7660394
  99.5408572  23.3351375 105.2817642 100.4700632  23.4862534 105.1086610
  99.1199602  23.4235396 104.4266289  98.3396904  27.3602039 103.0516180
  98.2007990  26.9920824 103.9242118  97.5511500  27.8749679 102.8800138
  98.9345056  32.4611136  94.3941716  99.1096812  31.9899179  95.2087339
  98.2477844  33.0876902  94.6222977  99.8902119  26.7383642 100.4405018
  99.5551952  26.6984412 101.3362667  99.3906065  26.0728358  99.9675428
  93.8646363  22.1451272 105.9657599  93.7266161  21.4131511 106.5669138
  94.7751287  22.0560172 105.6841787 102.8261311  24.0839676  90.7142077
 102.2090481  23.3586504  90.6175130 102.3577799  24.8449037  90.3709152
  96.4928664  21.8571231 105.4541278  97.2028282  21.2164423 105.4127897
  96.4497972  22.1084126 106.3767459  93.5006141  35.6100498 101.1681577
  93.7402739  36.2419023 101.8460595  92.6575338  35.2588538 101.4546936
  94.6159857  18.3025101  89.8363382  93.7389323  18.1813901  89.4725628
  95.0917610  17.5111179  89.5842270  86.1361997  23.0902260  99.9304889
  86.8233037  22.7763990  99.3425904  85.9810125  23.9943625  99.6572140
  90.9396719  17.9792457 104.3589912  90.8554908  17.3718126 103.6240322
  90.1179425  18.4701475 104.3599409  98.0134003  31.4179621 103.5723081
  97.9404175  32.2234592 104.0842385  97.5711396  31.6171587 102.7471102
  97.8023783  30.6551391  97.0825902  97.0191305  31.1973071  97.1764127
  98.5016528  31.1725371  97.4820143 101.1120433  16.4646020  99.7260107
 101.6089132  15.7115983  99.4061178 100.3407414  16.5010337  99.1603317
 100.4732687  31.3166455 105.7281239 101.1860659  31.9513920 105.6557141
  99.9822715  31.4130321 104.9121241 102.1950213  25.2217708  97.2998531
 101.2606492  25.3419170  97.1303235 102.3726882  24.3190174  97.0358541
  97.6955402  18.6063403  99.4531792  97.3253189  18.0534444 100.1412698
  98.1914494  18.0021537  98.9006792 105.5822765  21.0635027  97.8348565
 106.0483217  21.8963018  97.7608868 106.0330265  20.5980008  98.5393823
  95.5244600  29.0660898 106.5486810  96.2254060  29.6997381 106.7016204
  95.0539715  29.4075630 105.7882449 103.6498996  27.4078848  94.8334717
 103.9258840  27.2935443  95.7428591 102.7803495  27.0096333  94.7946890
 100.2853060  31.6565199  98.4767531 100.4675454  30.8386855  98.9395283
 101.1086046  31.8732891  98.0392421 100.6195225  30.5833384  95.7382579
 101.1482992  30.0725839  95.1252741 100.8823445  30.2675914  96.6028112
  91.1212318  28.5997253 103.4817913  91.7065755  27.8540941 103.6145817
  90.9237157  28.9101210 104.3654577  93.9750973  31.6348501  98.4980355
  93.3061349  32.1194628  98.0144395  93.8363843  31.8817721  99.4123734
  85.7129973  21.1702854 102.2022356  85.7514072  20.6366444 102.9959474
  85.2070266  20.6438059 101.5833333  98.1156242  33.6692244 105.0963013
  98.6674550  33.8323866 105.8612099  98.4562435  34.2596682 104.4243038
  93.0920735  16.0167394 105.6984898  93.1562062  16.8782225 105.2862296
  93.0287855  15.4041396 104.9657257  89.3438550  19.8966956  95.2776287
  89.6391992  18.9877634  95.2243341  88.4426586  19.8754695  94.9557290
 101.2524629  31.6174220 102.0826696 101.1275769  30.8163960 101.5737641
 101.9103720  32.1120413 101.5940666  92.8732797  17.9722952 101.2603836
  92.1519383  18.5858920 101.1211309  93.6626053  18.5080717 101.1820482
 103.3159538  29.4183240 103.7106246 102.3689873  29.2988591 103.6384572
 103.6642311  28.5305738 103.7932507  91.0726392  17.5781053  95.4015612
  90.7439098  16.6978432  95.2190718  91.4265763  17.5228722  96.2892002
 100.3205971  29.2135956  99.9110598 100.1730933  28.2852664 100.0918168
 101.1459464  29.2356047  99.4267673  94.1868215  17.8654023  95.7691090
  94.5264288  18.3939944  95.0469698  94.6340336  18.2034429  96.5449657
 103.9240093  30.0364515 100.9975471 104.8486640  29.8307376 100.8599922
 103.7555396  29.7880916 101.9064812  96.1736362  16.3628645  93.9684383
  96.8944725  16.7409898  93.4648100  95.5501666  17.0817522  94.0719361
 100.3167485  17.0673794  94.9042715 100.5331100  17.9498432  94.6031543
  99.8361552  16.6760007  94.1748357  95.0566707  20.0259507 101.4813460
  94.9111287  20.3399810 102.3737741  94.5791910  20.6444407 100.9284358
  96.9163090  17.0162055 101.5294349  96.9024658  16.1203148 101.1926647
  97.6335518  17.0232719 102.1632635 103.7135409  30.5550182  96.3537562
 103.8872287  29.9896605  95.6011415 104.2064300  31.3551077  96.1717052
  89.5312369  22.5664851 104.4201121  88.9865837  23.3424659 104.5521395
  90.4091719  22.9135656 104.2620242  96.3199985  15.8976435  96.7981919
  96.4415897  14.9693081  96.9972807  96.0302028  15.9115121  95.8860235
  99.1891176  13.5831346  99.9348639  99.2112873  13.6470679  98.9800619
  99.6059235  12.7435854 100.1289145 109.5674800  23.3186605  97.9727862
 110.0105946  22.5693930  97.5746985 108.6901310  23.3096742  97.5901594
 104.7010581  29.8716947  93.4534460 105.3961486  30.4923639  93.6721775
 105.0433732  29.0212298  93.7286838  90.3178391  21.6934748 107.3131278
  89.5760127  21.8417383 107.8995908  89.9971135  21.9543013 106.4498027
 106.6002005  27.3216652  94.9821791 107.1253329  27.6603925  94.2571111
 106.5124357  26.3863668  94.7984926  98.2622053  31.2350726 107.1111668
  98.5709180  30.9899873 107.9834367  99.0597535  31.4397364 106.6230538
  98.2842665  33.3888636  99.3417044  97.8447656  32.8965014 100.0349901
  99.0350782  32.8461603  99.1009120  90.7635004  29.5800176  99.3441672
  91.5893024  29.2803948  98.9640316  90.4129056  28.8107799  99.7931461
  95.7316538  28.9326645 101.4139346  95.1096547  28.2697350 101.1141574
  96.4021404  28.9587777 100.7312994  88.9643609  27.4986503 100.3030606
  88.1275518  27.0708677 100.1214607  88.9367255  27.6918946 101.2401397
  95.2930044  27.4830568  94.8897807  95.4418165  28.1666032  94.2364479
  96.0996488  27.4635658  95.4047262  93.0482677  23.5095746  95.8958875
  92.8028719  22.6058076  96.0939086  93.2178592  23.5112896  94.9538353
  92.3178325  19.2424103  93.3945037  91.6247570  19.3168458  92.7385073
  92.0730077  18.4784447  93.9166554  98.7925450  29.9778698  92.3609554
  98.2199417  30.5968886  91.9080026  99.3658244  30.5278060  92.8949476
 102.0122710  30.2615849  93.4918136 102.9453383  30.1961410  93.6951012
 101.9245923  31.0972115  93.0332669 104.6410726  29.5781719  90.4522084
 104.5624358  29.2441582  91.3457842 105.4620393  30.0703487  90.4513556
  99.1772248  21.3139511  89.7025606 100.1231353  21.1845719  89.7714024
  98.7986493  20.5754173  90.1795035  97.3615166  19.2389488  89.6380492
  96.4546621  18.9422600  89.7143205  97.6391147  18.9419306  88.7714778
  88.2793106  20.5595851 100.0879538  87.9595890  19.7061159  99.7953912
  87.7326534  20.7744429 100.8437505  92.0573014  23.2758292 103.8049045
  92.2759023  24.2075400 103.8237078  92.4698787  22.9166266 104.5903848
  98.9777231  13.7826377  95.7924733  98.1677960  13.4373462  96.1679979
  99.6661648  13.4733921  96.3812345 100.9067780  12.8604424  97.4149030
 101.4598818  13.2799878  98.0739053 101.1437866  11.9340172  97.4571986
  96.1313950  16.0976423  89.7792471  96.9933114  16.4231321  90.0388288
  96.3164294  15.3107919  89.2665537  88.1481366  24.1798762 102.0572660
  87.4544837  23.7652715 101.5442614  88.8954357  24.2219299 101.4606079
 104.2846587  14.9704949  96.9227694 103.7045256  15.6289753  96.5405746
 104.0182519  14.1482294  96.5115111  90.0618108  24.1117016  99.9338675
  90.0388797  24.2104704  98.9820558  90.3718745  24.9582167 100.2555841
  92.7205486  26.1693171 104.0485289  93.6748740  26.1377114 103.9815221
  92.5218010  25.7083795 104.8635515  93.3104869  24.7394287 106.6156087
  94.1297757  25.2338366 106.6390924  93.5841676  23.8226255 106.5873654
 103.0671465  17.1305040  95.9784042 102.1797320  17.4154690  95.7604237
 103.4825454  16.9698803  95.1311319  91.0755715  31.7112791 101.0655487
  90.9410183  30.9513192 100.4993485  90.6587777  32.4353691 100.5984276
 102.2114678  26.8949714  90.0732062 102.9150528  27.0999717  90.6889718
 101.4877327  27.4626476  90.3381146 103.0412488  22.6459576  96.1934332
 102.9847690  23.1028127  95.3541965 103.5940831  21.8850260  96.0157175
 106.8517294  18.4349307  97.0184452 106.5954229  18.0345943  97.8492659
 106.2270162  19.1493101  96.8934591  94.2324841  32.6082108 101.2773929
  94.1157225  33.5527540 101.1752620  93.4117287  32.3055669 101.6659729
 104.1201376  27.3332243  92.1230522 104.9546980  26.9013442  91.9407997
 103.9585718  27.1614257  93.0507417 103.7747268  23.8364357  93.4886861
 103.7196072  23.6708628  92.5475306 103.1493323  24.5440390  93.6449051
  88.5639783  19.0732421 107.3148284  89.2098646  18.5631375 107.8035509
  88.3556934  19.8101103 107.8891709  97.0843393  13.3372466  93.0672180
  97.0722063  14.2814306  93.2240451  97.9766815  13.1542611  92.7731641
  95.2579355  33.2610370 104.4929858  96.1606602  33.2933980 104.8096353
  95.0316725  32.3310821 104.5076194  97.0132957  32.0141356 101.1539937
  96.0628588  32.0143218 101.0404309  97.3165443  31.2674091 100.6375971
 112.7485651  37.8501895 102.2185699 113.3864061  37.7308642 101.5149039
 112.6306494  38.7982739 102.2773651 109.5575357  37.8029323 102.1547224
 109.2193868  37.6870387 101.2667758 110.4265125  37.4020488 102.1348230
 105.4162173  39.6564799  98.1444115 104.8527038  39.5654736  97.3760402
 105.3014568  38.8364704  98.6246607 102.9626605  41.1515991 100.9828335
 103.7547897  40.8106815 100.5674634 103.2023255  41.2610966 101.9030488
 110.9961731  43.3235767  93.4558579 110.3449711  43.9089847  93.0692593
 111.7906094  43.8541962  93.5153617 104.9217359  40.4124904  93.8545714
 105.6948235  39.8653891  93.7158590 105.2742757  41.2769153  94.0660175
 106.7602401  41.7401286 107.0612613 106.4692267  42.6446917 106.9459279
 107.3959385  41.7817814 107.7756683 107.6858608  39.1178135 103.6513973
 108.2822180  38.8934157 102.9370936 107.7433579  38.3762880 104.2539421
 107.2583636  36.5717570  91.4864164 107.5109157  36.0499091  90.7247627
 106.3208195  36.4083716  91.5890847 112.3026919  35.5753348  99.2938907
 113.0890008  35.1572772  98.9429324 112.5665623  36.4799441  99.4620555
 112.4736997  41.0126199  93.9927564 111.8382829  41.0860825  94.7048468
 112.1434403  41.6019798  93.3146643 106.9779925  38.4745676  93.6888539
 106.8616183  37.7990579  94.3569623 107.0882185  37.9878050  92.8720692
 109.3211466  37.9355823  97.3935228 108.9569673  37.4086444  98.1048149
 110.1778582  37.5454292  97.2201713 108.9616953  32.9645723  92.3896576
 109.1291355  33.8325959  92.7567047 108.7714122  33.1273005  91.4657866
 111.7192286  41.4262702 104.0562407 111.4193009  42.3287741 103.9478214
 111.3743346  41.1594885 104.9083560 105.1704768  37.8776499 100.0899111
 104.2455264  37.7452713 100.2976803 105.4189181  38.6570718 100.5869054
 108.9406174  35.4203380  93.3743243 108.8205799  35.8660431  94.2128724
 108.2458762  35.7688698  92.8156781 102.5313579  37.5209772 100.9242900
 102.6605960  37.7744251 101.8382312 101.8511030  38.1137480 100.6047555
 106.7013066  48.1907022  97.0233375 106.6237096  49.1414847  97.1021855
 106.0974710  47.8452895  97.6808301 114.6391240  35.8924854  94.2023577
 115.5509096  36.1252240  94.0271275 114.1300887  36.4761898  93.6398656
 113.2460822  40.8750672 101.5937159 112.6169685  41.0396386 100.8913227
 112.8586484  41.2892282 102.3648123 117.1250054  41.8105110  98.9481523
 116.4401092  42.1904011  98.3978556 117.2093904  42.4200436  99.6813470
 108.7988784  40.6125080  98.8587244 109.2627130  40.8912783  98.0691866
 108.5345582  39.7108525  98.6760335 105.6912865  40.1596562 101.7967007
 106.2614222  40.5883830 101.1584492 106.2820977  39.8779146 102.4951193
 107.7357670  36.7348232  95.6676809 108.4381714  37.1869276  96.1350735
 107.4038299  36.0932051  96.2956702 101.4783004  34.9931785 100.9693943
 100.6882058  35.2489314 100.4934053 101.9694252  35.8080123 101.0745983
 103.4297750  35.3576364  97.9277419 102.6328913  35.4695059  98.4460915
 103.2023342  35.6963017  97.0618310 109.2603417  41.8821068 105.8759934
 109.3247850  42.3441475 106.7118106 108.5514341  41.2518432 106.0042244
  99.7620707  35.2462276 103.4008933 100.0128746  36.1309285 103.6666509
 100.2980256  35.0666877 102.6284025 108.9751435  43.5489175  95.7438914
 108.8397110  44.3940711  96.1723762 109.5161247  43.7508453  94.9804848
 102.4280832  41.0664613  96.3166839 102.9405353  41.8607863  96.4672404
 103.0803545  40.3690904  96.2500441 104.2375717  44.1830369  98.3989593
 104.4142345  45.1048334  98.2110576 105.0332551  43.8688789  98.8283972
 103.5228074  36.2295001 108.2751756 103.4081589  35.3280258 108.5758855
 102.6672591  36.4758698 107.9236572 105.3607032  45.7008543 104.3999935
 105.9114458  45.5725607 103.6276929 104.5218508  46.0003432 104.0494828
 109.1574203  41.9659671 108.7444166 109.6902540  41.2047959 108.5143474
 108.6288285  41.6733323 109.4868320 100.3929749  39.3953267  97.0926410
 101.2304971  39.8050276  96.8760118 100.5708017  38.4552710  97.0626604
 112.2894181  37.0628348  92.7810243 111.7740805  37.8332953  93.0198630
 112.0171490  36.3893484  93.4043304 109.8741292  31.9078049  97.8395481
 109.0182889  31.5184899  97.6601120 110.2868244  31.9870010  96.9795267
 107.6483325  29.5263122 101.2453223 108.5136322  29.3305930 100.8859112
 107.7160834  29.2973474 102.1722579 117.2628455  39.8160703  94.7163416
 116.4857898  39.4771862  94.2718578 117.9419936  39.8213326  94.0418381
 112.0780484  34.9355440  94.6070024 111.7730620  35.2501589  95.4580167
 113.0310926  35.0136860  94.6497357 110.5226916  41.0945663  96.2562978
 109.9948278  40.3598423  95.9436215 110.0214419  41.8720340  96.0102946
 115.5019762  39.2894684 101.3730024 114.8443437  39.9793945 101.4610153
 116.3060161  39.6791116 101.7164011 105.2545644  31.7565330  98.6169589
 105.8289396  31.5340511  97.8842782 105.8416626  31.8254024  99.3698191
 114.3125221  37.6439057  99.4233966 114.8257103  38.2769048  99.9255676
 114.9626445  37.0440252  99.0577326 105.5815231  33.7869791  92.6365475
 104.7452543  34.1244477  92.9574749 105.4420001  33.6518771  91.6992612
 107.5568312  28.6306579  97.3444659 106.9032724  28.3155596  96.7201274
 107.5148786  28.0082319  98.0704482 108.6679516  38.9125874  89.2597951
 107.7606578  38.6815127  89.4589100 109.1650548  38.1163493  89.4471933
 111.5747595  47.6223381  92.1794637 110.9009294  47.9255078  92.7879595
 111.9613417  48.4252461  91.8300094 110.7906052  35.1188512 101.6692307
 109.8728613  35.3403459 101.5113995 111.2066196  35.1934823 100.8104014
 111.5741100  36.5179928  96.7994987 112.3212919  37.0301325  96.4902109
 111.8432689  36.1963981  97.6599380 109.8467750  39.0138469  93.7821941
 108.9378969  38.7297501  93.8794411 109.8762834  39.4337547  92.9225248
 115.0787017  42.6245058  97.5513109 114.6249344  41.7835968  97.6078299
 114.4480984  43.2606456  97.8887889 114.0219937  33.5537044  98.7813776
 113.2842694  33.0414430  99.1124019 114.2746710  33.1137426  97.9697053
 113.5219956  44.4621555  98.4862927 113.8142931  45.0226612  97.7675292
 114.0318577  44.7550116  99.2416086 100.4155920  36.7343983  97.7637143
 100.2180320  36.1413343  97.0388210  99.8602584  36.4296193  98.4813082
 108.3952644  36.6267089  99.8831736 108.4501254  35.6740926  99.8074213
 107.5843846  36.7826528 100.3673035 109.5443838  40.5547212  91.1210020
 109.1063268  39.8383071  90.6615657 110.2854278  40.7823327  90.5595111
 106.3345004  35.2444149  97.6422115 105.5212869  35.5438319  98.0487307
 106.8303998  34.8499838  98.3596598 108.4853582  45.2401906  99.5756380
 108.4429760  45.4662752  98.6464912 109.4016281  45.0065280  99.7242181
 117.6616952  38.8304409  97.1786338 117.5234851  39.0206005  96.2507527
 117.3053171  39.5923792  97.6354389 105.8259079  32.8162504 103.2583350
 106.4658458  32.6751264 102.5606314 104.9936609  32.5297018 102.8821952
 106.6019382  42.1164935  99.3718343 107.3959981  41.6215255  99.1700918
 105.8911075  41.5882798  99.0086048 111.4214227  44.4983030 103.7230710
 111.4751249  45.0673967 104.4908426 110.5529008  44.6684915 103.3584747
 102.9102146  36.2608017  95.4478095 101.9799734  36.1992472  95.6648058
 103.0059618  35.7383969  94.6514737 102.8287695  32.7862829  98.0356337
 103.0894512  33.7008163  97.9265498 103.6504867  32.3187272  98.1852950
 104.3012620  34.2000587 105.2055162 104.9735674  33.9917949 104.5567811
 103.4742407  34.0022673 104.7660394 110.3802327  38.6643292 105.2817642
 111.3094387  38.8154452 105.1086610 109.9593357  38.7527313 104.4266289
 109.1790658  42.6893957 103.0516180 109.0401744  42.3212741 103.9242118
 108.3905255  43.2041596 102.8800138 109.7738810  47.7903053  94.3941716
 109.9490566  47.3191097  95.2087339 109.0871598  48.4168820  94.6222977
 110.7295874  42.0675560 100.4405018 110.3945706  42.0276330 101.3362667
 110.2299819  41.4020275  99.9675428 104.7040118  37.4743190 105.9657599
 104.5659915  36.7423428 106.5669138 105.6145041  37.3852090 105.6841787
 113.6655065  39.4131594  90.7142077 113.0484236  38.6878422  90.6175130
 113.1971554  40.1740954  90.3709152 107.3322418  37.1863149 105.4541278
 108.0422037  36.5456341 105.4127897 107.2891726  37.4376044 106.3767459
 104.3399896  50.9392416 101.1681577 104.5796494  51.5710940 101.8460595
 103.4969092  50.5880456 101.4546936 105.4553611  33.6317018  89.8363382
 104.5783077  33.5105819  89.4725628 105.9311364  32.8403097  89.5842270
  96.9755751  38.4194178  99.9304889  97.6626791  38.1055908  99.3425904
  96.8203880  39.3235543  99.6572140 101.7790473  33.3084374 104.3589912
 101.6948662  32.7010044 103.6240322 100.9573180  33.7993393 104.3599409
 108.8527758  46.7471539 103.5723081 108.7797929  47.5526510 104.0842385
 108.4105151  46.9463504 102.7471102 108.6417537  45.9843309  97.0825902
 107.8585059  46.5264989  97.1764127 109.3410282  46.5017288  97.4820143
 111.9514187  31.7937938  99.7260107 112.4482887  31.0407900  99.4061178
 111.1801169  31.8302255  99.1603317 111.3126441  46.6458373 105.7281239
 112.0254413  47.2805837 105.6557141 110.8216470  46.7422239 104.9121241
 113.0343968  40.5509625  97.2998531 112.1000247  40.6711088  97.1303235
 113.2120636  39.6482092  97.0358541 108.5349156  33.9355321  99.4531792
 108.1646944  33.3826361 100.1412698 109.0308248  33.3313454  98.9006792
 116.4216519  36.3926945  97.8348565 116.8876972  37.2254936  97.7608868
 116.8724020  35.9271926  98.5393823 106.3638355  44.3952816 106.5486810
 107.0647814  45.0289299 106.7016204 105.8933470  44.7367548 105.7882449
 114.4892750  42.7370766  94.8334717 114.7652594  42.6227360  95.7428591
 113.6197249  42.3388251  94.7946890 111.1246814  46.9857117  98.4767531
 111.3069209  46.1678773  98.9395283 111.9479800  47.2024809  98.0392421
 111.4588980  45.9125302  95.7382579 111.9876746  45.4017756  95.1252741
 111.7217200  45.5967832  96.6028112 101.9606073  43.9289171 103.4817913
 102.5459509  43.1832859 103.6145817 101.7630911  44.2393128 104.3654577
 104.8144728  46.9640418  98.4980355 104.1455103  47.4486546  98.0144395
 104.6757598  47.2109639  99.4123734  96.5523727  36.4994771 102.2022356
  96.5907827  35.9658362 102.9959474  96.0464020  35.9729977 101.5833333
 108.9549996  48.9984162 105.0963013 109.5068305  49.1615783 105.8612099
 109.2956190  49.5888600 104.4243038 103.9314490  31.3459312 105.6984898
 103.9955816  32.2074143 105.2862296 103.8681610  30.7333313 104.9657257
 100.1832305  35.2258873  95.2776287 100.4785746  34.3169552  95.2243341
  99.2820341  35.2046613  94.9557290 112.0918384  46.9466138 102.0826696
 111.9669523  46.1455877 101.5737641 112.7497475  47.4412331 101.5940666
 103.7126552  33.3014870 101.2603836 102.9913138  33.9150838 101.1211309
 104.5019808  33.8372635 101.1820482 114.1553292  44.7475158 103.7106246
 113.2083628  44.6280509 103.6384572 114.5036065  43.8597656 103.7932507
 101.9120147  32.9072971  95.4015612 101.5832853  32.0270350  95.2190718
 102.2659517  32.8520640  96.2892002 111.1599725  44.5427874  99.9110598
 111.0124688  43.6144581 100.0918168 111.9853219  44.5647965  99.4267673
 105.0261970  33.1945941  95.7691090 105.3658042  33.7231862  95.0469698
 105.4734090  33.5326347  96.5449657 114.7633847  45.3656433 100.9975471
 115.6880395  45.1599294 100.8599922 114.5949151  45.1172834 101.9064812
 107.0130117  31.6920562  93.9684383 107.7338479  32.0701815  93.4648100
 106.3895421  32.4109439  94.0719361 111.1561240  32.3965711  94.9042715
 111.3724854  33.2790349  94.6031543 110.6755307  32.0051925  94.1748357
 105.8960461  35.3551425 101.4813460 105.7505042  35.6691728 102.3737741
 105.4185665  35.9736325 100.9284358 107.7556844  32.3453973 101.5294349
 107.7418413  31.4495066 101.1926647 108.4729272  32.3524636 102.1632635
 114.5529163  45.8842100  96.3537562 114.7266041  45.3188522  95.6011415
 115.0458055  46.6842995  96.1717052 100.3706123  37.8956769 104.4201121
  99.8259591  38.6716577 104.5521395 101.2485473  38.2427574 104.2620242
 107.1593740  31.2268353  96.7981919 107.2809651  30.2984999  96.9972807
 106.8695782  31.2407039  95.8860235 110.0284930  28.9123263  99.9348639
 110.0506627  28.9762596  98.9800619 110.4452989  28.0727772 100.1289145
 120.4068555  38.6478523  97.9727862 120.8499701  37.8985848  97.5746985
 119.5295065  38.6388659  97.5901594 115.5404336  45.2008864  93.4534460
 116.2355241  45.8215557  93.6721775 115.8827486  44.3504216  93.7286838
 101.1572145  37.0226665 107.3131278 100.4153881  37.1709301 107.8995908
 100.8364889  37.2834931 106.4498027 117.4395759  42.6508570  94.9821791
 117.9647083  42.9895843  94.2571111 117.3518112  41.7155585  94.7984926
 109.1015808  46.5642644 107.1111668 109.4102934  46.3191790 107.9834367
 109.8991290  46.7689282 106.6230538 109.1236420  48.7180553  99.3417044
 108.6841410  48.2256932 100.0349901 109.8744537  48.1753521  99.1009120
 101.6028759  44.9092094  99.3441672 102.4286779  44.6095866  98.9640316
 101.2522811  44.1399717  99.7931461 106.5710292  44.2618562 101.4139346
 105.9490301  43.5989267 101.1141574 107.2415159  44.2879694 100.7312994
  99.8037364  42.8278421 100.3030606  98.9669272  42.4000595 100.1214607
  99.7761009  43.0210864 101.2401397 106.1323799  42.8122486  94.8897807
 106.2811919  43.4957950  94.2364479 106.9390242  42.7927576  95.4047262
 103.8876432  38.8387663  95.8958875 103.6422474  37.9349993  96.0939086
 104.0572346  38.8404814  94.9538353 103.1572079  34.5716021  93.3945037
 102.4641324  34.6460376  92.7385073 102.9123831  33.8076364  93.9166554
 109.6319204  45.3070616  92.3609554 109.0593172  45.9260803  91.9080026
 110.2051998  45.8569978  92.8949476 112.8516464  45.5907766  93.4918136
 113.7847137  45.5253328  93.6951012 112.7639677  46.4264033  93.0332669
 115.4804481  44.9073637  90.4522084 115.4018112  44.5733500  91.3457842
 116.3014148  45.3995404  90.4513556 110.0166003  36.6431429  89.7025606
 110.9625108  36.5137637  89.7714024 109.6380248  35.9046091  90.1795035
 108.2008920  34.5681405  89.6380492 107.2940375  34.2714518  89.7143205
 108.4784901  34.2711223  88.7714778  99.1186860  35.8887769 100.0879538
  98.7989645  35.0353077  99.7953912  98.5720289  36.1036347 100.8437505
 102.8966768  38.6050210 103.8049045 103.1152778  39.5367317 103.8237078
 103.3092542  38.2458184 104.5903848 109.8170986  29.1118295  95.7924733
 109.0071714  28.7665380  96.1679979 110.5055403  28.8025839  96.3812345
 111.7461534  28.1896342  97.4149030 112.2992573  28.6091795  98.0739053
 111.9831620  27.2632090  97.4571986 106.9707705  31.4268340  89.7792471
 107.8326869  31.7523239  90.0388288 107.1558049  30.6399836  89.2665537
  98.9875120  39.5090680 102.0572660  98.2938592  39.0944633 101.5442614
  99.7348111  39.5511217 101.4606079 115.1240341  30.2996867  96.9227694
 114.5439010  30.9581671  96.5405746 114.8576274  29.4774212  96.5115111
 100.9011863  39.4408934  99.9338675 100.8782551  39.5396621  98.9820558
 101.2112499  40.2874085 100.2555841 103.5599241  41.4985089 104.0485289
 104.5142494  41.4669031 103.9815221 103.3611764  41.0375713 104.8635515
 104.1498623  40.0686205 106.6156087 104.9691512  40.5630284 106.6390924
 104.4235431  39.1518173 106.5873654 113.9065219  32.4596957  95.9784042
 113.0191074  32.7446608  95.7604237 114.3219208  32.2990721  95.1311319
 101.9149470  47.0404708 101.0655487 101.7803938  46.2805109 100.4993485
 101.4981532  47.7645608 100.5984276 113.0508433  42.2241632  90.0732062
 113.7544283  42.4291634  90.6889718 112.3271081  42.7918394  90.3381146
 113.8806243  37.9751493  96.1934332 113.8241444  38.4320045  95.3541965
 114.4334585  37.2142178  96.0157175 117.6911049  33.7641225  97.0184452
 117.4347983  33.3637861  97.8492659 117.0663917  34.4785019  96.8934591
 105.0718596  47.9374025 101.2773929 104.9550980  48.8819458 101.1752620
 104.2511042  47.6347587 101.6659729 114.9595130  42.6624161  92.1230522
 115.7940734  42.2305360  91.9407997 114.7979473  42.4906175  93.0507417
 114.6141022  39.1656274  93.4886861 114.5589826  39.0000546  92.5475306
 113.9887078  39.8732307  93.6449051  99.4033537  34.4024339 107.3148284
 100.0492401  33.8923293 107.8035509  99.1950688  35.1393020 107.8891709
 107.9237148  28.6664383  93.0672180 107.9115818  29.6106223  93.2240451
 108.8160570  28.4834529  92.7731641 106.0973110  48.5902287 104.4929858
 107.0000356  48.6225898 104.8096353 105.8710480  47.6602738 104.5076194
 107.8526712  47.3433274 101.1539937 106.9022343  47.3435135 101.0404309
 108.1559198  46.5966008 100.6375971 120.3969111  53.1321240 102.1547224
 120.0587623  53.0162305 101.2667758 121.2658880  52.7312405 102.1348230
 116.2555927  54.9856717  98.1444115 115.6920792  54.8946654  97.3760402
 116.1408322  54.1656621  98.6246607 113.8020359  56.4807908 100.9828335
 114.5941651  56.1398733 100.5674634 114.0417009  56.5902883 101.9030488
 115.7611113  55.7416822  93.8545714 116.5341989  55.1945809  93.7158590
 116.1136512  56.6061071  94.0660175 117.5996156  57.0693204 107.0612613
 117.3086022  57.9738835 106.9459279 118.2353140  57.1109732 107.7756683
 118.5252362  54.4470052 103.6513973 119.1215935  54.2226075 102.9370936
 118.5827334  53.7054798 104.2539421 118.0977391  51.9009488  91.4864164
 118.3502912  51.3791009  90.7247627 117.1601950  51.7375633  91.5890847
 117.8173680  53.8037594  93.6888539 117.7009938  53.1282497  94.3569623
 117.9275939  53.3169968  92.8720692 120.1605221  53.2647741  97.3935228
 119.7963428  52.7378362  98.1048149 121.0172336  52.8746210  97.2201713
 119.8010707  48.2937641  92.3896576 119.9685110  49.1617877  92.7567047
 119.6107877  48.4564922  91.4657866 116.0098522  53.2068416 100.0899111
 115.0849019  53.0744630 100.2976803 116.2582935  53.9862636 100.5869054
 119.7799928  50.7495298  93.3743243 119.6599554  51.1952349  94.2128724
 119.0852517  51.0980616  92.8156781 113.3707333  52.8501690 100.9242900
 113.4999714  53.1036169 101.8382312 112.6904784  53.4429398 100.6047555
 117.5406820  63.5198940  97.0233375 117.4630850  64.4706765  97.1021855
 116.9368464  63.1744812  97.6808301 119.6382539  55.9416998  98.8587244
 120.1020884  56.2204701  98.0691866 119.3739337  55.0400442  98.6760335
 116.5306620  55.4888479 101.7967007 117.1007977  55.9175748 101.1584492
 117.1214732  55.2071064 102.4951193 118.5751425  52.0640150  95.6676809
 119.2775468  52.5161194  96.1350735 118.2432053  51.4223969  96.2956702
 112.3176759  50.3223703 100.9693943 111.5275813  50.5781231 100.4934053
 112.8088006  51.1372041 101.0745983 114.2691504  50.6868282  97.9277419
 113.4722667  50.7986976  98.4460915 114.0417096  51.0254934  97.0618310
 120.0997172  57.2112985 105.8759934 120.1641604  57.6733392 106.7118106
 119.3908096  56.5810350 106.0042244 110.6014462  50.5754193 103.4008933
 110.8522500  51.4601203 103.6666509 111.1374010  50.3958795 102.6284025
 119.8145189  58.8781093  95.7438914 119.6790864  59.7232628  96.1723762
 120.3555002  59.0800370  94.9804848 113.2674587  56.3956531  96.3166839
 113.7799107  57.1899781  96.4672404 113.9197300  55.6982821  96.2500441
 115.0769471  59.5122287  98.3989593 115.2536100  60.4340252  98.2110576
 115.8726305  59.1980706  98.8283972 114.3621828  51.5586919 108.2751756
 114.2475343  50.6572176 108.5758855 113.5066346  51.8050616 107.9236572
 116.2000787  61.0300461 104.3999935 116.7508212  60.9017524 103.6276929
 115.3612263  61.3295350 104.0494828 119.9967958  57.2951589 108.7444166
 120.5296295  56.5339877 108.5143474 119.4682039  57.0025240 109.4868320
 111.2323504  54.7245185  97.0926410 112.0698726  55.1342193  96.8760118
 111.4101771  53.7844627  97.0626604 120.7135047  47.2369967  97.8395481
 119.8576643  46.8476817  97.6601120 121.1261998  47.3161927  96.9795267
 118.4877079  44.8555039 101.2453223 119.3530076  44.6597848 100.8859112
 118.5554588  44.6265391 102.1722579 121.3620671  56.4237581  96.2562978
 120.8342032  55.6890341  95.9436215 120.8608173  57.2012257  96.0102946
 116.0939398  47.0857247  98.6169589 116.6683150  46.8632429  97.8842782
 116.6810381  47.1545942  99.3698191 116.4208985  49.1161708  92.6365475
 115.5846298  49.4536395  92.9574749 116.2813755  48.9810688  91.6992612
 118.3962066  43.9598496  97.3444659 117.7426478  43.6447513  96.7201274
 118.3542540  43.3374237  98.0704482 119.5073271  54.2417791  89.2597951
 118.6000333  54.0107045  89.4589100 120.0044303  53.4455411  89.4471933
 120.6861504  54.3430386  93.7821941 119.7772724  54.0589419  93.8794411
 120.7156588  54.7629465  92.9225248 111.2549675  52.0635900  97.7637143
 111.0574075  51.4705261  97.0388210 110.6996339  51.7588111  98.4813082
 119.2346398  51.9559007  99.8831736 119.2895008  51.0032843  99.8074213
 118.4237600  52.1118446 100.3673035 120.3837592  55.8839130  91.1210020
 119.9457022  55.1674989  90.6615657 121.1248033  56.1115245  90.5595111
 117.1738758  50.5736067  97.6422115 116.3606624  50.8730237  98.0487307
 117.6697752  50.1791755  98.3596598 119.3247336  60.5693824  99.5756380
 119.2823515  60.7954670  98.6464912 120.2410035  60.3357198  99.7242181
 116.6652833  48.1454422 103.2583350 117.3052212  48.0043181 102.5606314
 115.8330364  47.8588936 102.8821952 117.4413137  57.4456853  99.3718343
 118.2353735  56.9507173  99.1700918 116.7304829  56.9174716  99.0086048
 113.7495900  51.5899934  95.4478095 112.8193488  51.5284390  95.6648058
 113.8453372  51.0675887  94.6514737 113.6681449  48.1154747  98.0356337
 113.9288267  49.0300080  97.9265498 114.4898622  47.6479190  98.1852950
 115.1406375  49.5292504 105.2055162 115.8129428  49.3209866 104.5567811
 114.3136161  49.3314590 104.7660394 120.0184413  58.0185875 103.0516180
 119.8795499  57.6504659 103.9242118 119.2299009  58.5333514 102.8800138
 120.6132565  63.1194971  94.3941716 120.7884321  62.6483014  95.2087339
 119.9265353  63.7460737  94.6222977 121.5689628  57.3967477 100.4405018
 121.2339461  57.3568247 101.3362667 121.0693574  56.7312193  99.9675428
 115.5433872  52.8035107 105.9657599 115.4053670  52.0715346 106.5669138
 116.4538795  52.7144007 105.6841787 118.1716173  52.5155067 105.4541278
 118.8815791  51.8748259 105.4127897 118.1285481  52.7667961 106.3767459
 115.1793650  66.2684334 101.1681577 115.4190248  66.9002858 101.8460595
 114.3362847  65.9172374 101.4546936 116.2947366  48.9608936  89.8363382
 115.4176832  48.8397737  89.4725628 116.7705119  48.1695014  89.5842270
 107.8149506  53.7486096  99.9304889 108.5020546  53.4347826  99.3425904
 107.6597634  54.6527460  99.6572140 112.6184228  48.6376292 104.3589912
 112.5342417  48.0301962 103.6240322 111.7966934  49.1285310 104.3599409
 119.6921512  62.0763456 103.5723081 119.6191684  62.8818428 104.0842385
 119.2498905  62.2755422 102.7471102 119.4811292  61.3135226  97.0825902
 118.6978814  61.8556906  97.1764127 120.1804037  61.8309206  97.4820143
 119.3742911  49.2647239  99.4531792 119.0040698  48.7118279 100.1412698
 119.8702003  48.6605372  98.9006792 117.2032109  59.7244734 106.5486810
 117.9041569  60.3581217 106.7016204 116.7327224  60.0659465 105.7882449
 112.7999827  59.2581089 103.4817913 113.3853264  58.5124777 103.6145817
 112.6024666  59.5685045 104.3654577 115.6538482  62.2932336  98.4980355
 114.9848858  62.7778464  98.0144395 115.5151352  62.5401557  99.4123734
 107.3917482  51.8286689 102.2022356 107.4301581  51.2950280 102.9959474
 106.8857775  51.3021894 101.5833333 119.7943751  64.3276080 105.0963013
 120.3462059  64.4907701 105.8612099 120.1349944  64.9180517 104.4243038
 114.7708244  46.6751229 105.6984898 114.8349571  47.5366060 105.2862296
 114.7075364  46.0625231 104.9657257 111.0226059  50.5550791  95.2776287
 111.3179501  49.6461470  95.2243341 110.1214095  50.5338531  94.9557290
 114.5520306  48.6306788 101.2603836 113.8306892  49.2442755 101.1211309
 115.3413562  49.1664553 101.1820482 112.7513901  48.2364889  95.4015612
 112.4226607  47.3562268  95.2190718 113.1053272  48.1812557  96.2892002
 115.8655724  48.5237859  95.7691090 116.2051797  49.0523780  95.0469698
 116.3127845  48.8618265  96.5449657 117.8523871  47.0212480  93.9684383
 118.5732234  47.3993733  93.4648100 117.2289175  47.7401357  94.0719361
 116.7354216  50.6843342 101.4813460 116.5898796  50.9983645 102.3737741
 116.2579419  51.3028243 100.9284358 118.5950599  47.6745890 101.5294349
 118.5812167  46.7786984 101.1926647 119.3123027  47.6816554 102.1632635
 111.2099878  53.2248687 104.4201121 110.6653346  54.0008495 104.5521395
 112.0879228  53.5719491 104.2620242 117.9987494  46.5560271  96.7981919
 118.1203406  45.6276917  96.9972807 117.7089537  46.5698957  95.8860235
 120.8678685  44.2415181  99.9348639 120.8900382  44.3054514  98.9800619
 121.2846744  43.4019690 100.1289145 111.9965900  52.3518583 107.3131278
 111.2547636  52.5001218 107.8995908 111.6758644  52.6126849 106.4498027
 119.9409562  61.8934561 107.1111668 120.2496689  61.6483708 107.9834367
 120.7385044  62.0981200 106.6230538 119.9630174  64.0472471  99.3417044
 119.5235165  63.5548850 100.0349901 120.7138291  63.5045439  99.1009120
 112.4422513  60.2384012  99.3441672 113.2680533  59.9387784  98.9640316
 112.0916565  59.4691634  99.7931461 117.4104046  59.5910480 101.4139346
 116.7884056  58.9281185 101.1141574 118.0808913  59.6171612 100.7312994
 110.6431118  58.1570338 100.3030606 109.8063027  57.7292513 100.1214607
 110.6154764  58.3502782 101.2401397 116.9717553  58.1414403  94.8897807
 117.1205674  58.8249868  94.2364479 117.7783997  58.1219493  95.4047262
 114.7270186  54.1679581  95.8958875 114.4816228  53.2641911  96.0939086
 114.8966101  54.1696731  94.9538353 113.9965834  49.9007939  93.3945037
 113.3035079  49.9752294  92.7385073 113.7517586  49.1368282  93.9166554
 120.4712959  60.6362534  92.3609554 119.8986926  61.2552721  91.9080026
 121.0445753  61.1861895  92.8949476 119.0402675  49.8973323  89.6380492
 118.1334130  49.6006436  89.7143205 119.3178656  49.6003141  88.7714778
 109.9580615  51.2179686 100.0879538 109.6383399  50.3644995  99.7953912
 109.4114043  51.4328264 100.8437505 113.7360523  53.9342127 103.8049045
 113.9546532  54.8659235 103.8237078 114.1486296  53.5750102 104.5903848
 120.6564740  44.4410213  95.7924733 119.8465469  44.0957298  96.1679979
 121.3449157  44.1317756  96.3812345 117.8101459  46.7560258  89.7792471
 118.6720623  47.0815156  90.0388288 117.9951803  45.9691754  89.2665537
 109.8268875  54.8382598 102.0572660 109.1332346  54.4236551 101.5442614
 110.5741866  54.8803134 101.4606079 111.7405617  54.7700852  99.9338675
 111.7176306  54.8688539  98.9820558 112.0506254  55.6166002 100.2555841
 114.3992995  56.8277007 104.0485289 115.3536249  56.7960949 103.9815221
 114.2005519  56.3667630 104.8635515 114.9892377  55.3978123 106.6156087
 115.8085266  55.8922201 106.6390924 115.2629185  54.4810091 106.5873654
 112.7543224  62.3696626 101.0655487 112.6197692  61.6097027 100.4993485
 112.3375286  63.0937526 100.5984276 115.9112350  63.2665943 101.2773929
 115.7944734  64.2111376 101.1752620 115.0904796  62.9639505 101.6659729
 110.2427292  49.7316257 107.3148284 110.8886155  49.2215211 107.8035509
 110.0344443  50.4684938 107.8891709 118.7630902  43.9956301  93.0672180
 118.7509572  44.9398141  93.2240451 119.6554324  43.8126447  92.7731641
 116.9366864  63.9194205 104.4929858 117.8394111  63.9517815 104.8096353
 116.7104234  62.9894656 104.5076194 118.6920466  62.6725192 101.1539937
 117.7416097  62.6727053 101.0404309 118.9952952  61.9257926 100.6375971
 118.6543260  69.0778013  99.9304889 119.3414300  68.7639743  99.3425904
 118.4991389  69.9819378  99.6572140 118.2311236  67.1578607 102.2022356
 118.2695336  66.6242197 102.9959474 117.7251529  66.6313812 101.5833333
 121.4824873  73.4862256 100.3030606 120.6456781  73.0584430 100.1214607
 121.4548518  73.6794699 101.2401397 120.7974369  66.5471604 100.0879538
 120.4777154  65.6936912  99.7953912 120.2507798  66.7620182 100.8437505
 120.6662629  70.1674515 102.0572660 119.9726101  69.7528468 101.5442614
 121.4135620  70.2095052 101.4606079  95.8619313   9.8677227  83.7478681
  95.7843342  10.8185052  83.8267162  95.2580956   9.5223100  84.4053607
  93.5006142  12.6162621  87.8926883  93.7402741  13.2481145  88.5705902
  92.6575339  12.2650661  88.1792242  93.9750975   8.6410623  85.2225662
  93.3061350   9.1256751  84.7389702  93.8363844   8.8879844  86.1369040
  98.1156243  10.6754367  91.8208320  98.6674551  10.8385988  92.5857405
  98.4562437  11.2658805  91.1488345  91.0755716   8.7174913  87.7900793
  90.9410184   7.9575314  87.2238792  90.6587779   9.4415813  87.3229582
  94.2324842   9.6144230  88.0019236  94.1157226  10.5589663  87.8997926
  93.4117289   9.3117792  88.3905035  95.2579356  10.2672492  91.2175165
  96.1606603  10.2996103  91.5341660  95.0316726   9.3372943  91.2321500
 109.5575358  14.8091445  88.8792530 109.2193870  14.6932510  87.9913065
 110.4265126  14.4082610  88.8593536 105.4162174  16.6626922  84.8689421
 104.8527039  16.5716859  84.1005709 105.3014569  15.8426826  85.3491914
 102.9626606  18.1578113  87.7073642 103.7547898  17.8168938  87.2919941
 103.2023256  18.2673088  88.6275795 110.9961733  20.3297889  80.1803886
 110.3449712  20.9151970  79.7937900 111.7906095  20.8604084  80.2398924
 104.9217360  17.4187027  80.5791020 105.6948236  16.8716014  80.4403896
 105.2742759  18.2831276  80.7905482 106.7602402  18.7463409  93.7857920
 106.4692268  19.6509040  93.6704586 107.3959387  18.7879936  94.5001989
 107.6858609  16.1240257  90.3759279 108.2822181  15.8996280  89.6616242
 107.7433581  15.3825003  90.9784727 112.4736998  18.0188321  80.7172870
 111.8382831  18.0922948  81.4293775 112.1434404  18.6081920  80.0391950
 106.9779926  15.4807799  80.4133845 106.8616184  14.8052702  81.0814930
 107.0882186  14.9940173  79.5965998 109.3211467  14.9417946  84.1180535
 108.9569674  14.4148567  84.8293456 110.1778583  14.5516415  83.9447020
 111.7192287  18.4324824  90.7807713 111.4193011  19.3349863  90.6723521
 111.3743347  18.1657008  91.6328866 105.1704769  14.8838621  86.8144418
 104.2455265  14.7514835  87.0222110 105.4189182  15.6632840  87.3114360
 102.5313580  14.5271895  87.6488207 102.6605961  14.7806374  88.5627619
 101.8511031  15.1199603  87.3292862 106.7013067  25.1969145  83.7478681
 106.6237097  26.1476970  83.8267162 106.0974711  24.8515017  84.4053607
 113.2460824  17.8812795  88.3182465 112.6169686  18.0458509  87.6158533
 112.8586486  18.2954404  89.0893429 117.1250055  18.8167232  85.6726829
 116.4401094  19.1966134  85.1223862 117.2093905  19.4262559  86.4058777
 108.7988785  17.6187203  85.5832551 109.2627131  17.8974906  84.7937173
 108.5345584  16.7170647  85.4005641 105.6912867  17.1658684  88.5212314
 106.2614224  17.5945953  87.8829798 106.2820978  16.8841269  89.2196499
 101.4783005  11.9993908  87.6939249 100.6882059  12.2551436  87.2179360
 101.9694253  12.8142246  87.7991290 103.4297751  12.3638487  84.6522726
 102.6328914  12.4757181  85.1706222 103.2023343  12.7025139  83.7863616
 109.2603418  18.8883190  92.6005241 109.3247851  19.3503597  93.4363412
 108.5514342  18.2580555  92.7287550  99.7620708  12.2524398  90.1254240
 100.0128747  13.1371408  90.3911816 100.2980257  12.0729000  89.3529332
 108.9751436  20.5551298  82.4684221 108.8397111  21.4002833  82.8969069
 109.5161249  20.7570575  81.7050155 102.4280834  18.0726736  83.0412146
 102.9405354  18.8669986  83.1917711 103.0803546  17.3753026  82.9745747
 104.2375718  21.1892492  85.1234899 104.4142347  22.1110457  84.9355883
 105.0332552  20.8750911  85.5529279 103.5228075  13.2357124  94.9997062
 103.4081590  12.3342381  95.3004161 102.6672593  13.4820821  94.6481879
 105.3607034  22.7070666  91.1245241 105.9114459  22.5787729  90.3522235
 104.5218510  23.0065555  90.7740134 109.1574205  18.9721794  95.4689473
 109.6902542  18.2110082  95.2388781 108.6288286  18.6795445  96.2113627
 100.3929750  16.4015390  83.8171716 101.2304972  16.8112398  83.6005424
 100.5708018  15.4614832  83.7871910 110.5226917  18.1007786  82.9808285
 109.9948279  17.3660546  82.6681522 110.0214420  18.8782462  82.7348253
 115.5019763  16.2956807  88.0975331 114.8443438  16.9856068  88.1855460
 116.3060163  16.6853238  88.4409317 108.6679518  15.9187996  75.9843258
 107.7606579  15.6877250  76.1834407 109.1650550  15.1225616  76.1717239
 111.5747597  24.6285504  78.9039944 110.9009295  24.9317200  79.5124902
 111.9613418  25.4314584  78.5545401 109.8467751  16.0200591  80.5067248
 108.9378970  15.7359624  80.6039717 109.8762835  16.4399670  79.6470555
 115.0787018  19.6307181  84.2758415 114.6249346  18.7898091  84.3323606
 114.4480985  20.2668579  84.6133195 113.5219958  21.4683677  85.2108233
 113.8142932  22.0288734  84.4920599 114.0318578  21.7612238  85.9661393
 100.4155921  13.7406105  84.4882450 100.2180321  13.1475466  83.7633517
  99.8602585  13.4358315  85.2058389 109.5443839  17.5609335  77.8455326
 109.1063269  16.8445194  77.3860964 110.2854280  17.7885450  77.2840418
 108.4853583  22.2464028  86.3001687 108.4429762  22.4724875  85.3710219
 109.4016282  22.0127403  86.4487488 106.6019384  19.1227057  86.0963649
 107.3959982  18.6277378  85.8946224 105.8911076  18.5944921  85.7331355
 111.4214228  21.5045153  90.4476017 111.4751250  22.0736089  91.2153733
 110.5529010  21.6747038  90.0830054 102.9102147  13.2670139  82.1723402
 101.9799735  13.2054595  82.3893364 103.0059619  12.7446092  81.3760043
 110.3802328  15.6705415  92.0062949 111.3094388  15.8216575  91.8331916
 109.9593358  15.7589436  91.1511595 109.1790660  19.6956079  89.7761486
 109.0401745  19.3274864  90.6487425 108.3905256  20.2103719  89.6045444
 109.7738812  24.7965176  81.1187023 109.9490567  24.3253219  81.9332646
 109.0871600  25.4230942  81.3468284 110.7295875  19.0737682  87.1650324
 110.3945707  19.0338452  88.0607974 110.2299821  18.4082398  86.6920734
 104.7040119  14.4805312  92.6902905 104.5659917  13.7485551  93.2914444
 105.6145042  14.3914212  92.4087093 113.6655066  16.4193716  77.4387384
 113.0484237  15.6940545  77.3420437 113.1971555  17.1803077  77.0954458
 107.3322419  14.1925272  92.1786585 108.0422038  13.5518464  92.1373203
 107.2891728  14.4438166  93.1012766 104.3399897  27.9454539  87.8926883
 104.5796495  28.5773063  88.5705902 103.4969093  27.5942579  88.1792242
  96.9755753  15.4256301  86.6550195  97.6626792  15.1118031  86.0671211
  96.8203881  16.3297665  86.3817447 108.8527759  23.7533661  90.2968387
 108.7797930  24.5588633  90.8087692 108.4105152  23.9525627  89.4716409
 108.6417538  22.9905431  83.8071209 107.8585060  23.5327111  83.9009433
 109.3410284  23.5079411  84.2065450 111.3126442  23.6520495  92.4526546
 112.0254415  24.2867960  92.3802447 110.8216471  23.7484361  91.6366548
 113.0343969  17.5571748  84.0243837 112.1000248  17.6773210  83.8548542
 113.2120638  16.6544215  83.7603847 106.3638356  21.4014939  93.2732117
 107.0647815  22.0351422  93.4261511 105.8933471  21.7429670  92.5127756
 114.4892752  19.7432888  81.5580024 114.7652596  19.6289483  82.4673898
 113.6197250  19.3450373  81.5192197 111.1246816  23.9919239  85.2012837
 111.3069210  23.1740895  85.6640590 111.9479802  24.2086932  84.7637727
 111.4588981  22.9187424  82.4627886 111.9876748  22.4079879  81.8498048
 111.7217201  22.6029955  83.3273419 101.9606074  20.9351294  90.2063219
 102.5459511  20.1894982  90.3391124 101.7630912  21.2455250  91.0899883
 104.8144729  23.9702541  85.2225662 104.1455104  24.4548669  84.7389702
 104.6757599  24.2171762  86.1369040  96.5523729  13.5056894  88.9267662
  96.5907828  12.9720485  89.7204781  96.0464021  12.9792099  88.3078640
 108.9549998  26.0046285  91.8208320 109.5068306  26.1677906  92.5857405
 109.2956191  26.5950722  91.1488345 100.1832306  12.2320996  82.0021594
 100.4785747  11.3231674  81.9488648  99.2820342  12.2108735  81.6802596
 112.0918385  23.9528260  88.8072002 111.9669524  23.1518000  88.2982948
 112.7497476  24.4474453  88.3185972 114.1553293  21.7537280  90.4351552
 113.2083629  21.6342631  90.3629879 114.5036067  20.8659778  90.5177814
 111.1599727  21.5489996  86.6355905 111.0124689  20.6206704  86.8163475
 111.9853220  21.5710087  86.1512980 114.7633849  22.3718555  87.7220777
 115.6880396  22.1661416  87.5845228 114.5949152  22.1234956  88.6310119
 114.5529165  22.8904223  83.0782869 114.7266042  22.3250645  82.3256721
 115.0458056  23.6905117  82.8962359 100.3706125  14.9018892  91.1446428
  99.8259593  15.6778700  91.2766702 101.2485474  15.2489696  90.9865549
 115.5404337  22.2070987  80.1779767 116.2355242  22.8277680  80.3967082
 115.8827487  21.3566338  80.4532145 101.1572146  14.0288788  94.0376584
 100.4153882  14.1771423  94.6241215 100.8364891  14.2897054  93.1743334
 117.4395760  19.6570693  81.7067098 117.9647084  19.9957965  80.9816418
 117.3518113  18.7217708  81.5230232 109.1015809  23.5704766  93.8356974
 109.4102935  23.3253913  94.7079674 109.8991291  23.7751405  93.3475845
 109.1236421  25.7242676  86.0662351 108.6841411  25.2319055  86.7595208
 109.8744538  25.1815643  85.8254426 101.6028760  21.9154217  86.0686979
 102.4286780  21.6157989  85.6885623 101.2522812  21.1461839  86.5176768
 106.5710293  21.2680685  88.1384653 105.9490303  20.6051390  87.8386880
 107.2415160  21.2941817  87.4558300  99.8037365  19.8340543  87.0275913
  98.9669273  19.4062717  86.8459914  99.7761011  20.0272986  87.9646704
 106.1323800  19.8184608  81.6143113 106.2811921  20.5020073  80.9609786
 106.9390244  19.7989698  82.1292569 103.8876433  15.8449786  82.6204182
 103.6422475  14.9412116  82.8184392 104.0572348  15.8466936  81.6783660
 109.6319206  22.3132739  79.0854861 109.0593173  22.9322926  78.6325332
 110.2051999  22.8632100  79.6194783 112.8516465  22.5969889  80.2163443
 113.7847139  22.5315450  80.4196318 112.7639678  23.4326156  79.7577976
 115.4804482  21.9135759  77.1767390 115.4018114  21.5795623  78.0703148
 116.3014149  22.4057527  77.1758863  99.1186862  12.8949891  86.8124845
  98.7989646  12.0415199  86.5199219  98.5720290  13.1098469  87.5682812
 102.8966769  15.6112332  90.5294351 103.1152779  16.5429440  90.5482385
 103.3092543  15.2520307  91.3149155  98.9875122  16.5152803  88.7817966
  98.2938593  16.1006756  88.2687921  99.7348113  16.5573339  88.1851385
 100.9011864  16.4471057  86.6583981 100.8782552  16.5458744  85.7065864
 101.2112501  17.2936207  86.9801147 103.5599242  18.5047212  90.7730596
 104.5142496  18.4731154  90.7060527 103.3611766  18.0437835  91.5880822
 104.1498624  17.0748328  93.3401393 104.9691513  17.5692406  93.3636231
 104.4235432  16.1580296  93.3118961 101.9149471  24.0466831  87.7900793
 101.7803939  23.2867232  87.2238792 101.4981533  24.7707731  87.3229582
 113.0508434  19.2303755  76.7977369 113.7544284  19.4353757  77.4135024
 112.3271083  19.7980516  77.0626452 105.0718597  24.9436148  88.0019236
 104.9550981  25.8881581  87.8997926 104.2511043  24.6409710  88.3905035
 114.9595131  19.6686284  78.8475829 115.7940735  19.2367482  78.6653304
 114.7979474  19.4968297  79.7752723 114.6141024  16.1718397  80.2132168
 114.5589827  16.0062669  79.2720612 113.9887079  16.8794430  80.3694358
  99.4033538  11.4086461  94.0393590 100.0492402  10.8985415  94.5280816
  99.1950690  12.1455143  94.6137016 106.0973111  25.5964410  91.2175165
 107.0000358  25.6288020  91.5341660 105.8710481  24.6664861  91.2321500
 107.8526713  24.3495396  87.8785243 106.9022344  24.3497258  87.7649615
 108.1559199  23.6028131  87.3621278 120.3969113  30.1383363  88.8792530
 120.0587624  30.0224428  87.9913065 121.2658881  29.7374528  88.8593536
 116.2555928  31.9918839  84.8689421 115.6920794  31.9008776  84.1005709
 116.1408323  31.1718744  85.3491914 113.8020360  33.4870031  87.7073642
 114.5941652  33.1460856  87.2919941 114.0417010  33.5965006  88.6275795
 115.7611114  32.7478944  80.5791020 116.5341990  32.2007931  80.4403896
 116.1136513  33.6123194  80.7905482 117.5996157  34.0755327  93.7857920
 117.3086023  34.9800957  93.6704586 118.2353141  34.1171854  94.5001989
 118.5252364  31.4532175  90.3759279 119.1215936  31.2288197  89.6616242
 118.5827335  30.7116921  90.9784727 118.0977392  28.9071610  78.2109470
 118.3502913  28.3853132  77.4492933 117.1601951  28.7437756  78.3136154
 117.8173681  30.8099716  80.4133845 117.7009939  30.1344620  81.0814930
 117.9275941  30.3232090  79.5965998 120.1605222  30.2709863  84.1180535
 119.7963429  29.7440484  84.8293456 121.0172338  29.8808332  83.9447020
 119.8010709  25.2999763  79.1141883 119.9685111  26.1680000  79.4812354
 119.6107878  25.4627045  78.1903172 116.0098523  30.2130539  86.8144418
 115.0849020  30.0806753  87.0222110 116.2582937  30.9924758  87.3114360
 119.7799930  27.7557421  80.0988550 119.6599555  28.2014471  80.9374030
 119.0852518  28.1042738  79.5402088 113.3707334  29.8563812  87.6488207
 113.4999716  30.1098291  88.5627619 112.6904786  30.4491520  87.3292862
 117.5406822  40.5261062  83.7478681 117.4630851  41.4768887  83.8267162
 116.9368465  40.1806935  84.4053607 119.6382540  32.9479120  85.5832551
 120.1020885  33.2266823  84.7937173 119.3739338  32.0462565  85.4005641
 116.5306621  32.4950602  88.5212314 117.1007978  32.9237870  87.8829798
 117.1214733  32.2133187  89.2196499 118.5751426  29.0702273  82.3922116
 119.2775469  29.5223316  82.8596042 118.2432055  28.4286092  83.0202009
 112.3176760  27.3285825  87.6939249 111.5275814  27.5843354  87.2179360
 112.8088007  28.1434163  87.7991290 114.2691505  27.6930405  84.6522726
 113.4722669  27.8049099  85.1706222 114.0417098  28.0317057  83.7863616
 120.0997173  34.2175108  92.6005241 120.1641605  34.6795515  93.4363412
 119.3908097  33.5872473  92.7287550 110.6014463  27.5816316  90.1254240
 110.8522501  28.4663326  90.3911816 111.1374011  27.4020917  89.3529332
 119.8145191  35.8843215  82.4684221 119.6790865  36.7294751  82.8969069
 120.3555003  36.0862493  81.7050155 113.2674588  33.4018653  83.0412146
 113.7799109  34.1961904  83.1917711 113.9197301  32.7044944  82.9745747
 115.0769473  36.5184410  85.1234899 115.2536101  37.4402374  84.9355883
 115.8726306  36.2042829  85.5529279 114.3621829  28.5649042  94.9997062
 114.2475344  27.6634299  95.3004161 113.5066347  28.8112738  94.6481879
 116.2000788  38.0362583  91.1245241 116.7508213  37.9079647  90.3522235
 115.3612264  38.3357472  90.7740134 119.9967959  34.3013711  95.4689473
 120.5296296  33.5401999  95.2388781 119.4682040  34.0087363  96.2113627
 111.2323505  31.7307308  83.8171716 112.0698727  32.1404316  83.6005424
 111.4101773  30.7906750  83.7871910 120.7135048  24.2432089  84.5640788
 119.8576644  23.8538939  84.3846427 121.1262000  24.3224050  83.7040573
 118.4877080  21.8617162  87.9698529 119.3530077  21.6659971  87.6104419
 118.5554589  21.6327514  88.8967886 121.3620672  33.4299704  82.9808285
 120.8342034  32.6952463  82.6681522 120.8608175  34.2074380  82.7348253
 116.0939400  24.0919370  85.3414896 116.6683151  23.8694552  84.6088089
 116.6810382  24.1608065  86.0943497 116.4208987  26.1223831  79.3610781
 115.5846299  26.4598518  79.6820056 116.2813756  25.9872811  78.4237918
 118.3962067  20.9660619  84.0689966 117.7426480  20.6509636  83.4446580
 118.3542541  20.3436359  84.7949788 119.5073272  31.2479914  75.9843258
 118.6000334  31.0169167  76.1834407 120.0044304  30.4517533  76.1717239
 120.6861506  31.3492509  80.5067248 119.7772725  31.0651542  80.6039717
 120.7156589  31.7691587  79.6470555 111.2549676  29.0698023  84.4882450
 111.0574076  28.4767384  83.7633517 110.6996340  28.7650233  85.2058389
 119.2346400  28.9621129  86.6077043 119.2895009  28.0094966  86.5319520
 118.4237602  29.1180569  87.0918342 120.3837593  32.8901253  77.8455326
 119.9457023  32.1737111  77.3860964 121.1248034  33.1177367  77.2840418
 117.1738760  27.5798189  84.3667422 116.3606625  27.8792360  84.7732614
 117.6697754  27.1853878  85.0841904 119.3247337  37.5755946  86.3001687
 119.2823516  37.8016792  85.3710219 120.2410036  37.3419321  86.4487488
 116.6652834  25.1516545  89.9828657 117.3052214  25.0105304  89.2851620
 115.8330365  24.8651058  89.6067259 117.4413138  34.4518975  86.0963649
 118.2353737  33.9569295  85.8946224 116.7304831  33.9236838  85.7331355
 113.7495902  28.5962057  82.1723402 112.8193490  28.5346512  82.3893364
 113.8453374  28.0738010  81.3760043 113.6681451  25.1216870  84.7601644
 113.9288268  26.0362203  84.6510804 114.4898623  24.6541312  84.9098257
 115.1406376  26.5354627  91.9300468 115.8129429  26.3271989  91.2813117
 114.3136163  26.3376713  91.4905701 120.0184414  35.0247997  89.7761486
 119.8795500  34.6566782  90.6487425 119.2299010  35.5395637  89.6045444
 120.6132566  40.1257094  81.1187023 120.7884322  39.6545137  81.9332646
 119.9265354  40.7522860  81.3468284 121.5689629  34.4029600  87.1650324
 121.2339462  34.3630370  88.0607974 121.0693575  33.7374316  86.6920734
 115.5433873  29.8097230  92.6902905 115.4053671  29.0777469  93.2914444
 116.4538797  29.7206130  92.4087093 118.1716174  29.5217189  92.1786585
 118.8815792  28.8810381  92.1373203 118.1285482  29.7730084  93.1012766
 115.1793651  43.2746456  87.8926883 115.4190250  43.9064981  88.5705902
 114.3362848  42.9234496  88.1792242 116.2947367  25.9671058  76.5608688
 115.4176833  25.8459859  76.1970935 116.7705120  25.1757137  76.3087577
 107.8149507  30.7548218  86.6550195 108.5020547  30.4409948  86.0671211
 107.6597636  31.6589583  86.3817447 112.6184229  25.6438415  91.0835219
 112.5342418  25.0364084  90.3485629 111.7966936  26.1347433  91.0844715
 119.6921513  39.0825579  90.2968387 119.6191685  39.8880550  90.8087692
 119.2498906  39.2817545  89.4716409 119.4811293  38.3197349  83.8071209
 118.6978815  38.8619029  83.9009433 120.1804038  38.8371328  84.2065450
 119.3742912  26.2709361  86.1777099 119.0040699  25.7180402  86.8658004
 119.8702004  25.6667495  85.6252099 117.2032110  36.7306856  93.2732117
 117.9041570  37.3643339  93.4261511 116.7327225  37.0721588  92.5127756
 112.7999828  36.2643211  90.2063219 113.3853265  35.5186899  90.3391124
 112.6024667  36.5747168  91.0899883 115.6538484  39.2994459  85.2225662
 114.9848859  39.7840586  84.7389702 115.5151353  39.5463679  86.1369040
 107.3917483  28.8348812  88.9267662 107.4301583  28.3012402  89.7204781
 106.8857776  28.3084017  88.3078640 119.7943752  41.3338202  91.8208320
 120.3462060  41.4969824  92.5857405 120.1349946  41.9242640  91.1488345
 114.7708245  23.6813352  92.4230205 114.8349572  24.5428183  92.0107602
 114.7075366  23.0687354  91.6902563 111.0226061  27.5612914  82.0021594
 111.3179502  26.6523592  81.9488648 110.1214096  27.5400653  81.6802596
 114.5520308  25.6368910  87.9849142 113.8306893  26.2504878  87.8456616
 115.3413563  26.1726675  87.9065788 112.7513902  25.2427011  82.1260919
 112.4226608  24.3624390  81.9436025 113.1053273  25.1874680  83.0137308
 115.8655725  25.5299981  82.4936397 116.2051798  26.0585902  81.7715005
 116.3127846  25.8680387  83.2694963 117.8523873  24.0274603  80.6929689
 118.5732235  24.4055856  80.1893406 117.2289177  24.7463480  80.7964667
 116.7354217  27.6905465  88.2058766 116.5898798  28.0045768  89.0983048
 116.2579421  28.3090365  87.6529665 118.5950600  24.6808013  88.2539656
 118.5812169  23.7849106  87.9171954 119.3123028  24.6878677  88.8877942
 111.2099879  30.2310809  91.1446428 110.6653347  31.0070617  91.2766702
 112.0879229  30.5781614  90.9865549 117.9987496  23.5622393  83.5227226
 118.1203407  22.6339039  83.7218114 117.7089538  23.5761079  82.6105541
 120.8678686  21.2477304  86.6593946 120.8900383  21.3116637  85.7045925
 121.2846745  20.4081812  86.8534452 111.9965901  29.3580706  94.0376584
 111.2547637  29.5063341  94.6241215 111.6758645  29.6188971  93.1743334
 119.9409564  38.8996684  93.8356974 120.2496690  38.6545831  94.7079674
 120.7385046  39.1043322  93.3475845 119.9630176  41.0534593  86.0662351
 119.5235166  40.5610972  86.7595208 120.7138293  40.5107561  85.8254426
 112.4422515  37.2446134  86.0686979 113.2680534  36.9449906  85.6885623
 112.0916567  36.4753757  86.5176768 117.4104048  36.5972603  88.1384653
 116.7884057  35.9343308  87.8386880 118.0808915  36.6233734  87.4558300
 110.6431120  35.1632461  87.0275913 109.8063028  34.7354635  86.8459914
 110.6154765  35.3564904  87.9646704 116.9717555  35.1476526  81.6143113
 117.1205675  35.8311990  80.9609786 117.7783998  35.1281616  82.1292569
 114.7270188  31.1741704  82.6204182 114.4816230  30.2704034  82.8184392
 114.8966102  31.1758854  81.6783660 113.9965835  26.9070061  80.1190344
 113.3035080  26.9814416  79.4630380 113.7517587  26.1430405  80.6411860
 120.4712960  37.6424656  79.0854861 119.8986927  38.2614844  78.6325332
 121.0445754  38.1924018  79.6194783 119.0402676  26.9035446  76.3625798
 118.1334131  26.6068558  76.4388512 119.3178657  26.6065264  75.4960085
 109.9580616  28.2241809  86.8124845 109.6383401  27.3707117  86.5199219
 109.4114044  28.4390387  87.5682812 113.7360524  30.9404250  90.5294351
 113.9546534  31.8721358  90.5482385 114.1486298  30.5812224  91.3149155
 120.6564742  21.4472335  82.5170040 119.8465470  21.1019420  82.8925286
 121.3449158  21.1379879  83.1057651 117.8101460  23.7622381  76.5037778
 118.6720624  24.0877279  76.7633595 117.9951805  22.9753877  75.9910843
 109.8268876  31.8444720  88.7817966 109.1332348  31.4298673  88.2687921
 110.5741867  31.8865257  88.1851385 111.7405619  31.7762974  86.6583981
 111.7176307  31.8750661  85.7065864 112.0506255  32.6228125  86.9801147
 114.3992997  33.8339129  90.7730596 115.3536250  33.8023072  90.7060527
 114.2005520  33.3729753  91.5880822 114.9892379  32.4040245  93.3401393
 115.8085268  32.8984324  93.3636231 115.2629186  31.4872213  93.3118961
 112.7543225  39.3758749  87.7900793 112.6197693  38.6159150  87.2238792
 112.3375288  40.0999649  87.3229582 115.9112351  40.2728066  88.0019236
 115.7944735  41.2173498  87.8997926 115.0904798  39.9701627  88.3905035
 110.2427293  26.7378379  94.0393590 110.8886157  26.2277333  94.5280816
 110.0344444  27.4747061  94.6137016 118.7630903  21.0018424  79.7917487
 118.7509573  21.9460264  79.9485757 119.6554325  20.8188569  79.4976948
 116.9366865  40.9256328  91.2175165 117.8394112  40.9579938  91.5341660
 116.7104235  39.9956779  91.2321500 118.6920467  39.6787314  87.8785243
 117.7416098  39.6789176  87.7649615 118.9952954  38.9320049  87.3621278
 118.6543262  46.0840136  86.6550195 119.3414301  45.7701866  86.0671211
 118.4991390  46.9881501  86.3817447 118.2311238  44.1640729  88.9267662
 118.2695337  43.6304320  89.7204781 117.7251530  43.6375935  88.3078640
 121.4824874  50.4924378  87.0275913 120.6456782  50.0646553  86.8459914
 121.4548520  50.6856822  87.9646704 120.7974371  43.5533727  86.8124845
 120.4777155  42.6999035  86.5199219 120.2507799  43.7682305  87.5682812
 120.6662631  47.1736638  88.7817966 119.9726102  46.7590591  88.2687921
 121.4135622  47.2157175  88.1851385 117.5406823  17.5323185  70.4723988
 117.4630853  18.4831010  70.5512468 116.9368467  17.1869057  71.1298914
 115.1793653  20.2808579  74.6172190 115.4190251  20.9127103  75.2951208
 114.3362849  19.9296619  74.9037549 115.6538485  16.3056581  71.9470968
 114.9848860  16.7902709  71.4635008 115.5151355  16.5525802  72.8614347
 119.7943753  18.3400325  78.5453627 120.3462062  18.5031946  79.3102712
 120.1349947  18.9304763  77.8733652 112.7543227  16.3820871  74.5146100
 112.6197695  15.6221272  73.9484098 112.3375289  17.1061771  74.0474889
 115.9112353  17.2790188  74.7264543 115.7944737  18.2235621  74.6243233
 115.0904799  16.9763750  75.1150342 116.9366867  17.9318450  77.9420471
 117.8394113  17.9642060  78.2586966 116.7104237  17.0018901  77.9566807
 118.6543263  23.0902258  73.3795502 119.3414303  22.7763989  72.7916517
 118.4991391  23.9943623  73.1062753 118.2311239  21.1702852  75.6512969
 118.2695338  20.6366443  76.4450087 117.7251532  20.6438057  75.0323946
 121.4824875  27.4986501  73.7521219 120.6456784  27.0708675  73.5705221
 121.4548521  27.6918944  74.6892010 120.7974372  20.5595849  73.5370151
 120.4777156  19.7061157  73.2444525 120.2507800  20.7744427  74.2928119
 120.6662632  24.1798761  75.5063273 119.9726103  23.7652713  74.9933227
 121.4135623  24.2219297  74.9096692  46.5385065  70.6161260 132.0058714
  45.8646763  70.9192957 132.6143672  46.9250887  71.4190340 131.6564171
  50.5041805  68.1946744 133.2798537  51.1992710  68.8153436 133.4985852
  50.8464955  67.3442095 133.5550915  44.5956674  68.3008495 132.1873631
  44.0230641  68.9198682 131.7344103  45.1689467  68.8507857 132.7213553
  47.8153933  68.5845645 133.3182213  48.7484607  68.5191207 133.5215089
  47.7277146  69.4201912 132.8596746  50.4441950  67.9011516 130.2786161
  50.3655582  67.5671379 131.1721919  51.2651617  68.3933284 130.2777633
  48.0145902  65.2179511 129.8996139  48.7181752  65.4229514 130.5153795
  47.2908551  65.7856273 130.1645223  49.9232599  65.6562040 131.9494599
  50.7578203  65.2243239 131.7672074  49.7616942  65.4844054 132.8771494
  51.3846455  72.1099588 132.4629552  50.5483767  72.4474274 132.7838826
  51.2451224  71.9748567 131.5256689  51.2584835  71.9546815 129.6627459
  50.3814301  71.8335616 129.2989705  51.7342588  71.1632893 129.4106347
  48.9603303  72.8945818 133.2209114  48.2672548  72.9690173 132.5649150
  48.7155055  72.1306161 133.7430631  54.0040144  72.8911202 129.4644569
  53.0971599  72.5944315 129.5407282  54.2816125  72.5941020 128.5978855
  52.7738928  69.7498137 129.6056548  53.6358092  70.0753036 129.8652365
  52.9589273  68.9629633 129.0929614  53.7268371  66.9894180 132.8936257
  53.7147041  67.9336020 133.0504528  54.6191793  66.8064326 132.5995718
  46.5385066  47.6223383 118.7304021  45.8646765  47.9255079 119.3388979
  46.9250888  48.4252463 118.3809478  50.5041807  45.2008866 120.0043844
  51.1992711  45.8215559 120.2231159  50.8464957  44.3504217 120.2796222
  44.5956675  45.3070618 118.9118938  44.0230642  45.9260805 118.4589409
  45.1689469  45.8569980 119.4458860  47.8153935  45.5907768 120.0427520
  48.7484608  45.5253330 120.2460395  47.7277148  46.4264035 119.5842053
  50.4441951  44.9073638 117.0031467  50.3655583  44.5733502 117.8967225
  51.2651618  45.3995406 117.0022940  48.0145903  42.2241634 116.6241446
  48.7181753  42.4291636 117.2399101  47.2908552  42.7918396 116.8890529
  49.9232601  42.6624163 118.6739906  50.7578205  42.2305361 118.4917381
  49.7616944  42.4906177 119.6016800  58.5516876  53.1793814 128.7695083
  59.1895286  53.0600561 128.0658423  58.4337719  54.1274658 128.8283035
  51.2193398  54.9856719 124.6953498  50.6558263  54.8946656 123.9269786
  51.1045793  54.1656623 125.1755991  56.7992956  58.6527686 120.0067963
  56.1480936  59.2381767 119.6201977  57.5937319  59.1833881 120.0663001
  50.7248584  55.7416823 120.4055097  51.4979460  55.1945811 120.2667973
  51.0773982  56.6061073 120.6169559  53.0614861  51.9009490 118.0373547
  53.3140382  51.3791011 117.2757010  52.1239420  51.7375635 118.1400231
  58.1058144  50.9045268 125.8448291  58.8921233  50.4864691 125.4938708
  58.3696849  51.8091360 126.0129939  58.2768222  56.3418118 120.5436947
  57.6414055  56.4152745 121.2557852  57.9465628  56.9311717 119.8656027
  63.5066571  50.8420501 126.7481269  64.2391743  50.2719718 126.9819099
  62.7505927  50.4542102 127.1887775  52.7811150  53.8037596 120.2397922
  52.6647408  53.1282499 120.9079007  52.8913410  53.3169969 119.4230075
  55.1242691  53.2647743 123.9444612  54.7600898  52.7378364 124.6557533
  55.9809807  52.8746212 123.7711097  54.7648178  48.2937642 118.9405960
  54.9322580  49.1617879 119.3076431  54.5745347  48.4564924 118.0167249
  54.7437399  50.7495300 119.9252627  54.6237024  51.1952351 120.7638107
  54.0489987  51.0980617 119.3666165  52.5044291  63.5198942 123.5742758
  52.4268321  64.4706767 123.6531239  51.9005935  63.1744814 124.2317684
  60.4422465  51.2216773 120.7532961  61.3540321  51.4544160 120.5780659
  59.9332112  51.8053817 120.1908040  59.0492047  56.2042591 128.1446542
  58.4200910  56.3688306 127.4422610  58.6617709  56.6184201 128.9157506
  62.9281279  57.1397029 125.4990906  62.2432317  57.5195931 124.9487939
  63.0125129  57.7492356 126.2322854  54.6020009  55.9417000 125.4096628
  55.0658355  56.2204703 124.6201250  54.3376807  55.0400444 125.2269718
  53.5388895  52.0640152 122.2186193  54.2412939  52.5161196 122.6860119
  53.2069524  51.4223971 122.8466086  61.2978039  57.6628944 130.2708607
  62.1195483  57.2609131 129.9891289  61.2940442  57.5597178 131.2224723
  69.3884032  54.0067692 126.6193579  68.6347740  53.4375090 126.4637583
  69.5231573  53.9730357 127.5664213  54.7782660  58.8781095 122.2948298
  54.6428335  59.7232630 122.7233146  55.3192472  59.0800372 121.5314232
  48.2312057  56.3956533 122.8676223  48.7436578  57.1899783 123.0181788
  48.8834770  55.6982823 122.8009824  50.0406942  59.5122289 124.9498976
  50.2173570  60.4340254 124.7619960  50.8363776  59.1980708 125.3793356
  51.1638257  61.0300463 130.9509318  51.7145683  60.9017526 130.1786312
  50.3249733  61.3295352 130.6004211  46.1960974  54.7245187 123.6435794
  47.0336196  55.1342195 123.4269501  46.3739242  53.7844629 123.6135987
  58.0925406  52.3920267 119.3319626  57.5772030  53.1624872 119.5708014
  57.8202715  51.7185404 119.9552688  55.6772517  47.2369968 124.3904865
  54.8214114  46.8476819 124.2110504  56.0899469  47.3161929 123.5304650
  63.0659680  55.1452622 121.2672800  62.2889123  54.8063782 120.8227962
  63.7451161  55.1505245 120.5927765  57.8811709  50.2647360 121.1579408
  57.5761845  50.5793509 122.0089551  58.8342152  50.3428779 121.2006741
  56.3258141  56.4237583 122.8072362  55.7979503  55.6890342 122.4945599
  55.8245644  57.2012259 122.5612330  61.3050987  54.6186603 127.9239408
  60.6474662  55.3085865 128.0119537  62.1091386  55.0083035 128.2673394
  60.1156446  52.9730976 125.9743350  60.6288328  53.6060968 126.4765059
  60.7657670  52.3732172 125.6086710  51.3846456  49.1161710 119.1874858
  50.5483768  49.4536397 119.5084133  51.2451226  48.9810690 118.2501995
  54.4710741  54.2417793 115.8107335  53.5637803  54.0107047 116.0098484
  54.9681773  53.4455412 115.9981316  57.3778820  62.9515300 118.7304021
  56.7040519  63.2546997 119.3388979  57.7644642  63.7544381 118.3809478
  57.3772325  51.8471847 123.3504370  58.1244144  52.3593245 123.0411493
  57.6463914  51.5255900 124.2108764  55.6498975  54.3430388 120.3331325
  54.7410194  54.0589421 120.4303794  55.6794059  54.7629467 119.4734632
  60.8818242  57.9536978 124.1022492  60.4280569  57.1127887 124.1587683
  60.2512209  58.5898376 124.4397272  59.8251162  48.8828964 125.3323160
  59.0873919  48.3706350 125.6633402  60.0777935  48.4429345 124.5206437
  59.3251182  59.7913474 125.0372310  59.6174156  60.3518531 124.3184676
  59.8349802  60.0842035 125.7925470  54.1983869  51.9559009 126.4341120
  54.2532479  51.0032845 126.3583597  53.3875071  52.1118448 126.9182419
  55.3475063  55.8839132 117.6719403  54.9094493  55.1674991 117.2125041
  56.0885504  56.1115247 117.1104495  52.1376229  50.5736068 124.1931499
  51.3244094  50.8730239 124.5996691  52.6335223  50.1791757 124.9105981
  54.2884807  60.5693825 126.1265764  54.2460985  60.7954672 125.1974296
  55.2047506  60.3357200 126.2751565  63.4648177  54.1596329 123.7295722
  63.3266076  54.3497925 122.8016911  63.1084396  54.9215712 124.1863773
  63.4917557  56.2272856 128.7406993  63.9254064  56.1348145 129.5890047
  64.2049138  56.2030356 128.1027009  52.4050607  57.4456854 125.9227726
  53.1991206  56.9507174 125.7210301  51.6942300  56.9174717 125.5595432
  57.2245452  59.8274950 130.2740094  57.2782474  60.3965886 131.0417810
  56.3560233  59.9976835 129.9094131  48.7133371  51.5899936 121.9987479
  47.7830959  51.5284392 122.2157441  48.8090843  51.0675889 121.2024120
  64.3533107  56.2696556 131.2739879  64.5468997  57.1742367 131.5199154
  64.2533725  55.8103975 132.1078464  54.9821883  58.0185876 129.6025563
  54.8432969  57.6504661 130.4751502  54.1936480  58.5333516 129.4309521
  55.5770035  63.1194973 120.9451100  55.7521791  62.6483016 121.7596723
  54.8902823  63.7460739 121.1732361  56.5327099  57.3967479 126.9914401
  56.1976931  57.3568249 127.8872051  56.0331044  56.7312195 126.5184811
  59.4686290  54.7423513 117.2651461  58.8515461  54.0170342 117.1684514
  59.0002779  55.5032874 116.9218535  50.1431121  66.2684336 127.7190960
  50.3827719  66.9002860 128.3969979  49.3000317  65.9172376 128.0056319
  51.2584836  48.9608938 116.3872765  50.3814302  48.8397738 116.0235012
  51.7342589  48.1695016 116.1351654  54.6558983  62.0763458 130.1232464
  54.5829154  62.8818429 130.6351769  54.2136376  62.2755424 129.2980486
  54.4448762  61.3135228 123.6335286  53.6616284  61.8556908 123.7273510
  55.1441507  61.8309208 124.0329527  65.6075170  52.8270223 127.9187783
  65.5965046  53.7094938 127.5481716  64.7392549  52.4741774 127.7242320
  57.1157666  61.9750292 132.2790623  57.8285638  62.6097757 132.2066524
  56.6247695  62.0714158 131.4630625  58.8375193  55.8801545 123.8507914
  57.9031472  56.0003007 123.6812619  59.0151861  54.9774011 123.5867924
  62.2247744  51.7218864 124.3857949  62.6908197  52.5546856 124.3118251
  62.6755245  51.2563846 125.0903207  60.2923975  58.0662685 121.3844101
  60.5683819  57.9519280 122.2937975  59.4228474  57.6680170 121.3456274
  56.9278039  62.3149036 125.0276914  57.1100434  61.4970692 125.4904667
  57.7511025  62.5316728 124.5901804  57.2620205  61.2417221 122.2891963
  57.7907971  60.7309676 121.6762125  57.5248425  60.9259751 123.1537496
  50.6175953  62.2932338 125.0489739  49.9486328  62.7778466 124.5653779
  50.4788823  62.5401558 125.9633117  54.7581222  64.3276081 131.6472397
  55.3099530  64.4907703 132.4121482  55.0987415  64.9180519 130.9752422
  45.9863530  50.5550793 121.8285671  46.2816971  49.6461471 121.7752725
  45.0851566  50.5338532 121.5066673  57.8949609  62.2758057 128.6336079
  57.7700748  61.4747797 128.1247025  58.5528700  62.7704250 128.1450049
  59.9584517  60.0767077 130.2615629  59.0114853  59.9572428 130.1893956
  60.3067290  59.1889575 130.3441891  56.9630950  59.8719793 126.4619982
  56.8155913  58.9436501 126.6427552  57.7884444  59.8939884 125.9777057
  50.8293195  48.5237860 122.3200474  51.1689267  49.0523782 121.5979082
  51.2765315  48.8618266 123.0959040  60.5665072  60.6948352 127.5484854
  61.4911620  60.4891213 127.4109305  60.3980376  60.4464753 128.4574196
  52.8161342  47.0212482 120.5193766  53.5369704  47.3993735 120.0157483
  52.1926646  47.7401359 120.6228744  56.9592465  47.7257631 121.4552099
  57.1756079  48.6082269 121.1540927  56.4786532  47.3343844 120.7257741
  60.3560389  61.2134019 122.9046946  60.5297266  60.6480442 122.1520798
  60.8489280  62.0134914 122.7226436  66.2099780  53.9770442 124.5237245
  66.6530926  53.2277768 124.1256369  65.3326290  53.9680579 124.1410977
  61.3435561  60.5300784 120.0043844  62.0386466  61.1507477 120.2231159
  61.6858711  59.6796135 120.2796222  63.2426984  57.9800489 121.5331175
  63.7678308  58.3187762 120.8080495  63.1549337  57.0447505 121.3494309
  54.9267645  64.0472473 125.8926428  54.4872635  63.5548851 126.5859285
  55.6775762  63.5045440 125.6518503  47.4059984  60.2384014 125.8951056
  48.2318004  59.9387785 125.5149700  47.0554036  59.4691636 126.3440845
  52.3741517  59.5910482 127.9648730  51.7521526  58.9281187 127.6650958
  53.0446384  59.6171614 127.2822377  51.9355024  58.1414405 121.4407190
  52.0843144  58.8249869 120.7873863  52.7421467  58.1219495 121.9556646
  65.7532644  55.4475681 126.9159693  66.5879536  55.8865485 127.0797253
  65.8891773  54.9714334 126.0967939  49.6907657  54.1679583 122.4468259
  49.4453699  53.2641913 122.6448469  49.8603571  54.1696733 121.5047737
  48.9603304  49.9007940 119.9454421  48.2672549  49.9752295 119.2894457
  48.7155056  49.1368284 120.4675937  55.4350429  60.6362536 118.9118938
  54.8624397  61.2552723 118.4589409  56.0083223  61.1861897 119.4458860
  58.6547689  60.9199686 120.0427520  59.5878362  60.8545247 120.2460395
  58.5670902  61.7555953 119.5842053  61.2835706  60.2365556 117.0031467
  61.2049337  59.9025420 117.8967225  62.1045373  60.7287324 117.0022940
  63.9813897  53.1027295 130.2107786  63.9490217  52.1643296 130.3967470
  64.5914521  53.1811332 129.4773611  55.8197228  51.9723348 116.2534990
  56.7656333  51.8429556 116.3223408  55.4411473  51.2338010 116.7304418
  69.7990447  54.1643302 129.3513823  70.5293835  53.9028590 129.9121526
  69.1897392  53.4272024 129.3915891  67.8805744  52.3051165 129.9488274
  67.1538908  52.1707130 129.3404766  67.4653031  52.6127993 130.7544992
  54.0040145  49.8973325 116.1889875  53.0971601  49.6006437 116.2652589
  54.2816126  49.6003143 115.3224162  55.6202211  44.4410214 122.3434117
  54.8102939  44.0957299 122.7189363  56.3086628  44.1317758 122.9321728
  52.7738930  46.7560260 116.3301855  53.6358094  47.0815158 116.5897672
  52.9589274  45.9691756 115.8174920  60.9271566  45.6288786 123.4737078
  60.3470235  46.2873590 123.0915130  60.6607499  44.8066131 123.0624495
  59.7096444  47.7888877 122.5293426  58.8222299  48.0738527 122.3113621
  60.1250433  47.6282640 121.6820703  63.0610980  47.8135398 126.2447765
  63.8371370  48.3031850 126.5172382  62.3359115  48.2393452 126.7019635
  65.4983539  48.5263017 127.3021706  66.0928030  48.2858753 126.5915014
  65.5710123  47.8070148 127.9295242  47.7180695  62.3696628 127.6164870
  47.5835163  61.6097029 127.0502869  47.3012757  63.0937528 127.1493659
  58.8539658  57.5533551 116.6241446  59.5575508  57.7583554 117.2399101
  58.1302306  58.1210313 116.8890529  59.6837468  53.3043413 122.7443716
  59.6272669  53.7611964 121.9051348  60.2365810  52.5434097 122.5666559
  63.4942274  49.0933145 123.5693835  63.2379208  48.6929780 124.4002043
  62.8695142  49.8076938 123.4443975  67.8054612  51.8329218 126.0765127
  67.2454170  51.9022407 126.8496689  67.1998115  51.6570202 125.3564623
  50.8749821  63.2665945 127.8283313  50.7582205  64.2111377 127.7262003
  50.0542267  62.9639506 128.2169112  60.7626355  57.9916081 118.6739906
  61.5971959  57.5597279 118.4917381  60.6010698  57.8198094 119.6016800
  60.4172247  54.4948194 120.0396245  60.3621051  54.3292465 119.0984689
  59.7918303  55.2024227 120.1958435  53.7268373  43.9956303 119.6181564
  53.7147043  44.9398143 119.7749834  54.6191795  43.8126448 119.3241025
  51.9004335  63.9194207 131.0439242  52.8031581  63.9517817 131.3605737
  51.6741705  62.9894658 131.0585577  53.6557937  62.6725193 127.7049320
  52.7053568  62.6727055 127.5913692  53.9590423  61.9257928 127.1885355
  62.0587152  70.3148636 124.6953498  61.4952017  70.2238573 123.9269786
  61.9439547  69.4948541 125.1755991  59.6051584  71.8099828 127.5337719
  60.3972876  71.4690652 127.1184018  59.8448234  71.9194803 128.4539872
  67.6386711  73.9819604 120.0067963  66.9874691  74.5673684 119.6201977
  68.4331074  74.5125799 120.0663001  61.5642338  71.0708741 120.4055097
  62.3373214  70.5237728 120.2667973  61.9167737  71.9352990 120.6169559
  63.9008616  67.2301407 118.0373547  64.1534137  66.7082928 117.2757010
  62.9633175  67.0667553 118.1400231  68.9451899  66.2337186 125.8448291
  69.7314988  65.8156609 125.4938708  69.2090603  67.1383278 126.0129939
  69.1161976  71.6710036 120.5436947  68.4807809  71.7444662 121.2557852
  68.7859382  72.2603635 119.8656027  63.6204905  69.1329513 120.2397922
  63.5041163  68.4574417 120.9079007  63.7307164  68.6461887 119.4230075
  65.9636446  68.5939660 123.9444612  65.5994653  68.0670281 124.6557533
  66.8203561  68.2038129 123.7711097  65.6041933  63.6229560 118.9405960
  65.7716335  64.4909796 119.3076431  65.4139102  63.7856842 118.0167249
  61.8129747  68.5360336 126.6408495  60.8880244  68.4036550 126.8486187
  62.0614160  69.3154555 127.1378437  65.5831153  66.0787217 119.9252627
  65.4630779  66.5244268 120.7638107  64.8883742  66.4272535 119.3666165
  59.1738558  68.1793609 127.4752284  59.3030939  68.4328088 128.3891696
  58.4936010  68.7721317 127.1556939  71.2816220  66.5508691 120.7532961
  72.1934076  66.7836077 120.5780659  70.7725867  67.1345735 120.1908040
  68.6252194  62.7266727 129.0022822  67.7636673  63.0247980 129.2939559
  68.6514629  62.9437126 128.0703854  65.4413764  71.2708917 125.4096628
  65.9052109  71.5496620 124.6201250  65.1770562  70.3692362 125.2269718
  64.3782650  67.3932070 122.2186193  65.0806693  67.8453113 122.6860119
  64.0463278  66.7515888 122.8466086  58.1207984  65.6515622 127.5203326
  57.3307038  65.9073151 127.0443437  58.6119231  66.4663960 127.6255367
  60.0722729  66.0160201 124.4786803  59.2753892  66.1278896 124.9970299
  59.8448321  66.3546854 123.6127693  56.4045687  65.9046113 129.9518317
  56.6553725  66.7893123 130.2175893  56.9405235  65.7250714 129.1793409
  65.6176414  74.2073012 122.2948298  65.4822089  75.0524548 122.7233146
  66.1586227  74.4092290 121.5314232  59.0705812  71.7248450 122.8676223
  59.5830332  72.5191700 123.0181788  59.7228525  71.0274741 122.8009824
  60.8800697  74.8414207 124.9498976  61.0567325  75.7632171 124.7619960
  61.6757530  74.5272626 125.3793356  68.9668878  57.7303574 130.8247191
  68.6233147  58.6205216 130.7486302  69.3347841  57.5405232 129.9616776
  57.0354729  70.0537105 123.6435794  57.8729951  70.4634113 123.4269501
  57.2132996  69.1136547 123.6135987  68.9319161  67.7212185 119.3319626
  68.4165784  68.4916790 119.5708014  68.6596469  67.0477321 119.9552688
  66.5166272  62.5661886 124.3904865  65.6607868  62.1768736 124.2110504
  66.9293223  62.6453847 123.5304650  68.0465418  60.1008229 128.7896425
  67.5430214  60.0638364 127.9764230  68.3396025  61.0100972 128.8493081
  64.2908304  60.1846959 127.7962606  65.1561301  59.9889768 127.4368496
  64.3585813  59.9557311 128.7231963  73.9053435  70.4744540 121.2672800
  73.1282878  70.1355699 120.8227962  74.5844916  70.4797163 120.5927765
  68.7205464  65.5939277 121.1579408  68.4155599  65.9085426 122.0089551
  69.6735906  65.6720697 121.2006741  67.1651896  71.7529501 122.8072362
  66.6373257  71.0182260 122.4945599  66.6639398  72.5304177 122.5612330
  61.8970623  62.4149167 125.1678973  62.4714375  62.1924348 124.4352166
  62.4841606  62.4837861 125.9207574  62.2240210  64.4453628 119.1874858
  61.3877523  64.7828314 119.5084133  62.0844980  64.3102608 118.2501995
  64.1993291  59.2890416 123.8954043  63.5457703  58.9739433 123.2710657
  64.1573765  58.6666156 124.6213865  65.3104496  69.5709711 115.8107335
  64.4031558  69.3398964 116.0098484  65.8075528  68.7747330 115.9981316
  68.2172575  78.2807218 118.7304021  67.5434274  78.5838915 119.3388979
  68.6038397  79.0836298 118.3809478  67.4331031  65.7772349 128.2201690
  66.5153593  65.9987296 128.0623378  67.8491175  65.8518660 127.3613398
  68.2166079  67.1763765 123.3504370  68.9637898  67.6885162 123.0411493
  68.4857669  66.8547818 124.2108764  66.4892729  69.6722306 120.3331325
  65.5803949  69.3881339 120.4303794  66.5187813  70.0921384 119.4734632
  70.6644916  64.2120881 125.3323160  69.9267673  63.6998267 125.6633402
  70.9171690  63.7721263 124.5206437  70.7656544  56.9897133 125.9264929
  71.0715420  56.1294497 125.6390844  71.4909148  57.5814753 125.7263923
  57.0580900  67.3927820 124.3146527  56.8605300  66.7997181 123.5897594
  56.5027564  67.0880030 125.0322466  65.0377623  67.2850926 126.4341120
  65.0926233  66.3324763 126.3583597  64.2268825  67.4410365 126.9182419
  66.1868817  71.2131049 117.6719403  65.7488247  70.4966908 117.2125041
  66.9279258  71.4407164 117.1104495  62.9769983  65.9027986 124.1931499
  62.1637849  66.2022157 124.5996691  63.4728977  65.5083675 124.9105981
  74.3041932  69.4888246 123.7295722  74.1659831  69.6789842 122.8016911
  73.9478151  70.2507629 124.1863773  62.4684058  63.4746342 129.8092734
  63.1083437  63.3335101 129.1115697  61.6361589  63.1880855 129.4331336
  63.2444362  72.7748772 125.9227726  64.0384960  72.2799092 125.7210301
  62.5336054  72.2466635 125.5595432  59.5527125  66.9191854 121.9987479
  58.6224714  66.8576309 122.2157441  59.6484597  66.3967807 121.2024120
  59.4712674  63.4446667 124.5865721  59.7319492  64.3592000 124.4774881
  60.2929847  62.9771109 124.7362334  60.9437600  64.8584424 131.7564545
  61.6160653  64.6501786 131.1077194  60.1167386  64.6606510 131.3169778
  66.4163790  78.4486890 120.9451100  66.5915546  77.9774934 121.7596723
  65.7296578  79.0752657 121.1732361  70.3080045  70.0715431 117.2651461
  69.6909215  69.3462259 117.1684514  69.8396533  70.8324791 116.9218535
  62.0978591  64.2900855 116.3872765  61.2208057  64.1689656 116.0235012
  62.5736344  63.4986934 116.1351654  53.6180731  69.0778015 126.4814272
  54.3051771  68.7639745 125.8935288  53.4628859  69.9819380 126.2081524
  58.4215453  63.9668212 130.9099296  58.3373642  63.3593881 130.1749706
  57.5998159  64.4577230 130.9108792  68.5939167  62.4521775 126.2769491
  69.0907866  61.6991737 125.9570561  67.8226148  62.4886092 125.7112700
  69.6768948  71.2093462 123.8507914  68.7425226  71.3294925 123.6812619
  69.8545616  70.3065929 123.5867924  65.1774136  64.5939158 126.0041176
  64.8071923  64.0410199 126.6922081  65.6733228  63.9897292 125.4516176
  73.0641499  67.0510782 124.3857949  73.5301951  67.8838773 124.3118251
  73.5148999  66.5855763 125.0903207  71.1317730  73.3954603 121.3844101
  71.4077574  73.2811198 122.2937975  70.2622229  72.9972088 121.3456274
  71.0358162  59.4191369 128.4248850  70.1221241  59.6495595 128.5931057
  71.4651263  59.5029813 129.2762882  68.1013959  76.5709139 122.2891963
  68.6301726  76.0601594 121.6762125  68.3642179  76.2551669 123.1537496
  53.1948707  67.1578608 128.7531739  53.2332806  66.6242199 129.5468858
  52.6889000  66.6313814 128.1342717  60.5739469  62.0043149 132.2494282
  60.6380796  62.8657980 131.8371679  60.5106589  61.3917151 131.5166640
  56.8257285  65.8842711 121.8285671  57.1210726  64.9753389 121.7752725
  55.9245320  65.8630450 121.5066673  60.3551532  63.9598707 127.8113219
  59.6338117  64.5734675 127.6720693  61.1444787  64.4956472 127.7329865
  58.5545126  63.5656808 121.9524996  58.2257832  62.6854187 121.7700102
  58.9084497  63.5104477 122.8401385  61.6686949  63.8529778 122.3200474
  62.0083022  64.3815699 121.5979082  62.1159070  64.1910184 123.0959040
  64.3630390  62.2366829 131.7703542  64.0227210  61.4374642 132.1724222
  63.6569396  62.5368540 131.1980375  65.0146862  59.3216141 130.2230865
  65.8372931  58.8476619 130.1009755  65.2584925  60.1006625 130.7229551
  63.6555096  62.3504400 120.5193766  64.3763459  62.7285652 120.0157483
  63.0320401  63.0693276 120.6228744  67.7986219  63.0549549 121.4552099
  68.0149834  63.9374186 121.1540927  67.3180286  62.6635762 120.7257741
  62.5385441  66.0135262 128.0322843  62.3930021  66.3275565 128.9247125
  62.0610644  66.6320162 127.4793742  64.3981824  63.0037810 128.0803733
  64.3843392  62.1078903 127.7436031  65.1154252  63.0108474 128.7142019
  66.2507954  63.4375150 130.1256860  65.9925732  64.3592221 130.1241191
  65.7192995  63.0405585 130.8157324  57.0131103  68.5540606 130.9710505
  56.4684571  69.3300414 131.1030779  57.8910453  68.9011411 130.8129626
  63.8018719  61.8852190 123.3491303  63.9234631  60.9568836 123.5482191
  63.5120762  61.8990876 122.4369618  66.6709910  59.5707101 126.4858023
  66.6931607  59.6346434 125.5310002  67.0877969  58.7311609 126.6798529
  72.1829316  75.8592702 120.0043844  72.8780220  76.4799394 120.2231159
  72.5252466  75.0088053 120.2796222  74.0820739  73.3092407 121.5331175
  74.6072063  73.6479680 120.8080495  73.9943091  72.3739422 121.3494309
  58.2453738  75.5675931 125.8951056  59.0711758  75.2679703 125.5149700
  57.8947790  74.7983554 126.3440845  56.4462343  73.4862258 126.8539990
  55.6094252  73.0584432 126.6723991  56.4185989  73.6794701 127.7910781
  62.7748778  73.4706323 121.4407190  62.9236899  74.1541787 120.7873863
  63.5815222  73.4511413 121.9556646  60.5301411  69.4971500 122.4468259
  60.2847453  68.5933830 122.6448469  60.6997326  69.4988651 121.5047737
  59.7997059  65.2299858 119.9454421  59.1066304  65.3044213 119.2894457
  59.5548811  64.4660202 120.4675937  68.4710715  56.7895459 127.3493911
  68.7512469  56.1218648 127.9754338  69.2561322  56.9824555 126.8368575
  66.2744184  75.9654453 118.9118938  65.7018151  76.5844640 118.4589409
  66.8476978  76.5153815 119.4458860  69.4941444  76.2491603 120.0427520
  70.4272117  76.1837165 120.2460395  69.4064657  77.0847870 119.5842053
  72.1229460  75.5657474 117.0031467  72.0443092  75.2317337 117.8967225
  72.9439127  76.0579242 117.0022940  66.6590982  67.3015266 116.2534990
  67.6050087  67.1721474 116.3223408  66.2805227  66.5629928 116.7304418
  72.6312867  58.9671272 126.2161882  72.4337688  58.6586360 127.1005214
  73.2412573  59.6932911 126.3459812  64.8433900  65.2265242 116.1889875
  63.9365355  64.9298355 116.2652589  65.1209881  64.9295060 115.3224162
  55.7611840  66.5471606 126.6388922  55.4414624  65.6936914 126.3463296
  55.2145268  66.7620184 127.3946889  66.4595965  59.7702132 122.3434117
  65.6496694  59.4249217 122.7189363  67.1480382  59.4609676 122.9321728
  68.3886514  58.8480179 123.9658413  68.9417552  59.2675632 124.6248436
  68.6256600  57.9215927 124.0081369  63.6132684  62.0852178 116.3301855
  64.4751848  62.4107076 116.5897672  63.7983028  61.2983673 115.8174920
  55.6300100  70.1674517 128.6082043  54.9363571  69.7528470 128.0951998
  56.3773091  70.2095054 128.0115462  71.7665321  60.9580704 123.4737078
  71.1863990  61.6165508 123.0915130  71.5001253  60.1358049 123.0624495
  70.2168887  60.3585762 125.6758398  70.7168665  60.4702296 124.8672717
  70.8604495  60.0546815 126.3159206  57.5436843  70.0992771 126.4848058
  57.5207531  70.1980458 125.5329941  57.8537479  70.9457922 126.8065224
  70.5490199  63.1180794 122.5293426  69.6616054  63.4030445 122.3113621
  70.9644188  62.9574558 121.6820703  73.9004735  63.1427315 126.2447765
  74.6765125  63.6323768 126.5172382  73.1752869  63.5685370 126.7019635
  69.6933412  72.8825469 116.6241446  70.3969262  73.0875472 117.2399101
  68.9696061  73.4502231 116.8890529  70.5231222  68.6335330 122.7443716
  70.4666424  69.0903882 121.9051348  71.0759565  67.8726015 122.5666559
  74.3336028  64.4225062 123.5693835  74.0772963  64.0221698 124.4002043
  73.7088896  65.1368856 123.4443975  71.6020110  73.3207998 118.6739906
  72.4365714  72.8889197 118.4917381  71.4404453  73.1490012 119.6016800
  71.2566002  69.8240112 120.0396245  71.2014806  69.6584383 119.0984689
  70.6312057  70.5316145 120.1958435  56.0458517  65.0608176 133.8657667
  56.6917380  64.5507130 134.3544893  55.8375668  65.7976858 134.4401093
  64.5662127  59.3248221 119.6181564  64.5540797  60.2690061 119.7749834
  65.4585549  59.1418366 119.3241025  68.3814247  55.9190997 123.8727500
  67.6146643  55.3649484 124.0184183  68.7924952  55.9912866 124.7341652
  73.0633965  79.7745546 119.1874858  72.2271277  80.1120232 119.5084133
  72.9238735  79.6394525 118.2501995  72.9372345  79.6192773 116.3872765
  72.0601811  79.4981574 116.0235012  73.4130098  78.8278851 116.1351654
  70.6390813  80.5591776 119.9454421  69.9460058  80.6336131 119.2894457
  70.3942565  79.7952119 120.4675937  75.6827654  80.5557160 116.1889875
  74.7759109  80.2590273 116.2652589  75.9603635  80.2586978 115.3224162
  74.4526439  77.4144095 116.3301855  75.3145603  77.7398994 116.5897672
  74.6376783  76.6275591 115.8174920  75.4055882  74.6540138 119.6181564
  75.3934552  75.5981978 119.7749834  76.2979304  74.4710284 119.3241025
  46.5385067  24.6285505 105.4549327  45.8646766  24.9317202 106.0634285
  46.9250889  25.4314586 105.1054785  50.5041808  22.2070989 106.7289151
  51.1992712  22.8277681 106.9476465  50.8464958  21.3566340 107.0041529
  44.5956676  22.3132740 105.6364244  44.0230643  22.9322928 105.1834716
  45.1689470  22.8632102 106.1704166  47.8153936  22.5969891 106.7672827
  48.7484609  22.5315452 106.9705702  47.7277149  23.4326157 106.3087359
  50.4441953  21.9135761 103.7276774  50.3655584  21.5795625 104.6212532
  51.2651619  22.4057529 103.7268246  48.0145904  19.2303756 103.3486752
  48.7181755  19.4353759 103.9644408  47.2908553  19.7980518 103.6135836
  49.9232602  19.6686286 105.3985212  50.7578206  19.2367484 105.2162687
  49.7616945  19.4968299 106.3262107  58.5516877  30.1855937 115.4940389
  59.1895287  30.0662684 114.7903729  58.4337720  31.1336781 115.5528341
  51.2193399  31.9918841 111.4198805  50.6558264  31.9008778 110.6515093
  51.1045794  31.1718746 111.9001297  56.7992958  35.6589809 106.7313270
  56.1480937  36.2443889 106.3447284  57.5937320  36.1896004 106.7908307
  50.7248585  32.7478946 107.1300404  51.4979461  32.2007933 106.9913280
  51.0773984  33.6123195 107.3414865  53.0614863  28.9071612 104.7618854
  53.3140383  28.3853133 104.0002317  52.1239422  28.7437758 104.8645538
  58.1058145  27.9107390 112.5693597  58.8921235  27.4926814 112.2184014
  58.3696850  28.8153483 112.7375246  58.2768223  33.3480241 107.2682254
  57.6414056  33.4214867 107.9803159  57.9465629  33.9373840 106.5901333
  63.5066573  27.8482624 113.4726576  64.2391745  27.2781841 113.7064405
  62.7505928  27.4604224 113.9133081  52.7811151  30.8099718 106.9643229
  52.6647409  30.1344621 107.6324313  52.8913411  30.3232092 106.1475382
  55.1242692  30.2709865 110.6689918  54.7600900  29.7440486 111.3802840
  55.9809808  29.8808334 110.4956404  54.7648179  25.2999765 105.6651267
  54.9322582  26.1680001 106.0321738  54.5745348  25.4627047 104.7412556
  54.7437400  27.7557422 106.6497934  54.6237025  28.2014473 107.4883414
  54.0489989  28.1042740 106.0911472  52.5044292  40.5261064 110.2988065
  52.4268322  41.4768889 110.3776545  51.9005936  40.1806937 110.9562991
  60.4422466  28.2278896 107.4778268  61.3540322  28.4606282 107.3025965
  59.9332113  28.8115940 106.9153346  59.0492049  33.2104714 114.8691849
  58.4200911  33.3750428 114.1667917  58.6617711  33.6246324 115.6402813
  62.9281281  34.1459152 112.2236213  62.2432319  34.5258053 111.6733246
  63.0125130  34.7554479 112.9568161  54.6020010  32.9479122 112.1341934
  55.0658356  33.2266825 111.3446557  54.3376809  32.0462567 111.9515025
  53.5388897  29.0702274 108.9431499  54.2412940  29.5223318 109.4105426
  53.2069525  28.4286093 109.5711392  61.2978040  34.6691066 116.9953914
  62.1195484  34.2671254 116.7136595  61.2940443  34.5659300 117.9470029
  69.3884033  31.0129815 113.3438885  68.6347742  30.4437213 113.1882890
  69.5231574  30.9792479 114.2909520  54.7782661  35.8843217 109.0193605
  54.6428336  36.7294753 109.4478452  55.3192474  36.0862495 108.2559538
  48.2312059  33.4018655 109.5921530  48.7436579  34.1961905 109.7427094
  48.8834771  32.7044946 109.5255131  50.0406943  36.5184411 111.6744283
  50.2173572  37.4402376 111.4865267  50.8363777  36.2042831 112.1038663
  51.1638259  38.0362585 117.6754625  51.7145684  37.9079649 116.9031619
  50.3249735  38.3357474 117.3249518  46.1960975  31.7307309 110.3681100
  47.0336197  32.1404318 110.1514808  46.3739243  30.7906752 110.3381294
  58.0925407  29.3982390 106.0564933  57.5772031  30.1686995 106.2953321
  57.8202716  28.7247526 106.6797995  55.6772518  24.2432091 111.1150171
  54.8214115  23.8538941 110.9355810  56.0899470  24.3224052 110.2549957
  63.0659682  32.1514745 107.9918107  62.2889124  31.8125904 107.5473269
  63.7451163  32.1567368 107.3173072  57.8811711  27.2709482 107.8824714
  57.5761846  27.5855631 108.7334857  58.8342153  27.3490902 107.9252047
  56.3258142  33.4299706 109.5317668  55.7979504  32.6952465 109.2190906
  55.8245645  34.2074382 109.2857637  61.3050989  31.6248726 114.6484715
  60.6474663  32.3147987 114.7364843  62.1091388  32.0145158 114.9918701
  60.1156447  29.9793099 112.6988656  60.6288329  30.6123091 113.2010366
  60.7657671  29.3794294 112.3332016  51.3846457  26.1223833 105.9120165
  50.5483769  26.4598519 106.2329440  51.2451227  25.9872813 104.9747302
  54.4710743  31.2479916 102.5352641  53.5637804  31.0169169 102.7343790
  54.9681775  30.4517535 102.7226623  57.3778822  39.9577423 105.4549327
  56.7040520  40.2609120 106.0634285  57.7644644  40.7606503 105.1054785
  57.3772326  28.8533970 110.0749677  58.1244145  29.3655367 109.7656799
  57.6463915  28.5318023 110.9354071  55.6498976  31.3492511 107.0576631
  54.7410195  31.0651543 107.1549101  55.6794060  31.7691589 106.1979938
  60.8818244  34.9599100 110.8267799  60.4280571  34.1190010 110.8832989
  60.2512210  35.5960499 111.1642579  59.8251163  25.8891086 112.0568466
  59.0873920  25.3768472 112.3878709  60.0777937  25.4491468 111.2451743
  59.3251183  36.7975597 111.7617617  59.6174157  37.3580654 111.0429983
  59.8349803  37.0904158 112.5170776  54.1983870  28.9621131 113.1586427
  54.2532480  28.0094968 113.0828903  53.3875072  29.1180570 113.6427725
  55.3475064  32.8901254 104.3964710  54.9094494  32.1737113 103.9370347
  56.0885505  33.1177369 103.8349801  52.1376230  27.5798191 110.9176806
  51.3244096  27.8792362 111.3241998  52.6335224  27.1853880 111.6351288
  54.2884808  37.5755948 112.8511070  54.2460987  37.8016794 111.9219602
  55.2047507  37.3419323 112.9996871  63.4648179  31.1658451 110.4541029
  63.3266077  31.3560047 109.5262218  63.1084397  31.9277834 110.9109080
  63.4917558  33.2334978 115.4652300  63.9254065  33.1410267 116.3135354
  64.2049139  33.2092479 114.8272316  52.4050609  34.4518977 112.6473033
  53.1991207  33.9569297 112.4455608  51.6942301  33.9236840 112.2840739
  57.2245453  36.8337072 116.9985401  57.2782475  37.4028009 117.7663117
  56.3560235  37.0038957 116.6339438  48.7133372  28.5962059 108.7232786
  47.7830960  28.5346514 108.9402748  48.8090844  28.0738011 107.9269427
  64.3533108  33.2758679 117.9985185  64.5468998  34.1804490 118.2444460
  64.2533726  32.8166098 118.8323770  54.9821885  35.0247999 116.3270870
  54.8432970  34.6566783 117.1996808  54.1936481  35.5395638 116.1554828
  55.5770037  40.1257095 107.6696407  55.7521792  39.6545139 108.4842029
  54.8902825  40.7522862 107.8977667  56.5327100  34.4029602 113.7159708
  56.1976932  34.3630372 114.6117358  56.0331046  33.7374318 113.2430118
  59.4686292  31.7485636 103.9896768  58.8515462  31.0232464 103.8929820
  59.0002780  32.5094996 103.6463842  50.1431122  43.2746458 114.4436267
  50.3827720  43.9064982 115.1215285  49.3000318  42.9234498 114.7301626
  51.2584837  25.9671060 103.1118072  50.3814304  25.8459861 102.7480318
  51.7342590  25.1757139 102.8596960  54.6558984  39.0825581 116.8477771
  54.5829155  39.8880552 117.3597075  54.2136377  39.2817546 116.0225792
  54.4448763  38.3197351 110.3580592  53.6616285  38.8619031 110.4518817
  55.1441509  38.8371330 110.7574833  65.6075171  29.8332346 114.6433089
  65.5965047  30.7157061 114.2727022  64.7392550  29.4803896 114.4487626
  57.1157667  38.9812415 119.0035929  57.8285640  39.6159879 118.9311831
  56.6247696  39.0776281 118.1875931  58.8375194  32.8863667 110.5753221
  57.9031473  33.0065130 110.4057925  59.0151863  31.9836134 110.3113231
  62.2247746  28.7280987 111.1103255  62.6908198  29.5608978 111.0363558
  62.6755246  28.2625968 111.8148514  60.2923977  35.0724808 108.1089407
  60.5683821  34.9581402 109.0183281  59.4228475  34.6742293 108.0701580
  56.9278041  39.3211159 111.7522221  57.1100435  38.5032815 112.2149973
  57.7511027  39.5378851 111.3147111  57.2620206  38.2479344 109.0137269
  57.7907973  37.7371798 108.4007431  57.5248426  37.9321874 109.8782802
  50.6175954  39.2994461 111.7735045  49.9486329  39.7840588 111.2899085
  50.4788824  39.5463681 112.6878424  54.7581223  41.3338204 118.3717704
  55.3099531  41.4969826 119.1366789  55.0987416  41.9242642 117.6997729
  45.9863531  27.5612916 108.5530977  46.2816972  26.6523594 108.4998031
  45.0851567  27.5400655 108.2311980  57.8949610  39.2820180 115.3581386
  57.7700749  38.4809919 114.8492331  58.5528701  39.7766373 114.8695356
  59.9584518  37.0829200 116.9860936  59.0114854  36.9634551 116.9139263
  60.3067292  36.1951698 117.0687197  56.9630952  36.8781916 113.1865288
  56.8155914  35.9498623 113.3672858  57.7884445  36.9002007 112.7022363
  50.8293196  25.5299983 109.0445780  51.1689269  26.0585904 108.3224389
  51.2765316  25.8680389 109.8204347  60.5665074  37.7010475 114.2730161
  61.4911621  37.4953336 114.1354612  60.3980377  37.4526876 115.1819502
  52.8161343  24.0274605 107.2439073  53.5369706  24.4055857 106.7402790
  52.1926647  24.7463481 107.3474051  56.9592466  24.7319754 108.1797405
  57.1756080  25.6144391 107.8786234  56.4786533  24.3405967 107.4503047
  60.3560390  38.2196142 109.6292252  60.5297267  37.6542565 108.8766105
  60.8489281  39.0197037 109.4471742  66.2099781  30.9832565 111.2482552
  66.6530927  30.2339890 110.8501675  65.3326291  30.9742701 110.8656284
  61.3435562  37.5362906 106.7289151  62.0386467  38.1569599 106.9476465
  61.6858712  36.6858258 107.0041529  63.2426985  34.9862612 108.2576481
  63.7678309  35.3249885 107.5325801  63.1549338  34.0509627 108.0739616
  54.9267646  41.0534595 112.6171735  54.4872636  40.5610974 113.3104591
  55.6775763  40.5107563 112.3763810  47.4059985  37.2446136 112.6196363
  48.2318005  36.9449908 112.2395006  47.0554037  36.4753759 113.0686151
  52.3741518  36.5972604 114.6894036  51.7521528  35.9343309 114.3896264
  53.0446385  36.6233736 114.0067684  51.9355025  35.1476528 108.1652497
  52.0843146  35.8311992 107.5119170  52.7421469  35.1281618 108.6801953
  65.7532646  32.4537803 113.6405000  66.5879537  32.8927607 113.8042560
  65.8891774  31.9776457 112.8213245  49.6907658  31.1741705 109.1713566
  49.4453700  30.2704035 109.3693776  49.8603573  31.1758856 108.2293044
  48.9603306  26.9070063 106.6699727  48.2672551  26.9814418 106.0139763
  48.7155058  26.1430407 107.1921244  55.4350431  37.6424658 105.6364244
  54.8624398  38.2614845 105.1834716  56.0083224  38.1924020 106.1704166
  58.6547691  37.9261808 106.7672827  59.5878364  37.8607370 106.9705702
  58.5670903  38.7618075 106.3087359  61.2835707  37.2427679 103.7276774
  61.2049339  36.9087542 104.6212532  62.1045374  37.7349447 103.7268246
  63.9813898  30.1089418 116.9353093  63.9490218  29.1705419 117.1212777
  64.5914522  30.1873455 116.2018918  55.8197229  28.9785471 102.9780297
  56.7656334  28.8491679 103.0468715  55.4411474  28.2400133 103.4549725
  69.7990448  31.1705425 116.0759129  70.5293837  30.9090713 116.6366833
  69.1897394  30.4334147 116.1161197  67.8805745  29.3113287 116.6733581
  67.1538909  29.1769252 116.0650072  67.4653032  29.6190116 117.4790299
  54.0040146  26.9035447 102.9135182  53.0971602  26.6068560 102.9897896
  54.2816127  26.6065265 102.0469468  55.6202212  21.4472337 109.0679423
  54.8102940  21.1019422 109.4434669  56.3086629  21.1379881 109.6567035
  52.7738931  23.7622383 103.0547161  53.6358095  24.0877281 103.3142979
  52.9589275  22.9753878 102.5420227  60.9271567  22.6350909 110.1982384
  60.3470237  23.2935713 109.8160437  60.6607500  21.8128254 109.7869802
  59.7096445  24.7950999 109.2538732  58.8222301  25.0800650 109.0358927
  60.1250435  24.6344763 108.4066009  63.0610982  24.8197520 112.9693072
  63.8371372  25.3093973 113.2417688  62.3359116  25.2455575 113.4264941
  65.4983540  25.5325140 114.0267012  66.0928031  25.2920876 113.3160321
  65.5710124  24.8132270 114.6540549  47.7180696  39.3758750 114.3410177
  47.5835164  38.6159151 113.7748175  47.3012758  40.0999650 113.8738966
  58.8539659  34.5595674 103.3486752  59.5575509  34.7645677 103.9644408
  58.1302308  35.1272436 103.6135836  59.6837469  30.3105535 109.4689023
  59.6272671  30.7674087 108.6296655  60.2365812  29.5496220 109.2911865
  63.4942275  26.0995267 110.2939142  63.2379209  25.6991903 111.1247350
  62.8695143  26.8139061 110.1689281  67.8054613  28.8391340 112.8010433
  67.2454171  28.9084530 113.5741996  67.1998116  28.6632325 112.0809930
  50.8749822  40.2728068 114.5528620  50.7582206  41.2173500 114.4507310
  50.0542268  39.9701629 114.9414419  60.7626356  34.9978203 105.3985212
  61.5971960  34.5659402 105.2162687  60.6010699  34.8260217 106.3262107
  60.4172249  31.5010317 106.7641552  60.3621052  31.3354588 105.8229996
  59.7918304  32.2086349 106.9203741  53.7268374  21.0018426 106.3426870
  53.7147044  21.9460265 106.4995141  54.6191796  20.8188571 106.0486331
  51.9004336  40.9256329 117.7684548  52.8031583  40.9579940 118.0851043
  51.6741706  39.9956780 117.7830884  53.6557938  39.6787316 114.4294627
  52.7053569  39.6789178 114.3158999  53.9590424  38.9320051 113.9130661
  69.3910631  45.5147854 115.4940389  70.0289041  45.3954602 114.7903729
  69.2731474  46.4628698 115.5528341  66.2000338  45.4675282 115.4301914
  65.8618849  45.3516347 114.5422449  67.0690106  45.0666448 115.4102920
  62.0587153  47.3210759 111.4198805  61.4952019  47.2300696 110.6515093
  61.9439548  46.5010663 111.9001297  66.6820121  46.6210134 121.3888119
  66.6708761  46.2262932 120.5168623  66.8440760  45.8876207 121.9821891
  59.6051585  48.8161950 114.2583025  60.3972877  48.4752775 113.8429325
  59.8448236  48.9256925 115.1785179  67.6386712  50.9881727 106.7313270
  66.9874692  51.5735807 106.3447284  68.4331075  51.5187921 106.7908307
  61.5642339  48.0770864 107.1300404  62.3373215  47.5299851 106.9913280
  61.9167738  48.9415113 107.3414865  63.4027382  49.4047246 120.3367303
  63.1117248  50.3092877 120.2213970  64.0384366  49.4463774 121.0511373
  64.3283589  46.7824094 116.9268663  64.9247161  46.5580117 116.2125626
  64.3858560  46.0408840 117.5294111  63.9008617  44.2363530 104.7618854
  64.1534138  43.7145051 104.0002317  62.9633176  44.0729675 104.8645538
  68.9451900  43.2399308 112.5693597  69.7314989  42.8218731 112.2184014
  69.2090604  44.1445400 112.7375246  69.1161977  48.6772158 107.2682254
  68.4807810  48.7506785 107.9803159  68.7859384  49.2665757 106.5901333
  74.3460327  43.1774541 113.4726576  75.0785499  42.6073758 113.7064405
  73.5899683  42.7896142 113.9133081  63.6204906  46.1391636 106.9643229
  63.5041164  45.4636539 107.6324313  63.7307166  45.6524010 106.1475382
  65.9636447  45.6001783 110.6689918  65.5994654  45.0732404 111.3802840
  66.8203563  45.2100252 110.4956404  71.8685747  36.8896115 117.9321184
  71.5369072  37.7591526 117.7082399  71.2731361  36.5732399 118.6115215
  65.6041934  40.6291683 105.6651267  65.7716336  41.4971919 106.0321738
  65.4139103  40.7918964 104.7412556  68.3617267  49.0908661 117.3317097
  68.0617990  49.9933700 117.2232904  68.0168326  48.8240845 118.1838250
  61.8129748  45.5422458 113.3653802  60.8880245  45.4098672 113.5731493
  62.0614162  46.3216678 113.8623744  71.7614411  41.6091202 115.0114534
  70.8531288  41.5406610 114.7173295  71.7102007  42.0863147 115.8396360
  65.5831155  43.0849340 106.6497934  65.4630780  43.5306391 107.4883414
  64.8883743  43.4334658 106.0911472  59.1738559  45.1855732 114.1997591
  59.3030941  45.4390211 115.1137002  58.4936011  45.7783440 113.8802246
  63.3438047  55.8552982 110.2988065  63.2662076  56.8060807 110.3776545
  62.7399690  55.5098854 110.9562991  65.8355277  43.0280847 122.9549432
  65.0588611  43.5874767 122.9452296  66.4745840  43.5137630 123.4764302
  73.6276057  39.8107640 116.7892408  72.9850437  40.1040173 116.1432203
  73.1230986  39.6960560 117.5945605  71.2816221  43.5570813 107.4778268
  72.1934077  43.7898200 107.3025965  70.7725868  44.1407857 106.9153346
  64.0901649  45.8366301 122.5167399  64.8316333  46.3751345 122.2402222
  63.3838634  46.4632589 122.6738950  69.5656988  47.9795441 121.1139560
  69.9740344  47.5377852 120.3694193  68.8434250  47.4048069 121.3673753
  65.9188059  42.9168048 118.4873117  66.7649254  43.3407461 118.6307766
  65.8586696  42.2601672 119.1811680  69.8885803  48.5396632 114.8691849
  69.2594666  48.7042346 114.1667917  69.5011465  48.9538241 115.6402813
  73.7675035  49.4751070 112.2236213  73.0826073  49.8549971 111.6733246
  73.8518884  50.0846396 112.9568161  69.0687504  40.5772416 120.1454291
  68.8248436  41.3314477 119.6088566  69.3447434  40.9557764 120.9801538
  71.0225967  47.1211029 118.8231556  71.2342862  47.7642788 118.1465937
  70.9755715  46.2873345 118.3553486  68.6252196  39.7328849 115.7268128
  67.7636675  40.0310103 116.0184866  68.6514630  39.9499248 114.7949161
  65.4413765  48.2771040 112.1341934  65.9052111  48.5558743 111.3446557
  65.1770563  47.3754484 111.9515025  62.3337846  47.8242521 115.0721697
  62.9039203  48.2529790 114.4339182  62.9245958  47.5425106 115.7705883
  64.3782651  44.3994192 108.9431499  65.0806694  44.8515236 109.4105426
  64.0463280  43.7578011 109.5711392  62.8263013  42.9905949 123.3182709
  62.1961673  43.6722230 123.5518106  62.7199100  42.8789030 122.3735847
  58.1207985  42.6577745 114.2448633  57.3307039  42.9135273 113.7688743
  58.6119232  43.4726083 114.3500673  72.1371795  49.9982984 116.9953914
  72.9589238  49.5963171 116.7136595  72.1334197  49.8951218 117.9470029
  60.0722730  43.0222324 111.2032110  59.2753894  43.1341018 111.7215605
  59.8448323  43.3608976 110.3373000  65.9028398  49.5467027 119.1514624
  65.9672831  50.0087435 119.9872796  65.1939322  48.9164392 119.2796934
  56.4045688  42.9108235 116.6763624  56.6553726  43.7955245 116.9421200
  56.9405236  42.7312837 115.9038715  80.2277788  46.3421732 113.3438885
  79.4741496  45.7729131 113.1882890  80.3625329  46.3084397 114.2909520
  65.6176416  51.2135135 109.0193605  65.4822090  52.0586671 109.4478452
  66.1586228  51.4154412 108.2559538  59.0705813  48.7310573 109.5921530
  59.5830334  49.5253823 109.7427094  59.7228526  48.0336863 109.5255131
  60.8800698  51.8476329 111.6744283  61.0567326  52.7694294 111.4865267
  61.6757531  51.5334748 112.1038663  65.0211716  38.7084594 123.2728216
  65.7621430  39.3091747 123.1932679  65.2529639  37.9662232 122.7146259
  60.1653054  43.8940961 121.5506446  60.0506569  42.9926218 121.8513545
  59.3097572  44.1404658 121.1991263  67.2444892  51.8358701 123.1493947
  66.8008746  51.0495080 122.8314851  67.9062106  52.0237852 122.4837837
  62.0032013  53.3654503 117.6754625  62.5539438  53.2371566 116.9031619
  61.1643489  53.6649392 117.3249518  69.3426130  52.1161501 121.1775348
  69.3244605  52.9370382 120.6855617  70.2646050  51.9915576 121.4025489
  65.7999184  49.6305631 122.0198856  66.3327521  48.8693919 121.7898164
  65.2713265  49.3379283 122.7623011  68.9668879  34.7365697 117.5492498
  68.6233149  35.6267338 117.4731609  69.3347842  34.5467354 116.6862083
  57.0354730  47.0599227 110.3681100  57.8729952  47.4696235 110.1514808
  57.2132998  46.1198669 110.3381294  68.9319162  44.7274308 106.0564933
  68.4165785  45.4978912 106.2953321  68.6596470  44.0539444 106.6797995
  66.5166273  39.5724009 111.1150171  65.6607869  39.1830859 110.9355810
  66.9293225  39.6515969 110.2549957  68.0465420  37.1070352 115.5141731
  67.5430215  37.0700487 114.7009537  68.3396026  38.0163095 115.5738388
  64.2908306  37.1909082 114.5207913  65.1561302  36.9951890 114.1613802
  64.3585814  36.9619433 115.4477270  73.9053436  47.4806662 107.9918107
  73.1282879  47.1417822 107.5473269  74.5844917  47.4859286 107.3173072
  68.7205465  42.6001400 107.8824714  68.4155601  42.9147549 108.7334857
  69.6735907  42.6782820 107.9252047  67.1651897  48.7591623 109.5317668
  66.6373259  48.0244383 109.2190906  66.6639400  49.5366300 109.2857637
  72.1444743  46.9540644 114.6484715  71.4868417  47.6439905 114.7364843
  72.9485142  47.3437076 114.9918701  61.8970625  39.4211289 111.8924280
  62.4714376  39.1986471 111.1597473  62.4841607  39.4899984 112.6452881
  70.9550202  45.3085016 112.6988656  71.4682084  45.9415008 113.2010366
  71.6051426  44.7086212 112.3332016  62.2240212  41.4515750 105.9120165
  61.3877524  41.7890437 106.2329440  62.0844981  41.3164730 104.9747302
  64.1993292  36.2952538 110.6199349  63.5457705  35.9801556 109.9955964
  64.1573766  35.6728279 111.3459172  65.3104497  46.5771833 102.5352641
  64.4031559  46.3461087 102.7343790  65.8075529  45.7809453 102.7226623
  68.2172576  55.2869341 105.4549327  67.5434275  55.5901037 106.0634285
  68.6038398  56.0898421 105.1054785  67.4331033  42.7834472 114.9446997
  66.5153594  43.0049419 114.7868685  67.8491176  42.8580782 114.0858704
  68.2166080  44.1825888 110.0749677  68.9637899  44.6947285 109.7656799
  68.4857670  43.8609940 110.9354071  66.4892731  46.6784428 107.0576631
  65.5803950  46.3943461 107.1549101  66.5187814  47.0983507 106.1979938
  71.7211998  50.2891018 110.8267799  71.2674325  49.4481928 110.8832989
  71.0905965  50.9252416 111.1642579  70.6644918  41.2183004 112.0568466
  69.9267674  40.7060390 112.3878709  70.9171691  40.7783385 111.2451743
  70.1644937  52.1267515 111.7617617  70.4567912  52.6872572 111.0429983
  70.6743558  52.4196076 112.5170776  70.7656545  33.9959256 112.6510236
  71.0715422  33.1356619 112.3636151  71.4909150  34.5876876 112.4509230
  57.0580901  44.3989942 111.0391834  56.8605301  43.8059303 110.3142900
  56.5027565  44.0942153 111.7567772  65.0377625  44.2913049 113.1586427
  65.0926234  43.3386885 113.0828903  64.2268827  44.4472488 113.6427725
  66.1868818  48.2193172 104.3964710  65.7488248  47.5029031 103.9370347
  66.9279259  48.4469287 103.8349801  62.9769985  42.9090109 110.9176806
  62.1637850  43.2084279 111.3241998  63.4728979  42.5145797 111.6351288
  65.1278562  52.9047866 112.8511070  65.0854741  53.1308712 111.9219602
  66.0441261  52.6711240 112.9996871  68.5744196  43.3731933 119.7491699
  68.9293584  43.6003406 120.6086165  69.2216327  43.7050310 119.1268955
  74.3041933  46.4950369 110.4541029  74.1659832  46.6851965 109.5262218
  73.9478152  47.2569752 110.9109080  62.4684059  40.4808464 116.5338041
  63.1083439  40.3397223 115.8361004  61.6361590  40.1942978 116.1576643
  74.3311313  48.5626896 115.4652300  74.7647819  48.4702185 116.3135354
  75.0442893  48.5384396 114.8272316  63.2444363  49.7810895 112.6473033
  64.0384962  49.2861215 112.4455608  62.5336056  49.2528758 112.2840739
  68.0639208  52.1628990 116.9985401  68.1176230  52.7319926 117.7663117
  67.1953989  52.3330875 116.6339438  59.5527127  43.9253976 108.7232786
  58.6224715  43.8638432 108.9402748  59.6484599  43.4029929 107.9269427
  59.4712676  40.4508789 111.3111027  59.7319493  41.3654122 111.2020188
  60.2929848  39.9833232 111.4607640  60.9437601  41.8646546 118.4809852
  61.6160654  41.6563908 117.8322501  60.1167388  41.6668632 118.0415084
  75.1926862  48.6050597 117.9985185  75.3862752  49.5096407 118.2444460
  75.0927481  48.1458016 118.8323770  66.8463173  38.4908487 120.4975513
  66.1991088  39.1898437 120.4039989  67.6164188  38.9244631 120.8651761
  70.2541971  48.7557339 123.5726066  70.1027477  48.5267891 122.6556150
  70.2446650  49.7127941 123.5857411  67.0227307  46.3289252 118.5572332
  67.9519367  46.4800412 118.3841300  66.6018337  46.4173273 117.7020979
  65.8215639  50.3539917 116.3270870  65.6826725  49.9858701 117.1996808
  65.0330235  50.8687556 116.1554828  66.4163791  55.4549013 107.6696407
  66.5915547  54.9837056 108.4842029  65.7296579  56.0814779 107.8977667
  67.3720854  49.7321519 113.7159708  67.0370687  49.6922289 114.6117358
  66.8724800  49.0666235 113.2430118  61.3465098  45.1389149 119.2412289
  61.2084896  44.4069388 119.8423828  62.2570022  45.0498049 118.9596477
  70.3080046  47.0777554 103.9896768  69.6909217  46.3524382 103.8929820
  69.8396534  47.8386914 103.6463842  63.9747399  44.8509109 118.7295969
  64.6847018  44.2102301 118.6882587  63.9316707  45.1022003 119.6522149
  71.9634178  51.7876462 121.6502548  71.9046724  51.1035682 120.9833131
  72.3653696  52.5295452 121.1983174  62.6876333  41.8374327 120.5491608
  62.1513690  41.3865065 121.2013204  62.0993041  41.9720235 119.8062073
  60.9824876  58.6038376 114.4436267  61.2221475  59.2356900 115.1215285
  60.1394073  58.2526416 114.7301626  62.0978592  41.2962978 103.1118072
  61.2208058  41.1751779 102.7480318  62.5736345  40.5049056 102.8596960
  71.9651585  49.7516046 119.8816528  71.0778364  49.4141968 120.0042926
  72.5350136  49.0199077 120.1185293  53.6180732  46.0840138 113.2059579
  54.3051772  45.7701868 112.6180594  53.4628861  46.9881502 112.9326830
  58.4215454  40.9730334 117.6344603  58.3373643  40.3656004 116.8995013
  57.5998161  41.4639353 117.6354099  65.4952738  54.4117498 116.8477771
  65.4222910  55.2172470 117.3597075  65.0530131  54.6109464 116.0225792
  65.2842518  53.6489268 110.3580592  64.5010040  54.1910948 110.4518817
  65.9835263  54.1663248 110.7574833  68.5939168  39.4583898 113.0014798
  69.0907868  38.7053860 112.6815868  67.8226150  39.4948214 112.4358007
  76.4468925  45.1624263 114.6433089  76.4358802  46.0448979 114.2727022
  75.5786305  44.8095814 114.4487626  67.9551422  54.3104332 119.0035929
  68.6679394  54.9451797 118.9311831  67.4641450  54.4068198 118.1875931
  69.6768949  48.2155585 110.5753221  68.7425227  48.3357047 110.4057925
  69.8545617  47.3128052 110.3113231  65.1774137  41.6001281 112.7286482
  64.8071924  41.0472321 113.4167388  65.6733229  40.9959414 112.1761482
  73.0641500  44.0572904 111.1103255  73.5301952  44.8900896 111.0363558
  73.5149001  43.5917886 111.8148514  63.0063335  52.0598776 119.8241500
  63.7072795  52.6935259 119.9770894  62.5358450  52.4013507 119.0637140
  71.1317731  50.4016726 108.1089407  71.4077575  50.2873320 109.0183281
  70.2622230  50.0034210 108.0701580  71.0358163  36.4253491 115.1494157
  70.1221243  36.6557718 115.3176364  71.4651264  36.5091935 116.0008189
  70.8064621  44.6143383 117.6494051  70.1536072  44.8619291 116.9946503
  71.1845001  43.8007521 117.3156528  67.7671795  54.6503076 111.7522221
  67.9494190  53.8324732 112.2149973  68.5904781  54.8670769 111.3147111
  68.1013961  53.5771262 109.0137269  68.6301727  53.0663716 108.4007431
  68.3642180  53.2613792 109.8782802  66.8552194  45.3563194 124.1360088
  66.1792831  45.2557324 124.8062463  67.6779828  45.2002408 124.5996085
  58.6031053  51.5935131 116.7572603  59.1884490  50.8478819 116.8900507
  58.4055892  51.9039088 117.6409267  61.4569709  54.6286378 111.7735045
  60.7880084  55.1132506 111.2899085  61.3182578  54.8755599 112.6878424
  53.1948708  44.1640731 115.4777046  53.2332808  43.6304322 116.2714164
  52.6889001  43.6375937 114.8588023  65.5974977  56.6630122 118.3717704
  66.1493285  56.8261743 119.1366789  65.9381171  57.2534560 117.6997729
  60.5739470  39.0105272 118.9739588  60.6380797  39.8720102 118.5616986
  60.5106591  38.3979273 118.2411947  70.4485852  51.4891379 124.2266358
  70.9925756  52.1021338 123.7321313  69.8672696  52.0470958 124.7433371
  56.8257286  42.8904833 108.5530977  57.1210727  41.9815512 108.4998031
  55.9245322  42.8692573 108.2311980  68.7343365  54.6112097 115.3581386
  68.6094504  53.8101837 114.8492331  69.3922456  55.1058291 114.8695356
  60.3551533  40.9660830 114.5358526  59.6338119  41.5796797 114.3965999
  61.1444789  41.5018595 114.4575172  70.7978273  52.4121117 116.9860936
  69.8508608  52.2926469 116.9139263  71.1461046  51.5243615 117.0687197
  63.1577846  38.3015256 120.8099178  63.6812248  38.5477553 121.5725487
  62.9390180  39.1335291 120.3902315  58.5545127  40.5718931 108.6770303
  58.2257834  39.6916310 108.4945409  58.9084498  40.5166600 109.5646692
  67.8024706  52.2073834 113.1865288  67.6549669  51.2790541 113.3672858
  68.6278200  52.2293924 112.7022363  61.6686951  40.8591901 109.0445780
  62.0083023  41.3877822 108.3224389  62.1159071  41.1972307 109.8204347
  71.4058828  53.0302392 114.2730161  72.3305376  52.8245254 114.1354612
  71.2374131  52.7818793 115.1819502  64.3630391  39.2428951 118.4948848
  64.0227212  38.4436764 118.8969528  63.6569398  39.5430662 117.9225682
  65.0146863  36.3278264 116.9476171  65.8372932  35.8538742 116.8255062
  65.2584927  37.1068748 117.4474858  63.6555098  39.3566522 107.2439073
  64.3763460  39.7347775 106.7402790  63.0320402  40.0755399 107.3474051
  67.7986221  40.0611671 108.1797405  68.0149835  40.9436309 107.8786234
  67.3180288  39.6697885 107.4503047  62.5385442  43.0197384 114.7568150
  62.3930023  43.3337687 115.6492432  62.0610646  43.6382285 114.2039049
  64.3981825  40.0099932 114.8049040  64.3843394  39.1141026 114.4681338
  65.1154253  40.0170596 115.4387326  66.2507956  40.4437273 116.8502167
  65.9925733  41.3654343 116.8486497  65.7192996  40.0467707 117.5402631
  71.1954144  53.5488060 109.6292252  71.3691022  52.9834482 108.8766105
  71.6883036  54.3488955 109.4471742  57.0131104  45.5602729 117.6955811
  56.4684572  46.3362537 117.8276086  57.8910454  45.9073533 117.5374933
  63.8018721  38.8914313 110.0736610  63.9234632  37.9630959 110.2727497
  63.5120763  38.9052999 109.1614925  66.6709911  36.5769223 113.2103330
  66.6931608  36.6408556 112.2555309  67.0877970  35.7373732 113.4043836
  77.0493535  46.3124483 111.2482552  77.4924681  45.5631808 110.8501675
  76.1720046  46.3034619 110.8656284  72.1829317  52.8654824 106.7289151
  72.8780221  53.4861517 106.9476465  72.5252467  52.0150175 107.0041529
  57.7997126  44.6872625 120.5885968  57.0578862  44.8355260 121.1750598
  57.4789870  44.9480891 119.7252717  74.0820740  50.3154530 108.2576481
  74.6072064  50.6541802 107.5325801  73.9943092  49.3801545 108.0739616
  65.7440789  54.2288603 120.3866358  66.0527915  53.9837750 121.2589058
  66.5416271  54.4335242 119.8985228  65.7661401  56.3826513 112.6171735
  65.3266391  55.8902892 113.3104591  66.5169518  55.8399481 112.3763810
  58.2453740  52.5738054 112.6196363  59.0711760  52.2741826 112.2395006
  57.8947792  51.8045676 113.0686151  63.2135273  51.9264522 114.6894036
  62.5915282  51.2635227 114.3896264  63.8840140  51.9525654 114.0067684
  56.4462345  50.4924380 113.5785296  55.6094253  50.0646555 113.3969298
  56.4185990  50.6856824 114.5156087  73.7714646  50.9487433 123.5627679
  72.9810190  50.9311572 123.0232179  73.5348001  51.4875727 124.3176716
  73.8912521  47.7979900 120.8760408  73.9410526  47.6329907 121.8175931
  73.7826444  46.9307159 120.4858289  62.7748780  50.4768445 108.1652497
  62.9236900  51.1603910 107.5119170  63.5815223  50.4573535 108.6801953
  71.1816283  43.7810828 122.1919715  72.0826146  43.6417293 121.9003712
  71.2564258  43.9465283 123.1317892  65.5159089  41.1577682 121.0372901
  64.6462398  41.4511249 120.7655489  65.7518569  41.7418127 121.7580165
  75.3930718  50.2176841 121.1202429  75.1015526  50.5806822 121.9565890
  74.7802849  49.5043849 120.9415762  76.5926400  47.7829721 113.6405000
  77.4273292  48.2219525 113.8042560  76.7285529  47.3068374 112.8213245
  73.6417906  45.3409456 119.5882487  74.1172028  45.5337102 118.7801339
  72.7183471  45.3968642 119.3425871  60.5301413  46.5033623 109.1713566
  60.2847455  45.5995953 109.3693776  60.6997327  46.5050773 108.2293044
  68.2198123  37.3757299 118.5538321  68.7380066  38.1118326 118.2284810
  67.8653255  37.6821293 119.3885080  59.7997060  42.2361981 106.6699727
  59.1066305  42.3106336 106.0139763  59.5548812  41.4722324 107.1921244
  68.4710717  33.7957582 114.0739218  68.7512470  33.1280771 114.6999644
  69.2561324  33.9886678 113.5613882  66.2744185  52.9716576 105.6364244
  65.7018152  53.5906763 105.1834716  66.8476979  53.5215938 106.1704166
  72.3419575  42.2175216 117.8210793  73.2936998  42.3173314 117.8423017
  72.1723025  41.4253484 118.3308877  70.3633955  39.3030799 118.0070194
  69.7683887  39.5835812 117.3116683  70.0783651  39.7924700 118.7786935
  69.4941445  53.2553726 106.7672827  70.4272118  53.1899288 106.9705702
  69.4064658  54.0909993 106.3087359  72.1229462  52.5719596 103.7276774
  72.0443093  52.2379460 104.6212532  72.9439128  53.0641364 103.7268246
  74.8207653  45.4381336 116.9353093  74.7883973  44.4997336 117.1212777
  75.4308276  45.5165372 116.2018918  66.6590984  44.3077389 102.9780297
  67.6050088  44.1783597 103.0468715  66.2805229  43.5692050 103.4549725
  74.9702141  42.2292379 116.9811376  74.4541190  41.4450836 116.7941305
  75.8542090  41.9011096 117.1457895  72.6312868  35.9733395 112.9407189
  72.4337689  35.6648483 113.8250521  73.2412574  36.6995034 113.0705118
  80.6384203  46.4997342 116.0759129  81.3687591  46.2382631 116.6366833
  80.0291148  45.7626064 116.1161197  78.7199500  44.6405205 116.6733581
  77.9932663  44.5061170 116.0650072  78.3046787  44.9482034 117.4790299
  66.5429676  48.3595135 124.4380954  67.4632686  48.5373734 124.6321000
  66.5079259  47.4151180 124.2860653  64.8433901  42.2327365 102.9135182
  63.9365356  41.9360478 102.9897896  65.1209882  41.9357183 102.0469468
  55.7611841  43.5533728 113.3634228  55.4414626  42.6999037 113.0708602
  55.2145269  43.7682307 114.1192196  59.5391749  46.2696169 117.0803735
  59.7577759  47.2013277 117.0991769  59.9517523  45.9104144 117.8658539
  66.4595967  36.7764255 109.0679423  65.6496695  36.4311340 109.4434669
  67.1480384  36.4671798 109.6567035  68.3886515  35.8542301 110.6903720
  68.9417553  36.2737755 111.3493743  68.6256601  34.9278050 110.7326676
  63.6132685  39.0914300 103.0547161  64.4751849  39.4169198 103.3142979
  63.7983030  38.3045796 102.5420227  55.6300101  47.1736640 115.3327350
  54.9363573  46.7590593 114.8197304  56.3773092  47.2157176 114.7360769
  71.7665322  37.9642827 110.1982384  71.1863991  38.6227631 109.8160437
  71.5001255  37.1420171 109.7869802  70.2168888  37.3647884 112.4003704
  70.7168667  37.4764419 111.5918023  70.8604496  37.0608937 113.0404513
  64.2750884  45.2726514 125.2871545  63.7917966  46.0726874 125.4935434
  64.3611823  45.2834459 124.3338989  57.5436844  47.1054894 113.2093365
  57.5207532  47.2042581 112.2575248  57.8537480  47.9520044 113.5310531
  60.2024222  49.1631049 117.3239979  61.1567475  49.1314991 117.2569911
  60.0036745  48.7021672 118.1390205  60.7923604  47.7332165 119.8910777
  61.6116493  48.2276243 119.9145614  61.0660411  46.8164133 119.8628344
  70.5490200  40.1242917 109.2538732  69.6616055  40.4092568 109.0358927
  70.9644189  39.9636680 108.4066009  73.9004736  40.1489438 112.9693072
  74.6765126  40.6385890 113.2417688  73.1752870  40.5747492 113.4264941
  76.3377295  40.8617057 114.0267012  76.9321786  40.6212793 113.3160321
  76.4103878  40.1424188 114.6540549  58.5574450  54.7050668 114.3410177
  58.4228918  53.9451069 113.7748175  58.1406513  55.4291568 113.8738966
  69.6933413  49.8887592 103.3486752  70.3969264  50.0937594 103.9644408
  68.9696062  50.4564354 103.6135836  70.5231224  45.6397453 109.4689023
  70.4666425  46.0966004 108.6296655  71.0759566  44.8788138 109.2911865
  74.3336030  41.4287185 110.2939142  74.0772964  41.0283820 111.1247350
  73.7088898  42.1430979 110.1689281  78.6448367  44.1683258 112.8010433
  78.0847925  44.2376447 113.5741996  78.0391871  43.9924243 112.0809930
  61.7143576  55.6019985 114.5528620  61.5975960  56.5465418 114.4507310
  60.8936023  55.2993547 114.9414419  71.6020111  50.3270121 105.3985212
  72.4365715  49.8951319 105.2162687  71.4404454  50.1552135 106.3262107
  71.2566003  46.8302234 106.7641552  71.2014807  46.6646506 105.8229996
  70.6312058  47.5378267 106.9203741  56.0458518  42.0670299 120.5902974
  56.6917382  41.5569253 121.0790199  55.8375669  42.8038980 121.1646399
  68.5711910  49.1351146 126.0895115  69.4403070  49.3091798 125.7281749
  68.0918662  49.9545563 125.9670844  64.5662128  36.3310343 106.3426870
  64.5540798  37.2752183 106.4995141  65.4585550  36.1480489 106.0486331
  62.7398090  56.2548247 117.7684548  63.6425337  56.2871857 118.0851043
  62.5135461  55.3248698 117.7830884  64.4951692  55.0079234 114.4294627
  63.5447323  55.0081095 114.3158999  64.7984179  54.2611968 113.9130661
  68.3814248  32.9253120 110.5972807  67.6146644  32.3711607 110.7429489
  68.7924953  32.9974989 111.4586959  80.2304386  60.8439772 115.4940389
  80.8682796  60.7246519 114.7903729  80.1125229  61.7920616 115.5528341
  77.0394092  60.7967200 115.4301914  76.7012604  60.6808265 114.5422449
  77.9083860  60.3958365 115.4102920  72.8980908  62.6502677 111.4198805
  72.3345773  62.5592613 110.6515093  72.7833303  61.8302581 111.9001297
  77.5213875  61.9502052 121.3888119  77.5102516  61.5554850 120.5168623
  77.6834515  61.2168124 121.9821891  70.4445340  64.1453868 114.2583025
  71.2366632  63.8044693 113.8429325  70.6841990  64.2548843 115.1785179
  78.4780467  66.3173644 106.7313270  77.8268446  66.9027725 106.3447284
  79.2724829  66.8479839 106.7908307  72.4036094  63.4062781 107.1300404
  73.1766970  62.8591768 106.9913280  72.7561493  64.2707031 107.3414865
  74.2421136  64.7339164 120.3367303  73.9511002  65.6384794 120.2213970
  74.8778121  64.7755691 121.0511373  75.1677343  62.1116012 116.9268663
  75.7640915  61.8872035 116.2125626  75.2252315  61.3700758 117.5294111
  74.7402372  59.5655447 104.7618854  74.9927892  59.0436969 104.0002317
  73.8026931  59.4021593 104.8645538  79.7845654  58.5691226 112.5693597
  80.5708744  58.1510649 112.2184014  80.0484359  59.4737318 112.7375246
  79.9555732  64.0064076 107.2682254  79.3201565  64.0798703 107.9803159
  79.6253138  64.5957675 106.5901333  85.1854082  58.5066459 113.4726576
  85.9179254  57.9365676 113.7064405  84.4293437  58.1188060 113.9133081
  74.4598660  61.4683553 106.9643229  74.3434918  60.7928457 107.6324313
  74.5700920  60.9815927 106.1475382  76.8030201  60.9293701 110.6689918
  76.4388409  60.4024322 111.3802840  77.6597317  60.5392170 110.4956404
  82.7079502  52.2188033 117.9321184  82.3762827  53.0883444 117.7082399
  82.1125115  51.9024317 118.6115215  76.4435688  55.9583600 105.6651267
  76.6110091  56.8263837 106.0321738  76.2532857  56.1210882 104.7412556
  79.2011021  64.4200579 117.3317097  78.9011745  65.3225618 117.2232904
  78.8562081  64.1532762 118.1838250  72.6523503  60.8714376 113.3653802
  71.7273999  60.7390590 113.5731493  72.9007916  61.6508595 113.8623744
  82.6008165  56.9383119 115.0114534  81.6925043  56.8698528 114.7173295
  82.5495761  57.4155064 115.8396360  76.4224909  58.4141258 106.6497934
  76.3024534  58.8598309 107.4883414  75.7277498  58.7626575 106.0911472
  70.0132314  60.5147650 114.1997591  70.1424695  60.7682128 115.1137002
  69.3329765  61.1075358 113.8802246  74.1831801  71.1844900 110.2988065
  74.1055831  72.1352725 110.3776545  73.5793445  70.8390772 110.9562991
  76.6749031  58.3572765 122.9549432  75.8982365  58.9166685 122.9452296
  77.3139594  58.8429548 123.4764302  84.4669812  55.1399558 116.7892408
  83.8244192  55.4332091 116.1432203  83.9624740  55.0252478 117.5945605
  82.1209975  58.8862731 107.4778268  83.0327831  59.1190118 107.3025965
  81.6119622  59.4699775 106.9153346  74.9295403  61.1658218 122.5167399
  75.6710088  61.7043262 122.2402222  74.2232389  61.7924507 122.6738950
  80.4050743  63.3087359 121.1139560  80.8134099  62.8669769 120.3694193
  79.6828004  62.7339986 121.3673753  76.7581813  58.2459966 118.4873117
  77.6043008  58.6699379 118.6307766  76.6980451  57.5893590 119.1811680
  80.7279558  63.8688549 114.8691849  80.0988420  64.0334264 114.1667917
  80.3405220  64.2830159 115.6402813  84.6068790  64.8042987 112.2236213
  83.9219828  65.1841889 111.6733246  84.6912639  65.4138314 112.9568161
  79.9081258  55.9064334 120.1454291  79.6642190  56.6606394 119.6088566
  80.1841189  56.2849681 120.9801538  81.8619721  62.4502946 118.8231556
  82.0736616  63.0934706 118.1465937  81.8149469  61.6165263 118.3553486
  79.4645950  55.0620767 115.7268128  78.6030429  55.3602020 116.0184866
  79.4908385  55.2791166 114.7949161  76.2807519  63.6062957 112.1341934
  76.7445865  63.8850660 111.3446557  76.0164318  62.7046402 111.9515025
  73.1731601  63.1534439 115.0721697  73.7432958  63.5821707 114.4339182
  73.7639712  62.8717024 115.7705883  75.2176406  59.7286110 108.9431499
  75.9200449  60.1807154 109.4105426  74.8857034  59.0869929 109.5711392
  73.6656767  58.3197866 123.3182709  73.0355428  59.0014147 123.5518106
  73.5592855  58.2080948 122.3735847  68.9601739  57.9869662 114.2448633
  68.1700793  58.2427191 113.7688743  69.4512987  58.8018000 114.3500673
  82.9765549  65.3274902 116.9953914  83.7982993  64.9255089 116.7136595
  82.9727952  65.2243136 117.9470029  70.9116485  58.3514242 111.2032110
  70.1147648  58.4632936 111.7215605  70.6842077  58.6900894 110.3373000
  76.7422152  64.8758945 119.1514624  76.8066585  65.3379352 119.9872796
  76.0333076  64.2456310 119.2796934  67.2439442  58.2400153 116.6763624
  67.4947481  59.1247163 116.9421200  67.7798991  58.0604754 115.9038715
  91.0671542  61.6713650 113.3438885  90.3135250  61.1021048 113.1882890
  91.2019083  61.6376315 114.2909520  76.4570170  66.5427052 109.0193605
  76.3215845  67.3878588 109.4478452  76.9979983  66.7446330 108.2559538
  72.9437510  52.6218632 125.6807960  72.5504455  52.0684831 126.3555604
  73.7603650  52.9329211 126.0714477  69.9099568  64.0602490 109.5921530
  70.4224088  64.8545741 109.7427094  70.5622280  63.3628781 109.5255131
  71.7194452  67.1768247 111.6744283  71.8961081  68.0986211 111.4865267
  72.5151286  66.8626666 112.1038663  75.8605471  54.0376511 123.2728216
  76.6015184  54.6383665 123.1932679  76.0923394  53.2954149 122.7146259
  71.0046809  59.2232879 121.5506446  70.8900324  58.3218136 121.8513545
  70.1491327  59.4696575 121.1991263  78.0838647  67.1650619 123.1493947
  77.6402501  66.3786998 122.8314851  78.7455860  67.3529769 122.4837837
  72.8425768  68.6946421 117.6754625  73.3933193  68.5663484 116.9031619
  72.0037244  68.9941310 117.3249518  80.1819885  67.4453419 121.1775348
  80.1638360  68.2662300 120.6855617  81.1039805  67.3207494 121.4025489
  76.6392939  64.9597548 122.0198856  77.1721276  64.1985837 121.7898164
  76.1107020  64.6671200 122.7623011  79.8062634  50.0657614 117.5492498
  79.4626903  50.9559256 117.4731609  80.1741596  49.8759272 116.6862083
  67.8748484  62.3891145 110.3681100  68.7123706  62.7988153 110.1514808
  68.0526752  61.4490587 110.3381294  79.7712916  60.0566225 106.0564933
  79.2559540  60.8270830 106.2953321  79.4990225  59.3831362 106.6797995
  77.3560027  54.9015926 111.1150171  76.5001624  54.5122777 110.9355810
  77.7686979  54.9807887 110.2549957  78.8859174  52.4362269 115.5141731
  78.3823970  52.3992405 114.7009537  79.1789781  53.3455012 115.5738388
  75.1302060  52.5200999 114.5207913  75.9955057  52.3243808 114.1613802
  75.1979569  52.2911351 115.4477270  84.7447191  62.8098580 107.9918107
  83.9676633  62.4709740 107.5473269  85.4238672  62.8151203 107.3173072
  79.5599220  57.9293318 107.8824714  79.2549355  58.2439467 108.7334857
  80.5129662  58.0074737 107.9252047  78.0045651  64.0883541 109.5317668
  77.4767013  63.3536300 109.2190906  77.5033154  64.8658217 109.2857637
  82.9838497  62.2832561 114.6484715  82.3262172  62.9731823 114.7364843
  83.7878897  62.6728993 114.9918701  72.7364379  54.7503207 111.8924280
  73.3108131  54.5278389 111.1597473  73.3235362  54.8191902 112.6452881
  81.7943956  60.6376934 112.6988656  82.3075838  61.2706926 113.2010366
  82.4445180  60.0378130 112.3332016  73.0633966  56.7807668 105.9120165
  72.2271278  57.1182355 106.2329440  72.9238736  56.6456648 104.9747302
  75.0387047  51.6244456 110.6199349  74.3851459  51.3093473 109.9955964
  74.9967521  51.0020197 111.3459172  76.1498252  61.9063751 102.5352641
  75.2425313  61.6753005 102.7343790  76.6469284  61.1101370 102.7226623
  79.0566331  70.6161258 105.4549327  78.3828029  70.9192955 106.0634285
  79.4432152  71.4190339 105.1054785  78.2724787  58.1126390 114.9446997
  77.3547349  58.3341337 114.7868685  78.6884931  58.1872700 114.0858704
  79.0559835  59.5117805 110.0749677  79.8031654  60.0239202 109.7656799
  79.3251424  59.1901858 110.9354071  77.3286485  62.0076346 107.0576631
  76.4197704  61.7235379 107.1549101  77.3581569  62.4275425 106.1979938
  82.5605752  65.6182935 110.8267799  82.1068080  64.7773845 110.8832989
  81.9299719  66.2544334 111.1642579  81.5038672  56.5474922 112.0568466
  80.7661429  56.0352308 112.3878709  81.7565446  56.1075303 111.2451743
  81.0038692  67.4559432 111.7617617  81.2961666  68.0164489 111.0429983
  81.5137312  67.7487993 112.5170776  81.6050299  49.3251174 112.6510236
  81.9109176  48.4648537 112.3636151  82.3302904  49.9168794 112.4509230
  67.8974655  59.7281860 111.0391834  67.6999055  59.1351221 110.3142900
  67.3421319  59.4234070 111.7567772  75.8771379  59.6204967 113.1586427
  75.9319989  58.6678803 113.0828903  75.0662581  59.7764406 113.6427725
  77.0262573  63.5485090 104.3964710  76.5882003  62.8320949 103.9370347
  77.7673014  63.7761204 103.8349801  73.8163739  58.2382026 110.9176806
  73.0031605  58.5376197 111.3241998  74.3122733  57.8437715 111.6351288
  75.9672317  68.2339783 112.8511070  75.9248496  68.4600630 111.9219602
  76.8835016  68.0003158 112.9996871  79.4137951  58.7023851 119.7491699
  79.7687338  58.9295324 120.6086165  80.0610082  59.0342228 119.1268955
  85.1435688  61.8242287 110.4541029  85.0053586  62.0143883 109.5262218
  84.7871906  62.5861670 110.9109080  73.3077814  55.8100382 116.5338041
  73.9477193  55.6689141 115.8361004  72.4755344  55.5234895 116.1576643
  85.1705067  63.8918814 115.4652300  85.6041574  63.7994103 116.3135354
  85.8836648  63.8676314 114.8272316  74.0838118  65.1102812 112.6473033
  74.8778716  64.6153132 112.4455608  73.3729810  64.5820675 112.2840739
  78.9032962  67.4920908 116.9985401  78.9569984  68.0611844 117.7663117
  78.0347744  67.6622793 116.6339438  70.3920881  59.2545894 108.7232786
  69.4618469  59.1930350 108.9402748  70.4878353  58.7321847 107.9269427
  70.3106430  55.7800707 111.3111027  70.5713248  56.6946040 111.2020188
  71.1323603  55.3125149 111.4607640  71.7831356  57.1938464 118.4809852
  72.4554409  56.9855826 117.8322501  70.9561142  56.9960550 118.0415084
  86.0320617  63.9342514 117.9985185  86.2256507  64.8388325 118.2444460
  85.9321235  63.4749933 118.8323770  77.6856928  53.8200405 120.4975513
  77.0384843  54.5190355 120.4039989  78.4557943  54.2536549 120.8651761
  81.0935726  64.0849257 123.5726066  80.9421232  63.8559809 122.6556150
  81.0840405  65.0419859 123.5857411  77.8621062  61.6581170 118.5572332
  78.7913122  61.8092329 118.3841300  77.4412092  61.7465191 117.7020979
  76.6609394  65.6831834 116.3270870  76.5220479  65.3150619 117.1996808
  75.8723990  66.1979474 116.1554828  77.2557546  70.7840931 107.6696407
  77.4309301  70.3128974 108.4842029  76.5690334  71.4106697 107.8977667
  78.2114609  65.0613437 113.7159708  77.8764441  65.0214207 114.6117358
  77.7118555  64.3958153 113.2430118  72.1858853  60.4681067 119.2412289
  72.0478651  59.7361306 119.8423828  73.0963776  60.3789967 118.9596477
  81.1473800  62.4069471 103.9896768  80.5302971  61.6816299 103.8929820
  80.6790289  63.1678832 103.6463842  74.8141153  60.1801026 118.7295969
  75.5240772  59.5394219 118.6882587  74.7710462  60.4313921 119.6522149
  82.8027932  67.1168380 121.6502548  82.7440478  66.4327600 120.9833131
  83.2047451  67.8587370 121.1983174  73.5270087  57.1666244 120.5491608
  72.9907444  56.7156983 121.2013204  72.9386796  57.3012153 119.8062073
  71.8218631  73.9330294 114.4436267  72.0615229  74.5648818 115.1215285
  70.9787827  73.5818334 114.7301626  72.9372346  56.6254896 103.1118072
  72.0601813  56.5043696 102.7480318  73.4130099  55.8340974 102.8596960
  82.8045339  65.0807964 119.8816528  81.9172118  64.7433885 120.0042926
  83.3743890  64.3490995 120.1185293  64.4574487  61.4132055 113.2059579
  65.1445526  61.0993785 112.6180594  64.3022615  62.3173420 112.9326830
  69.2609209  56.3022252 117.6344603  69.1767397  55.6947921 116.8995013
  68.4391915  56.7931270 117.6354099  76.3346493  69.7409416 116.8477771
  76.2616664  70.5464387 117.3597075  75.8923886  69.9401382 116.0225792
  76.1236272  68.9781186 110.3580592  75.3403794  69.5202866 110.4518817
  76.8229018  69.4955166 110.7574833  79.4332923  54.7875815 113.0014798
  79.9301622  54.0345778 112.6815868  78.6619904  54.8240132 112.4358007
  87.2862680  60.4916181 114.6433089  87.2752556  61.3740896 114.2727022
  86.4180059  60.1387732 114.4487626  78.7945176  69.6396250 119.0035929
  79.5073149  70.2743715 118.9311831  78.3035205  69.7360116 118.1875931
  80.5162703  63.5447503 110.5753221  79.5818982  63.6648965 110.4057925
  80.6939372  62.6419969 110.3113231  76.0167891  56.9293198 112.7286482
  75.6465679  56.3764239 113.4167388  76.5126984  56.3251332 112.1761482
  83.9035255  59.3864822 111.1103255  84.3695707  60.2192814 111.0363558
  84.3542755  58.9209804 111.8148514  73.8457090  67.3890693 119.8241500
  74.5466549  68.0227176 119.9770894  73.3752205  67.7305425 119.0637140
  81.9711486  65.7308643 108.1089407  82.2471330  65.6165238 109.0183281
  81.1015984  65.3326128 108.0701580  81.8751917  51.7545409 115.1494157
  80.9614997  51.9849636 115.3176364  82.3045019  51.8383853 116.0008189
  81.6458376  59.9435301 117.6494051  80.9929826  60.1911208 116.9946503
  82.0238756  59.1299439 117.3156528  78.6065550  69.9794994 111.7522221
  78.7887944  69.1616650 112.2149973  79.4298536  70.1962686 111.3147111
  78.9407715  68.9063179 109.0137269  79.4695482  68.3955634 108.4007431
  79.2035935  68.5905709 109.8782802  77.6945949  60.6855112 124.1360088
  77.0186586  60.5849241 124.8062463  78.5173583  60.5294326 124.5996085
  69.4424808  66.9227048 116.7572603  70.0278245  66.1770736 116.8900507
  69.2449646  67.2331005 117.6409267  72.2963463  69.9578296 111.7735045
  71.6273838  70.4424424 111.2899085  72.1576333  70.2047516 112.6878424
  64.0342463  59.4932649 115.4777046  64.0726562  58.9596239 116.2714164
  63.5282755  58.9667854 114.8588023  76.4368732  71.9922039 118.3717704
  76.9887040  72.1553661 119.1366789  76.7774925  72.5826477 117.6997729
  71.4133225  54.3397189 118.9739588  71.4774551  55.2012020 118.5616986
  71.3500345  53.7271191 118.2411947  70.8885497  56.4120322 122.6212623
  71.5157536  56.0297399 123.2350147  70.0313416  56.1934524 122.9868315
  67.6651040  58.2196751 108.5530977  67.9604481  57.3107429 108.4998031
  66.7639076  58.1984490 108.2311980  79.5737119  69.9404015 115.3581386
  79.4488258  69.1393755 114.8492331  80.2316210  70.4350208 114.8695356
  71.1945287  56.2952747 114.5358526  70.4731873  56.9088715 114.3965999
  71.9838543  56.8310512 114.4575172  81.6372027  67.7413035 116.9860936
  80.6902363  67.6218386 116.9139263  81.9854801  66.8535533 117.0687197
  73.9971601  53.6307174 120.8099178  74.5206003  53.8769470 121.5725487
  73.7783934  54.4627209 120.3902315  69.3938882  55.9010849 108.6770303
  69.0651588  55.0208227 108.4945409  69.7478253  55.8458517 109.5646692
  78.6418461  67.5365751 113.1865288  78.4943423  66.6082459 113.3672858
  79.4671954  67.5585842 112.7022363  72.5080705  56.1883818 109.0445780
  72.8476777  56.7169740 108.3224389  72.9552825  56.5264224 109.8204347
  82.2452583  68.3594310 114.2730161  83.1699130  68.1537171 114.1354612
  82.0767886  68.1110711 115.1819502  75.2024146  54.5720869 118.4948848
  74.8620966  53.7728682 118.8969528  74.4963152  54.8722580 117.9225682
  75.8540618  51.6570181 116.9476171  76.6766687  51.1830660 116.8255062
  76.0978681  52.4360665 117.4474858  74.4948852  54.6858440 107.2439073
  75.2157215  55.0639693 106.7402790  73.8714156  55.4047317 107.3474051
  78.6379975  55.3903589 108.1797405  78.8543589  56.2728227 107.8786234
  78.1574042  54.9989802 107.4503047  73.3779196  58.3489302 114.7568150
  73.2323777  58.6629605 115.6492432  72.9004400  58.9674202 114.2039049
  75.2375579  55.3391850 114.8049040  75.2237148  54.4432943 114.4681338
  75.9548007  55.3462514 115.4387326  77.0901710  55.7729190 116.8502167
  76.8319488  56.6946261 116.8486497  76.5586750  55.3759625 117.5402631
  82.0347899  68.8779977 109.6292252  82.2084776  68.3126400 108.8766105
  82.5276790  69.6780872 109.4471742  67.8524859  60.8894646 117.6955811
  67.3078327  61.6654454 117.8276086  68.7304208  61.2365451 117.5374933
  74.6412475  54.2206230 110.0736610  74.7628386  53.2922877 110.2727497
  74.3514518  54.2344916 109.1614925  77.5103666  51.9061141 113.2103330
  77.5325362  51.9700474 112.2555309  77.9271725  51.0665649 113.4043836
  87.8887290  61.6416400 111.2482552  88.3318436  60.8923726 110.8501675
  87.0113800  61.6326537 110.8656284  83.0223071  68.1946742 106.7289151
  83.7173976  68.8153434 106.9476465  83.3646221  67.3442093 107.0041529
  68.6390880  60.0164543 120.5885968  67.8972616  60.1647178 121.1750598
  68.3183625  60.2772808 119.7252717  84.9214494  65.6446447 108.2576481
  85.4465818  65.9833720 107.5325801  84.8336847  64.7093463 108.0739616
  76.5834543  69.5580521 120.3866358  76.8921670  69.3129668 121.2589058
  77.3810025  69.7627159 119.8985228  76.6055155  71.7118431 112.6171735
  76.1660145  71.2194809 113.3104591  77.3563272  71.1691398 112.3763810
  69.0847494  67.9029971 112.6196363  69.9105514  67.6033743 112.2395006
  68.7341546  67.1337594 113.0686151  74.0529027  67.2556440 114.6894036
  73.4309037  66.5927145 114.3896264  74.7233894  67.2817572 114.0067684
  67.2856099  65.8216298 113.5785296  66.4488007  65.3938472 113.3969298
  67.2579745  66.0148741 114.5156087  74.1253555  55.7338228 124.2826542
  74.1741710  56.6100351 123.9004312  74.6676069  55.1915621 123.7098186
  84.7306275  63.1271817 120.8760408  84.7804280  62.9621825 121.8175931
  84.6220199  62.2599076 120.4858289  73.6142534  65.8060363 108.1652497
  73.7630655  66.4895827 107.5119170  74.4208978  65.7865453 108.6801953
  82.0210038  59.1102745 122.1919715  82.9219901  58.9709210 121.9003712
  82.0958012  59.2757200 123.1317892  76.3552843  56.4869600 121.0372901
  75.4856153  56.7803166 120.7655489  76.5912324  57.0710045 121.7580165
  86.2324472  65.5468759 121.1202429  85.9409281  65.9098739 121.9565890
  85.6196604  64.8335767 120.9415762  87.4320155  63.1121639 113.6405000
  88.2667046  63.5511443 113.8042560  87.5679283  62.6360292 112.8213245
  84.4811661  60.6701373 119.5882487  84.9565782  60.8629020 118.7801339
  83.5577226  60.7260559 119.3425871  71.3695167  61.8325541 109.1713566
  71.1241209  60.9287871 109.3693776  71.5391082  61.8342691 108.2293044
  79.0591877  52.7049217 118.5538321  79.5773821  53.4410244 118.2284810
  78.7047010  53.0113210 119.3885080  70.6390815  57.5653898 106.6699727
  69.9460060  57.6398253 106.0139763  70.3942567  56.8014242 107.1921244
  79.3104471  49.1249500 114.0739218  79.5906225  48.4572689 114.6999644
  80.0955078  49.3178595 113.5613882  77.1137940  68.3008493 105.6364244
  76.5411907  68.9198681 105.1834716  77.6870733  68.8507855 106.1704166
  83.1813330  57.5467134 117.8210793  84.1330752  57.6465231 117.8423017
  83.0116780  56.7545402 118.3308877  81.2027709  54.6322717 118.0070194
  80.6077641  54.9127730 117.3116683  80.9177406  55.1216618 118.7786935
  80.3335199  68.5845644 106.7672827  81.2665873  68.5191205 106.9705702
  80.2458412  69.4201910 106.3087359  82.9623216  67.9011514 103.7276774
  82.8836848  67.5671378 104.6212532  83.7832883  68.3933282 103.7268246
  85.6601407  60.7673253 116.9353093  85.6277727  59.8289254 117.1212777
  86.2702031  60.8457290 116.2018918  77.4984738  59.6369306 102.9780297
  78.4443843  59.5075514 103.0468715  77.1198983  58.8983968 103.4549725
  85.8095896  57.5584297 116.9811376  85.2934944  56.7742753 116.7941305
  86.6935844  57.2303013 117.1457895  83.4706623  51.3025312 112.9407189
  83.2731444  50.9940400 113.8250521  84.0806328  52.0286951 113.0705118
  91.4777957  61.8289260 116.0759129  92.2081346  61.5674548 116.6366833
  90.8684903  61.0917982 116.1161197  89.5593254  59.9697123 116.6733581
  88.8326418  59.8353088 116.0650072  89.1440541  60.2773951 117.4790299
  77.3823431  63.6887052 124.4380954  78.3026440  63.8665651 124.6321000
  77.3473014  62.7443098 124.2860653  75.6827655  57.5619283 102.9135182
  74.7759111  57.2652395 102.9897896  75.9603636  57.2649101 102.0469468
  66.6005596  58.8825646 113.3634228  66.2808380  58.0290954 113.0708602
  66.0539024  59.0974224 114.1192196  70.3785503  61.5988087 117.0803735
  70.5971513  62.5305195 117.0991769  70.7911277  61.2396061 117.8658539
  77.2989721  52.1056172 109.0679423  76.4890449  51.7603257 109.4434669
  77.9874138  51.7963716 109.6567035  79.2280269  51.1834219 110.6903720
  79.7811308  51.6029673 111.3493743  79.4650356  50.2569967 110.7326676
  75.2513369  57.1721293 126.4706484  75.1510095  58.1215650 126.4018575
  75.0334911  56.8439532 125.5982554  74.4526440  54.4206218 103.0547161
  75.3145604  54.7461116 103.3142979  74.6376784  53.6337714 102.5420227
  66.4693856  62.5028558 115.3327350  65.7757327  62.0882510 114.8197304
  67.2166847  62.5449094 114.7360769  82.6059076  53.2934744 110.1982384
  82.0257746  53.9519548 109.8160437  82.3395009  52.4712089 109.7869802
  81.0562643  52.6939802 112.4003704  81.5562421  52.8056337 111.5918023
  81.6998251  52.3900855 113.0404513  75.1144639  60.6018432 125.2871545
  74.6311720  61.4018792 125.4935434  75.2005578  60.6126377 124.3338989
  68.3830598  62.4346811 113.2093365  68.3601286  62.5334499 112.2575248
  68.6931235  63.2811962 113.5310531  71.0417976  64.4922966 117.3239979
  71.9961230  64.4606909 117.2569911  70.8430500  64.0313590 118.1390205
  71.6317358  63.0624082 119.8910777  72.4510247  63.5568161 119.9145614
  71.9054166  62.1456051 119.8628344  81.3883954  55.4534835 109.2538732
  80.5009809  55.7384485 109.0358927  81.8037944  55.2928598 108.4066009
  84.7398491  55.4781356 112.9693072  85.5158881  55.9677808 113.2417688
  84.0146625  55.9039410 113.4264941  87.1771049  56.1908975 114.0267012
  87.7715540  55.9504711 113.3160321  87.2497633  55.4716105 114.6540549
  69.3968205  70.0342586 114.3410177  69.2622673  69.2742987 113.7748175
  68.9800267  70.7583486 113.8738966  80.5327168  65.2179509 103.3486752
  81.2363018  65.4229512 103.9644408  79.8089817  65.7856271 103.6135836
  81.3624978  60.9689371 109.4689023  81.3060180  61.4257922 108.6296655
  81.9153321  60.2080055 109.2911865  85.1729784  56.7579102 110.2939142
  84.9166718  56.3575738 111.1247350  84.5482652  57.4722896 110.1689281
  89.4842122  59.4975176 112.8010433  88.9241680  59.5668365 113.5741996
  88.8785625  59.3216160 112.0809930  72.5537331  70.9311903 114.5528620
  72.4369715  71.8757335 114.4507310  71.7329777  70.6285464 114.9414419
  82.4413865  65.6562039 105.3985212  83.2759469  65.2243237 105.2162687
  82.2798208  65.4844052 106.3262107  82.0959758  62.1594152 106.7641552
  82.0408561  61.9938423 105.8229996  81.4705813  62.8670185 106.9203741
  66.8852273  57.3962216 120.5902974  67.5311136  56.8861170 121.0790199
  66.6769424  58.1330898 121.1646399  75.4055883  51.6602261 106.3426870
  75.3934553  52.6044101 106.4995141  76.2979305  51.4772406 106.0486331
  73.5791845  71.5840165 117.7684548  74.4819092  71.6163775 118.0851043
  73.3529215  70.6540616 117.7830884  75.3345447  70.3371151 114.4294627
  74.3841078  70.3373013 114.3158999  75.6377933  69.5903886 113.9130661
  79.2208002  48.2545038 110.5972807  78.4540398  47.7003524 110.7429489
  79.6318707  48.3266906 111.4586959  71.2249764  54.5429833 124.6877988
  72.0881225  54.1866638 124.8981313  70.6515174  54.2043728 125.3753392
  83.7374662  77.9794594 111.4198805  83.1739528  77.8884531 110.6515093
  83.6227057  77.1594499 111.9001297  81.2839094  79.4745786 114.2583025
  82.0760386  79.1336610 113.8429325  81.5235745  79.5840761 115.1785179
  89.3174221  81.6465562 106.7313270  88.6662201  82.2319642 106.3447284
  90.1118584  82.1771757 106.7908307  83.2429848  78.7354699 107.1300404
  84.0160724  78.1883686 106.9913280  83.5955247  79.5998948 107.3414865
  85.5796126  74.8947365 104.7618854  85.8321647  74.3728886 104.0002317
  84.6420685  74.7313511 104.8645538  90.6239409  73.8983144 112.5693597
  91.4102498  73.4802567 112.2184014  90.8878113  74.8029236 112.7375246
  90.7949486  79.3355994 107.2682254  90.1595319  79.4090620 107.9803159
  90.4646893  79.9249593 106.5901333  85.2992415  76.7975471 106.9643229
  85.1828673  76.1220375 107.6324313  85.4094675  76.3107845 106.1475382
  87.6423956  76.2585618 110.6689918  87.2782163  75.7316239 111.3802840
  88.4991072  75.8684087 110.4956404  87.2829443  71.2875518 105.6651267
  87.4503845  72.1555754 106.0321738  87.0926612  71.4502800 104.7412556
  83.4917257  76.2006294 113.3653802  82.5667754  76.0682508 113.5731493
  83.7401671  76.9800513 113.8623744  87.2618664  73.7433175 106.6497934
  87.1418289  74.1890226 107.4883414  86.5671252  74.0918493 106.0911472
  80.8526068  75.8439567 114.1997591  80.9818450  76.0974046 115.1137002
  80.1723520  76.4367275 113.8802246  92.9603730  74.2154649 107.4778268
  93.8721586  74.4482035 107.3025965  92.4513377  74.7991693 106.9153346
  90.3039705  70.3912685 115.7268128  89.4424184  70.6893938 116.0184866
  90.3302139  70.6083083 114.7949161  87.1201274  78.9354875 112.1341934
  87.5839620  79.2142578 111.3446557  86.8558072  78.0338320 111.9515025
  86.0570160  75.0578028 108.9431499  86.7594203  75.5099071 109.4105426
  85.7250789  74.4161846 109.5711392  79.7995494  73.3161580 114.2448633
  79.0094548  73.5719109 113.7688743  80.2906741  74.1309918 114.3500673
  81.7510239  73.6806159 111.2032110  80.9541403  73.7924854 111.7215605
  81.5235832  74.0192812 110.3373000  78.0833197  73.5692071 116.6763624
  78.3341235  74.4539081 116.9421200  78.6192745  73.3896672 115.9038715
  87.2963925  81.8718970 109.0193605  87.1609599  82.7170506 109.4478452
  87.8373737  82.0738248 108.2559538  80.7493322  79.3894408 109.5921530
  81.2617843  80.1837658 109.7427094  81.4016035  78.6920699 109.5255131
  82.5588207  82.5060164 111.6744283  82.7354835  83.4278129 111.4865267
  83.3545040  82.1918584 112.1038663  90.6456388  65.3949532 117.5492498
  90.3020658  66.2851174 117.4731609  91.0135351  65.2051190 116.6862083
  78.7142239  77.7183062 110.3681100  79.5517461  78.1280071 110.1514808
  78.8920507  76.7782505 110.3381294  90.6106671  75.3858143 106.0564933
  90.0953294  76.1562748 106.2953321  90.3383979  74.7123279 106.6797995
  88.1953782  70.2307844 111.1150171  87.3395378  69.8414694 110.9355810
  88.6080734  70.3099805 110.2549957  89.7252929  67.7654187 115.5141731
  89.2217724  67.7284322 114.7009537  90.0183535  68.6746930 115.5738388
  85.9695814  67.8492917 114.5207913  86.8348811  67.6535726 114.1613802
  86.0373323  67.6203269 115.4477270  95.5840945  78.1390498 107.9918107
  94.8070388  77.8001657 107.5473269  96.2632426  78.1443121 107.3173072
  90.3992974  73.2585235 107.8824714  90.0943110  73.5731384 108.7334857
  91.3523416  73.3366655 107.9252047  88.8439406  79.4175459 109.5317668
  88.3160768  78.6828218 109.2190906  88.3426909  80.1950135 109.2857637
  83.5758134  70.0795125 111.8924280  84.1501885  69.8570306 111.1597473
  84.1629116  70.1483819 112.6452881  83.9027721  72.1099586 105.9120165
  83.0665033  72.4474272 106.2329440  83.7632490  71.9748566 104.9747302
  85.8780801  66.9536374 110.6199349  85.2245214  66.6385391 109.9955964
  85.8361275  66.3312114 111.3459172  86.9892006  77.2355669 102.5352641
  86.0819068  77.0044922 102.7343790  87.4863038  76.4393288 102.7226623
  89.8960085  85.9453176 105.4549327  89.2221784  86.2484873 106.0634285
  90.2825907  86.7482256 105.1054785  89.1118542  73.4418307 114.9446997
  88.1941103  73.6633254 114.7868685  89.5278685  73.5164618 114.0858704
  89.8953589  74.8409723 110.0749677  90.6425408  75.3531120 109.7656799
  90.1645179  74.5193776 110.9354071  88.1680240  77.3368264 107.0576631
  87.2591459  77.0527296 107.1549101  88.1975323  77.7567342 106.1979938
  92.3432427  71.8766839 112.0568466  91.6055183  71.3644225 112.3878709
  92.5959200  71.4367221 111.2451743  92.4444054  64.6543091 112.6510236
  92.7502931  63.7940455 112.3636151  93.1696659  65.2460711 112.4509230
  78.7368410  75.0573778 111.0391834  78.5392810  74.4643138 110.3142900
  78.1815074  74.7525988 111.7567772  86.7165134  74.9496884 113.1586427
  86.7713743  73.9970721 113.0828903  85.9056336  75.1056323 113.6427725
  87.8656327  78.8777007 104.3964710  87.4275757  78.1612866 103.9370347
  88.6066768  79.1053122 103.8349801  84.6557494  73.5673944 110.9176806
  83.8425359  73.8668115 111.3241998  85.1516488  73.1729633 111.6351288
  95.9829442  77.1534204 110.4541029  95.8447341  77.3435800 109.5262218
  95.6265661  77.9153587 110.9109080  84.1471568  71.1392300 116.5338041
  84.7870948  70.9981059 115.8361004  83.3149099  70.8526813 116.1576643
  84.9231872  80.4394730 112.6473033  85.7172471  79.9445050 112.4455608
  84.2123565  79.9112593 112.2840739  81.2314636  74.5837812 108.7232786
  80.3012224  74.5222267 108.9402748  81.3272108  74.0613764 107.9269427
  81.1500185  71.1092625 111.3111027  81.4107002  72.0237958 111.2020188
  81.9717357  70.6417067 111.4607640  82.6225110  72.5230382 118.4809852
  83.2948163  72.3147744 117.8322501  81.7954897  72.3252468 118.0415084
  88.0951300  86.1132848 107.6696407  88.2703056  85.6420892 108.4842029
  87.4084088  86.7398615 107.8977667  91.9867555  77.7361389 103.9896768
  91.3696726  77.0108217 103.8929820  91.5184043  78.4970749 103.6463842
  83.7766101  71.9546813 103.1118072  82.8995567  71.8335614 102.7480318
  84.2523854  71.1632892 102.8596960  75.2968241  76.7423973 113.2059579
  75.9839281  76.4285703 112.6180594  75.1416370  77.6465338 112.9326830
  80.1002963  71.6314170 117.6344603  80.0161152  71.0239839 116.8995013
  79.2785670  72.1223188 117.6354099  90.2726677  70.1167733 113.0014798
  90.7695377  69.3637695 112.6815868  89.5013659  70.1532050 112.4358007
  91.3556458  78.8739420 110.5753221  90.4212736  78.9940883 110.4057925
  91.5333126  77.9711887 110.3113231  86.8561646  72.2585116 112.7286482
  86.4859433  71.7056156 113.4167388  87.3520738  71.6543250 112.1761482
  94.7429009  74.7156740 111.1103255  95.2089461  75.5484731 111.0363558
  95.1936510  74.2501721 111.8148514  92.8105240  81.0600561 108.1089407
  93.0865084  80.9457155 109.0183281  91.9409739  80.6618046 108.0701580
  92.7145672  67.0837327 115.1494157  91.8008752  67.3141553 115.3176364
  93.1438773  67.1675771 116.0008189  89.7801470  84.2355097 109.0137269
  90.3089236  83.7247551 108.4007431  90.0429689  83.9197627 109.8782802
  74.8736217  74.8224566 115.4777046  74.9120317  74.2888157 116.2714164
  74.3676510  74.2959772 114.8588023  82.2526979  69.6689107 118.9739588
  82.3168306  70.5303938 118.5616986  82.1894100  69.0563109 118.2411947
  78.5044795  73.5488669 108.5530977  78.7998236  72.6399347 108.4998031
  77.6032831  73.5276408 108.2311980  82.0339042  71.6244665 114.5358526
  81.3125627  72.2380633 114.3965999  82.8232298  72.1602430 114.4575172
  80.2332636  71.2302766 108.6770303  79.9045342  70.3500145 108.4945409
  80.5872007  71.1750435 109.5646692  83.3474459  71.5175736 109.0445780
  83.6870532  72.0461657 108.3224389  83.7946580  71.8556142 109.8204347
  86.0417900  69.9012787 118.4948848  85.7014721  69.1020600 118.8969528
  85.3356907  70.2014498 117.9225682  86.6934372  66.9862099 116.9476171
  87.5160441  66.5122577 116.8255062  86.9372436  67.7652583 117.4474858
  85.3342607  70.0150358 107.2439073  86.0550969  70.3931610 106.7402790
  84.7107911  70.7339234 107.3474051  89.4773730  70.7195507 108.1797405
  89.6937344  71.6020144 107.8786234  88.9967797  70.3281720 107.4503047
  84.2172951  73.6781220 114.7568150  84.0717532  73.9921523 115.6492432
  83.7398155  74.2966120 114.2039049  86.0769334  70.6683768 114.8049040
  86.0630903  69.7724861 114.4681338  86.7941762  70.6754432 115.4387326
  87.9295464  71.1021108 116.8502167  87.6713242  72.0238179 116.8486497
  87.3980505  70.7051543 117.5402631  78.6918613  76.2186564 117.6955811
  78.1472081  76.9946372 117.8276086  79.5697963  76.5657369 117.5374933
  85.4806230  69.5498148 110.0736610  85.6022141  68.6214794 110.2727497
  85.1908272  69.5636834 109.1614925  88.3497420  67.2353058 113.2103330
  88.3719117  67.2992392 112.2555309  88.7665479  66.3957567 113.4043836
  93.8616826  83.5238659 106.7289151  94.5567730  84.1445352 106.9476465
  94.2039976  82.6734011 107.0041529  95.7608249  80.9738365 108.2576481
  96.2859573  81.3125638 107.5325801  95.6730601  80.0385380 108.0739616
  79.9241249  83.2321889 112.6196363  80.7499268  82.9325661 112.2395006
  79.5735301  82.4629512 113.0686151  78.1249854  81.1508216 113.5785296
  77.2881762  80.7230390 113.3969298  78.0973499  81.3440659 114.5156087
  84.4536289  81.1352281 108.1652497  84.6024409  81.8187745 107.5119170
  85.2602732  81.1157371 108.6801953  82.2088922  77.1617458 109.1713566
  81.9634964  76.2579788 109.3693776  82.3784836  77.1634609 108.2293044
  81.4784569  72.8945816 106.6699727  80.7853814  72.9690171 106.0139763
  81.2336321  72.1306160 107.1921244  90.1498226  64.4541417 114.0739218
  90.4299979  63.7864606 114.6999644  90.9348833  64.6470513 113.5613882
  87.9531694  83.6300411 105.6364244  87.3805661  84.2490598 105.1834716
  88.5264488  84.1799773 106.1704166  91.1728954  83.9137561 106.7672827
  92.1059627  83.8483123 106.9705702  91.0852167  84.7493828 106.3087359
  93.8016971  83.2303432 103.7276774  93.7230602  82.8963295 104.6212532
  94.6226637  83.7225200 103.7268246  88.3378493  74.9661224 102.9780297
  89.2837597  74.8367432 103.0468715  87.9592738  74.2275886 103.4549725
  94.3100377  66.6317230 112.9407189  94.1125198  66.3232318 113.8250521
  94.9200083  67.3578869 113.0705118  86.5221410  72.8911200 102.9135182
  85.6152865  72.5944313 102.9897896  86.7997391  72.5941018 102.0469468
  77.4399350  74.2117564 113.3634228  77.1202135  73.3582872 113.0708602
  76.8932778  74.4266142 114.1192196  88.1383476  67.4348090 109.0679423
  87.3284204  67.0895175 109.4434669  88.8267892  67.1255634 109.6567035
  90.0674024  66.5126137 110.6903720  90.6205062  66.9321590 111.3493743
  90.3044110  65.5861885 110.7326676  85.2920194  69.7498136 103.0547161
  86.1539358  70.0753034 103.3142979  85.4770539  68.9629631 102.5420227
  77.3087610  77.8320475 115.3327350  76.6151082  77.4174428 114.8197304
  78.0560601  77.8741012 114.7360769  93.4452831  68.6226662 110.1982384
  92.8651500  69.2811466 109.8160437  93.1788764  67.8004007 109.7869802
  91.8956397  68.0231720 112.4003704  92.3956176  68.1348254 111.5918023
  92.5392005  67.7192773 113.0404513  79.2224353  77.7638729 113.2093365
  79.1995041  77.8626416 112.2575248  79.5324989  78.6103880 113.5310531
  92.2277709  70.7826752 109.2538732  91.3403564  71.0676403 109.0358927
  92.6431698  70.6220516 108.4066009  95.5792245  70.8073273 112.9693072
  96.3552635  71.2969726 113.2417688  94.8540379  71.2331328 113.4264941
  91.3720922  80.5471427 103.3486752  92.0756773  80.7521430 103.9644408
  90.6483571  81.1148189 103.6135836  92.2018733  76.2981288 109.4689023
  92.1453934  76.7549840 108.6296655  92.7547075  75.5371973 109.2911865
  96.0123539  72.0871020 110.2939142  95.7560473  71.6867656 111.1247350
  95.3876407  72.8014814 110.1689281  93.2807620  80.9853956 105.3985212
  94.1153224  80.5535155 105.2162687  93.1191963  80.8135970 106.3262107
  92.9353512  77.4886070 106.7641552  92.8802316  77.3230341 105.8229996
  92.3099567  78.1962102 106.9203741  77.7246027  72.7254134 120.5902974
  78.3704891  72.2153088 121.0790199  77.5163178  73.4622816 121.1646399
  86.2449637  66.9894179 106.3426870  86.2328307  67.9336018 106.4995141
  87.1373059  66.8064324 106.0486331  90.0601757  63.5836955 110.5972807
  89.2934153  63.0295442 110.7429489  90.4712462  63.6558824 111.4586959
  94.7421475  87.4391504 105.9120165  93.9058787  87.7766190 106.2329440
  94.6026245  87.3040483 104.9747302  94.6159855  87.2838731 103.1118072
  93.7389322  87.1627532 102.7480318  95.0917608  86.4924809 102.8596960
  92.3178324  88.2237734 106.6699727  91.6247569  88.2982089 106.0139763
  92.0730076  87.4598077 107.1921244  97.3615164  88.2203118 102.9135182
  96.4546620  87.9236231 102.9897896  97.6391145  87.9232936 102.0469468
  96.1313949  85.0790053 103.0547161  96.9933113  85.4044952 103.3142979
  96.3164293  84.2921549 102.5420227  97.0843392  82.3186096 106.3426870
  97.0722062  83.2627936 106.4995141  97.9766814  82.1356242 106.0486331
  46.5385068   1.6347628  92.1794634  45.8646767   1.9379325  92.7879592
  46.9250890   2.4376708  91.8300091  50.5041809  -0.7866889  93.4534457
  51.1992714  -0.1660196  93.6721772  50.8464959  -1.6371537  93.7286835
  44.5956677  -0.6805137  92.3609551  44.0230645  -0.0614950  91.9080023
  45.1689471  -0.1305775  92.8949473  47.8153937  -0.3967987  93.4918133
  48.7484610  -0.4622425  93.6951009  47.7277150   0.4388280  93.0332666
  50.4441954  -1.0802116  90.4522081  50.3655585  -1.4142253  91.3457839
  51.2651621  -0.5880349  90.4513553  48.0145906  -3.7634121  90.0732059
  48.7181756  -3.5584119  90.6889715  47.2908554  -3.1957359  90.3381143
  49.9232603  -3.3251592  92.1230519  50.7578207  -3.7570393  91.9407994
  49.7616946  -3.4969578  93.0507414  58.5516878   7.1918059 102.2185696
  59.1895288   7.0724807 101.5149036  58.4337721   8.1398903 102.2773648
  51.2193400   8.9980964  98.1444111  50.6558265   8.9070901  97.3760399
  51.1045795   8.1780868  98.6246604  56.7992959  12.6651931  93.4558576
  56.1480939  13.2506012  93.0692590  57.5937322  13.1958126  93.5153614
  50.7248586   9.7541069  93.8545711  51.4979462   9.2070056  93.7158587
  51.0773985  10.6185318  94.0660172  53.0614864   5.9133735  91.4864161
  53.3140385   5.3915256  90.7247624  52.1239423   5.7499880  91.5890844
  58.1058147   4.9169513  99.2938904  58.8921236   4.4988936  98.9429321
  58.3696851   5.8215605  99.4620552  58.2768224  10.3542363  93.9927561
  57.6414057  10.4276990  94.7048465  57.9465630  10.9435962  93.3146640
  63.5066574   4.8544746 100.1971882  64.2391746   4.2843963 100.4309712
  62.7505930   4.4666347 100.6378388  52.7811153   7.8161841  93.6888536
  52.6647411   7.1406744  94.3569620  52.8913413   7.3294215  92.8720689
  55.1242694   7.2771988  97.3935225  54.7600901   6.7502609  98.1048146
  55.9809809   6.8870457  97.2201710  54.7648181   2.3061887  92.3896573
  54.9322583   3.1742124  92.7567044  54.5745350   2.4689169  91.4657863
  54.7437401   4.7619545  93.3743240  54.6237027   5.2076596  94.2128720
  54.0489990   5.1104863  92.8156778  52.5044294  17.5323187  97.0233371
  52.4268323  18.4831012  97.1021852  51.9005937  17.1869059  97.6808298
  60.4422468   5.2341018  94.2023574  61.3540324   5.4668405  94.0271272
  59.9332115   5.8178062  93.6398653  59.0492050  10.2166837 101.5937156
  58.4200912  10.3812551 100.8913224  58.6617712  10.6308446 102.3648120
  62.9281282  11.1521274  98.9481519  62.2432320  11.5320176  98.3978553
  63.0125131  11.7616601  99.6813467  54.6020012   9.9541245  98.8587241
  55.0658357  10.2328948  98.0691863  54.3376810   9.0524689  98.6760331
  53.5388898   6.0764397  95.6676806  54.2412941   6.5285441  96.1350732
  53.2069526   5.4348216  96.2956699  61.2978041  11.6753189 103.7199220
  62.1195485  11.2733376 103.4381902  61.2940444  11.5721423 104.6715336
  69.3884034   8.0191937 100.0684192  68.6347743   7.4499335  99.9128196
  69.5231576   7.9854602 101.0154826  54.7782662  12.8905340  95.7438911
  54.6428337  13.7356875  96.1723759  55.3192475  13.0924617  94.9804845
  48.2312060  10.4080778  96.3166836  48.7436580  11.2024028  96.4672401
  48.8834773   9.7107068  96.2500438  50.0406945  13.5246534  98.3989589
  50.2173573  14.4464499  98.2110573  50.8363778  13.2104953  98.8283969
  51.1638260  15.0424708 104.3999932  51.7145685  14.9141771 103.6276926
  50.3249736  15.3419597 104.0494825  46.1960977   8.7369432  97.0926407
  47.0336199   9.1466440  96.8760114  46.3739244   7.7968874  97.0626601
  58.0925409   6.4044513  92.7810240  57.5772032   7.1749117  93.0198627
  57.8202717   5.7309649  93.4043301  55.6772520   1.2494213  97.8395478
  54.8214116   0.8601064  97.6601117  56.0899472   1.3286174  96.9795264
  63.0659683   9.1576867  94.7163413  62.2889126   8.8188027  94.2718575
  63.7451164   9.1629491  94.0418378  57.8811712   4.2771605  94.6070021
  57.5761847   4.5917754  95.4580164  58.8342154   4.3553025  94.6497354
  56.3258144  10.4361828  96.2562975  55.7979505   9.7014588  95.9436212
  55.8245646  11.2136504  96.0102943  61.3050990   8.6310849 101.3730021
  60.6474664   9.3210110 101.4610150  62.1091389   9.0207281 101.7164008
  60.1156449   6.9855221  99.4233963  60.6288330   7.6185213  99.9255673
  60.7657672   6.3856417  99.0577323  51.3846458   3.1285955  92.6365472
  50.5483771   3.4660642  92.9574746  51.2451228   2.9934935  91.6992609
  54.4710744   8.2542038  89.2597948  53.5637806   8.0231292  89.4589097
  54.9681776   7.4579658  89.4471929  57.3778823  16.9639546  92.1794634
  56.7040522  17.2671242  92.7879592  57.7644645  17.7668626  91.8300091
  57.3772327   5.8596093  96.7994984  58.1244146   6.3717490  96.4902106
  57.6463917   5.5380145  97.6599377  55.6498977   8.3554633  93.7821938
  54.7410197   8.0713666  93.8794408  55.6794061   8.7753712  92.9225245
  60.8818245  11.9661223  97.5513106  60.4280572  11.1252133  97.6078296
  60.2512211  12.6022621  97.8887886  59.8251164   2.8953209  98.7813773
  59.0873921   2.3830595  99.1124016  60.0777938   2.4553590  97.9697050
  59.3251184  13.8037719  98.4862924  59.6174158  14.3642777  97.7675289
  59.8349805  14.0966280  99.2416083  54.1983871   5.9683254  99.8831733
  54.2532481   5.0157090  99.8074210  53.3875073   6.1242693 100.3673032
  55.3475065   9.8963377  91.1210017  54.9094495   9.1799236  90.6615654
  56.0885506  10.1239492  90.5595108  52.1376231   4.5860314  97.6422112
  51.3244097   4.8854484  98.0487304  52.6335226   4.1916002  98.3596594
  54.2884809  14.5818071  99.5756377  54.2460988  14.8078917  98.6464909
  55.2047508  14.3481445  99.7242178  63.4648180   8.1720574  97.1786335
  63.3266079   8.3622170  96.2507524  63.1084399   8.9339957  97.6354386
  63.4917560  10.2397101 102.1897607  63.9254066  10.1472390 103.0380661
  64.2049140  10.2154601 101.5517623  52.4050610  11.4581100  99.3718340
  53.1991208  10.9631420  99.1700915  51.6942302  10.9298963  99.0086045
  57.2245454  13.8399195 103.7230707  57.2782477  14.4090131 104.4908423
  56.3560236  14.0101080 103.3584744  48.7133373   5.6024181  95.4478092
  47.7830962   5.5408637  95.6648054  48.8090845   5.0800134  94.6514734
  64.3533109  10.2820802 104.7230492  64.5468999  11.1866612 104.9689767
  64.2533727   9.8228221 105.5569077  54.9821886  12.0310122 103.0516177
  54.8432972  11.6628906 103.9242115  54.1936482  12.5457761 102.8800135
  55.5770038  17.1319218  94.3941713  55.7521794  16.6607261  95.2087336
  54.8902826  17.7584984  94.6222974  56.5327101  11.4091724 100.4405015
  56.1976934  11.3692494 101.3362664  56.0331047  10.7436440  99.9675425
  59.4686293   8.7547759  90.7142074  58.8515463   8.0294587  90.6175127
  59.0002781   9.5157119  90.3709148  50.1431123  20.2808581 101.1681573
  50.3827721  20.9127105 101.8460592  49.3000320  19.9296621 101.4546933
  51.2584839   2.9733183  89.8363378  50.3814305   2.8521984  89.4725625
  51.7342592   2.1819261  89.5842267  54.6558985  16.0887703 103.5723077
  54.5829157  16.8942675 104.0842382  54.2136378  16.2879669 102.7471099
  54.4448765  15.3259473  97.0825899  53.6616287  15.8681153  97.1764123
  55.1441510  15.8433453  97.4820140  65.6075172   6.8394468 101.3678396
  65.5965048   7.7219184 100.9972329  64.7392552   6.4866019 101.1732933
  57.1157669  15.9874537 105.7281236  57.8285641  16.6222002 105.6557138
  56.6247697  16.0838403 104.9121238  58.8375196   9.8925790  97.2998528
  57.9031474  10.0127252  97.1303232  59.0151864   8.9898257  97.0358538
  62.2247747   5.7343109  97.8348562  62.6908199   6.5671101  97.7608865
  62.6755247   5.2688091  98.5393820  60.2923978  12.0786930  94.8334714
  60.5683822  11.9643525  95.7428588  59.4228477  11.6804415  94.7946887
  56.9278042  16.3273281  98.4767528  57.1100437  15.5094937  98.9395280
  57.7511028  16.5440974  98.0392418  57.2620207  15.2541466  95.7382576
  57.7907974  14.7433921  95.1252738  57.5248427  14.9383997  96.6028109
  50.6175955  16.3056583  98.4980352  49.9486331  16.7902711  98.0144392
  50.4788825  16.5525804  99.4123731  54.7581224  18.3400327 105.0963010
  55.3099532  18.5031948 105.8612096  55.0987417  18.9304764 104.4243035
  45.9863533   4.5675038  95.2776284  46.2816974   3.6585717  95.2243338
  45.0851568   4.5462778  94.9557286  57.8949611  16.2882302 102.0826693
  57.7700751  15.4872042 101.5737638  58.5528702  16.7828496 101.5940662
  59.9584520  14.0891322 103.7106243  59.0114855  13.9696673 103.6384569
  60.3067293  13.2013820 103.7932504  56.9630953  13.8844038  99.9110595
  56.8155915  12.9560746 100.0918165  57.7884446  13.9064129  99.4267670
  50.8293197   2.5362106  95.7691087  51.1689270   3.0648027  95.0469695
  51.2765318   2.8742512  96.5449653  60.5665075  14.7072597 100.9975468
  61.4911622  14.5015459 100.8599919  60.3980378  14.4588998 101.9064809
  52.8161344   1.0336727  93.9684380  53.5369707   1.4117980  93.4648097
  52.1926649   1.7525604  94.0719358  56.9592467   1.7381876  94.9042712
  57.1756082   2.6206514  94.6031540  56.4786534   1.3468090  94.1748354
  60.3560391  15.2258265  96.3537559  60.5297269  14.6604687  95.6011411
  60.8489282  16.0259160  96.1717049  66.2099782   7.9894688  97.9727859
  66.6530928   7.2402013  97.5746982  65.3326292   7.9804824  97.5901591
  61.3435564  14.5425029  93.4534457  62.0386468  15.1631722  93.6721772
  61.6858714  13.6920380  93.7286835  63.2426987  11.9924735  94.9821788
  63.7678311  12.3312007  94.2571108  63.1549339  11.0571750  94.7984923
  54.9267647  18.0596718  99.3417041  54.4872638  17.5673097 100.0349898
  55.6775764  17.5169686  99.1009116  47.4059986  14.2508259  99.3441669
  48.2318006  13.9512031  98.9640313  47.0554038  13.4815881  99.7931458
  52.3741520  13.6034727 101.4139343  51.7521529  12.9405432 101.1141571
  53.0446386  13.6295859 100.7312991  51.9355026  12.1538650  94.8897803
  52.0843147  12.8374115  94.2364476  52.7421470  12.1343740  95.4047259
  65.7532647   9.4599926 100.3650306  66.5879538   9.8989730 100.5287867
  65.8891776   8.9838579  99.5458552  49.6907659   8.1803828  95.8958872
  49.4453701   7.2766158  96.0939083  49.8603574   8.1820978  94.9538350
  48.9603307   3.9132186  93.3945034  48.2672552   3.9876540  92.7385070
  48.7155059   3.1492529  93.9166551  55.4350432  14.6486781  92.3609551
  54.8624399  15.2676968  91.9080023  56.0083226  15.1986142  92.8949473
  58.6547692  14.9323931  93.4918133  59.5878365  14.8669493  93.6951009
  58.5670905  15.7680198  93.0332666  61.2835708  14.2489801  90.4522081
  61.2049340  13.9149665  91.3457839  62.1045375  14.7411569  90.4513553
  63.9813900   7.1151541 103.6598399  63.9490220   6.1767541 103.8458083
  64.5914523   7.1935577 102.9264224  55.8197230   5.9847593  89.7025603
  56.7656335   5.8553802  89.7714021  55.4411475   5.2462255  90.1795032
  69.7990449   8.1767547 102.8004436  70.5293838   7.9152835 103.3612139
  69.1897395   7.4396269 102.8406504  67.8805747   6.3175410 103.3978887
  67.1538910   6.1831375 102.7895379  67.4653033   6.6252239 104.2035605
  54.0040148   3.9097570  89.6380489  53.0971603   3.6130683  89.7143202
  54.2816129   3.6127388  88.7714775  55.6202213  -1.5465540  95.7924730
  54.8102942  -1.8918455  96.1679976  56.3086630  -1.8557997  96.3812341
  52.7738932   0.7684505  89.7792468  53.6358096   1.0939403  90.0388285
  52.9589276  -0.0183999  89.2665534  60.9271569  -0.3586968  96.9227691
  60.3470238   0.2997836  96.5405743  60.6607501  -1.1809624  96.5115108
  59.7096447   1.8013122  95.9784039  58.8222302   2.0862773  95.7604234
  60.1250436   1.6406885  95.1311316  63.0610983   1.8259643  99.6938378
  63.8371373   2.3156095  99.9662995  62.3359117   2.2517697 100.1510248
  65.4983541   2.5387262 100.7512319  66.0928032   2.2982998 100.0405627
  65.5710125   1.8194393 101.3785855  47.7180697  16.3820873 101.0655484
  47.5835165  15.6221274 100.4993482  47.3012759  17.1061773 100.5984273
  58.8539660  11.5657797  90.0732059  59.5575510  11.7707799  90.6889715
  58.1302309  12.1334559  90.3381143  59.6837470   7.3167658  96.1934329
  59.6272672   7.7736209  95.3541962  60.2365813   6.5558342  96.0157172
  63.4942276   3.1057390  97.0184449  63.2379211   2.7054025  97.8492656
  62.8695144   3.8201184  96.8934588  67.8054614   5.8453463  99.5255740
  67.2454172   5.9146652 100.2987302  67.1998118   5.6694448  98.8055236
  50.8749823  17.2790190 101.2773926  50.7582207  18.2235623 101.1752617
  50.0542269  16.9763752 101.6659726  60.7626358  12.0040326  92.1230519
  61.5971962  11.5721524  91.9407994  60.6010701  11.8322340  93.0507414
  60.4172250   8.5072439  93.4886858  60.3621054   8.3416711  92.5475303
  59.7918305   9.2148472  93.6449048  53.7268375  -1.9919452  93.0672177
  53.7147045  -1.0477612  93.2240448  54.6191797  -2.1749306  92.7731638
  51.9004337  17.9318452 104.4929855  52.8031584  17.9642062 104.8096350
  51.6741707  17.0018903 104.5076191  53.6557939  16.6849439 101.1539933
  52.7053570  16.6851300 101.0404306  53.9590425  15.9382173 100.6375968
  69.3910633  22.5209977 102.2185696  70.0289043  22.4016724 101.5149036
  69.2731476  23.4690821 102.2773648  66.2000339  22.4737405 102.1547221
  65.8618851  22.3578470 101.2667755  67.0690107  22.0728570 102.1348227
  62.0587155  24.3272881  98.1444111  61.4952020  24.2362818  97.3760399
  61.9439550  23.5072786  98.6246604  66.6820122  23.6272257 108.1133426
  66.6708763  23.2325055 107.2413930  66.8440761  22.8938329 108.7067198
  59.6051587  25.8224073 100.9828332  60.3972879  25.4814898 100.5674631
  59.8448237  25.9319048 101.9030485  67.6386713  27.9943849  93.4558576
  66.9874693  28.5797930  93.0692590  68.4331076  28.5250044  93.5153614
  61.5642341  25.0832986  93.8545711  62.3373217  24.5361973  93.7158587
  61.9167739  25.9477236  94.0660172  63.4027383  26.4109369 107.0612610
  63.1117249  27.3154999 106.9459276  64.0384367  26.4525896 107.7756680
  64.3283590  23.7886217 103.6513970  64.9247162  23.5642239 102.9370933
  64.3858562  23.0470963 104.2539418  63.9008618  21.2425652  91.4864161
  64.1534139  20.7207174  90.7247624  62.9633177  21.0791798  91.5890844
  68.9451901  20.2461431  99.2938904  69.7314990  19.8280854  98.9429321
  69.2090606  21.1507523  99.4620552  69.1161979  25.6834281  93.9927561
  68.4807812  25.7568908  94.7048465  68.7859385  26.2727880  93.3146640
  74.3460328  20.1836664 100.1971882  75.0785500  19.6135881 100.4309712
  73.5899684  19.7958264 100.6378388  63.6204907  23.1453758  93.6888536
  63.5041165  22.4698662  94.3569620  63.7307167  22.6586132  92.8720689
  65.9636448  22.6063905  97.3935225  65.5994655  22.0794526  98.1048146
  66.8203564  22.2162375  97.2201710  71.8685749  13.8958238 104.6566491
  71.5369073  14.7653649 104.4327706  71.2731362  13.5794522 105.3360521
  65.6041935  17.6353805  92.3896573  65.7716337  18.5034042  92.7567044
  65.4139104  17.7981087  91.4657863  68.3617268  26.0970784 104.0562404
  68.0617991  26.9995823 103.9478211  68.0168328  25.8302967 104.9083557
  61.8129750  22.5484581 100.0899108  60.8880246  22.4160795 100.2976800
  62.0614163  23.3278800 100.5869051  71.7614412  18.6153324 101.7359841
  70.8531289  18.5468733 101.4418602  71.7102008  19.0925269 102.5641667
  65.5831156  20.0911463  93.3743240  65.4630781  20.5368513  94.2128720
  64.8883744  20.4396780  92.8156778  59.1738561  22.1917854 100.9242897
  59.3030942  22.4452333 101.8382309  58.4936012  22.7845562 100.6047552
  63.3438048  32.8615104  97.0233371  63.2662078  33.8122930  97.1021852
  62.7399692  32.5160977  97.6808298  65.8355278  20.0342970 109.6794738
  65.0588612  20.5936890 109.6697603  66.4745841  20.5199753 110.2009608
  73.6276058  16.8169763 103.5137715  72.9850439  17.1102296 102.8677510
  73.1230987  16.7022683 104.3190912  71.2816222  20.5632936  94.2023574
  72.1934078  20.7960323  94.0271272  70.7725869  21.1469980  93.6398653
  64.0901650  22.8428423 109.2412705  64.8316334  23.3813467 108.9647529
  63.3838636  23.4694712 109.3984257  69.5656990  24.9857564 107.8384867
  69.9740346  24.5439974 107.0939499  68.8434251  24.4110191 108.0919060
  65.9188060  19.9230170 105.2118424  66.7649255  20.3469584 105.3553073
  65.8586697  19.2663795 105.9056987  69.8885804  25.5458754 101.5937156
  69.2594667  25.7104468 100.8913224  69.5011466  25.9600364 102.3648120
  73.7675036  26.4813192  98.9481519  73.0826074  26.8612094  98.3978553
  73.8518886  27.0908519  99.6813467  69.0687505  17.5834539 106.8699597
  68.8248437  18.3376599 106.3333873  69.3447436  17.9619886 107.7046844
  71.0225968  24.1273151 105.5476863  71.2342863  24.7704911 104.8711244
  70.9755716  23.2935468 105.0798793  68.6252197  16.7390972 102.4513435
  67.7636676  17.0372225 102.7430173  68.6514631  16.9561371 101.5194468
  65.4413766  25.2833162  98.8587241  65.9052112  25.5620865  98.0691863
  65.1770564  24.3816607  98.6760331  62.3337847  24.8304644 101.7967004
  62.9039204  25.2591912 101.1584489  62.9245959  24.5487229 102.4951190
  64.3782652  21.4056315  95.6676806  65.0806696  21.8577358  96.1350732
  64.0463281  20.7640134  96.2956699  62.8263014  19.9968071 110.0428015
  62.1961674  20.6784352 110.2763412  62.7199102  19.8851153 109.0981154
  58.1207986  19.6639867 100.9693940  57.3307040  19.9197396 100.4934050
  58.6119234  20.4788205 101.0745980  72.1371796  27.0045107 103.7199220
  72.9589240  26.6025294 103.4381902  72.1334199  26.9013341 104.6715336
  60.0722732  20.0284447  97.9277416  59.2753895  20.1403141  98.4460912
  59.8448324  20.3671099  97.0618307  65.9028399  26.5529150 105.8759931
  65.9672832  27.0149557 106.7118103  65.1939323  25.9226515 106.0042241
  56.4045689  19.9170358 103.4008930  56.6553728  20.8017368 103.6666506
  56.9405238  19.7374959 102.6284022  80.2277789  23.3483855 100.0684192
  79.4741497  22.7791253  99.9128196  80.3625330  23.3146520 101.0154826
  65.6176417  28.2197257  95.7438911  65.4822092  29.0648793  96.1723759
  66.1586229  28.4216535  94.9804845  59.0705814  25.7372695  96.3166836
  59.5830335  26.5315946  96.4672401  59.7228527  25.0398986  96.2500438
  60.8800699  28.8538452  98.3989589  61.0567327  29.7756416  98.2110573
  61.6757533  28.5396871  98.8283969  65.0211718  15.7146716 109.9973523
  65.7621431  16.3153869 109.9177985  65.2529640  14.9724354 109.4391566
  60.1653056  20.9003084 108.2751753  60.0506571  19.9988341 108.5758852
  59.3097573  21.1466780 107.9236569  67.2444893  28.8420824 109.8739253
  66.8008747  28.0557202 109.5560158  67.9062107  29.0299974 109.2083144
  62.0032014  30.3716625 104.3999932  62.5539440  30.2433689 103.6276926
  61.1643490  30.6711514 104.0494825  69.3426131  29.1223624 107.9020655
  69.3244607  29.9432505 107.4100924  70.2646051  28.9977699 108.1270796
  65.7999186  26.6367753 108.7444163  66.3327522  25.8756041 108.5143471
  65.2713267  26.3441405 109.4868317  68.9668880  11.7427819 104.2737805
  68.6233150  12.6329461 104.1976915  69.3347843  11.5529477 103.4107390
  57.0354731  24.0661350  97.0926407  57.8729953  24.4758358  96.8760114
  57.2132999  23.1260792  97.0626601  68.9319163  21.7336430  92.7810240
  68.4165787  22.5041035  93.0198627  68.6596472  21.0601567  93.4043301
  66.5166274  16.5786131  97.8395478  65.6607871  16.1892982  97.6601117
  66.9293226  16.6578092  96.9795264  68.0465421  14.1132474 102.2387038
  67.5430216  14.0762610 101.4254843  68.3396028  15.0225217 102.2983695
  64.2908307  14.1971204 101.2453220  65.1561304  14.0014013 100.8859109
  64.3585816  13.9681556 102.1722576  73.9053437  24.4868785  94.7163413
  73.1282880  24.1479945  94.2718575  74.5844918  24.4921408  94.0418378
  68.7205466  19.6063522  94.6070021  68.4155602  19.9209672  95.4580164
  69.6735909  19.6844942  94.6497354  67.1651898  25.7653746  96.2562975
  66.6373260  25.0306505  95.9436212  66.6639401  26.5428422  96.0102943
  72.1444744  23.9602766 101.3730021  71.4868419  24.6502028 101.4610150
  72.9485143  24.3499198 101.7164008  61.8970626  16.4273412  98.6169586
  62.4714378  16.2048594  97.8842779  62.4841608  16.4962107  99.3698188
  70.9550203  22.3147139  99.4233963  71.4682085  22.9477131  99.9255673
  71.6051427  21.7148334  99.0577323  62.2240213  18.4577873  92.6365472
  61.3877525  18.7952560  92.9574746  62.0844983  18.3226853  91.6992609
  64.1993294  13.3014661  97.3444656  63.5457706  12.9863678  96.7201271
  64.1573768  12.6790401  98.0704479  65.3104498  23.5833956  89.2597948
  64.4031560  23.3523209  89.4589097  65.8075530  22.7871575  89.4471929
  68.2172577  32.2931463  92.1794634  67.5434276  32.5963160  92.7879592
  68.6038399  33.0960544  91.8300091  67.4331034  19.7896595 101.6692303
  66.5153595  20.0111542 101.5113992  67.8491178  19.8642905 100.8104011
  68.2166082  21.1888010  96.7994984  68.9637901  21.7009407  96.4902106
  68.4857671  20.8672063  97.6599377  66.4892732  23.6846551  93.7821938
  65.5803951  23.4005584  93.8794408  66.5187816  24.1045629  92.9225245
  71.7211999  27.2953140  97.5513106  71.2674326  26.4544050  97.6078296
  71.0905966  27.9314539  97.8887886  70.6644919  18.2245126  98.7813773
  69.9267676  17.7122513  99.1124016  70.9171692  17.7845508  97.9697050
  70.1644939  29.1329637  98.4862924  70.4567913  29.6934694  97.7675289
  70.6743559  29.4258198  99.2416083  70.7656546  11.0021378  99.3755542
  71.0715423  10.1418742  99.0881457  71.4909151  11.5938999  99.1754536
  57.0580902  21.4052065  97.7637140  56.8605302  20.8121426  97.0388207
  56.5027566  21.1004275  98.4813079  65.0377626  21.2975172  99.8831733
  65.0926236  20.3449008  99.8074210  64.2268828  21.4534611 100.3673032
  66.1868820  25.2255295  91.1210017  65.7488250  24.5091154  90.6615654
  66.9279261  25.4531409  90.5595108  62.9769986  19.9152231  97.6422112
  62.1637851  20.2146402  98.0487304  63.4728980  19.5207920  98.3596594
  65.1278564  29.9109988  99.5756377  65.0854742  30.1370834  98.6464909
  66.0441263  29.6773363  99.7242178  68.5744197  20.3794056 106.4737006
  68.9293585  20.6065529 107.3331472  69.2216329  20.7112433 105.8514261
  74.3041934  23.5012492  97.1786335  74.1659833  23.6914088  96.2507524
  73.9478153  24.2631874  97.6354386  62.4684061  17.4870587 103.2583347
  63.1083440  17.3459346 102.5606311  61.6361591  17.2005100 102.8821949
  74.3311314  25.5689019 102.1897607  74.7647821  25.4764308 103.0380661
  75.0442895  25.5446519 101.5517623  63.2444364  26.7873017  99.3718340
  64.0384963  26.2923337  99.1700915  62.5336057  26.2590880  99.0086045
  68.0639209  29.1691113 103.7230707  68.1176231  29.7382049 104.4908423
  67.1953990  29.3392998 103.3584744  59.5527128  20.9316099  95.4478092
  58.6224716  20.8700554  95.6648054  59.6484600  20.4092052  94.6514734
  59.4712677  17.4570912  98.0356334  59.7319494  18.3716245  97.9265494
  60.2929849  16.9895354  98.1852947  60.9437602  18.8708669 105.2055159
  61.6160656  18.6626031 104.5567807  60.1167389  18.6730755 104.7660391
  75.1926864  25.6112719 104.7230492  75.3862754  26.5158530 104.9689767
  75.0927482  25.1520138 105.5569077  66.8463174  15.4970610 107.2220819
  66.1991089  16.1960560 107.1285296  67.6164190  15.9306754 107.5897068
  70.2541972  25.7619462 110.2971373  70.1027479  25.5330014 109.3801456
  70.2446652  26.7190063 110.3102718  67.0227309  23.3351375 105.2817639
  67.9519369  23.4862534 105.1086606  66.6018339  23.4235396 104.4266286
  65.8215640  27.3602039 103.0516177  65.6826726  26.9920824 103.9242115
  65.0330237  27.8749679 102.8800135  66.4163792  32.4611136  94.3941713
  66.5915548  31.9899179  95.2087336  65.7296580  33.0876902  94.6222974
  67.3720856  26.7383642 100.4405015  67.0370688  26.6984412 101.3362664
  66.8724801  26.0728358  99.9675425  61.3465100  22.1451272 105.9657596
  61.2084898  21.4131511 106.5669135  62.2570023  22.0560172 105.6841783
  70.3080047  24.0839676  90.7142074  69.6909218  23.3586504  90.6175127
  69.8396536  24.8449037  90.3709148  63.9747400  21.8571231 105.4541275
  64.6847019  21.2164423 105.4127894  63.9316708  22.1084126 106.3767456
  71.9634179  28.7938585 108.3747855  71.9046725  28.1097805 107.7078438
  72.3653697  29.5357575 107.9228481  62.6876334  18.8436449 107.2736915
  62.1513691  18.3927188 107.9258511  62.0993043  18.9782358 106.5307379
  60.9824878  35.6100498 101.1681573  61.2221476  36.2419023 101.8460592
  60.1394074  35.2588538 101.4546933  62.0978593  18.3025101  89.8363378
  61.2208059  18.1813901  89.4725625  62.5736346  17.5111179  89.5842267
  71.9651586  26.7578169 106.6061834  71.0778365  26.4204090 106.7288233
  72.5350137  26.0261200 106.8430600  53.6180733  23.0902260  99.9304886
  54.3051773  22.7763990  99.3425901  53.4628862  23.9943625  99.6572137
  58.4215455  17.9792457 104.3589909  58.3373644  17.3718126 103.6240319
  57.5998162  18.4701475 104.3599406  65.4952740  31.4179621 103.5723077
  65.4222911  32.2234592 104.0842382  65.0530133  31.6171587 102.7471099
  65.2842519  30.6551391  97.0825899  64.5010041  31.1973071  97.1764123
  65.9835264  31.1725371  97.4820140  68.5939169  16.4646020  99.7260104
  69.0907869  15.7115983  99.4061175  67.8226151  16.5010337  99.1603314
  76.4468927  22.1686386 101.3678396  76.4358803  23.0511101 100.9972329
  75.5786306  21.8157937 101.1732933  67.9551423  31.3166455 105.7281236
  68.6679395  31.9513920 105.6557138  67.4641452  31.4130321 104.9121238
  69.6768950  25.2217708  97.2998528  68.7425229  25.3419170  97.1303232
  69.8545618  24.3190174  97.0358538  65.1774138  18.6063403  99.4531789
  64.8071926  18.0534444 100.1412695  65.6733231  18.0021537  98.9006789
  73.0641501  21.0635027  97.8348562  73.5301954  21.8963018  97.7608865
  73.5149002  20.5980008  98.5393820  63.0063337  29.0660898 106.5486807
  63.7072796  29.6997381 106.7016201  62.5358452  29.4075630 105.7882446
  71.1317732  27.4078848  94.8334714  71.4077576  27.2935443  95.7428588
  70.2622231  27.0096333  94.7946887  71.0358164  13.4315614 101.8739463
  70.1221244  13.6619841 102.0421670  71.4651266  13.5154058 102.7253496
  70.8064623  21.6205506 104.3739357  70.1536073  21.8681413 103.7191810
  71.1845003  20.8069644 104.0401835  67.7671796  31.6565199  98.4767528
  67.9494191  30.8386855  98.9395280  68.5904782  31.8732891  98.0392418
  68.1013962  30.5833384  95.7382576  68.6301728  30.0725839  95.1252738
  68.3642182  30.2675914  96.6028109  66.8552196  22.3625317 110.8605394
  66.1792833  22.2619446 111.5307770  67.6779830  22.2064531 111.3241392
  58.6031055  28.5997253 103.4817910  59.1884492  27.8540941 103.6145814
  58.4055893  28.9101210 104.3654573  61.4569710  31.6348501  98.4980352
  60.7880085  32.1194628  98.0144392  61.3182580  31.8817721  99.4123731
  53.1948709  21.1702854 102.2022353  53.2332809  20.6366444 102.9959471
  52.6889002  20.6438059 101.5833330  65.5974979  33.6692244 105.0963010
  66.1493287  33.8323866 105.8612096  65.9381172  34.2596682 104.4243035
  60.5739472  16.0167394 105.6984895  60.6380798  16.8782225 105.2862293
  60.5106592  15.4041396 104.9657254  70.4485853  28.4953502 110.9511665
  70.9925757  29.1083460 110.4566620  69.8672698  29.0533080 111.4678678
  56.8257287  19.8966956  95.2776284  57.1210728  18.9877634  95.2243338
  55.9245323  19.8754695  94.9557286  68.7343366  31.6174220 102.0826693
  68.6094505  30.8163960 101.5737638  69.3922457  32.1120413 101.5940662
  60.3551534  17.9722952 101.2603833  59.6338120  18.5858920 101.1211306
  61.1444790  18.5080717 101.1820479  70.7978274  29.4183240 103.7106243
  69.8508610  29.2988591 103.6384569  71.1461047  28.5305738 103.7932504
  63.1577848  15.3077379 107.5344484  63.6812249  15.5539675 108.2970794
  62.9390181  16.1397414 107.1147622  58.5545129  17.5781053  95.4015609
  58.2257835  16.6978432  95.2190715  58.9084499  17.5228722  96.2891999
  67.8024707  29.2135956  99.9110595  67.6549670  28.2852664 100.0918165
  68.6278201  29.2356047  99.4267670  61.6686952  17.8654023  95.7691087
  62.0083024  18.3939944  95.0469695  62.1159072  18.2034429  96.5449653
  71.4058829  30.0364515 100.9975468  72.3305377  29.8307376 100.8599919
  71.2374133  29.7880916 101.9064809  64.3630393  16.2491074 105.2194155
  64.0227213  15.4498887 105.6214835  63.6569399  16.5492785 104.6470988
  65.0146864  13.3340386 103.6721478  65.8372934  12.8600865 103.5500368
  65.2584928  14.1130870 104.1720164  63.6555099  16.3628645  93.9684380
  64.3763461  16.7409898  93.4648097  63.0320403  17.0817522  94.0719358
  67.7986222  17.0673794  94.9042712  68.0149836  17.9498432  94.6031540
  67.3180289  16.6760007  94.1748354  62.5385443  20.0259507 101.4813457
  62.3930024  20.3399810 102.3737738  62.0610647  20.6444407 100.9284355
  64.3981826  17.0162055 101.5294346  64.3843395  16.1203148 101.1926644
  65.1154254  17.0232719 102.1632632  66.2507957  17.4499395 103.5747474
  65.9925735  18.3716466 103.5731804  65.7192997  17.0529830 104.2647938
  71.1954146  30.5550182  96.3537559  71.3691023  29.9896605  95.6011411
  71.6883037  31.3551077  96.1717049  57.0131105  22.5664851 104.4201118
  56.4684573  23.3424659 104.5521392  57.8910455  22.9135656 104.2620239
  63.8018722  15.8976435  96.7981916  63.9234633  14.9693081  96.9972804
  63.5120764  15.9115121  95.8860232  66.6709912  13.5831346  99.9348636
  66.6931609  13.6470679  98.9800616  67.0877971  12.7435854 100.1289142
  77.0493537  23.3186605  97.9727859  77.4924683  22.5693930  97.5746982
  76.1720047  23.3096742  97.5901591  72.1829318  29.8716947  93.4534457
  72.8780223  30.4923639  93.6721772  72.5252468  29.0212298  93.7286835
  57.7997127  21.6934748 107.3131275  57.0578863  21.8417383 107.8995905
  57.4789871  21.9543013 106.4498024  74.0820741  27.3216652  94.9821788
  74.6072065  27.6603925  94.2571108  73.9943094  26.3863668  94.7984923
  65.7440790  31.2350726 107.1111665  66.0527916  30.9899873 107.9834364
  66.5416272  31.4397364 106.6230535  65.7661402  33.3888636  99.3417041
  65.3266392  32.8965014 100.0349898  66.5169519  32.8461603  99.1009116
  58.2453741  29.5800176  99.3441669  59.0711761  29.2803948  98.9640313
  57.8947793  28.8107799  99.7931458  63.2135274  28.9326645 101.4139343
  62.5915283  28.2697350 101.1141571  63.8840141  28.9587777 100.7312991
  56.4462346  27.4986503 100.3030603  55.6094254  27.0708677 100.1214604
  56.4185991  27.6918946 101.2401394  73.7714647  27.9549556 110.2872986
  72.9810191  27.9373695 109.7477485  73.5348002  28.4937850 111.0422023
  73.8912522  24.8042022 107.6005715  73.9410527  24.6392030 108.5421237
  73.7826446  23.9369281 107.2103595  62.7748781  27.4830568  94.8897803
  62.9236901  28.1666032  94.2364476  63.5815224  27.4635658  95.4047259
  71.1816285  20.7872950 108.9165021  72.0826147  20.6479415 108.6249019
  71.2564259  20.9527405 109.8563199  65.5159090  18.1639805 107.7618208
  64.6462399  18.4573371 107.4900796  65.7518570  18.7480250 108.4825471
  75.3930719  27.2238964 107.8447736  75.1015527  27.5868944 108.6811197
  74.7802850  26.5105972 107.6661068  76.5926401  24.7891844 100.3650306
  77.4273293  25.2281648 100.5287867  76.7285530  24.3130497  99.5458552
  73.6417907  22.3471578 106.3127794  74.1172029  22.5399225 105.5046645
  72.7183473  22.4030764 106.0671178  60.5301414  23.5095746  95.8958872
  60.2847456  22.6058076  96.0939083  60.6997328  23.5112896  94.9538350
  68.2198124  14.3819422 105.2783628  68.7380068  15.1180449 104.9530117
  67.8653257  14.6883415 106.1130387  59.7997061  19.2424103  93.3945034
  59.1066306  19.3168458  92.7385070  59.5548813  18.4784447  93.9166551
  68.4710718  10.8019705 100.7984525  68.7512472  10.1342894 101.4244951
  69.2561325  10.9948800 100.2859188  66.2744186  29.9778698  92.3609551
  65.7018154  30.5968886  91.9080023  66.8476980  30.5278060  92.8949473
  72.3419576  19.2237339 104.5456100  73.2936999  19.3235436 104.5668324
  72.1723027  18.4315607 105.0554184  70.3633956  16.3092922 104.7315501
  69.7683888  16.5897934 104.0361989  70.0783652  16.7986823 105.5032242
  69.4941446  30.2615849  93.4918133  70.4272119  30.1961410  93.6951009
  69.4064659  31.0972115  93.0332666  72.1229463  29.5781719  90.4522081
  72.0443094  29.2441582  91.3457839  72.9439130  30.0703487  90.4513553
  74.8207654  22.4443458 103.6598399  74.7883974  21.5059459 103.8458083
  75.4308278  22.5227495 102.9264224  66.6590985  21.3139511  89.7025603
  67.6050090  21.1845719  89.7714021  66.2805230  20.5754173  90.1795032
  74.9702143  19.2354502 103.7056683  74.4541191  18.4512958 103.5186611
  75.8542091  18.9073218 103.8703202  72.6312870  12.9795517  99.6652495
  72.4337691  12.6710605 100.5495827  73.2412575  13.7057156  99.7950425
  80.6384204  23.5059465 102.8004436  81.3687592  23.2444753 103.3612139
  80.0291149  22.7688187 102.8406504  78.7199501  21.6467328 103.3978887
  77.9932665  21.5123293 102.7895379  78.3046788  21.9544156 104.2035605
  66.5429677  25.3657257 111.1626260  67.4632687  25.5435856 111.3566307
  66.5079261  24.4213303 111.0105960  64.8433902  19.2389488  89.6380489
  63.9365358  18.9422600  89.7143202  65.1209883  18.9419306  88.7714775
  55.7611842  20.5595851 100.0879535  55.4414627  19.7061159  99.7953909
  55.2145271  20.7744429 100.8437502  59.5391750  23.2758292 103.8049042
  59.7577760  24.2075400 103.8237075  59.9517524  22.9166266 104.5903845
  66.4595968  13.7826377  95.7924730  65.6496696  13.4373462  96.1679976
  67.1480385  13.4733921  96.3812341  68.3886516  12.8604424  97.4149027
  68.9417555  13.2799878  98.0739050  68.6256602  11.9340172  97.4571983
  63.6132687  16.0976423  89.7792468  64.4751851  16.4231321  90.0388285
  63.7983031  15.3107919  89.2665534  55.6300102  24.1798762 102.0572657
  54.9363574  23.7652715 101.5442611  56.3773093  24.2219299 101.4606075
  71.7665323  14.9704949  96.9227691  71.1863992  15.6289753  96.5405743
  71.5001256  14.1482294  96.5115108  70.2168890  14.3710007  99.1249011
  70.7168668  14.4826541  98.3163330  70.8604498  14.0671060  99.7649820
  64.2750885  22.2788637 112.0116852  63.7917967  23.0788997 112.2180741
  64.3611824  22.2896581 111.0584296  57.5436845  24.1117016  99.9338671
  57.5207533  24.2104704  98.9820555  57.8537482  24.9582167 100.2555838
  60.2024223  26.1693171 104.0485286  61.1567476  26.1377114 103.9815217
  60.0036746  25.7083795 104.8635512  60.7923605  24.7394287 106.6156084
  61.6116494  25.2338366 106.6390921  61.0660413  23.8226255 106.5873651
  70.5490201  17.1305040  95.9784039  69.6616056  17.4154690  95.7604234
  70.9644190  16.9698803  95.1311316  73.9004737  17.1551561  99.6938378
  74.6765127  17.6448013  99.9662995  73.1752872  17.5809615 100.1510248
  76.3377296  17.8679180 100.7512319  76.9321787  17.6274916 100.0405627
  76.4103880  17.1486310 101.3785855  58.5574452  31.7112791 101.0655484
  58.4228920  30.9513192 100.4993482  58.1406514  32.4353691 100.5984273
  69.6933415  26.8949714  90.0732059  70.3969265  27.0999717  90.6889715
  68.9696063  27.4626476  90.3381143  70.5231225  22.6459576  96.1934329
  70.4666426  23.1028127  95.3541962  71.0759567  21.8850260  96.0157172
  74.3336031  18.4349307  97.0184449  74.0772965  18.0345943  97.8492656
  73.7088899  19.1493101  96.8934588  78.6448369  21.1745381  99.5255740
  78.0847927  21.2438570 100.2987302  78.0391872  20.9986365  98.8055236
  61.7143578  32.6082108 101.2773926  61.5975962  33.5527540 101.1752617
  60.8936024  32.3055669 101.6659726  71.6020112  27.3332243  92.1230519
  72.4365716  26.9013442  91.9407994  71.4404455  27.1614257  93.0507414
  71.2566004  23.8364357  93.4886858  71.2014808  23.6708628  92.5475303
  70.6312060  24.5440390  93.6449048  56.0458519  19.0732421 107.3148281
  56.6917383  18.5631375 107.8035506  55.8375670  19.8101103 107.8891706
  68.5711911  26.1413269 112.8140421  69.4403071  26.3153921 112.4527056
  68.0918663  26.9607685 112.6916151  64.5662130  13.3372466  93.0672177
  64.5540800  14.2814306  93.2240448  65.4585552  13.1542611  92.7731638
  62.7398092  33.2610370 104.4929855  63.6425338  33.2933980 104.8096350
  62.5135462  32.3310821 104.5076191  64.4951694  32.0141356 101.1539933
  63.5447325  32.0143218 101.0404306  64.7984180  31.2674091 100.6375968
  68.3814249   9.9315242  97.3218114  67.6146645   9.3773729  97.4674796
  68.7924954  10.0037111  98.1832265  80.2304387  37.8501895 102.2185696
  80.8682797  37.7308642 101.5149036  80.1125230  38.7982739 102.2773648
  77.0394093  37.8029323 102.1547221  76.7012605  37.6870387 101.2667755
  77.9083862  37.4020488 102.1348227  72.8980909  39.6564799  98.1444111
  72.3345774  39.5654736  97.3760399  72.7833304  38.8364704  98.6246604
  77.5213876  38.9564174 108.1133426  77.5102517  38.5616973 107.2413930
  77.6834516  38.2230247 108.7067198  70.4445341  41.1515991 100.9828332
  71.2366633  40.8106815 100.5674631  70.6841991  41.2610966 101.9030485
  78.4780468  43.3235767  93.4558576  77.8268448  43.9089847  93.0692590
  79.2724831  43.8541962  93.5153614  72.4036095  40.4124904  93.8545711
  73.1766971  39.8653891  93.7158587  72.7561494  41.2769153  94.0660172
  74.2421138  41.7401286 107.0612610  73.9511004  42.6446917 106.9459276
  74.8778122  41.7817814 107.7756680  75.1677344  39.1178135 103.6513970
  75.7640917  38.8934157 102.9370933  75.2252316  38.3762880 104.2539418
  74.7402373  36.5717570  91.4864161  74.9927894  36.0499091  90.7247624
  73.8026932  36.4083716  91.5890844  79.7845656  35.5753348  99.2938904
  80.5708745  35.1572772  98.9429321  80.0484360  36.4799441  99.4620552
  79.9555733  41.0126199  93.9927561  79.3201566  41.0860825  94.7048465
  79.6253139  41.6019798  93.3146640  85.1854083  35.5128582 100.1971882
  85.9179255  34.9427798 100.4309712  84.4293439  35.1250182 100.6378388
  74.4598662  38.4745676  93.6888536  74.3434920  37.7990579  94.3569620
  74.5700922  37.9878050  92.8720689  76.8030203  37.9355823  97.3935225
  76.4388410  37.4086444  98.1048146  77.6597318  37.5454292  97.2201710
  82.7079503  29.2250156 104.6566491  82.3762828  30.0945567 104.4327706
  82.1125117  28.9086440 105.3360521  76.4435690  32.9645723  92.3896573
  76.6110092  33.8325959  92.7567044  76.2532859  33.1273005  91.4657863
  79.2011023  41.4262702 104.0562404  78.9011746  42.3287741 103.9478211
  78.8562082  41.1594885 104.9083557  72.6523504  37.8776499 100.0899108
  71.7274001  37.7452713 100.2976800  72.9007917  38.6570718 100.5869051
  82.6008166  33.9445242 101.7359841  81.6925044  33.8760650 101.4418602
  82.5495762  34.4217187 102.5641667  76.4224910  35.4203380  93.3743240
  76.3024536  35.8660431  94.2128720  75.7277499  35.7688698  92.8156778
  70.0132315  37.5209772 100.9242897  70.1424696  37.7744251 101.8382309
  69.3329767  38.1137480 100.6047552  74.1831803  48.1907022  97.0233371
  74.1055832  49.1414847  97.1021852  73.5793446  47.8452895  97.6808298
  76.6749032  35.3634888 109.6794738  75.8982366  35.9228808 109.6697603
  77.3139595  35.8491671 110.2009608  84.4669813  32.1461680 103.5137715
  83.8244193  32.4394213 102.8677510  83.9624741  32.0314601 104.3190912
  82.1209977  35.8924854  94.2023574  83.0327833  36.1252240  94.0271272
  81.6119624  36.4761898  93.6398653  74.9295405  38.1720341 109.2412705
  75.6710089  38.7105385 108.9647529  74.2232390  38.7986630 109.3984257
  80.4050744  40.3149481 107.8384867  80.8134100  39.8731892 107.0939499
  79.6828006  39.7402109 108.0919060  76.7581814  35.2522088 105.2118424
  77.6043009  35.6761502 105.3553073  76.6980452  34.5955712 105.9056987
  80.7279559  40.8750672 101.5937156  80.0988421  41.0396386 100.8913224
  80.3405221  41.2892282 102.3648120  84.6068791  41.8105110  98.9481519
  83.9219829  42.1904011  98.3978553  84.6912640  42.4200436  99.6813467
  79.9081260  32.9126456 106.8699597  79.6642191  33.6668517 106.3333873
  80.1841190  33.2911804 107.7046844  81.8619722  39.4565069 105.5476863
  82.0736618  40.0996829 104.8711244  81.8149471  38.6227385 105.0798793
  79.4645951  32.0682889 102.4513435  78.6030430  32.3664143 102.7430173
  79.4908386  32.2853288 101.5194468  76.2807521  40.6125080  98.8587241
  76.7445866  40.8912783  98.0691863  76.0164319  39.7108525  98.6760331
  73.1731602  40.1596562 101.7967004  73.7432959  40.5883830 101.1584489
  73.7639714  39.8779146 102.4951190  75.2176407  36.7348232  95.6676806
  75.9200450  37.1869276  96.1350732  74.8857035  36.0932051  96.2956699
  73.6656768  35.3259989 110.0428015  73.0355429  36.0076270 110.2763412
  73.5592856  35.2143071 109.0981154  68.9601741  34.9931785 100.9693940
  68.1700795  35.2489314 100.4934050  69.4512988  35.8080123 101.0745980
  82.9765550  42.3337024 103.7199220  83.7982994  41.9317212 103.4381902
  82.9727953  42.2305258 104.6715336  70.9116486  35.3576364  97.9277416
  70.1147649  35.4695059  98.4460912  70.6842078  35.6963017  97.0618307
  76.7422154  41.8821068 105.8759931  76.8066586  42.3441475 106.7118103
  76.0333078  41.2518432 106.0042241  67.2439444  35.2462276 103.4008930
  67.4947482  36.1309285 103.6666506  67.7798992  35.0666877 102.6284022
  91.0671543  38.6775773 100.0684192  90.3135252  38.1083171  99.9128196
  91.2019085  38.6438437 101.0154826  76.4570171  43.5489175  95.7438911
  76.3215846  44.3940711  96.1723759  76.9979984  43.7508453  94.9804845
  72.9437511  29.6280755 112.4053266  72.5504457  29.0746953 113.0800911
  73.7603651  29.9391333 112.7959784  69.9099569  41.0664613  96.3166836
  70.4224089  41.8607863  96.4672401  70.5622282  40.3690904  96.2500438
  71.7194454  44.1830369  98.3989589  71.8961082  45.1048334  98.2110573
  72.5151287  43.8688789  98.8283969  75.8605472  31.0438634 109.9973523
  76.6015185  31.6445787 109.9177985  76.0923395  30.3016272 109.4391566
  71.0046810  36.2295001 108.2751753  70.8900325  35.3280258 108.5758852
  70.1491328  36.4758698 107.9236569  78.0838648  44.1712742 109.8739253
  77.6402502  43.3849120 109.5560158  78.7455861  44.3591892 109.2083144
  72.8425769  45.7008543 104.3999932  73.3933194  45.5725607 103.6276926
  72.0037245  46.0003432 104.0494825  80.1819886  44.4515541 107.9020655
  80.1638361  45.2724423 107.4100924  81.1039806  44.3269617 108.1270796
  76.6392940  41.9659671 108.7444163  77.1721277  41.2047959 108.5143471
  76.1107021  41.6733323 109.4868317  79.8062635  27.0719737 104.2737805
  79.4626904  27.9621379 104.1976915  80.1741598  26.8821395 103.4107390
  67.8748486  39.3953267  97.0926407  68.7123708  39.8050276  96.8760114
  68.0526753  38.4552710  97.0626601  79.7712918  37.0628348  92.7810240
  79.2559541  37.8332953  93.0198627  79.4990226  36.3893484  93.4043301
  77.3560029  31.9078049  97.8395478  76.5001625  31.5184899  97.6601117
  77.7686981  31.9870010  96.9795264  78.8859175  29.4424392 102.2387038
  78.3823971  29.4054527 101.4254843  79.1789782  30.3517135 102.2983695
  75.1302061  29.5263122 101.2453220  75.9955058  29.3305930 100.8859109
  75.1979570  29.2973474 102.1722576  84.7447192  39.8160703  94.7163413
  83.9676635  39.4771862  94.2718575  85.4238673  39.8213326  94.0418378
  79.5599221  34.9355440  94.6070021  79.2549356  35.2501589  95.4580164
  80.5129663  35.0136860  94.6497354  78.0045653  41.0945663  96.2562975
  77.4767014  40.3598423  95.9436212  77.5033155  41.8720340  96.0102943
  82.9838499  39.2894684 101.3730021  82.3262173  39.9793945 101.4610150
  83.7878898  39.6791116 101.7164008  72.7364380  31.7565330  98.6169586
  73.3108132  31.5340511  97.8842779  73.3235363  31.8254024  99.3698188
  81.7943958  37.6439057  99.4233963  82.3075839  38.2769048  99.9255673
  82.4445181  37.0440252  99.0577323  73.0633967  33.7869791  92.6365472
  72.2271280  34.1244477  92.9574746  72.9238737  33.6518771  91.6992609
  75.0387048  28.6306579  97.3444656  74.3851460  28.3155596  96.7201271
  74.9967522  28.0082319  98.0704479  76.1498253  38.9125874  89.2597948
  75.2425315  38.6815127  89.4589097  76.6469285  38.1163493  89.4471929
  79.0566332  47.6223381  92.1794634  78.3828031  47.9255078  92.7879592
  79.4432154  48.4252461  91.8300091  78.2724788  35.1188512 101.6692303
  77.3547350  35.3403459 101.5113992  78.6884932  35.1934823 100.8104011
  79.0559836  36.5179928  96.7994984  79.8031655  37.0301325  96.4902106
  79.3251426  36.1963981  97.6599377  77.3286486  39.0138469  93.7821938
  76.4197706  38.7297501  93.8794408  77.3581570  39.4337547  92.9225245
  82.5605754  42.6245058  97.5513106  82.1068081  41.7835968  97.6078296
  81.9299720  43.2606456  97.8887886  81.5038673  33.5537044  98.7813773
  80.7661430  33.0414430  99.1124016  81.7565447  33.1137426  97.9697050
  81.0038693  44.4621555  98.4862924  81.2961667  45.0226612  97.7675289
  81.5137314  44.7550116  99.2416083  81.6050301  26.3313296  99.3755542
  81.9109177  25.4710660  99.0881457  82.3302905  26.9230916  99.1754536
  67.8974657  36.7343983  97.7637140  67.6999057  36.1413343  97.0388207
  67.3421321  36.4296193  98.4813079  75.8771380  36.6267089  99.8831733
  75.9319990  35.6740926  99.8074210  75.0662582  36.7826528 100.3673032
  77.0262574  40.5547212  91.1210017  76.5882004  39.8383071  90.6615654
  77.7673015  40.7823327  90.5595108  73.8163740  35.2444149  97.6422112
  73.0031606  35.5438319  98.0487304  74.3122734  34.8499838  98.3596594
  75.9672318  45.2401906  99.5756377  75.9248497  45.4662752  98.6464909
  76.8835017  45.0065280  99.7242178  79.4137952  35.7085973 106.4737006
  79.7687340  35.9357447 107.3331472  80.0610083  36.0404350 105.8514261
  85.1435689  38.8304409  97.1786335  85.0053588  39.0206005  96.2507524
  84.7871908  39.5923792  97.6354386  73.3077815  32.8162504 103.2583347
  73.9477194  32.6751264 102.5606311  72.4755346  32.5297018 102.8821949
  85.1705069  40.8980936 102.1897607  85.6041575  40.8056225 103.0380661
  85.8836649  40.8738437 101.5517623  74.0838119  42.1164935  99.3718340
  74.8778717  41.6215255  99.1700915  73.3729811  41.5882798  99.0086045
  78.9032963  44.4983030 103.7230707  78.9569986  45.0673967 104.4908423
  78.0347745  44.6684915 103.3584744  70.3920882  36.2608017  95.4478092
  69.4618471  36.1992472  95.6648054  70.4878354  35.7383969  94.6514734
  70.3106431  32.7862829  98.0356334  70.5713249  33.7008163  97.9265494
  71.1323604  32.3187272  98.1852947  71.7831357  34.2000587 105.2055159
  72.4554410  33.9917949 104.5567807  70.9561143  34.0022673 104.7660391
  86.0320618  40.9404637 104.7230492  86.2256508  41.8450447 104.9689767
  85.9321236  40.4812056 105.5569077  77.6856929  30.8262528 107.2220819
  77.0384844  31.5252477 107.1285296  78.4557944  31.2598671 107.5897068
  81.0935727  41.0911380 110.2971373  80.9421233  40.8621931 109.3801456
  81.0840406  42.0481981 110.3102718  77.8621063  38.6643292 105.2817639
  78.7913123  38.8154452 105.1086606  77.4412093  38.7527313 104.4266286
  76.6609395  42.6893957 103.0516177  76.5220481  42.3212741 103.9242115
  75.8723991  43.2041596 102.8800135  77.2557547  47.7903053  94.3941713
  77.4309303  47.3191097  95.2087336  76.5690335  48.4168820  94.6222974
  78.2114610  42.0675560 100.4405015  77.8764443  42.0276330 101.3362664
  77.7118556  41.4020275  99.9675425  72.1858854  37.4743190 105.9657596
  72.0478652  36.7423428 106.5669135  73.0963778  37.3852090 105.6841783
  81.1473802  39.4131594  90.7142074  80.5302972  38.6878422  90.6175127
  80.6790290  40.1740954  90.3709148  74.8141155  37.1863149 105.4541275
  75.5240773  36.5456341 105.4127894  74.7710463  37.4376044 106.3767456
  82.8027933  44.1230502 108.3747855  82.7440480  43.4389722 107.7078438
  83.2047452  44.8649492 107.9228481  73.5270089  34.1728367 107.2736915
  72.9907446  33.7219105 107.9258511  72.9386797  34.3074276 106.5307379
  71.8218632  50.9392416 101.1681573  72.0615230  51.5710940 101.8460592
  70.9787829  50.5880456 101.4546933  72.9372348  33.6317018  89.8363378
  72.0601814  33.5105819  89.4725625  73.4130101  32.8403097  89.5842267
  82.8045341  42.0870086 106.6061834  81.9172119  41.7496008 106.7288233
  83.3743892  41.3553117 106.8430600  64.4574488  38.4194178  99.9304886
  65.1445528  38.1055908  99.3425901  64.3022616  39.3235543  99.6572137
  69.2609210  33.3084374 104.3589909  69.1767399  32.7010044 103.6240319
  68.4391916  33.7993393 104.3599406  76.3346494  46.7471539 103.5723077
  76.2616666  47.5526510 104.0842382  75.8923887  46.9463504 102.7471099
  76.1236274  45.9843309  97.0825899  75.3403796  46.5264989  97.1764123
  76.8229019  46.5017288  97.4820140  79.4332924  31.7937938  99.7260104
  79.9301623  31.0407900  99.4061175  78.6619905  31.8302255  99.1603314
  87.2862681  37.4978304 101.3678396  87.2752557  38.3803019 100.9972329
  86.4180061  37.1449854 101.1732933  78.7945178  46.6458373 105.7281236
  79.5073150  47.2805837 105.6557138  78.3035206  46.7422239 104.9121238
  80.5162705  40.5509625  97.2998528  79.5818983  40.6711088  97.1303232
  80.6939373  39.6482092  97.0358538  76.0167893  33.9355321  99.4531789
  75.6465680  33.3826361 100.1412695  76.5126985  33.3313454  98.9006789
  83.9035256  36.3926945  97.8348562  84.3695708  37.2254936  97.7608865
  84.3542756  35.9271926  98.5393820  73.8457091  44.3952816 106.5486807
  74.5466551  45.0289299 106.7016201  73.3752206  44.7367548 105.7882446
  81.9711487  42.7370766  94.8334714  82.2471331  42.6227360  95.7428588
  81.1015986  42.3388251  94.7946887  81.8751919  28.7607532 101.8739463
  80.9614998  28.9911758 102.0421670  82.3045020  28.8445976 102.7253496
  81.6458377  36.9497423 104.3739357  80.9929827  37.1973331 103.7191810
  82.0238757  36.1361562 104.0401835  78.6065551  46.9857117  98.4767528
  78.7887946  46.1678773  98.9395280  79.4298537  47.2024809  98.0392418
  78.9407716  45.9125302  95.7382576  79.4695483  45.4017756  95.1252738
  79.2035936  45.5967832  96.6028109  77.6945950  37.6917235 110.8605394
  77.0186587  37.5911364 111.5307770  78.5173584  37.5356448 111.3241392
  69.4424809  43.9289171 103.4817910  70.0278246  43.1832859 103.6145814
  69.2449648  44.2393128 104.3654573  72.2963464  46.9640418  98.4980352
  71.6273840  47.4486546  98.0144392  72.1576334  47.2109639  99.4123731
  64.0342464  36.4994771 102.2022353  64.0726563  35.9658362 102.9959471
  63.5282757  35.9729977 101.5833330  76.4368733  48.9984162 105.0963010
  76.9887041  49.1615783 105.8612096  76.7774926  49.5888600 104.4243035
  71.4133226  31.3459312 105.6984895  71.4774553  32.2074143 105.2862293
  71.3500346  30.7333313 104.9657254  70.8885499  33.4182444 109.3457929
  71.5157538  33.0359522 109.9595454  70.0313418  33.1996646 109.7113622
  81.2879607  43.8245420 110.9511665  81.8319511  44.4375378 110.4566620
  80.7066452  44.3824998 111.4678678  67.6651042  35.2258873  95.2776284
  67.9604483  34.3169552  95.2243338  66.7639077  35.2046613  94.9557286
  79.5737120  46.9466138 102.0826693  79.4488260  46.1455877 101.5737638
  80.2316211  47.4412331 101.5940662  71.1945289  33.3014870 101.2603833
  70.4731874  33.9150838 101.1211306  71.9838544  33.8372635 101.1820479
  81.6372029  44.7475158 103.7106243  80.6902364  44.6280509 103.6384569
  81.9854802  43.8597656 103.7932504  73.9971602  30.6369297 107.5344484
  74.5206004  30.8831593 108.2970794  73.7783935  31.4689331 107.1147622
  69.3938883  32.9072971  95.4015609  69.0651589  32.0270350  95.2190715
  69.7478254  32.8520640  96.2891999  78.6418462  44.5427874  99.9110595
  78.4943424  43.6144581 100.0918165  79.4671955  44.5647965  99.4267670
  72.5080706  33.1945941  95.7691087  72.8476779  33.7231862  95.0469695
  72.9552827  33.5326347  96.5449653  82.2452584  45.3656433 100.9975468
  83.1699131  45.1599294 100.8599919  82.0767887  45.1172834 101.9064809
  75.2024147  31.5782992 105.2194155  74.8620967  30.7790805 105.6214835
  74.4963153  31.8784702 104.6470988  75.8540619  28.6632304 103.6721478
  76.6766688  28.1892782 103.5500368  76.0978682  29.4422788 104.1720164
  74.4948853  31.6920562  93.9684380  75.2157216  32.0701815  93.4648097
  73.8714158  32.4109439  94.0719358  78.6379976  32.3965711  94.9042712
  78.8543591  33.2790349  94.6031540  78.1574043  32.0051925  94.1748354
  73.3779198  35.3551425 101.4813457  73.2323778  35.6691728 102.3737738
  72.9004401  35.9736325 100.9284355  75.2375581  32.3453973 101.5294346
  75.2237149  31.4495066 101.1926644  75.9548009  32.3524636 102.1632632
  77.0901711  32.7791313 103.5747474  76.8319489  33.7008384 103.5731804
  76.5586752  32.3821747 104.2647938  82.0347900  45.8842100  96.3537559
  82.2084778  45.3188522  95.6011411  82.5276791  46.6842995  96.1717049
  67.8524860  37.8956769 104.4201118  67.3078328  38.6716577 104.5521392
  68.7304210  38.2427574 104.2620239  74.6412476  31.2268353  96.7981916
  74.7628388  30.2984999  96.9972804  74.3514519  31.2407039  95.8860232
  77.5103667  28.9123263  99.9348636  77.5325364  28.9762596  98.9800616
  77.9271726  28.0727772 100.1289142  87.8887291  38.6478523  97.9727859
  88.3318437  37.8985848  97.5746982  87.0113801  38.6388659  97.5901591
  83.0223073  45.2008864  93.4534457  83.7173977  45.8215557  93.6721772
  83.3646223  44.3504216  93.7286835  68.6390882  37.0226665 107.3131275
  67.8972618  37.1709301 107.8995905  68.3183626  37.2834931 106.4498024
  84.9214496  42.6508570  94.9821788  85.4465820  42.9895843  94.2571108
  84.8336848  41.7155585  94.7984923  76.5834544  46.5642644 107.1111665
  76.8921671  46.3191790 107.9834364  77.3810026  46.7689282 106.6230535
  76.6055156  48.7180553  99.3417041  76.1660147  48.2256932 100.0349898
  77.3563273  48.1753521  99.1009116  69.0847495  44.9092094  99.3441669
  69.9105515  44.6095866  98.9640313  68.7341547  44.1399717  99.7931458
  74.0529029  44.2618562 101.4139343  73.4309038  43.5989267 101.1141571
  74.7233895  44.2879694 100.7312991  67.2856100  42.8278421 100.3030603
  66.4488009  42.4000595 100.1214604  67.2579746  43.0210864 101.2401394
  74.1253556  32.7400350 111.0071849  74.1741711  33.6162473 110.6249619
  74.6676070  32.1977743 110.4343492  84.6108402  43.2841474 110.2872986
  83.8203945  43.2665612 109.7477485  84.3741756  43.8229767 111.0422023
  84.7306277  40.1333940 107.6005715  84.7804282  39.9683947 108.5421237
  84.6220200  39.2661199 107.2103595  73.6142535  42.8122486  94.8897803
  73.7630656  43.4957950  94.2364476  74.4208979  42.7927576  95.4047259
  82.0210039  36.1164868 108.9165021  82.9219902  35.9771333 108.6249019
  82.0958014  36.2819323 109.8563199  76.3552844  33.4931723 107.7618208
  75.4856154  33.7865289 107.4900796  76.5912325  34.0772168 108.4825471
  86.2324474  42.5530881 107.8447736  85.9409282  42.9160862 108.6811197
  85.6196605  41.8397890 107.6661068  87.4320156  40.1183761 100.3650306
  88.2667047  40.5573565 100.5287867  87.5679285  39.6422414  99.5458552
  84.4811662  37.6763496 106.3127794  84.9565783  37.8691142 105.5046645
  83.5577227  37.7322682 106.0671178  71.3695168  38.8387663  95.8958872
  71.1241210  37.9349993  96.0939083  71.5391083  38.8404814  94.9538350
  79.0591878  29.7111340 105.2783628  79.5773822  30.4472367 104.9530117
  78.7047011  30.0175333 106.1130387  70.6390816  34.5716021  93.3945034
  69.9460061  34.6460376  92.7385070  70.3942568  33.8076364  93.9166551
  79.3104472  26.1311622 100.7984525  79.5906226  25.4634811 101.4244951
  80.0955079  26.3240718 100.2859188  77.1137941  45.3070616  92.3609551
  76.5411908  45.9260803  91.9080023  77.6870735  45.8569978  92.8949473
  83.1813331  34.5529256 104.5456100  84.1330754  34.6527354 104.5668324
  83.0116781  33.7607525 105.0554184  81.2027710  31.6384839 104.7315501
  80.6077642  31.9189852 104.0361989  80.9177407  32.1278740 105.5032242
  80.3335201  45.5907766  93.4918133  81.2665874  45.5253328  93.6951009
  80.2458414  46.4264033  93.0332666  82.9623217  44.9073637  90.4522081
  82.8836849  44.5733500  91.3457839  83.7832884  45.3995404  90.4513553
  85.6601409  37.7735376 103.6598399  85.6277729  36.8351377 103.8458083
  86.2702032  37.8519413 102.9264224  77.4984739  36.6431429  89.7025603
  78.4443844  36.5137637  89.7714021  77.1198984  35.9046091  90.1795032
  85.8095897  34.5646419 103.7056683  85.2934946  33.7804876 103.5186611
  86.6935846  34.2365136 103.8703202  83.4706624  28.3087435  99.6652495
  83.2731445  28.0002523 100.5495827  84.0806330  29.0349074  99.7950425
  91.4777958  38.8351383 102.8004436  92.2081347  38.5736671 103.3612139
  90.8684904  38.0980105 102.8406504  89.5593256  36.9759245 103.3978887
  88.8326419  36.8415210 102.7895379  89.1440542  37.2836074 104.2035605
  77.3823432  40.6949175 111.1626260  78.3026441  40.8727774 111.3566307
  77.3473015  39.7505220 111.0105960  75.6827657  34.5681405  89.6380489
  74.7759112  34.2714518  89.7143202  75.9603638  34.2711223  88.7714775
  66.6005597  35.8887769 100.0879535  66.2808381  35.0353077  99.7953909
  66.0539025  36.1036347 100.8437502  70.3785505  38.6050210 103.8049042
  70.5971514  39.5367317 103.8237075  70.7911278  38.2458184 104.5903845
  77.2989722  29.1118295  95.7924730  76.4890451  28.7665380  96.1679976
  77.9874139  28.8025839  96.3812341  79.2280271  28.1896342  97.4149027
  79.7811309  28.6091795  98.0739050  79.4650357  27.2632090  97.4571983
  75.2513370  34.1783415 113.1951790  75.1510097  35.1277772 113.1263882
  75.0334912  33.8501654 112.3227861  74.4526441  31.4268340  89.7792468
  75.3145605  31.7523239  90.0388285  74.6376785  30.6399836  89.2665534
  66.4693857  39.5090680 102.0572657  65.7757328  39.0944633 101.5442611
  67.2166848  39.5511217 101.4606075  82.6059078  30.2996867  96.9227691
  82.0257747  30.9581671  96.5405743  82.3395010  29.4774212  96.5115108
  81.0562644  29.7001925  99.1249011  81.5562422  29.8118459  98.3163330
  81.6998252  29.3962977  99.7649820  75.1144640  37.6080554 112.0116852
  74.6311722  38.4080914 112.2180741  75.2005579  37.6188499 111.0584296
  68.3830600  39.4408934  99.9338671  68.3601288  39.5396621  98.9820555
  68.6931236  40.2874085 100.2555838  71.0417977  41.4985089 104.0485286
  71.9961231  41.4669031 103.9815217  70.8430501  41.0375713 104.8635512
  71.6317360  40.0686205 106.6156084  72.4510249  40.5630284 106.6390921
  71.9054167  39.1518173 106.5873651  81.3883956  32.4596957  95.9784039
  80.5009811  32.7446608  95.7604234  81.8037945  32.2990721  95.1311316
  84.7398492  32.4843478  99.6938378  85.5158882  32.9739931  99.9662995
  84.0146626  32.9101532 100.1510248  87.1771050  33.1971097 100.7512319
  87.7715541  32.9566833 100.0405627  87.2497634  32.4778228 101.3785855
  69.3968206  47.0404708 101.0655484  69.2622674  46.2805109 100.4993482
  68.9800268  47.7645608 100.5984273  80.5327169  42.2241632  90.0732059
  81.2363019  42.4291634  90.6889715  79.8089818  42.7918394  90.3381143
  81.3624979  37.9751493  96.1934329  81.3060181  38.4320045  95.3541962
  81.9153322  37.2142178  96.0157172  85.1729785  33.7641225  97.0184449
  84.9166720  33.3637861  97.8492656  84.5482653  34.4785019  96.8934588
  89.4842123  36.5037298  99.5255740  88.9241681  36.5730488 100.2987302
  88.8785627  36.3278283  98.8055236  72.5537332  47.9374025 101.2773926
  72.4369716  48.8819458 101.1752617  71.7329778  47.6347587 101.6659726
  82.4413867  42.6624161  92.1230519  83.2759471  42.2305360  91.9407994
  82.2798210  42.4906175  93.0507414  82.0959759  39.1656274  93.4886858
  82.0408563  39.0000546  92.5475303  81.4705814  39.8732307  93.6449048
  66.8852274  34.4024339 107.3148281  67.5311137  33.8923293 107.8035506
  66.6769425  35.1393020 107.8891706  79.4105666  41.4705186 112.8140421
  80.2796826  41.6445839 112.4527056  78.9312417  42.2899603 112.6916151
  75.4055884  28.6664383  93.0672177  75.3934554  29.6106223  93.2240448
  76.2979306  28.4834529  92.7731638  73.5791846  48.5902287 104.4929855
  74.4819093  48.6225898 104.8096350  73.3529216  47.6602738 104.5076191
  75.3345448  47.3433274 101.1539933  74.3841079  47.3435135 101.0404306
  75.6377934  46.5966008 100.6375968  79.2208004  25.2607160  97.3218114
  78.4540400  24.7065647  97.4674796  79.6318709  25.3329029  98.1832265
  71.2249765  31.5491956 111.4123295  72.0881226  31.1928761 111.6226619
  70.6515175  31.2105851 112.0998699  91.0698142  53.1793812 102.2185696
  91.7076552  53.0600560 101.5149036  90.9518985  54.1274656 102.2773648
  87.8787848  53.1321240 102.1547221  87.5406359  53.0162305 101.2667755
  88.7477616  52.7312405 102.1348227  83.7374664  54.9856717  98.1444111
  83.1739529  54.8946654  97.3760399  83.6227059  54.1656621  98.6246604
  88.3607631  54.2856092 108.1133426  88.3496272  53.8908890 107.2413930
  88.5228270  53.5522165 108.7067198  81.2839096  56.4807908 100.9828332
  82.0760388  56.1398733 100.5674631  81.5235746  56.5902883 101.9030485
  89.3174222  58.6527684  93.4558576  88.6662202  59.2381765  93.0692590
  90.1118585  59.1833879  93.5153614  83.2429850  55.7416822  93.8545711
  84.0160726  55.1945809  93.7158587  83.5955248  56.6061071  94.0660172
  85.0814892  57.0693204 107.0612610  84.7904758  57.9738835 106.9459276
  85.7171876  57.1109732 107.7756680  86.0071099  54.4470052 103.6513970
  86.6034671  54.2226075 102.9370933  86.0646070  53.7054798 104.2539418
  85.5796127  51.9009488  91.4864161  85.8321648  51.3791009  90.7247624
  84.6420686  51.7375633  91.5890844  90.6239410  50.9045266  99.2938904
  91.4102499  50.4864689  98.9429321  90.8878115  51.8091358  99.4620552
  90.7949488  56.3418116  93.9927561  90.1595321  56.4152743  94.7048465
  90.4646894  56.9311715  93.3146640  96.0247837  50.8420499 100.1971882
  96.7573009  50.2719716 100.4309712  95.2687193  50.4542100 100.6378388
  85.2992416  53.8037594  93.6888536  85.1828674  53.1282497  94.3569620
  85.4094676  53.3169968  92.8720689  87.6423957  53.2647741  97.3935225
  87.2782164  52.7378362  98.1048146  88.4991073  52.8746210  97.2201710
  93.5473258  44.5542073 104.6566491  93.2156582  45.4237484 104.4327706
  92.9518871  44.2378357 105.3360521  87.2829444  48.2937641  92.3896573
  87.4503846  49.1617877  92.7567044  87.0926613  48.4564922  91.4657863
  90.0404777  56.7554619 104.0562404  89.7405500  57.6579658 103.9478211
  89.6955837  56.4886803 104.9083557  83.4917259  53.2068416 100.0899108
  82.5667755  53.0744630 100.2976800  83.7401672  53.9862636 100.5869051
  93.4401921  49.2737160 101.7359841  92.5318798  49.2052568 101.4418602
  93.3889517  49.7509105 102.5641667  87.2618665  50.7495298  93.3743240
  87.1418290  51.1952349  94.2128720  86.5671253  51.0980616  92.8156778
  80.8526070  52.8501690 100.9242897  80.9818451  53.1036169 101.8382309
  80.1723521  53.4429398 100.6047552  85.0225557  63.5198940  97.0233371
  84.9449587  64.4706765  97.1021852  84.4187201  63.1744812  97.6808298
  87.5142787  50.6926805 109.6794738  86.7376121  51.2520725 109.6697603
  88.1533350  51.1783588 110.2009608  95.3063567  47.4753598 103.5137715
  94.6637948  47.7686131 102.8677510  94.8018496  47.3606518 104.3190912
  92.9603731  51.2216771  94.2023574  93.8721587  51.4544158  94.0271272
  92.4513378  51.8053815  93.6398653  85.7689159  53.5012259 109.2412705
  86.5103843  54.0397303 108.9647529  85.0626145  54.1278547 109.3984257
  91.2444499  55.6441399 107.8384867  91.6527855  55.2023810 107.0939499
  90.5221760  55.0694027 108.0919060  87.5975569  50.5814006 105.2118424
  88.4436764  51.0053419 105.3553073  87.5374206  49.9247630 105.9056987
  91.5673313  56.2042590 101.5937156  90.9382176  56.3688304 100.8913224
  91.1798975  56.6184199 102.3648120  95.4462545  57.1397028  98.9481519
  94.7613583  57.5195929  98.3978553  95.5306395  57.7492354  99.6813467
  90.7475014  48.2418374 106.8699597  90.5035946  48.9960435 106.3333873
  91.0234945  48.6203722 107.7046844  92.7013477  54.7856987 105.5476863
  92.9130372  55.4288746 104.8711244  92.6543225  53.9519303 105.0798793
  90.3039706  47.3974807 102.4513435  89.4424185  47.6956061 102.7430173
  90.3302140  47.6145206 101.5194468  87.1201275  55.9416998  98.8587241
  87.5839621  56.2204701  98.0691863  86.8558073  55.0400442  98.6760331
  84.0125356  55.4888479 101.7967004  84.5826713  55.9175748 101.1584489
  84.6033468  55.2071064 102.4951190  86.0570161  52.0640150  95.6676806
  86.7594205  52.5161194  96.1350732  85.7250790  51.4223969  96.2956699
  84.5050523  50.6551907 110.0428015  83.8749183  51.3368188 110.2763412
  84.3986611  50.5434988 109.0981154  79.7995495  50.3223703 100.9693940
  79.0094549  50.5781231 100.4934050  80.2906743  51.1372041 101.0745980
  93.8159305  57.6628942 103.7199220  94.6376749  57.2609129 103.4381902
  93.8121708  57.5597176 104.6715336  81.7510241  50.6868282  97.9277416
  80.9541404  50.7986976  98.4460912  81.5235833  51.0254934  97.0618307
  87.5815908  57.2112985 105.8759931  87.6460341  57.6733392 106.7118103
  86.8726832  56.5810350 106.0042241  78.0833198  50.5754193 103.4008930
  78.3341237  51.4601203 103.6666506  78.6192747  50.3958795 102.6284022
 101.9065298  54.0067690 100.0684192 101.1529006  53.4375089  99.9128196
 102.0412839  53.9730355 101.0154826  87.2963926  58.8781093  95.7438911
  87.1609601  59.7232628  96.1723759  87.8373738  59.0800370  94.9804845
  83.7831266  44.9572673 112.4053266  83.3898211  44.4038871 113.0800911
  84.5997406  45.2683251 112.7959784  80.7493323  56.3956531  96.3166836
  81.2617844  57.1899781  96.4672401  81.4016036  55.6982821  96.2500438
  82.5588208  59.5122287  98.3989589  82.7354836  60.4340252  98.2110573
  83.3545042  59.1980706  98.8283969  86.6999227  46.3730552 109.9973523
  87.4408940  46.9737705 109.9177985  86.9317149  45.6308189 109.4391566
  81.8440565  51.5586919 108.2751753  81.7294080  50.6572176 108.5758852
  80.9885082  51.8050616 107.9236569  88.9232402  59.5004659 109.8739253
  88.4796256  58.7141038 109.5560158  89.5849616  59.6883810 109.2083144
  83.6819523  61.0300461 104.3999932  84.2326949  60.9017524 103.6276926
  82.8430999  61.3295350 104.0494825  91.0213640  59.7807459 107.9020655
  91.0032116  60.6016340 107.4100924  91.9433560  59.6561534 108.1270796
  87.4786695  57.2951589 108.7444163  88.0115031  56.5339877 108.5143471
  86.9500776  57.0025240 109.4868317  90.6456389  42.4011655 104.2737805
  90.3020659  43.2913296 104.1976915  91.0135352  42.2113312 103.4107390
  78.7142240  54.7245185  97.0926407  79.5517462  55.1342193  96.8760114
  78.8920508  53.7844627  97.0626601  90.6106672  52.3920266  92.7810240
  90.0953296  53.1624870  93.0198627  90.3383981  51.7185402  93.4043301
  88.1953783  47.2369967  97.8395478  87.3395380  46.8476817  97.6601117
  88.6080735  47.3161927  96.9795264  89.7252930  44.7716310 102.2387038
  89.2217725  44.7346445 101.4254843  90.0183537  45.6809052 102.2983695
  85.9695816  44.8555039 101.2453220  86.8348813  44.6597848 100.8859109
  86.0373325  44.6265391 102.1722576  95.5840946  55.1452620  94.7163413
  94.8070389  54.8063780  94.2718575  96.2632427  55.1505244  94.0418378
  90.3992975  50.2647358  94.6070021  90.0943111  50.5793507  95.4580164
  91.3523417  50.3428778  94.6497354  88.8439407  56.4237581  96.2562975
  88.3160769  55.6890341  95.9436212  88.3426910  57.2012257  96.0102943
  93.8232253  54.6186602 101.3730021  93.1655928  55.3085863 101.4610150
  94.6272652  55.0083034 101.7164008  83.5758135  47.0857247  98.6169586
  84.1501887  46.8632429  97.8842779  84.1629117  47.1545942  99.3698188
  92.6337712  52.9730974  99.4233963  93.1469594  53.6060966  99.9255673
  93.2838936  52.3732170  99.0577323  83.9027722  49.1161708  92.6365472
  83.0665034  49.4536395  92.9574746  83.7632492  48.9810688  91.6992609
  85.8780803  43.9598496  97.3444656  85.2245215  43.6447513  96.7201271
  85.8361277  43.3374237  98.0704479  86.9892007  54.2417791  89.2597948
  86.0819069  54.0107045  89.4589097  87.4863039  53.4455411  89.4471929
  89.8960086  62.9515299  92.1794634  89.2221785  63.2546995  92.7879592
  90.2825908  63.7544379  91.8300091  89.1118543  50.4480430 101.6692303
  88.1941104  50.6695377 101.5113992  89.5278687  50.5226740 100.8104011
  89.8953591  51.8471846  96.7994984  90.6425410  52.3593243  96.4902106
  90.1645180  51.5255898  97.6599377  88.1680241  54.3430386  93.7821938
  87.2591460  54.0589419  93.8794408  88.1975325  54.7629465  92.9225245
  93.3999508  57.9536976  97.5513106  92.9461835  57.1127886  97.6078296
  92.7693475  58.5898374  97.8887886  92.3432428  48.8828962  98.7813773
  91.6055185  48.3706348  99.1124016  92.5959201  48.4429343  97.9697050
  91.8432447  59.7913472  98.4862924  92.1355422  60.3518530  97.7675289
  92.3531068  60.0842033  99.2416083  92.4444055  41.6605214  99.3755542
  92.7502932  40.8002577  99.0881457  93.1696660  42.2522834  99.1754536
  78.7368411  52.0635900  97.7637140  78.5392811  51.4705261  97.0388207
  78.1815075  51.7588111  98.4813079  86.7165135  51.9559007  99.8831733
  86.7713745  51.0032843  99.8074210  85.9056337  52.1118446 100.3673032
  87.8656329  55.8839130  91.1210017  87.4275759  55.1674989  90.6615654
  88.6066769  56.1115245  90.5595108  84.6557495  50.5736067  97.6422112
  83.8425360  50.8730237  98.0487304  85.1516489  50.1791755  98.3596594
  86.8066073  60.5693824  99.5756377  86.7642251  60.7954670  98.6464909
  87.7228772  60.3357198  99.7242178  90.2531706  51.0377891 106.4737006
  90.6081094  51.2649364 107.3331472  90.9003838  51.3696268 105.8514261
  95.9829443  54.1596327  97.1786335  95.8447342  54.3497923  96.2507524
  95.6265662  54.9215710  97.6354386  84.1471570  48.1454422 103.2583347
  84.7870949  48.0043181 102.5606311  83.3149100  47.8588936 102.8821949
  96.0098823  56.2272854 102.1897607  96.4435330  56.1348143 103.0380661
  96.7230404  56.2030354 101.5517623  84.9231873  57.4456853  99.3718340
  85.7172472  56.9507173  99.1700915  84.2123566  56.9174716  99.0086045
  89.7426718  59.8274948 103.7230707  89.7963740  60.3965884 104.4908423
  88.8741499  59.9976833 103.3584744  81.2314637  51.5899934  95.4478092
  80.3012225  51.5284390  95.6648054  81.3272109  51.0675887  94.6514734
  81.1500186  48.1154747  98.0356334  81.4107003  49.0300080  97.9265494
  81.9717358  47.6479190  98.1852947  82.6225111  49.5292504 105.2055159
  83.2948165  49.3209866 104.5567807  81.7954898  49.3314590 104.7660391
  96.8714373  56.2696555 104.7230492  97.0650263  57.1742365 104.9689767
  96.7714991  55.8103974 105.5569077  88.5250683  46.1554445 107.2220819
  87.8778598  46.8544395 107.1285296  89.2951699  46.5890589 107.5897068
  91.9329481  56.4203297 110.2971373  91.7814988  56.1913849 109.3801456
  91.9234161  57.3773899 110.3102718  88.7014818  53.9935210 105.2817639
  89.6306878  54.1446370 105.1086606  88.2805848  54.0819231 104.4266286
  87.5003149  58.0185875 103.0516177  87.3614235  57.6504659 103.9242115
  86.7117746  58.5333514 102.8800135  88.0951301  63.1194971  94.3941713
  88.2703057  62.6483014  95.2087336  87.4084089  63.7460737  94.6222974
  89.0508365  57.3967477 100.4405015  88.7158197  57.3568247 101.3362664
  88.5512310  56.7312193  99.9675425  83.0252609  52.8035107 105.9657596
  82.8872406  52.0715346 106.5669135  83.9357532  52.7144007 105.6841783
  91.9867556  54.7423512  90.7142074  91.3696727  54.0170340  90.6175127
  91.5184045  55.5032872  90.3709148  85.6534909  52.5155067 105.4541275
  86.3634528  51.8748259 105.4127894  85.6104217  52.7667961 106.3767456
  93.6421688  59.4522420 108.3747855  93.5834234  58.7681640 107.7078438
  94.0441206  60.1941410 107.9228481  84.3663843  49.5020284 107.2736915
  83.8301200  49.0511023 107.9258511  83.7780552  49.6366193 106.5307379
  82.6612387  66.2684334 101.1681573  82.9008985  66.9002858 101.8460592
  81.8181583  65.9172374 101.4546933  83.7766102  48.9608936  89.8363378
  82.8995568  48.8397737  89.4725625  84.2523855  48.1695014  89.5842267
  93.6439095  57.4162004 106.6061834  92.7565874  57.0787926 106.7288233
  94.2137646  56.6845035 106.8430600  75.2968242  53.7486096  99.9304886
  75.9839282  53.4347826  99.3425901  75.1416371  54.6527460  99.6572137
  80.1002964  48.6376292 104.3589909  80.0161153  48.0301962 103.6240319
  79.2785671  49.1285310 104.3599406  87.1740249  62.0763456 103.5723077
  87.1010420  62.8818428 104.0842382  86.7317642  62.2755422 102.7471099
  86.9630028  61.3135226  97.0825899  86.1797550  61.8556906  97.1764123
  87.6622773  61.8309206  97.4820140  90.2726678  47.1229856  99.7260104
  90.7695378  46.3699818  99.4061175  89.5013660  47.1594172  99.1603314
  98.1256436  52.8270221 101.3678396  98.1146312  53.7094937 100.9972329
  97.2573815  52.4741772 101.1732933  89.6338932  61.9750290 105.7281236
  90.3466904  62.6097755 105.6557138  89.1428961  62.0714156 104.9121238
  91.3556459  55.8801543  97.2998528  90.4212738  56.0003005  97.1303232
  91.5333127  54.9774010  97.0358538  86.8561647  49.2647239  99.4531789
  86.4859435  48.7118279 100.1412695  87.3520740  48.6605372  98.9006789
  94.7429010  51.7218862  97.8348562  95.2089463  52.5546854  97.7608865
  95.1936511  51.2563844  98.5393820  84.6850846  59.7244734 106.5486807
  85.3860305  60.3581217 106.7016201  84.2145961  60.0659465 105.7882446
  92.8105241  58.0662683  94.8334714  93.0865085  57.9519278  95.7428588
  91.9409740  57.6680168  94.7946887  92.7145673  44.0899449 101.8739463
  91.8008753  44.3203676 102.0421670  93.1438775  44.1737893 102.7253496
  92.4852132  52.2789341 104.3739357  91.8323582  52.5265249 103.7191810
  92.8632511  51.4653479 104.0401835  89.4459305  62.3149034  98.4767528
  89.6281700  61.4970690  98.9395280  90.2692291  62.5316727  98.0392418
  89.7801471  61.2417219  95.7382576  90.3089237  60.7309674  95.1252738
  90.0429691  60.9259750  96.6028109  88.5339705  53.0209152 110.8605394
  87.8580342  52.9203282 111.5307770  89.3567338  52.8648366 111.3241392
  80.2818564  59.2581089 103.4817910  80.8672001  58.5124777 103.6145814
  80.0843402  59.5685045 104.3654573  83.1357219  62.2932336  98.4980352
  82.4667594  62.7778464  98.0144392  82.9970089  62.5401557  99.4123731
  74.8736218  51.8286689 102.2022353  74.9120318  51.2950280 102.9959471
  74.3676511  51.3021894 101.5833330  87.2762487  64.3276080 105.0963010
  87.8280796  64.4907701 105.8612096  87.6168681  64.9180517 104.4243035
  82.2526981  46.6751229 105.6984895  82.3168307  47.5366060 105.2862293
  82.1894101  46.0625231 104.9657254  81.7279253  48.7474362 109.3457929
  82.3551292  48.3651439 109.9595454  80.8707172  48.5288564 109.7113622
  92.1273362  59.1537337 110.9511665  92.6713266  59.7667295 110.4566620
  91.5460207  59.7116916 111.4678678  78.5044796  50.5550791  95.2776284
  78.7998237  49.6461470  95.2243338  77.6032832  50.5338531  94.9557286
  90.4130875  62.2758055 102.0826693  90.2882014  61.4747795 101.5737638
  91.0709966  62.7704249 101.5940662  82.0339043  48.6306788 101.2603833
  81.3125629  49.2442755 101.1211306  82.8232299  49.1664553 101.1820479
  92.4765783  60.0767075 103.7106243  91.5296119  59.9572426 103.6384569
  92.8248556  59.1889573 103.7932504  84.8365357  45.9661214 107.5344484
  85.3599758  46.2123511 108.2970794  84.6177690  46.7981249 107.1147622
  80.2332638  48.2364889  95.4015609  79.9045344  47.3562268  95.2190715
  80.5872008  48.1812557  96.2891999  89.4812216  59.8719792  99.9110595
  89.3337179  58.9436499 100.0918165  90.3065710  59.8939882  99.4267670
  83.3474461  48.5237859  95.7691087  83.6870533  49.0523780  95.0469695
  83.7946581  48.8618265  96.5449653  93.0846338  60.6948350 100.9975468
  94.0092886  60.4891212 100.8599919  92.9161642  60.4464751 101.9064809
  86.0417902  46.9074909 105.2194155  85.7014722  46.1082722 105.6214835
  85.3356908  47.2076620 104.6470988  86.6934373  43.9924222 103.6721478
  87.5160443  43.5184700 103.5500368  86.9372437  44.7714705 104.1720164
  85.3342608  47.0212480  93.9684380  86.0550970  47.3993733  93.4648097
  84.7107912  47.7401357  94.0719358  89.4773731  47.7257629  94.9042712
  89.6937345  48.6082267  94.6031540  88.9967798  47.3343843  94.1748354
  84.2172952  50.6843342 101.4813457  84.0717533  50.9983645 102.3737738
  83.7398156  51.3028243 100.9284355  86.0769335  47.6745890 101.5294346
  86.0630904  46.7786984 101.1926644  86.7941763  47.6816554 102.1632632
  87.9295466  48.1083231 103.5747474  87.6713244  49.0300301 103.5731804
  87.3980506  47.7113665 104.2647938  92.8741655  61.2134018  96.3537559
  93.0478532  60.6480440  95.6011411  93.3670546  62.0134913  96.1717049
  78.6918614  53.2248687 104.4201118  78.1472082  54.0008495 104.5521392
  79.5697964  53.5719491 104.2620239  85.4806231  46.5560271  96.7981916
  85.6022142  45.6276917  96.9972804  85.1908273  46.5698957  95.8860232
  88.3497421  44.2415181  99.9348636  88.3719118  44.3054514  98.9800616
  88.7665480  43.4019690 100.1289142  98.7281046  53.9770441  97.9727859
  99.1712192  53.2277766  97.5746982  97.8507556  53.9680577  97.5901591
  93.8616827  60.5300782  93.4534457  94.5567732  61.1507475  93.6721772
  94.2039977  59.6796133  93.7286835  79.4784636  52.3518583 107.3131275
  78.7366372  52.5001218 107.8995905  79.1577380  52.6126849 106.4498024
  95.7608250  57.9800488  94.9821788  96.2859574  58.3187760  94.2571108
  95.6730603  57.0447503  94.7984923  87.4228299  61.8934561 107.1111665
  87.7315425  61.6483708 107.9834364  88.2203781  62.0981200 106.6230535
  87.4448911  64.0472471  99.3417041  87.0053901  63.5548850 100.0349898
  88.1957028  63.5045439  99.1009116  79.9241250  60.2384012  99.3441669
  80.7499270  59.9387784  98.9640313  79.5735302  59.4691634  99.7931458
  84.8922783  59.5910480 101.4139343  84.2702792  58.9281185 101.1141571
  85.5627650  59.6171612 100.7312991  78.1249855  58.1570338 100.3030603
  77.2881763  57.7292513 100.1214604  78.0973500  58.3502782 101.2401394
  84.9647311  48.0692268 111.0071849  85.0135466  48.9454391 110.6249619
  85.5069825  47.5269661 110.4343492  95.4502156  58.6133391 110.2872986
  94.6597700  58.5957530 109.7477485  95.2135511  59.1521685 111.0422023
  95.5700031  55.4625858 107.6005715  95.6198036  55.2975865 108.5421237
  95.4613955  54.5953117 107.2103595  84.4536290  58.1414403  94.8897803
  84.6024410  58.8249868  94.2364476  85.2602733  58.1219493  95.4047259
  92.8603794  51.4456786 108.9165021  93.7613656  51.3063251 108.6249019
  92.9351768  51.6111240 109.8563199  87.1946599  48.8223640 107.7618208
  86.3249908  49.1157206 107.4900796  87.4306079  49.4064085 108.4825471
  97.0718228  57.8822799 107.8447736  96.7803036  58.2452780 108.6811197
  96.4590359  57.1689807 107.6661068  98.2713910  55.4475679 100.3650306
  99.1060802  55.8865483 100.5287867  98.4073039  54.9714332  99.5458552
  95.3205416  53.0055414 106.3127794  95.7959538  53.1983060 105.5046645
  94.3970982  53.0614600 106.0671178  82.2088923  54.1679581  95.8958872
  81.9634965  53.2641911  96.0939083  82.3784837  54.1696731  94.9538350
  89.8985633  45.0403257 105.2783628  90.4167577  45.7764284 104.9530117
  89.5440766  45.3467251 106.1130387  81.4784570  49.9007939  93.3945034
  80.7853815  49.9752294  92.7385070  81.2336322  49.1368282  93.9166551
  90.1498227  41.4603540 100.7984525  90.4299981  40.7926729 101.4244951
  90.9348834  41.6532635 100.2859188  87.9531695  60.6362534  92.3609551
  87.3805663  61.2552721  91.9080023  88.5264489  61.1861895  92.8949473
  94.0207085  49.8821174 104.5456100  94.9724508  49.9819272 104.5668324
  93.8510536  49.0899442 105.0554184  92.0421465  46.9676757 104.7315501
  91.4471397  47.2481770 104.0361989  91.7571161  47.4570658 105.5032242
  91.1728955  60.9199684  93.4918133  92.1059628  60.8545246  93.6951009
  91.0852168  61.7555951  93.0332666  93.8016972  60.2365554  90.4522081
  93.7230603  59.9025418  91.3457839  94.6226639  60.7287322  90.4513553
  96.4995163  53.1027294 103.6598399  96.4671483  52.1643294 103.8458083
  97.1095787  53.1811330 102.9264224  88.3378494  51.9723347  89.7025603
  89.2837599  51.8429555  89.7714021  87.9592739  51.2338008  90.1795032
  96.6489652  49.8938337 103.7056683  96.1328700  49.1096794 103.5186611
  97.5329600  49.5657054 103.8703202  94.3100378  43.6379353  99.6652495
  94.1125200  43.3294441 100.5495827  94.9200084  44.3640991  99.7950425
 102.3171713  54.1643300 102.8004436 103.0475101  53.9028589 103.3612139
 101.7078658  53.4272022 102.8406504 100.3987010  52.3051163 103.3978887
  99.6720174  52.1707128 102.7895379  99.9834297  52.6127992 104.2035605
  88.2217186  56.0241093 111.1626260  89.1420196  56.2019692 111.3566307
  88.1866770  55.0797138 111.0105960  86.5221411  49.8973323  89.6380489
  85.6152866  49.6006436  89.7143202  86.7997392  49.6003141  88.7714775
  77.4399351  51.2179686 100.0879535  77.1202136  50.3644995  99.7953909
  76.8932780  51.4328264 100.8437502  81.2179259  53.9342127 103.8049042
  81.4365269  54.8659235 103.8237075  81.6305033  53.5750102 104.5903845
  88.1383477  44.4410213  95.7924730  87.3284205  44.0957298  96.1679976
  88.8267894  44.1317756  96.3812341  90.0674025  43.5188259  97.4149027
  90.6205064  43.9383713  98.0739050  90.3044111  42.5924008  97.4571983
  86.0907124  49.5075333 113.1951790  85.9903851  50.4569690 113.1263882
  85.8728666  49.1793572 112.3227861  85.2920196  46.7560258  89.7792468
  86.1539360  47.0815156  90.0388285  85.4770540  45.9691754  89.2665534
  77.3087611  54.8382598 102.0572657  76.6151083  54.4236551 101.5442611
  78.0560602  54.8803134 101.4606075  93.4452832  45.6288785  96.9227691
  92.8651501  46.2873589  96.5405743  93.1788765  44.8066129  96.5115108
  91.8956399  45.0293842  99.1249011  92.3956177  45.1410377  98.3163330
  92.5392006  44.7254895  99.7649820  85.9538394  52.9372472 112.0116852
  85.4705476  53.7372832 112.2180741  86.0399333  52.9480417 111.0584296
  79.2224354  54.7700852  99.9338671  79.1995042  54.8688539  98.9820555
  79.5324991  55.6166002 100.2555838  81.8811732  56.8277007 104.0485286
  82.8354985  56.7960949 103.9815217  81.6824255  56.3667630 104.8635512
  82.4711114  55.3978123 106.6156084  83.2904003  55.8922201 106.6390921
  82.7447922  54.4810091 106.5873651  92.2277710  47.7888875  95.9784039
  91.3403565  48.0738526  95.7604234  92.6431699  47.6282638  95.1311316
  95.5792246  47.8135396  99.6938378  96.3552636  48.3031848  99.9662995
  94.8540381  48.2393450 100.1510248  98.0164805  48.5263015 100.7512319
  98.6109296  48.2858751 100.0405627  98.0891389  47.8070146 101.3785855
  80.2361961  62.3696626 101.0655484  80.1016429  61.6097027 100.4993482
  79.8194023  63.0937526 100.5984273  91.3720924  57.5533550  90.0732059
  92.0756774  57.7583552  90.6889715  90.6483572  58.1210312  90.3381143
  92.2018734  53.3043411  96.1934329  92.1453935  53.7611962  95.3541962
  92.7547076  52.5434096  96.0157172  96.0123540  49.0933143  97.0184449
  95.7560474  48.6929778  97.8492656  95.3876408  49.8076937  96.8934588
 100.3235878  51.8329216  99.5255740  99.7635436  51.9022405 100.2987302
  99.7179381  51.6570201  98.8055236  83.3931087  63.2665943 101.2773926
  83.2763471  64.2111376 101.1752617  82.5723533  62.9639505 101.6659726
  93.2807621  57.9916079  92.1230519  94.1153225  57.5597277  91.9407994
  93.1191964  57.8198093  93.0507414  92.9353513  54.4948192  93.4886858
  92.8802317  54.3292464  92.5475303  92.3099569  55.2024225  93.6449048
  77.7246028  49.7316257 107.3148281  78.3704892  49.2215211 107.8035506
  77.5163179  50.4684938 107.8891706  90.2499420  56.7997104 112.8140421
  91.1190580  56.9737756 112.4527056  89.7706172  57.6191521 112.6916151
  86.2449639  43.9956301  93.0672177  86.2328309  44.9398141  93.2240448
  87.1373061  43.8126447  92.7731638  84.4185601  63.9194205 104.4929855
  85.3212847  63.9517815 104.8096350  84.1922971  62.9894656 104.5076191
  86.1739203  62.6725192 101.1539933  85.2234834  62.6727053 101.0404306
  86.4771689  61.9257926 100.6375968  90.0601758  40.5899078  97.3218114
  89.2934154  40.0357564  97.4674796  90.4712463  40.6620947  98.1832265
  82.0643519  46.8783874 111.4123295  82.9274981  46.5220678 111.6226619
  81.4908930  46.5397768 112.0998699 101.9091896  68.5085730 102.2185696
 102.5470306  68.3892477 101.5149036 101.7912739  69.4566574 102.2773648
  98.7181602  68.4613158 102.1547221  98.3800114  68.3454223 101.2667755
  99.5871371  68.0604323 102.1348227  94.5768418  70.3148634  98.1444111
  94.0133283  70.2238571  97.3760399  94.4620813  69.4948539  98.6246604
  99.2001385  69.6148010 108.1133426  99.1890026  69.2200808 107.2413930
  99.3622025  68.8814082 108.7067198  92.1232850  71.8099826 100.9828332
  92.9154142  71.4690651 100.5674631  92.3629500  71.9194801 101.9030485
 100.1567977  73.9819602  93.4558576  99.5055957  74.5673683  93.0692590
 100.9512340  74.5125797  93.5153614  94.0823604  71.0708739  93.8545711
  94.8554480  70.5237726  93.7158587  94.4349003  71.9352989  94.0660172
  95.9208647  72.3985122 107.0612610  95.6298513  73.3030752 106.9459276
  96.5565631  72.4401649 107.7756680  96.8464853  69.7761970 103.6513970
  97.4428426  69.5517993 102.9370933  96.9039825  69.0346716 104.2539418
  96.4189882  67.2301405  91.4864161  96.6715403  66.7082927  90.7247624
  95.4814441  67.0667551  91.5890844 101.4633165  66.2337184  99.2938904
 102.2496254  65.8156607  98.9429321 101.7271869  67.1383276  99.4620552
 101.6343242  71.6710034  93.9927561 100.9989075  71.7444661  94.7048465
 101.3040648  72.2603633  93.3146640 106.8641592  66.1712417 100.1971882
 107.5966764  65.6011634 100.4309712 106.1080948  65.7834017 100.6378388
  96.1386171  69.1329511  93.6888536  96.0222429  68.4574415  94.3569620
  96.2488430  68.6461885  92.8720689  98.4817712  68.5939659  97.3935225
  98.1175919  68.0670279  98.1048146  99.3384827  68.2038128  97.2201710
 104.3867012  59.8833991 104.6566491 104.0550337  60.7529402 104.4327706
 103.7912626  59.5670275 105.3360521  98.1223199  63.6229558  92.3896573
  98.2897601  64.4909795  92.7567044  97.9320368  63.7856840  91.4657863
 100.8798532  72.0846537 104.0562404 100.5799255  72.9871576 103.9478211
 100.5349591  71.8178720 104.9083557  94.3311013  68.5360334 100.0899108
  93.4061510  68.4036548 100.2976800  94.5795426  69.3154553 100.5869051
 104.2795675  64.6029077 101.7359841 103.3712553  64.5344486 101.4418602
 104.2283271  65.0801022 102.5641667  98.1012419  66.0787216  93.3743240
  97.9812045  66.5244266  94.2128720  97.4065008  66.4272533  92.8156778
  91.6919824  68.1793607 100.9242897  91.8212205  68.4328086 101.8382309
  91.0117276  68.7721315 100.6047552  95.8619311  78.8490857  97.0233371
  95.7843341  79.7998683  97.1021852  95.2580955  78.5036730  97.6808298
  98.3536541  66.0218723 109.6794738  97.5769875  66.5812643 109.6697603
  98.9927104  66.5075506 110.2009608 106.1457322  62.8045516 103.5137715
 105.5031702  63.0978049 102.8677510 105.6412250  62.6898436 104.3190912
 103.7997486  66.5508689  94.2023574 104.7115342  66.7836076  94.0271272
 103.2907133  67.1345733  93.6398653  96.6082914  68.8304176 109.2412705
  97.3497598  69.3689220 108.9647529  95.9019899  69.4570465 109.3984257
 102.0838253  70.9733317 107.8384867 102.4921609  70.5315727 107.0939499
 101.3615515  70.3985944 108.0919060  98.4369323  65.9105923 105.2118424
  99.2830518  66.3345337 105.3553073  98.3767961  65.2539548 105.9056987
 102.4067068  71.5334507 101.5937156 101.7775930  71.6980221 100.8913224
 102.0192730  71.9476117 102.3648120 106.2856300  72.4688945  98.9481519
 105.6007338  72.8487847  98.3978553 106.3700149  73.0784272  99.6813467
 101.5868769  63.5710292 106.8699597 101.3429700  64.3252352 106.3333873
 101.8628699  63.9495639 107.7046844 103.5407231  70.1148904 105.5476863
 103.7524127  70.7580664 104.8711244 103.4936980  69.2811221 105.0798793
 101.1433460  62.7266725 102.4513435 100.2817939  63.0247978 102.7430173
 101.1695895  62.9437124 101.5194468  97.9595030  71.2708915  98.8587241
  98.4233375  71.5496618  98.0691863  97.6951828  70.3692360  98.6760331
  94.8519111  70.8180397 101.7967004  95.4220468  71.2467665 101.1584489
  95.4427223  70.5362982 102.4951190  96.8963916  67.3932068  95.6676806
  97.5987959  67.8453111  96.1350732  96.5644544  66.7515887  96.2956699
  95.3444277  65.9843824 110.0428015  94.7142938  66.6660105 110.2763412
  95.2380365  65.8726906 109.0981154  90.6389250  65.6515620 100.9693940
  89.8488304  65.9073149 100.4934050  91.1300497  66.4663958 101.0745980
 104.6553059  72.9920860 103.7199220 105.4770503  72.5901047 103.4381902
 104.6515462  72.8889094 104.6715336  92.5903995  66.0160200  97.9277416
  91.7935158  66.1278894  98.4460912  92.3629587  66.3546852  97.0618307
  98.4209663  72.5404903 105.8759931  98.4854095  73.0025310 106.7118103
  97.7120587  71.9102268 106.0042241  88.9226953  65.9046111 103.4008930
  89.1734991  66.7893121 103.6666506  89.4586501  65.7250712 102.6284022
 112.7459052  69.3359608 100.0684192 111.9922761  68.7667006  99.9128196
 112.8806594  69.3022273 101.0154826  98.1357680  74.2073010  95.7438911
  98.0003355  75.0524546  96.1723759  98.6767493  74.4092288  94.9804845
  94.6225020  60.2864590 112.4053266  94.2291966  59.7330789 113.0800911
  95.4391160  60.5975169 112.7959784  91.5887078  71.7248448  96.3166836
  92.1011598  72.5191699  96.4672401  92.2409791  71.0274739  96.2500438
  93.3981962  74.8414205  98.3989589  93.5748591  75.7632169  98.2110573
  94.1938796  74.5272624  98.8283969  97.5392981  61.7022469 109.9973523
  98.2802694  62.3029622 109.9177985  97.7710904  60.9600107 109.4391566
  92.6834319  66.8878837 108.2751753  92.5687834  65.9864094 108.5758852
  91.8278837  67.1342533 107.9236569  99.7626157  74.8296577 109.8739253
  99.3190011  74.0432955 109.5560158 100.4243370  75.0175727 109.2083144
  94.5213278  76.3592379 104.3999932  95.0720703  76.2309442 103.6276926
  93.6824754  76.6587268 104.0494825 101.8607395  75.1099377 107.9020655
 101.8425870  75.9308258 107.4100924 102.7827315  74.9853452 108.1270796
  98.3180449  72.6243506 108.7444163  98.8508786  71.8631795 108.5143471
  97.7894530  72.3317158 109.4868317 101.4850144  57.7303572 104.2737805
 101.1414413  58.6205214 104.1976915 101.8529107  57.5405230 103.4107390
  89.5535995  70.0537103  97.0926407  90.3911217  70.4634111  96.8760114
  89.7314262  69.1136545  97.0626601 101.4500427  67.7212183  92.7810240
 100.9347050  68.4916788  93.0198627 101.1777735  67.0477320  93.4043301
  99.0347538  62.5661884  97.8395478  98.1789134  62.1768735  97.6601117
  99.4474489  62.6453845  96.9795264 100.5646684  60.1008227 102.2387038
 100.0611480  60.0638363 101.4254843 100.8577291  61.0100970 102.2983695
  96.8089570  60.1846957 101.2453220  97.6742567  59.9889766 100.8859109
  96.8767079  59.9557309 102.1722576 106.4234701  70.4744538  94.7163413
 105.6464144  70.1355698  94.2718575 107.1026182  70.4797161  94.0418378
 101.2386730  65.5939275  94.6070021 100.9336865  65.9085425  95.4580164
 102.1917172  65.6720695  94.6497354  99.6833162  71.7529499  96.2562975
  99.1554523  71.0182258  95.9436212  99.1820664  72.5304175  96.0102943
 104.6626008  69.9478519 101.3730021 104.0049682  70.6377781 101.4610150
 105.4666407  70.3374951 101.7164008  94.4151889  62.4149165  98.6169586
  94.9895641  62.1924347  97.8842779  95.0022872  62.4837860  99.3698188
 103.4731467  68.3022892  99.4233963 103.9863348  68.9352884  99.9255673
 104.1232690  67.7024087  99.0577323  94.7421476  64.4453626  92.6365472
  93.9058789  64.7828313  92.9574746  94.6026246  64.3102606  91.6992609
  96.7174557  59.2890414  97.3444656  96.0638969  58.9739431  96.7201271
  96.6755031  58.6666154  98.0704479  97.8285762  69.5709709  89.2597948
  96.9212824  69.3398963  89.4589097  98.3256794  68.7747328  89.4471929
 100.7353841  78.2807216  92.1794634 100.0615540  78.5838913  92.7879592
 101.1219663  79.0836297  91.8300091  99.9512297  65.7772348 101.6692303
  99.0334859  65.9987295 101.5113992 100.3672441  65.8518658 100.8104011
 100.7347345  67.1763763  96.7994984 101.4819164  67.6885160  96.4902106
 101.0038935  66.8547816  97.6599377  99.0073995  69.6722304  93.7821938
  98.0985215  69.3881337  93.8794408  99.0369079  70.0921383  92.9225245
 104.2393263  73.2828893  97.5513106 103.7855590  72.4419803  97.6078296
 103.6087229  73.9190292  97.8887886 103.1826182  64.2120879  98.7813773
 102.4448939  63.6998266  99.1124016 103.4352956  63.7721261  97.9697050
 102.6826202  75.1205390  98.4862924 102.9749176  75.6810447  97.7675289
 103.1924823  75.4133951  99.2416083 103.2837810  56.9897131  99.3755542
 103.5896686  56.1294495  99.0881457 104.0090414  57.5814752  99.1754536
  89.5762166  67.3927818  97.7637140  89.3786566  66.7997179  97.0388207
  89.0208830  67.0880028  98.4813079  97.5558889  67.2850925  99.8831733
  97.6107499  66.3324761  99.8074210  96.7450091  67.4410364 100.3673032
  98.7050083  71.2131048  91.1210017  98.2669513  70.4966907  90.6615654
  99.4460524  71.4407162  90.5595108  95.4951249  65.9027984  97.6422112
  94.6819115  66.2022155  98.0487304  95.9910243  65.5083673  98.3596594
  97.6459827  75.8985741  99.5756377  97.6036006  76.1246588  98.6464909
  98.5622526  75.6649116  99.7242178 101.0925461  66.3669809 106.4737006
 101.4474849  66.5941282 107.3331472 101.7397592  66.6988186 105.8514261
 106.8223198  69.4888245  97.1786335 106.6841096  69.6789841  96.2507524
 106.4659417  70.2507627  97.6354386  94.9865324  63.4746340 103.2583347
  95.6264703  63.3335099 102.5606311  94.1542855  63.1880853 102.8821949
 106.8492578  71.5564772 102.1897607 107.2829084  71.4640061 103.0380661
 107.5624158  71.5322272 101.5517623  95.7625628  72.7748770  99.3718340
  96.5566226  72.2799090  99.1700915  95.0517320  72.2466633  99.0086045
 100.5820472  75.1566866 103.7230707 100.6357495  75.7257802 104.4908423
  99.7135254  75.3268751 103.3584744  92.0708391  66.9191852  95.4478092
  91.1405980  66.8576307  95.6648054  92.1665863  66.3967805  94.6514734
  91.9893940  63.4446665  98.0356334  92.2500758  64.3591998  97.9265494
  92.8111113  62.9771107  98.1852947  93.4618866  64.8584422 105.2055159
  94.1341919  64.6501784 104.5567807  92.6348652  64.6606508 104.7660391
 107.7108127  71.5988472 104.7230492 107.9044017  72.5034283 104.9689767
 107.6108745  71.1395891 105.5569077  99.3644438  61.4846363 107.2220819
  98.7172353  62.1836313 107.1285296 100.1345453  61.9182507 107.5897068
 102.7723236  71.7495215 110.2971373 102.6208742  71.5205767 109.3801456
 102.7627915  72.7065816 110.3102718  99.5408572  69.3227128 105.2817639
 100.4700632  69.4738287 105.1086606  99.1199602  69.4111149 104.4266286
  98.3396904  73.3477792 103.0516177  98.2007990  72.9796577 103.9242115
  97.5511500  73.8625432 102.8800135  98.9345056  78.4486889  94.3941713
  99.1096812  77.9774932  95.2087336  98.2477844  79.0752655  94.6222974
  99.8902119  72.7259395 100.4405015  99.5551952  72.6860165 101.3362664
  99.3906065  72.0604111  99.9675425  93.8646363  68.1327025 105.9657596
  93.7266161  67.4007264 106.5669135  94.7751287  68.0435925 105.6841783
 102.8261311  70.0715429  90.7142074 102.2090481  69.3462257  90.6175127
 102.3577799  70.8324790  90.3709148  96.4928664  67.8446984 105.4541275
  97.2028282  67.2040176 105.4127894  96.4497972  68.0959879 106.3767456
 104.4815442  74.7814338 108.3747855 104.4227989  74.0973558 107.7078438
 104.8834961  75.5233328 107.9228481  95.2057598  64.8312202 107.2736915
  94.6694955  64.3802941 107.9258511  94.6174306  64.9658111 106.5307379
  93.5006141  81.5976251 101.1681573  93.7402739  82.2294776 101.8460592
  92.6575338  81.2464291 101.4546933  94.6159857  64.2900854  89.8363378
  93.7389323  64.1689654  89.4725625  95.0917610  63.4986932  89.5842267
 104.4832850  72.7453922 106.6061834 103.5959628  72.4079843 106.7288233
 105.0531401  72.0136953 106.8430600  86.1361997  69.0778013  99.9304886
  86.8233037  68.7639743  99.3425901  85.9810125  69.9819378  99.6572137
  90.9396719  63.9668210 104.3589909  90.8554908  63.3593879 103.6240319
  90.1179425  64.4577228 104.3599406  98.0134003  77.4055374 103.5723077
  97.9404175  78.2110345 104.0842382  97.5711396  77.6047340 102.7471099
  97.8023783  76.6427144  97.0825899  97.0191305  77.1848824  97.1764123
  98.5016528  77.1601124  97.4820140 101.1120433  62.4521773  99.7260104
 101.6089132  61.6991736  99.4061175 100.3407414  62.4886090  99.1603314
 108.9650190  68.1562139 101.3678396 108.9540066  69.0386854 100.9972329
 108.0967570  67.8033690 101.1732933 100.4732687  77.3042208 105.7281236
 101.1860659  77.9389673 105.6557138  99.9822715  77.4006074 104.9121238
 102.1950213  71.2093461  97.2998528 101.2606492  71.3294923  97.1303232
 102.3726882  70.3065927  97.0358538  97.6955402  64.5939156  99.4531789
  97.3253189  64.0410197 100.1412695  98.1914494  63.9897290  98.9006789
 105.5822765  67.0510780  97.8348562 106.0483217  67.8838771  97.7608865
 106.0330265  66.5855761  98.5393820  95.5244600  75.0536651 106.5486807
  96.2254060  75.6873134 106.7016201  95.0539715  75.3951383 105.7882446
 103.6498996  73.3954601  94.8334714 103.9258840  73.2811196  95.7428588
 102.7803495  72.9972086  94.7946887 103.5539428  59.4191367 101.8739463
 102.6402507  59.6495594 102.0421670 103.9832529  59.5029811 102.7253496
 103.3245886  67.6081259 104.3739357 102.6717336  67.8557166 103.7191810
 103.7026266  66.7945397 104.0401835 100.2853060  77.6440952  98.4767528
 100.4675454  76.8262608  98.9395280 101.1086046  77.8608644  98.0392418
 100.6195225  76.5709137  95.7382576 101.1482992  76.0601592  95.1252738
 100.8823445  76.2551667  96.6028109  99.3733459  68.3501070 110.8605394
  98.6974096  68.2495199 111.5307770 100.1961093  68.1940284 111.3241392
  91.1212318  74.5873006 103.4817910  91.7065755  73.8416694 103.6145814
  90.9237157  74.8976963 104.3654573  93.9750973  77.6224254  98.4980352
  93.3061349  78.1070381  98.0144392  93.8363843  77.8693474  99.4123731
  85.7129973  67.1578607 102.2022353  85.7514072  66.6242197 102.9959471
  85.2070266  66.6313812 101.5833330  98.1156242  79.6567997 105.0963010
  98.6674550  79.8199619 105.8612096  98.4562435  80.2472435 104.4243035
  93.0920735  62.0043147 105.6984895  93.1562062  62.8657978 105.2862293
  93.0287855  61.3917149 104.9657254  92.5673008  64.0766280 109.3457929
  93.1945047  63.6943357 109.9595454  91.7100927  63.8580482 109.7113622
  89.3438550  65.8842709  95.2776284  89.6391992  64.9753387  95.2243338
  88.4426586  65.8630448  94.9557286 101.2524629  77.6049973 102.0826693
 101.1275769  76.8039713 101.5737638 101.9103720  78.0996166 101.5940662
  92.8732797  63.9598705 101.2603833  92.1519383  64.5734673 101.1211306
  93.6626053  64.4956470 101.1820479 103.3159538  75.4058993 103.7106243
 102.3689873  75.2864344 103.6384569 103.6642311  74.5181491 103.7932504
  95.6759111  61.2953132 107.5344484  96.1993513  61.5415428 108.2970794
  95.4571444  62.1273167 107.1147622  91.0726392  63.5656806  95.4015609
  90.7439098  62.6854185  95.2190715  91.4265763  63.5104475  96.2891999
 100.3205971  75.2011709  99.9110595 100.1730933  74.2728417 100.0918165
 101.1459464  75.2231800  99.4267670  94.1868215  63.8529776  95.7691087
  94.5264288  64.3815698  95.0469695  94.6340336  64.1910182  96.5449653
 103.9240093  76.0240268 100.9975468 104.8486640  75.8183129 100.8599919
 103.7555396  75.7756669 101.9064809  96.8811656  62.2366827 105.2194155
  96.5408476  61.4374640 105.6214835  96.1750662  62.5368538 104.6470988
  97.5328128  59.3216139 103.6721478  98.3554197  58.8476618 103.5500368
  97.7766191  60.1006623 104.1720164  96.1736362  62.3504398  93.9684380
  96.8944725  62.7285651  93.4648097  95.5501666  63.0693275  94.0719358
 100.3167485  63.0549547  94.9042712 100.5331100  63.9374185  94.6031540
  99.8361552  62.6635760  94.1748354  95.0566707  66.0135260 101.4813457
  94.9111287  66.3275563 102.3737738  94.5791910  66.6320160 100.9284355
  96.9163090  63.0037808 101.5294346  96.9024658  62.1078901 101.1926644
  97.6335518  63.0108472 102.1632632  98.7689220  63.4375148 103.5747474
  98.5106998  64.3592219 103.5731804  98.2374261  63.0405583 104.2647938
 103.7135409  76.5425935  96.3537559 103.8872287  75.9772358  95.6011411
 104.2064300  77.3426830  96.1717049  89.5312369  68.5540604 104.4201118
  88.9865837  69.3300412 104.5521392  90.4091719  68.9011409 104.2620239
  96.3199985  61.8852188  96.7981916  96.4415897  60.9568834  96.9972804
  96.0302028  61.8990874  95.8860232  99.1891176  59.5707099  99.9348636
  99.2112873  59.6346432  98.9800616  99.6059235  58.7311607 100.1289142
 109.5674800  69.3062358  97.9727859 110.0105946  68.5569684  97.5746982
 108.6901310  69.2972495  97.5901591 104.7010581  75.8592700  93.4534457
 105.3961486  76.4799392  93.6721772 105.0433732  75.0088051  93.7286835
  90.3178391  67.6810501 107.3131275  89.5760127  67.8293136 107.8995905
  89.9971135  67.9418766 106.4498024 106.6002005  73.3092405  94.9821788
 107.1253329  73.6479678  94.2571108 106.5124357  72.3739421  94.7984923
  98.2622053  77.2226479 107.1111665  98.5709180  76.9775626 107.9834364
  99.0597535  77.4273117 106.6230535  98.2842665  79.3764389  99.3417041
  97.8447656  78.8840767 100.0349898  99.0350782  78.8337356  99.1009116
  90.7635004  75.5675929  99.3441669  91.5893024  75.2679701  98.9640313
  90.4129056  74.7983552  99.7931458  95.7316538  74.9202398 101.4139343
  95.1096547  74.2573103 101.1141571  96.4021404  74.9463530 100.7312991
  88.9643609  73.4862256 100.3030603  88.1275518  73.0584430 100.1214604
  88.9367255  73.6794699 101.2401394  95.8041065  63.3984186 111.0071849
  95.8529220  64.2746308 110.6249619  96.3463579  62.8561579 110.4343492
 106.4093786  70.7917775 107.6005715 106.4591791  70.6267783 108.5421237
 106.3007709  69.9245034 107.2103595  95.2930044  73.4706321  94.8897803
  95.4418165  74.1541785  94.2364476  96.0996488  73.4511411  95.4047259
 103.6997548  66.7748703 108.9165021 104.6007411  66.6355168 108.6249019
 103.7745523  66.9403158 109.8563199  98.0340353  64.1515558 107.7618208
  97.1643663  64.4449124 107.4900796  98.2699834  64.7356003 108.4825471
 107.9111983  73.2114717 107.8447736 107.6196791  73.5744697 108.6811197
 107.2984114  72.4981725 107.6661068 109.1107665  70.7767597 100.3650306
 109.9454556  71.2157401 100.5287867 109.2466794  70.3006250  99.5458552
 106.1599171  68.3347331 106.3127794 106.6353292  68.5274978 105.5046645
 105.2364736  68.3906517 106.0671178  93.0482677  69.4971499  95.8958872
  92.8028719  68.5933829  96.0939083  93.2178592  69.4988649  94.9538350
 100.7379387  60.3695175 105.2783628 101.2561331  61.1056202 104.9530117
 100.3834520  60.6759168 106.1130387  92.3178325  65.2299856  93.3945034
  91.6247570  65.3044211  92.7385070  92.0730077  64.4660200  93.9166551
 100.9891981  56.7895458 100.7984525 101.2693735  56.1218647 101.4244951
 101.7742588  56.9824553 100.2859188  98.7925450  75.9654451  92.3609551
  98.2199417  76.5844639  91.9080023  99.3658244  76.5153813  92.8949473
 104.8600840  65.2113092 104.5456100 105.8118263  65.3111189 104.5668324
 104.6904290  64.4191360 105.0554184 102.8815219  62.2968675 104.7315501
 102.2865151  62.5773687 104.0361989 102.5964916  62.7862576 105.5032242
 102.0122710  76.2491602  93.4918133 102.9453383  76.1837163  93.6951009
 101.9245923  77.0847868  93.0332666 104.6410726  75.5657472  90.4522081
 104.5624358  75.2317336  91.3457839 105.4620393  76.0579240  90.4513553
 107.3388918  68.4319211 103.6598399 107.3065238  67.4935212 103.8458083
 107.9489541  68.5103248 102.9264224  99.1772248  67.3015264  89.7025603
 100.1231353  67.1721472  89.7714021  98.7986493  66.5629926  90.1795032
 107.4883406  65.2230255 103.7056683 106.9722455  64.4388711 103.5186611
 108.3723355  64.8948971 103.8703202 105.1494133  58.9671270  99.6652495
 104.9518954  58.6586358 100.5495827 105.7593839  59.6932909  99.7950425
 113.1565467  69.4935218 102.8004436 113.8868856  69.2320506 103.3612139
 112.5472413  68.7563940 102.8406504 111.2380765  67.6343081 103.3978887
 110.5113928  67.4999046 102.7895379 110.8228051  67.9419909 104.2035605
  99.0610941  71.3533010 111.1626260  99.9813950  71.5311609 111.3566307
  99.0260524  70.4089056 111.0105960  97.3615166  65.2265241  89.6380489
  96.4546621  64.9298353  89.7143202  97.6391147  64.9295059  88.7714775
  88.2793106  66.5471604 100.0879535  87.9595890  65.6936912  99.7953909
  87.7326534  66.7620182 100.8437502  92.0573014  69.2634045 103.8049042
  92.2759023  70.1951153 103.8237075  92.4698787  68.9042019 104.5903845
  98.9777231  59.7702130  95.7924730  98.1677960  59.4249215  96.1679976
  99.6661648  59.4609674  96.3812341 100.9067780  58.8480177  97.4149027
 101.4598818  59.2675631  98.0739050 101.1437866  57.9215925  97.4571983
  96.9300879  64.8367251 113.1951790  96.8297606  65.7861608 113.1263882
  96.7122421  64.5085490 112.3227861  96.1313950  62.0852176  89.7792468
  96.9933114  62.4107074  90.0388285  96.3164294  61.2983672  89.2665534
  88.1481366  70.1674515 102.0572657  87.4544837  69.7528468 101.5442611
  88.8954357  70.2095052 101.4606075 104.2846587  60.9580702  96.9227691
 103.7045256  61.6165506  96.5405743 104.0182519  60.1358047  96.5115108
 102.7350153  60.3585760  99.1249011 103.2349931  60.4702295  98.3163330
 103.3785761  60.0546813  99.7649820  96.7932149  68.2664390 112.0116852
  96.3099231  69.0664750 112.2180741  96.8793088  68.2772334 111.0584296
  90.0618108  70.0992769  99.9338671  90.0388797  70.1980457  98.9820555
  90.3718745  70.9457920 100.2555838  92.7205486  72.1568924 104.0485286
  93.6748740  72.1252867 103.9815217  92.5218010  71.6959548 104.8635512
  93.3104869  70.7270040 106.6156084  94.1297757  71.2214119 106.6390921
  93.5841676  69.8102008 106.5873651 103.0671465  63.1180793  95.9784039
 102.1797320  63.4030443  95.7604234 103.4825454  62.9574556  95.1311316
 106.4186001  63.1427314  99.6938378 107.1946391  63.6323766  99.9662995
 105.6934135  63.5685368 100.1510248 108.8558559  63.8554933 100.7512319
 109.4503050  63.6150669 100.0405627 108.9285143  63.1362063 101.3785855
  91.0755715  77.6988544 101.0655484  90.9410183  76.9388945 100.4993482
  90.6587777  78.4229444 100.5984273 102.2114678  72.8825467  90.0732059
 102.9150528  73.0875470  90.6889715 101.4877327  73.4502229  90.3381143
 103.0412488  68.6335329  96.1934329 102.9847690  69.0903880  95.3541962
 103.5940831  67.8726013  96.0157172 106.8517294  64.4225060  97.0184449
 106.5954229  64.0221696  97.8492656 106.2270162  65.1368854  96.8934588
 111.1629632  67.1621134  99.5255740 110.6029190  67.2314323 100.2987302
 110.5573136  66.9862118  98.8055236  94.2324841  78.5957861 101.2773926
  94.1157225  79.5403293 101.1752617  93.4117287  78.2931422 101.6659726
 104.1201376  73.3207997  92.1230519 104.9546980  72.8889195  91.9407994
 103.9585718  73.1490010  93.0507414 103.7747268  69.8240110  93.4886858
 103.7196072  69.6584381  92.5475303 103.1493323  70.5316143  93.6449048
  88.5639783  65.0608174 107.3148281  89.2098646  64.5507128 107.8035506
  88.3556934  65.7976856 107.8891706  97.0843393  59.3248219  93.0672177
  97.0722063  60.2690059  93.2240448  97.9766815  59.1418364  92.7731638
  95.2579355  79.2486123 104.4929855  96.1606602  79.2809733 104.8096350
  95.0316725  78.3186574 104.5076191  97.0132957  78.0017109 101.1539933
  96.0628588  78.0018971 101.0404306  97.3165443  77.2549844 100.6375968
 100.8995513  55.9190995  97.3218114 100.1327908  55.3649482  97.4674796
 101.3106218  55.9912864  98.1832265  92.9037274  62.2075791 111.4123295
  93.7668735  61.8512596 111.6226619  92.3302684  61.8689686 112.0998699
 105.4162173  85.6440552  98.1444111 104.8527038  85.5530489  97.3760399
 105.3014568  84.8240457  98.6246604 102.9626605  87.1391744 100.9828332
 103.7547897  86.7982568 100.5674631 103.2023255  87.2486719 101.9030485
 110.9961731  89.3111520  93.4558576 110.3449711  89.8965600  93.0692590
 111.7906094  89.8417715  93.5153614 104.9217359  86.4000657  93.8545711
 105.6948235  85.8529644  93.7158587 105.2742757  87.2644906  94.0660172
 107.2583636  82.5593323  91.4864161 107.5109157  82.0374844  90.7247624
 106.3208195  82.3959469  91.5890844 112.3026919  81.5629101  99.2938904
 113.0890008  81.1448525  98.9429321 112.5665623  82.4675194  99.4620552
 112.4736997  87.0001952  93.9927561 111.8382829  87.0736578  94.7048465
 112.1434403  87.5895551  93.3146640 106.9779925  84.4621429  93.6888536
 106.8616183  83.7866332  94.3569620 107.0882185  83.9753803  92.8720689
 109.3211466  83.9231576  97.3935225 108.9569673  83.3962197  98.1048146
 110.1778582  83.5330045  97.2201710 108.9616953  78.9521476  92.3896573
 109.1291355  79.8201712  92.7567044 108.7714122  79.1148758  91.4657863
 105.1704768  83.8652252 100.0899108 104.2455264  83.7328466 100.2976800
 105.4189181  84.6446471 100.5869051 108.9406174  81.4079133  93.3743240
 108.8205799  81.8536184  94.2128720 108.2458762  81.7564451  92.8156778
 102.5313579  83.5085525 100.9242897 102.6605960  83.7620004 101.8382309
 101.8511030  84.1013233 100.6047552 114.6391240  81.8800607  94.2023574
 115.5509096  82.1127993  94.0271272 114.1300887  82.4637651  93.6398653
 111.9827215  78.0558643 102.4513435 111.1211694  78.3539896 102.7430173
 112.0089649  78.2729041 101.5194468 108.7988784  86.6000833  98.8587241
 109.2627130  86.8788536  98.0691863 108.5345582  85.6984278  98.6760331
 107.7357670  82.7223985  95.6676806 108.4381714  83.1745029  96.1350732
 107.4038299  82.0807804  96.2956699 101.4783004  80.9807538 100.9693940
 100.6882058  81.2365067 100.4934050 101.9694252  81.7955876 101.0745980
 103.4297750  81.3452117  97.9277416 102.6328913  81.4570812  98.4460912
 103.2023342  81.6838770  97.0618307  99.7620707  81.2338029 103.4008930
 100.0128746  82.1185038 103.6666506 100.2980256  81.0542630 102.6284022
 108.9751435  89.5364928  95.7438911 108.8397110  90.3816464  96.1723759
 109.5161247  89.7384206  94.9804845 102.4280832  87.0540366  96.3166836
 102.9405353  87.8483616  96.4672401 103.0803545  86.3566657  96.2500438
 104.2375717  90.1706122  98.3989589 104.4142345  91.0924087  98.2110573
 105.0332551  89.8564542  98.8283969 112.3243898  73.0595490 104.2737805
 111.9808168  73.9497132 104.1976915 112.6922861  72.8697148 103.4107390
 100.3929749  85.3829020  97.0926407 101.2304971  85.7926029  96.8760114
 100.5708017  84.4428463  97.0626601 112.2894181  83.0504101  92.7810240
 111.7740805  83.8208706  93.0198627 112.0171490  82.3769237  93.4043301
 109.8741292  77.8953802  97.8395478 109.0182889  77.5060652  97.6601117
 110.2868244  77.9745763  96.9795264 111.4040439  75.4300145 102.2387038
 110.9005234  75.3930280 101.4254843 111.6971046  76.3392888 102.2983695
 107.6483325  75.5138875 101.2453220 108.5136322  75.3181684 100.8859109
 107.7160834  75.2849227 102.1722576 117.2628455  85.8036456  94.7163413
 116.4857898  85.4647615  94.2718575 117.9419936  85.8089079  94.0418378
 112.0780484  80.9231193  94.6070021 111.7730620  81.2377342  95.4580164
 113.0310926  81.0012613  94.6497354 110.5226916  87.0821416  96.2562975
 109.9948278  86.3474176  95.9436212 110.0214419  87.8596093  96.0102943
 105.2545644  77.7441083  98.6169586 105.8289396  77.5216264  97.8842779
 105.8416626  77.8129777  99.3698188 105.5815231  79.7745544  92.6365472
 104.7452543  80.1120230  92.9574746 105.4420001  79.6394524  91.6992609
 107.5568312  74.6182332  97.3444656 106.9032724  74.3031349  96.7201271
 107.5148786  73.9958072  98.0704479 108.6679516  84.9001627  89.2597948
 107.7606578  84.6690880  89.4589097 109.1650548  84.1039246  89.4471929
 111.5747595  93.6099134  92.1794634 110.9009294  93.9130831  92.7879592
 111.9613417  94.4128214  91.8300091 110.7906052  81.1064265 101.6692303
 109.8728613  81.3279212 101.5113992 111.2066196  81.1810576 100.8104011
 111.5741100  82.5055681  96.7994984 112.3212919  83.0177078  96.4902106
 111.8432689  82.1839734  97.6599377 109.8467750  85.0014222  93.7821938
 108.9378969  84.7173254  93.8794408 109.8762834  85.4213300  92.9225245
 114.0219937  79.5412797  98.7813773 113.2842694  79.0290183  99.1124016
 114.2746710  79.1013179  97.9697050 114.1231564  72.3189049  99.3755542
 114.4290441  71.4586413  99.0881457 114.8484169  72.9106669  99.1754536
 100.4155920  82.7219736  97.7637140 100.2180320  82.1289096  97.0388207
  99.8602584  82.4171946  98.4813079 108.3952644  82.6142842  99.8831733
 108.4501254  81.6616679  99.8074210 107.5843846  82.7702281 100.3673032
 109.5443838  86.5422965  91.1210017 109.1063268  85.8258824  90.6615654
 110.2854278  86.7699080  90.5595108 106.3345004  81.2319902  97.6422112
 105.5212869  81.5314073  98.0487304 106.8303998  80.8375591  98.3596594
 117.6616952  84.8180162  97.1786335 117.5234851  85.0081758  96.2507524
 117.3053171  85.5799545  97.6354386 105.8259079  78.8038257 103.2583347
 106.4658458  78.6627017 102.5606311 104.9936609  78.5172771 102.8821949
 106.6019382  88.1040688  99.3718340 107.3959981  87.6091008  99.1700915
 105.8911075  87.5758551  99.0086045 102.9102146  82.2483770  95.4478092
 101.9799734  82.1868225  95.6648054 103.0059618  81.7259722  94.6514734
 102.8287695  78.7738582  98.0356334 103.0894512  79.6883916  97.9265494
 103.6504867  78.3063025  98.1852947 104.3012620  80.1876340 105.2055159
 104.9735674  79.9793702 104.5567807 103.4742407  79.9898426 104.7660391
 109.7738810  93.7778806  94.3941713 109.9490566  93.3066850  95.2087336
 109.0871598  94.4044573  94.6222974 113.6655065  85.4007347  90.7142074
 113.0484236  84.6754175  90.6175127 113.1971554  86.1616707  90.3709148
 105.4553611  79.6192771  89.8363378 104.5783077  79.4981572  89.4725625
 105.9311364  78.8278850  89.5842267  96.9755751  84.4069931  99.9304886
  97.6626791  84.0931661  99.3425901  96.8203880  85.3111296  99.6572137
 101.7790473  79.2960128 104.3589909 101.6948662  78.6885797 103.6240319
 100.9573180  79.7869146 104.3599406 111.9514187  77.7813691  99.7260104
 112.4482887  77.0283653  99.4061175 111.1801169  77.8178008  99.1603314
 113.0343968  86.5385378  97.2998528 112.1000247  86.6586841  97.1303232
 113.2120636  85.6357845  97.0358538 108.5349156  79.9231074  99.4531789
 108.1646944  79.3702114 100.1412695 109.0308248  79.3189208  98.9006789
 116.4216519  82.3802698  97.8348562 116.8876972  83.2130689  97.7608865
 116.8724020  81.9147679  98.5393820 114.4892750  88.7246519  94.8334714
 114.7652594  88.6103113  95.7428588 113.6197249  88.3264004  94.7946887
 114.3933182  74.7483285 101.8739463 113.4796262  74.9787511 102.0421670
 114.8226284  74.8321729 102.7253496 111.4588980  91.9001055  95.7382576
 111.9876746  91.3893509  95.1252738 111.7217200  91.5843585  96.6028109
  96.5523727  82.4870524 102.2022353  96.5907827  81.9534115 102.9959471
  96.0464020  81.9605730 101.5833330 103.9314490  77.3335065 105.6984895
 103.9955816  78.1949896 105.2862293 103.8681610  76.7209066 104.9657254
 100.1832305  81.2134626  95.2776284 100.4785746  80.3045305  95.2243338
  99.2820341  81.1922366  94.9557286 103.7126552  79.2890623 101.2603833
 102.9913138  79.9026591 101.1211306 104.5019808  79.8248388 101.1820479
 101.9120147  78.8948724  95.4015609 101.5832853  78.0146103  95.2190715
 102.2659517  78.8396393  96.2891999 105.0261970  79.1821694  95.7691087
 105.3658042  79.7107615  95.0469695 105.4734090  79.5202100  96.5449653
 107.7205411  77.5658745 105.2194155 107.3802231  76.7666558 105.6214835
 107.0144417  77.8660456 104.6470988 108.3721882  74.6508057 103.6721478
 109.1947952  74.1768535 103.5500368 108.6159946  75.4298541 104.1720164
 107.0130117  77.6796316  93.9684380 107.7338479  78.0577568  93.4648097
 106.3895421  78.3985192  94.0719358 111.1561240  78.3841464  94.9042712
 111.3724854  79.2666102  94.6031540 110.6755307  77.9927678  94.1748354
 105.8960461  81.3427178 101.4813457 105.7505042  81.6567481 102.3737738
 105.4185665  81.9612078 100.9284355 107.7556844  78.3329726 101.5294346
 107.7418413  77.4370819 101.1926644 108.4729272  78.3400389 102.1632632
 109.6082975  78.7667066 103.5747474 109.3500753  79.6884137 103.5731804
 109.0768015  78.3697500 104.2647938 100.3706123  83.8832522 104.4201118
  99.8259591  84.6592330 104.5521392 101.2485473  84.2303327 104.2620239
 107.1593740  77.2144106  96.7981916 107.2809651  76.2860752  96.9972804
 106.8695782  77.2282792  95.8860232 110.0284930  74.8999016  99.9348636
 110.0506627  74.9638350  98.9800616 110.4452989  74.0603525 100.1289142
 115.5404336  91.1884617  93.4534457 116.2355241  91.8091310  93.6721772
 115.8827486  90.3379969  93.7286835 117.4395759  88.6384323  94.9821788
 117.9647083  88.9771596  94.2571108 117.3518112  87.7031338  94.7984923
 101.6028759  90.8967847  99.3441669 102.4286779  90.5971619  98.9640313
 101.2522811  90.1275470  99.7931458  99.8037364  88.8154174 100.3030603
  98.9669272  88.3876348 100.1214604  99.7761009  89.0086617 101.2401394
 106.1323799  88.7998239  94.8897803 106.2811919  89.4833703  94.2364476
 106.9390242  88.7803329  95.4047259 103.8876432  84.8263416  95.8958872
 103.6422474  83.9225746  96.0939083 104.0572346  84.8280567  94.9538350
 103.1572079  80.5591774  93.3945034 102.4641324  80.6336129  92.7385070
 102.9123831  79.7952118  93.9166551 111.8285736  72.1187375 100.7984525
 112.1087490  71.4510564 101.4244951 112.6136343  72.3116471 100.2859188
 109.6319204  91.2946369  92.3609551 109.0593172  91.9136556  91.9080023
 110.2051998  91.8445731  92.8949473 112.8516464  91.5783519  93.4918133
 113.7847137  91.5129081  93.6951009 112.7639677  92.4139786  93.0332666
 115.4804481  90.8949390  90.4522081 115.4018112  90.5609253  91.3457839
 116.3014148  91.3871158  90.4513553 110.0166003  82.6307182  89.7025603
 110.9625108  82.5013390  89.7714021 109.6380248  81.8921844  90.1795032
 115.9887887  74.2963188  99.6652495 115.7912709  73.9878276 100.5495827
 116.5987593  75.0224827  99.7950425 108.2008920  80.5557158  89.6380489
 107.2940375  80.2590271  89.7143202 108.4784901  80.2586976  88.7714775
  99.1186860  81.8763522 100.0879535  98.7989645  81.0228830  99.7953909
  98.5720289  82.0912100 100.8437502 109.8170986  75.0994048  95.7924730
 109.0071714  74.7541133  96.1679976 110.5055403  74.7901592  96.3812341
 111.7461534  74.1772095  97.4149027 112.2992573  74.5967548  98.0739050
 111.9831620  73.2507843  97.4571983 106.9707705  77.4144093  89.7792468
 107.8326869  77.7398992  90.0388285 107.1558049  76.6275589  89.2665534
  98.9875120  85.4966433 102.0572657  98.2938592  85.0820386 101.5442611
  99.7348111  85.5386970 101.4606075 115.1240341  76.2872620  96.9227691
 114.5439010  76.9457424  96.5405743 114.8576274  75.4649965  96.5115108
 113.5743908  75.6877678  99.1249011 114.0743686  75.7994212  98.3163330
 114.2179515  75.3838730  99.7649820 100.9011863  85.4284687  99.9338671
 100.8782551  85.5272374  98.9820555 101.2112499  86.2749838 100.2555838
 113.9065219  78.4472710  95.9784039 113.0191074  78.7322361  95.7604234
 114.3219208  78.2866474  95.1311316 117.2579755  78.4719231  99.6938378
 118.0340145  78.9615684  99.9662995 116.5327890  78.8977285 100.1510248
 113.0508433  88.2117385  90.0732059 113.7544283  88.4167387  90.6889715
 112.3271081  88.7794147  90.3381143 113.8806243  83.9627246  96.1934329
 113.8241444  84.4195798  95.3541962 114.4334585  83.2017931  96.0157172
 117.6911049  79.7516978  97.0184449 117.4347983  79.3513614  97.8492656
 117.0663917  80.4660772  96.8934588 114.9595130  88.6499914  92.1230519
 115.7940734  88.2181113  91.9407994 114.7979473  88.4781928  93.0507414
 114.6141022  85.1532028  93.4886858 114.5589826  84.9876299  92.5475303
 113.9887078  85.8608060  93.6449048  99.4033537  80.3900092 107.3148281
 100.0492401  79.8799046 107.8035506  99.1950688  81.1268774 107.8891706
 107.9237148  74.6540137  93.0672177 107.9115818  75.5981976  93.2240448
 108.8160570  74.4710282  92.7731638 111.7389267  71.2482913  97.3218114
 110.9721663  70.6941400  97.4674796 112.1499972  71.3204782  98.1832265
 116.4208985  95.1037461  92.6365472 115.5846298  95.4412148  92.9574746
 116.2813755  94.9686441  91.6992609 116.2947366  94.9484689  89.8363378
 115.4176832  94.8273490  89.4725625 116.7705119  94.1570767  89.5842267
 113.9965834  95.8883692  93.3945034 113.3035079  95.9628047  92.7385070
 113.7517586  95.1244035  93.9166551 119.0402675  95.8849076  89.6380489
 118.1334130  95.5882189  89.7143202 119.3178656  95.5878894  88.7714775
 117.8101459  92.7436011  89.7792468 118.6720623  93.0690909  90.0388285
 117.9951803  91.9567507  89.2665534 118.7630902  89.9832054  93.0672177
 118.7509572  90.9273894  93.2240448 119.6554324  89.8002200  92.7731638
  52.5044295  -5.4614691  83.7478678  52.4268324  -4.5106866  83.8267159
  51.9005938  -5.8068818  84.4053604  50.1431124  -2.7129297  87.8926880
  50.3827723  -2.0810773  88.5705899  49.3000321  -3.0641257  88.1792239
  50.6175957  -6.6881294  85.2225659  49.9486332  -6.2035167  84.7389699
  50.4788826  -6.4412074  86.1369037  54.7581225  -4.6537551  91.8208317
  55.3099533  -4.4905929  92.5857402  55.0987419  -4.0633113  91.1488342
  47.7180698  -6.6117004  87.7900790  47.5835166  -7.3716603  87.2238788
  47.3012761  -5.8876104  87.3229579  50.8749824  -5.7147687  88.0019233
  50.7582208  -4.7702255  87.8997923  50.0542271  -6.0174126  88.3905032
  51.9004338  -5.0619425  91.2175161  52.8031585  -5.0295815  91.5341656
  51.6741709  -5.9918974  91.2321497  66.2000340  -0.5200472  88.8792527
  65.8618852  -0.6359408  87.9913062  67.0690108  -0.9209307  88.8593533
  62.0587156   1.3335004  84.8689418  61.4952021   1.2424941  84.1005706
  61.9439551   0.5134908  85.3491911  66.6820123   0.6334379  94.8378733
  66.6708764   0.2387178  93.9659236  66.8440763  -0.0999548  95.4312504
  59.6051588   2.8286196  87.7073639  60.3972880   2.4877020  87.2919938
  59.8448238   2.9381171  88.6275792  67.6386715   5.0005972  80.1803883
  66.9874694   5.5860052  79.7937897  68.4331077   5.5312167  80.2398921
  61.5642342   2.0895109  80.5791017  62.3373218   1.5424096  80.4403893
  61.9167741   2.9539358  80.7905479  63.4027384   3.4171491  93.7857917
  63.1117250   4.3217122  93.6704583  64.0384369   3.4588019  94.5001986
  64.3283591   0.7948340  90.3759276  64.9247163   0.5704362  89.6616239
  64.3858563   0.0533085  90.9784724  69.1161980   2.6896404  80.7172867
  68.4807813   2.7631030  81.4293772  68.7859386   3.2790003  80.0391947
  63.6204908   0.1515881  80.4133842  63.5041166  -0.5239216  81.0814927
  63.7307168  -0.3351745  79.5965995  65.9636449  -0.3873972  84.1180531
  65.5994657  -0.9143351  84.8293453  66.8203565  -0.7775503  83.9447017
  68.3617269   3.1032907  90.7807710  68.0617993   4.0057945  90.6723518
  68.0168329   2.8365090  91.6328863  61.8129751  -0.4453296  86.8144415
  60.8880247  -0.5777082  87.0222107  62.0614164   0.3340923  87.3114357
  59.1738562  -0.8020023  87.6488204  59.3030943  -0.5485544  88.5627616
  58.4936013  -0.2092315  87.3292859  63.3438049   9.8677227  83.7478678
  63.2662079  10.8185052  83.8267159  62.7399693   9.5223100  84.4053604
  64.0901651  -0.1509454  95.9658012  64.8316336   0.3875590  95.6892836
  63.3838637   0.4756835  96.1229564  69.5656991   1.9919686  94.5630173
  69.9740347   1.5502097  93.8184806  68.8434252   1.4172314  94.8164366
  69.8885806   2.5520877  88.3182462  69.2594668   2.7166591  87.6158530
  69.5011468   2.9662486  89.0893426  73.7675038   3.4875315  85.6726826
  73.0826076   3.8674216  85.1223859  73.8518887   4.0970641  86.4058774
  71.0225969   1.1335274  92.2722170  71.2342864   1.7767034  91.5956551
  70.9755717   0.2997590  91.8044100  65.4413768   2.2895285  85.5832547
  65.9052113   2.5682988  84.7937170  65.1770566   1.3878730  85.4005638
  62.3337849   1.8366767  88.5212311  62.9039206   2.2654035  87.8829795
  62.9245960   1.5549351  89.2196496  58.1207988  -3.3298010  87.6939246
  57.3307042  -3.0740481  87.2179357  58.6119235  -2.5149672  87.7991287
  72.1371797   4.0107229  90.4444527  72.9589241   3.6087416  90.1627209
  72.1334200   3.9075463  91.3960643  60.0722733  -2.9653431  84.6522723
  59.2753896  -2.8534736  85.1706219  59.8448325  -2.6266779  83.7863613
  65.9028401   3.5591272  92.6005237  65.9672833   4.0211680  93.4363409
  65.1939324   2.9288637  92.7287547  56.4045691  -3.0767520  90.1254237
  56.6553729  -2.1920510  90.3911813  56.9405239  -3.2562918  89.3529329
  65.6176418   5.2259380  82.4684218  65.4822093   6.0710916  82.8969066
  66.1586231   5.4278658  81.7050152  59.0705816   2.7434818  83.0412143
  59.5830336   3.5378068  83.1917708  59.7228528   2.0461108  82.9745744
  60.8800700   5.8600574  85.1234896  61.0567329   6.7818539  84.9355880
  61.6757534   5.5458994  85.5529276  60.1653057  -2.0934794  94.9997059
  60.0506572  -2.9949537  95.3004158  59.3097575  -1.8471097  94.6481876
  67.2444895   5.8482946  96.5984560  66.8008749   5.0619325  96.2805464
  67.9062108   6.0362097  95.9328451  62.0032016   7.3778748  91.1245238
  62.5539441   7.2495811  90.3522232  61.1643492   7.6773637  90.7740131
  69.3426133   6.1285746  94.6265961  69.3244608   6.9494627  94.1346230
  70.2646053   6.0039822  94.8516102  65.7999187   3.6429876  95.4689470
  66.3327524   2.8818164  95.2388777  65.2713268   3.3503528  96.2113624
  57.0354732   1.0723472  83.8171713  57.8729954   1.4820481  83.6005421
  57.2133000   0.1322914  83.7871907  67.1651899   2.7715868  82.9808282
  66.6373261   2.0368628  82.6681519  66.6639402   3.5490545  82.7348250
  72.1444746   0.9664889  88.0975328  71.4868420   1.6564150  88.1855456
  72.9485145   1.3561321  88.4409314  65.3104500   0.5896079  75.9843255
  64.4031561   0.3585332  76.1834404  65.8075532  -0.2066302  76.1717236
  68.2172579   9.2993586  78.9039941  67.5434277   9.6025283  79.5124899
  68.6038401  10.1022666  78.5545398  66.4892733   0.6908674  80.5067245
  65.5803952   0.4067706  80.6039714  66.5187817   1.1107752  79.6470552
  71.7212001   4.3015263  84.2758412  71.2674328   3.4606173  84.3323603
  71.0905967   4.9376661  84.6133192  70.1644940   6.1391760  85.2108230
  70.4567914   6.6996817  84.4920596  70.6743560   6.4320321  85.9661389
  57.0580903  -1.5885812  84.4882447  56.8605303  -2.1816452  83.7633513
  56.5027567  -1.8933602  85.2058386  66.1868821   2.2317417  77.8455323
  65.7488251   1.5153276  77.3860961  66.9279262   2.4593532  77.2840415
  65.1278565   6.9172111  86.3001684  65.0854744   7.1432957  85.3710216
  66.0441264   6.6835485  86.4487485  74.3311315   2.5751141  88.9142913
  74.7647822   2.4826430  89.7625967  75.0442896   2.5508642  88.2762929
  63.2444366   3.7935140  86.0963646  64.0384964   3.2985460  85.8946221
  62.5336058   3.2653003  85.7331352  68.0639210   6.1753235  90.4476014
  68.1176232   6.7444172  91.2153730  67.1953992   6.3455120  90.0830051
  59.5527129  -2.0621778  82.1723399  58.6224717  -2.1237323  82.3893361
  59.6484601  -2.5845826  81.3760040  75.1926865   2.6174842  91.4475799
  75.3862755   3.5220652  91.6935074  75.0927483   2.1582261  92.2814384
  70.2541974   2.7681585  97.0216679  70.1027480   2.5392136  96.1046763
  70.2446653   3.7252186  97.0348024  67.0227310   0.3413497  92.0062946
  67.9519370   0.4924657  91.8331913  66.6018340   0.4297518  91.1511592
  65.8215642   4.3664162  89.7761483  65.6826727   3.9982946  90.6487421
  65.0330238   4.8811801  89.6045441  66.4163794   9.4673258  81.1187020
  66.5915549   8.9961301  81.9332643  65.7296582  10.0939024  81.3468281
  67.3720857   3.7445764  87.1650321  67.0370689   3.7046534  88.0607971
  66.8724803   3.0790480  86.6920731  61.3465101  -0.8486605  92.6902902
  61.2084899  -1.5806367  93.2914441  62.2570024  -0.9377705  92.4087090
  70.3080049   1.0901799  77.4387381  69.6909219   0.3648627  77.3420433
  69.8396537   1.8511159  77.0954455  63.9747401  -1.1366646  92.1786582
  64.6847020  -1.7773454  92.1373200  63.9316710  -0.8853751  93.1012763
  71.9634180   5.8000707  95.0993161  71.9046726   5.1159927  94.4323744
  72.3653699   6.5419697  94.6473787  60.9824879  12.6162621  87.8926880
  61.2221477  13.2481145  88.5705899  60.1394075  12.2650661  88.1792239
  71.9651587   3.7640291  93.3307141  71.0778366   3.4266213  93.4533540
  72.5350139   3.0323322  93.5675906  53.6180735   0.0964383  86.6550192
  54.3051774  -0.2173887  86.0671208  53.4628863   1.0005747  86.3817444
  65.4952741   8.4241743  90.2968384  65.4222912   9.2296715  90.8087689
  65.0530134   8.6233709  89.4716405  65.2842520   7.6613513  83.8071206
  64.5010042   8.2035194  83.9009430  65.9835266   8.1787493  84.2065447
  67.9551424   8.3228577  92.4526543  68.6679397   8.9576042  92.3802444
  67.4641453   8.4192443  91.6366545  69.6768951   2.2279830  84.0243834
  68.7425230   2.3481293  83.8548539  69.8545620   1.3252297  83.7603844
  63.0063338   6.0723021  93.2732114  63.7072797   6.7059504  93.4261508
  62.5358453   6.4137752  92.5127753  71.1317734   4.4140971  81.5580021
  71.4077578   4.2997565  82.4673895  70.2622232   4.0158456  81.5192194
  67.7671798   8.6627322  85.2012834  67.9494192   7.8448978  85.6640587
  68.5904784   8.8795014  84.7637724  68.1013963   7.5895507  82.4627883
  68.6301730   7.0787961  81.8498045  68.3642183   7.2738037  83.3273416
  66.8552197  -0.6312561  97.5850701  66.1792834  -0.7318431  98.2553076
  67.6779831  -0.7873347  98.0486698  58.6031056   5.6059376  90.2063216
  59.1884493   4.8603064  90.3391120  58.4055894   5.9163333  91.0899880
  61.4569711   8.6410623  85.2225659  60.7880086   9.1256751  84.7389699
  61.3182581   8.8879844  86.1369037  53.1948711  -1.8235024  88.9267659
  53.2332810  -2.3571433  89.7204777  52.6889004  -2.3499818  88.3078637
  65.5974980  10.6754367  91.8208317  66.1493288  10.8385988  92.5857402
  65.9381173  11.2658805  91.1488342  70.4485854   5.5015624  97.6756971
  70.9925758   6.1145583  97.1811926  69.8672699   6.0595203  98.1923984
  56.8257288  -3.0970922  82.0021591  57.1210729  -4.0060243  81.9488644
  55.9245324  -3.1183182  81.6802593  68.7343367   8.6236342  88.8071999
  68.6094506   7.8226082  88.2982945  69.3922458   9.1182536  88.3185969
  70.7978275   6.4245363  90.4351549  69.8508611   6.3050714  90.3629876
  71.1461049   5.5367861  90.5177811  67.8024709   6.2198079  86.6355901
  67.6549671   5.2914786  86.8163471  68.6278202   6.2418169  86.1512977
  71.4058831   7.0426637  87.7220774  72.3305378   6.8369499  87.5845225
  71.2374134   6.7943039  88.6310116  71.1954147   7.5612305  83.0782866
  71.3691024   6.9958727  82.3256718  71.6883038   8.3613200  82.8962356
  57.0131107  -0.4273026  91.1446424  56.4684575   0.3486782  91.2766699
  57.8910456  -0.0802222  90.9865546  72.1829319   6.8779069  80.1779764
  72.8780224   7.4985762  80.3967079  72.5252469   6.0274421  80.4532142
  57.7997128  -1.3003130  94.0376581  57.0578864  -1.1520494  94.6241212
  57.4789873  -1.0394864  93.1743331  74.0820742   4.3278775  81.7067095
  74.6072066   4.6666048  80.9816415  73.9943095   3.3925790  81.5230229
  65.7440791   8.2412849  93.8356971  66.0527918   7.9961995  94.7079671
  66.5416273   8.4459487  93.3475842  65.7661403  10.3950758  86.0662348
  65.3266393   9.9027137  86.7595205  66.5169520   9.8523726  85.8254423
  58.2453742   6.5862299  86.0686976  59.0711762   6.2866071  85.6885619
  57.8947794   5.8169921  86.5176765  63.2135275   5.9388767  88.1384650
  62.5915285   5.2759472  87.8386877  63.8840142   5.9649899  87.4558297
  56.4462347   4.5048625  87.0275910  55.6094255   4.0770800  86.8459911
  56.4185993   4.6981069  87.9646701  73.7714648   4.9611678  97.0118293
  72.9810192   4.9435817  96.4722792  73.5348003   5.4999972  97.7667329
  62.7748782   4.4892691  81.6143110  62.9236903   5.1728155  80.9609783
  63.5815226   4.4697781  82.1292566  75.3930720   4.2301086  94.5693043
  75.1015529   4.5931067  95.4056504  74.7802852   3.5168095  94.3906375
  60.5301415   0.5157868  82.6204179  60.2847457  -0.3879802  82.8184389
  60.6997330   0.5175019  81.6783657  66.2744188   6.9840821  79.0854858
  65.7018155   7.6031008  78.6325329  66.8476981   7.5340183  79.6194779
  69.4941448   7.2677971  80.2163440  70.4272121   7.2023533  80.4196315
  69.4064660   8.1034238  79.7577972  72.1229464   6.5843841  77.1767387
  72.0443096   6.2503705  78.0703145  72.9439131   7.0765609  77.1758860
  66.5429679   2.3719380  97.8871567  67.4632688   2.5497979  98.0811614
  66.5079262   1.4275425  97.7351266  55.7611844  -2.4342026  86.8124842
  55.4414628  -3.2876718  86.5199216  55.2145272  -2.2193448  87.5682809
  59.5391751   0.2820415  90.5294348  59.7577761   1.2137522  90.5482382
  59.9517525  -0.0771611  91.3149152  55.6300104   1.1860885  88.7817963
  54.9363575   0.7714838  88.2687918  56.3773095   1.2281422  88.1851382
  64.2750887  -0.7149241  98.7362159  63.7917968   0.0851119  98.9426048
  64.3611826  -0.7041296  97.7829603  57.5436846   1.1179139  86.6583978
  57.5207534   1.2166826  85.7065861  57.8537483   1.9644290  86.9801144
  60.2024224   3.1755294  90.7730593  61.1567478   3.1439236  90.7060524
  60.0036748   2.7145918  91.5880818  60.7923606   1.7456410  93.3401390
  61.6116495   2.2400489  93.3636227  61.0660414   0.8288378  93.3118958
  58.5574453   8.7174913  87.7900790  58.4228921   7.9575314  87.2238788
  58.1406515   9.4415813  87.3229579  69.6933416   3.9011837  76.7977366
  70.3969266   4.1061839  77.4135021  68.9696065   4.4688599  77.0626449
  61.7143579   9.6144230  88.0019233  61.5975963  10.5589663  87.8997923
  60.8936025   9.3117792  88.3905032  71.6020113   4.3394366  78.8475826
  72.4365717   3.9075565  78.6653301  71.4404456   4.1676380  79.7752720
  71.2566006   0.8426479  80.2132165  71.2014809   0.6770751  79.2720609
  70.6312061   1.5502512  80.3694355  56.0458521  -3.9205456  94.0393587
  56.6917384  -4.4306502  94.5280812  55.8375672  -3.1836775  94.6137013
  68.5711913   3.1475391  99.5385728  69.4403072   3.3216044  99.1772363
  68.0918664   3.9669808  99.4161457  62.7398093  10.2672492  91.2175161
  63.6425340  10.2996103  91.5341656  62.5135463   9.3372943  91.2321497
  64.4951695   9.0203479  87.8785240  63.5447326   9.0205340  87.7649612
  64.7984181   8.2736213  87.3621275  80.2304388  14.8564017  88.9431002
  80.8682798  14.7370765  88.2394343  80.1125231  15.8044861  89.0018955
  77.0394095  14.8091445  88.8792527  76.7012606  14.6932510  87.9913062
  77.9083863  14.4082610  88.8593533  72.8980910  16.6626922  84.8689418
  72.3345776  16.5716859  84.1005706  72.7833305  15.8426826  85.3491911
  77.5213878  15.9626297  94.8378733  77.5102518  15.5679095  93.9659236
  77.6834517  15.2292370  95.4312504  70.4445342  18.1578113  87.7073639
  71.2366634  17.8168938  87.2919938  70.6841993  18.2673088  88.6275792
  78.4780469  20.3297889  80.1803883  77.8268449  20.9151970  79.7937897
  79.2724832  20.8604084  80.2398921  72.4036096  17.4187027  80.5791017
  73.1766972  16.8716014  80.4403893  72.7561495  18.2831276  80.7905479
  74.2421139  18.7463409  93.7857917  73.9511005  19.6509040  93.6704583
  74.8778123  18.7879936  94.5001986  75.1677346  16.1240257  90.3759276
  75.7640918  15.8996280  89.6616239  75.2252317  15.3825003  90.9784724
  74.7402374  13.5779693  78.2109467  74.9927895  13.0561214  77.4492930
  73.8026933  13.4145838  78.3136151  79.7845657  12.5815471  86.0184211
  80.5708746  12.1634894  85.6674628  80.0484361  13.4861563  86.1865859
  79.9555734  18.0188321  80.7172867  79.3201567  18.0922948  81.4293772
  79.6253141  18.6081920  80.0391947  85.1854084  12.5190704  86.9217189
  85.9179256  11.9489921  87.1555019  84.4293440  12.1312305  87.3623695
  74.4598663  15.4807799  80.4133842  74.3434921  14.8052702  81.0814927
  74.5700923  14.9940173  79.5965995  76.8030204  14.9417946  84.1180531
  76.4388411  14.4148567  84.8293453  77.6597320  14.5516415  83.9447017
  82.7079504   6.2312278  91.3811798  82.3762829   7.1007689  91.1573013
  82.1125118   5.9148562  92.0605828  76.4435691   9.9707845  79.1141880
  76.6110093  10.8388082  79.4812351  76.2532860  10.1335127  78.1903169
  79.2011024  18.4324824  90.7807710  78.9011747  19.3349863  90.6723518
  78.8562083  18.1657008  91.6328863  72.6523505  14.8838621  86.8144415
  71.7274002  14.7514835  87.0222107  72.9007919  15.6632840  87.3114357
  82.6008168  10.9507365  88.4605148  81.6925045  10.8822773  88.1663909
  82.5495764  11.4279309  89.2886973  76.4224912  12.4265503  80.0988547
  76.3024537  12.8722554  80.9374027  75.7277500  12.7750821  79.5402085
  70.0132316  14.5271895  87.6488204  70.1424698  14.7806374  88.5627616
  69.3329768  15.1199603  87.3292859  74.1831804  25.1969145  83.7478678
  74.1055833  26.1476970  83.8267159  73.5793447  24.8515017  84.4053604
  76.6749034  12.3697010  96.4040045  75.8982368  12.9290930  96.3942910
  77.3139597  12.8553793  96.9254915  84.4669814   9.1523803  90.2383022
  83.8244194   9.4456336  89.5922816  83.9624743   9.0376723  91.0436218
  82.1209978  12.8986976  80.9268881  83.0327834  13.1314363  80.7516578
  81.6119625  13.4824020  80.3643959  74.9295406  15.1782463  95.9658012
  75.6710090  15.7167507  95.6892836  74.2232391  15.8048752  96.1229564
  80.4050745  17.3211604  94.5630173  80.8134102  16.8794014  93.8184806
  79.6828007  16.7464231  94.8164366  76.7581816  12.2584211  91.9363730
  77.6043011  12.6823624  92.0798379  76.6980453  11.6017835  92.6302294
  80.7279560  17.8812795  88.3182462  80.0988423  18.0458509  87.6158530
  80.3405222  18.2954404  89.0893426  84.6068792  18.8167232  85.6726826
  83.9219830  19.1966134  85.1223859  84.6912641  19.4262559  86.4058774
  79.9081261   9.9188579  93.5944904  79.6642193  10.6730640  93.0579180
  80.1841191  10.2973927  94.4292151  81.8619724  16.4627191  92.2722170
  82.0736619  17.1058951  91.5956551  81.8149472  15.6289508  91.8044100
  79.4645953   9.0745012  89.1758742  78.6030432   9.3726266  89.4675479
  79.4908387   9.2915411  88.2439774  76.2807522  17.6187203  85.5832547
  76.7445868  17.8974906  84.7937170  76.0164320  16.7170647  85.4005638
  73.1731603  17.1658684  88.5212311  73.7432960  17.5945953  87.8829795
  73.7639715  16.8841269  89.2196496  75.2176408  13.7410355  82.3922113
  75.9200451  14.1931399  82.8596039  74.8857037  13.0994174  83.0202006
  73.6656770  12.3322112  96.7673322  73.0355430  13.0138393  97.0008719
  73.5592857  12.2205193  95.8226460  68.9601742  11.9993908  87.6939246
  68.1700796  12.2551436  87.2179357  69.4512989  12.8142246  87.7991287
  82.9765552  19.3399147  90.4444527  83.7982995  18.9379334  90.1627209
  82.9727954  19.2367381  91.3960643  70.9116487  12.3638487  84.6522723
  70.1147651  12.4757181  85.1706219  70.6842080  12.7025139  83.7863613
  76.7422155  18.8883190  92.6005237  76.8066588  19.3503597  93.4363409
  76.0333079  18.2580555  92.7287547  67.2439445  12.2524398  90.1254237
  67.4947483  13.1371408  90.3911813  67.7798993  12.0729000  89.3529329
  91.0671545  15.6837895  86.7929498  90.3135253  15.1145293  86.6373503
  91.2019086  15.6500560  87.7400133  76.4570173  20.5551298  82.4684218
  76.3215847  21.4002833  82.8969066  76.9979985  20.7570575  81.7050152
  72.9437512   6.6342878  99.1298573  72.5504458   6.0809076  99.8046217
  73.7603653   6.9453456  99.5205091  69.9099570  18.0726736  83.0412143
  70.4224091  18.8669986  83.1917708  70.5622283  17.3753026  82.9745744
  71.7194455  21.1892492  85.1234896  71.8961083  22.1110457  84.9355880
  72.5151288  20.8750911  85.5529276  75.8605473   8.0500757  96.7218830
  76.6015187   8.6507910  96.6423292  76.0923396   7.3078394  96.1636872
  71.0046811  13.2357124  94.9997059  70.8900326  12.3342381  95.3004158
  70.1491329  13.4820821  94.6481876  78.0838649  21.1774864  96.5984560
  77.6402503  20.3911243  96.2805464  78.7455863  21.3654015  95.9328451
  72.8425770  22.7070666  91.1245238  73.3933195  22.5787729  90.3522232
  72.0037246  23.0065555  90.7740131  80.1819887  21.4577664  94.6265961
  80.1638362  22.2786545  94.1346230  81.1039807  21.3331739  94.8516102
  76.6392941  18.9721794  95.4689470  77.1721278  18.2110082  95.2388777
  76.1107022  18.6795445  96.2113624  79.8062636   4.0781860  90.9983111
  79.4626906   4.9683501  90.9222222  80.1741599   3.8883517  90.1352696
  67.8748487  16.4015390  83.8171713  68.7123709  16.8112398  83.6005421
  68.0526755  15.4614832  83.7871907  79.7712919  14.0690471  79.5055546
  79.2559542  14.8395075  79.7443934  79.4990227  13.3955607  80.1288608
  77.3560030   8.9140171  84.5640785  76.5001626   8.5247022  84.3846423
  77.7686982   8.9932132  83.7040570  78.8859177   6.4486515  88.9632345
  78.3823972   6.4116650  88.1500150  79.1789783   7.3579257  89.0229001
  75.1302063   6.5325244  87.9698526  75.9955059   6.3368053  87.6104416
  75.1979571   6.3035596  88.8967883  84.7447193  16.8222825  81.4408720
  83.9676636  16.4833985  80.9963882  85.4238674  16.8275448  80.7663685
  79.5599222  11.9417563  81.3315328  79.2549358  12.2563712  82.1825471
  80.5129664  12.0198983  81.3742661  78.0045654  18.1007786  82.9808282
  77.4767016  17.3660546  82.6681519  77.5033157  18.8782462  82.7348250
  82.9838500  16.2956807  88.0975328  82.3262174  16.9856068  88.1855456
  83.7878899  16.6853238  88.4409314  72.7364382   8.7627452  85.3414893
  73.3108133   8.5402634  84.6088086  73.3235364   8.8316147  86.0943494
  81.7943959  14.6501179  86.1479270  82.3075841  15.2831171  86.6500979
  82.4445183  14.0502375  85.7822630  73.0633969  10.7931913  79.3610778
  72.2271281  11.1306600  79.6820053  72.9238738  10.6580893  78.4237915
  75.0387049   5.6368701  84.0689962  74.3851462   5.3217718  83.4446577
  74.9967523   5.0144442  84.7949785  76.1498254  15.9187996  75.9843255
  75.2425316  15.6877250  76.1834404  76.6469286  15.1225616  76.1717236
  79.0566333  24.6285504  78.9039941  78.3828032  24.9317200  79.5124899
  79.4432155  25.4314584  78.5545398  78.2724790  12.1250635  88.3937610
  77.3547351  12.3465582  88.2359298  78.6884933  12.1996945  87.5349317
  79.0559837  13.5242050  83.5240290  79.8031656  14.0363448  83.2147412
  79.3251427  13.2026103  84.3844684  77.3286488  16.0200591  80.5067245
  76.4197707  15.7359624  80.6039714  77.3581571  16.4399670  79.6470552
  82.5605755  19.6307181  84.2758412  82.1068082  18.7898091  84.3323603
  81.9299722  20.2668579  84.6133192  81.5038675  10.5599167  85.5059080
  80.7661431  10.0476553  85.8369322  81.7565448  10.1199548  84.6942357
  81.0038694  21.4683677  85.2108230  81.2961669  22.0288734  84.4920596
  81.5137315  21.7612238  85.9661389  67.8974658  13.7406105  84.4882447
  67.6999058  13.1475466  83.7633513  67.3421322  13.4358315  85.2058386
  75.8771382  13.6329212  86.6077040  75.9319991  12.6803048  86.5319517
  75.0662584  13.7888651  87.0918338  77.0262575  17.5609335  77.8455323
  76.5882005  16.8445194  77.3860961  77.7673016  17.7885450  77.2840415
  73.8163742  12.2506272  84.3667419  73.0031607  12.5500442  84.7732611
  74.3122736  11.8561960  85.0841901  75.9672319  22.2464028  86.3001684
  75.9248498  22.4724875  85.3710216  76.8835018  22.0127403  86.4487485
  79.4137953  12.7148096  93.1982313  79.7687341  12.9419569  94.0576779
  80.0610084  13.0466473  92.5759568  85.1435690  15.8366532  83.9031642
  85.0053589  16.0268128  82.9752831  84.7871909  16.5985915  84.3599693
  73.3077816   9.8224627  89.9828654  73.9477196   9.6813386  89.2851617
  72.4755347   9.5359140  89.6067256  85.1705070  17.9043059  88.9142913
  85.6041576  17.8118348  89.7625967  85.8836650  17.8800559  88.2762929
  74.0838120  19.1227057  86.0963646  74.8778719  18.6277378  85.8946221
  73.3729813  18.5944921  85.7331352  78.9032965  21.5045153  90.4476014
  78.9569987  22.0736089  91.2153730  78.0347746  21.6747038  90.0830051
  70.3920884  13.2670139  82.1723399  69.4618472  13.2054595  82.3893361
  70.4878356  12.7446092  81.3760040  70.3106433   9.7924952  84.7601641
  70.5713250  10.7070285  84.6510801  71.1323605   9.3249395  84.9098253
  71.7831358  11.2062709  91.9300465  72.4554411  10.9980071  91.2813114
  70.9561145  11.0084795  91.4905697  86.0320619  17.9466760  91.4475799
  86.2256509  18.8512570  91.6935074  85.9321238  17.4874179  92.2814384
  77.6856930   7.8324650  93.9466126  77.0384845   8.5314600  93.8530602
  78.4557945   8.2660794  94.3142374  81.0935728  18.0973502  97.0216679
  80.9421234  17.8684054  96.1046763  81.0840407  19.0544104  97.0348024
  77.8621064  15.6705415  92.0062946  78.7913124  15.8216575  91.8331913
  77.4412094  15.7589436  91.1511592  76.6609396  19.6956079  89.7761483
  76.5220482  19.3274864  90.6487421  75.8723992  20.2103719  89.6045441
  77.2557548  24.7965176  81.1187020  77.4309304  24.3253219  81.9332643
  76.5690336  25.4230942  81.3468281  78.2114611  19.0737682  87.1650321
  77.8764444  19.0338452  88.0607971  77.7118557  18.4082398  86.6920731
  72.1858855  14.4805312  92.6902902  72.0478653  13.7485551  93.2914441
  73.0963779  14.3914212  92.4087090  81.1473803  16.4193716  77.4387381
  80.5302974  15.6940545  77.3420433  80.6790291  17.1803077  77.0954455
  74.8141156  14.1925272  92.1786582  75.5240775  13.5518464  92.1373200
  74.7710464  14.4438166  93.1012763  82.8027935  21.1292625  95.0993161
  82.7440481  20.4451845  94.4323744  83.2047453  21.8711615  94.6473787
  73.5270090  11.1790489  93.9982221  72.9907447  10.7281228  94.6503818
  72.9386798  11.3136398  93.2552686  71.8218633  27.9454539  87.8926880
  72.0615232  28.5773063  88.5705899  70.9787830  27.5942579  88.1792239
  72.9372349  10.6379141  76.5608685  72.0601815  10.5167942  76.1970932
  73.4130102   9.8465219  76.3087574  82.8045342  19.0932209  93.3307141
  81.9172121  18.7558131  93.4533540  83.3743893  18.3615240  93.5675906
  64.4574489  15.4256301  86.6550192  65.1445529  15.1118031  86.0671208
  64.3022618  16.3297665  86.3817444  69.2609211  10.3146497  91.0835216
  69.1767400   9.7072167  90.3485626  68.4391918  10.8055515  91.0844712
  76.3346495  23.7533661  90.2968384  76.2616667  24.5588633  90.8087689
  75.8923888  23.9525627  89.4716405  76.1236275  22.9905431  83.8071206
  75.3403797  23.5327111  83.9009430  76.8229020  23.5079411  84.2065447
  79.4332925   8.8000061  86.4505411  79.9301625   8.0470023  86.1306481
  78.6619907   8.8364377  85.8848620  87.2862682  14.5040426  88.0923702
  87.2752559  15.3865142  87.7217636  86.4180062  14.1511977  87.8978240
  78.7945179  23.6520495  92.4526543  79.5073151  24.2867960  92.3802444
  78.3035207  23.7484361  91.6366545  80.5162706  17.5571748  84.0243834
  79.5818984  17.6773210  83.8548539  80.6939374  16.6544215  83.7603844
  76.0167894  10.9417444  86.1777096  75.6465681  10.3888484  86.8658001
  76.5126986  10.3375577  85.6252096  83.9035257  13.3989067  84.5593869
  84.3695709  14.2317059  84.4854171  84.3542758  12.9334049  85.2639127
  73.8457092  21.4014939  93.2732114  74.5466552  22.0351422  93.4261508
  73.3752207  21.7429670  92.5127753  81.9711488  19.7432888  81.5580021
  82.2471332  19.6289483  82.4673895  81.1015987  19.3450373  81.5192194
  81.8751920   5.7669654  88.5984770  80.9615000   5.9973881  88.7666977
  82.3045021   5.8508098  89.4498802  81.6458378  13.9559546  91.0984664
  80.9929829  14.2035454  90.4437117  82.0238758  13.1423684  90.7647141
  78.6065552  23.9919239  85.2012834  78.7887947  23.1740895  85.6640587
  79.4298538  24.2086932  84.7637724  78.9407718  22.9187424  82.4627883
  79.4695484  22.4079879  81.8498045  79.2035937  22.6029955  83.3273416
  77.6945951  14.6979357  97.5850701  77.0186588  14.5973486  98.2553076
  78.5173585  14.5418571  98.0486698  69.4424810  20.9351294  90.2063216
  70.0278247  20.1894982  90.3391120  69.2449649  21.2455250  91.0899880
  72.2963466  23.9702541  85.2225659  71.6273841  24.4548669  84.7389699
  72.1576335  24.2171762  86.1369037  64.0342465  13.5056894  88.9267659
  64.0726565  12.9720485  89.7204777  63.5282758  12.9792099  88.3078637
  76.4368734  26.0046285  91.8208317  76.9887042  26.1677906  92.5857402
  76.7774928  26.5950722  91.1488342  71.4133227   8.3521434  92.4230202
  71.4774554   9.2136265  92.0107599  71.3500348   7.7395436  91.6902560
  70.8885500  10.4244567  96.0703236  71.5157539  10.0421644  96.6840760
  70.0313419  10.2058769  96.4358928  81.2879609  20.8307542  97.6756971
  81.8319513  21.4437500  97.1811926  80.7066453  21.3887121  98.1923984
  67.6651043  12.2320996  82.0021591  67.9604484  11.3231674  81.9488644
  66.7639079  12.2108735  81.6802593  79.5737122  23.9528260  88.8071999
  79.4488261  23.1518000  88.2982945  80.2316213  24.4474453  88.3185969
  71.1945290  10.3076993  87.9849139  70.4731876  10.9212960  87.8456613
  71.9838546  10.8434757  87.9065785  81.6372030  21.7537280  90.4351549
  80.6902365  21.6342631  90.3629876  81.9854803  20.8659778  90.5177811
  73.9971603   7.6431419  94.2589791  74.5206005   7.8893716  95.0216100
  73.7783937   8.4751454  93.8392928  69.3938884   9.9135094  82.1260916
  69.0651591   9.0332473  81.9436022  69.7478255   9.8582762  83.0137305
  78.6418463  21.5489996  86.6355901  78.4943426  20.6206704  86.8163471
  79.4671957  21.5710087  86.1512977  72.5080708  10.2008063  82.4936394
  72.8476780  10.7293985  81.7715002  72.9552828  10.5388470  83.2694960
  82.2452585  22.3718555  87.7220774  83.1699133  22.1661416  87.5845225
  82.0767888  22.1234956  88.6310116  75.2024148   8.5845114  91.9439462
  74.8620969   7.7852927  92.3460142  74.4963155   8.8846825  91.3716295
  75.8540620   5.6694427  90.3966785  76.6766689   5.1954905  90.2745675
  76.0978684   6.4484910  90.8965471  74.4948855   8.6982685  80.6929686
  75.2157217   9.0763938  80.1893403  73.8714159   9.4171562  80.7964664
  78.6379978   9.4027834  81.6288019  78.8543592  10.2852472  81.3276847
  78.1574045   9.0114047  80.8993661  73.3779199  12.3613547  88.2058763
  73.2323780  12.6753850  89.0983045  72.9004403  12.9798448  87.6529662
  75.2375582   9.3516095  88.2539653  75.2237151   8.4557189  87.9171951
  75.9548010   9.3586759  88.8877939  77.0901713   9.7853435  90.2992780
  76.8319490  10.7070506  90.2977111  76.5586753   9.3883870  90.9893244
  82.0347901  22.8904223  83.0782866  82.2084779  22.3250645  82.3256718
  82.5276793  23.6905117  82.8962356  67.8524861  14.9018892  91.1446424
  67.3078329  15.6778700  91.2766699  68.7304211  15.2489696  90.9865546
  74.6412478   8.2330476  83.5227223  74.7628389   7.3047122  83.7218110
  74.3514520   8.2469162  82.6105538  77.5103668   5.9185386  86.6593943
  77.5325365   5.9824719  85.7045922  77.9271727   5.0789895  86.8534449
  87.8887292  15.6540646  84.6973165  88.3318438  14.9047971  84.2992289
  87.0113803  15.6450782  84.3146897  83.0223074  22.2070987  80.1779764
  83.7173978  22.8277680  80.3967079  83.3646224  21.3566338  80.4532142
  68.6390883  14.0288788  94.0376581  67.8972619  14.1771423  94.6241212
  68.3183627  14.2897054  93.1743331  84.9214497  19.6570693  81.7067095
  85.4465821  19.9957965  80.9816415  84.8336849  18.7217708  81.5230229
  76.5834546  23.5704766  93.8356971  76.8921672  23.3253913  94.7079671
  77.3810028  23.7751405  93.3475842  76.6055158  25.7242676  86.0662348
  76.1660148  25.2319055  86.7595205  77.3563275  25.1815643  85.8254423
  69.0847497  21.9154217  86.0686976  69.9105517  21.6157989  85.6885619
  68.7341549  21.1461839  86.5176765  74.0529030  21.2680685  88.1384650
  73.4309039  20.6051390  87.8386877  74.7233897  21.2941817  87.4558297
  67.2856102  19.8340543  87.0275910  66.4488010  19.4062717  86.8459911
  67.2579747  20.0272986  87.9646701  74.1253557   9.7462473  97.7317156
  74.1741713  10.6224596  97.3494925  74.6676071   9.2039866  97.1588799
  84.6108403  20.2903596  97.0118293  83.8203947  20.2727735  96.4722792
  84.3741758  20.8291890  97.7667329  84.7306278  17.1396063  94.3251021
  84.7804283  16.9746070  95.2666544  84.6220201  16.2723322  93.9348902
  73.6142537  19.8184608  81.6143110  73.7630657  20.5020073  80.9609783
  74.4208980  19.7989698  82.1292566  82.0210040  13.1226991  95.6410328
  82.9219903  12.9833455  95.3494326  82.0958015  13.2881445  96.5808505
  76.3552846  10.4993845  94.4863514  75.4856155  10.7927411  94.2146103
  76.5912326  11.0834290  95.2070778  86.2324475  19.5593004  94.5693043
  85.9409283  19.9222985  95.4056504  85.6196606  18.8460012  94.3906375
  87.4320157  17.1245884  87.0895613  88.2667049  17.5635688  87.2533173
  87.5679286  16.6484537  86.2703859  84.4811663  14.6825619  93.0373101
  84.9565785  14.8753265  92.2291952  83.5577228  14.7384805  92.7916484
  71.3695170  15.8449786  82.6204179  71.1241212  14.9412116  82.8184389
  71.5391084  15.8466936  81.6783657  79.0591880   6.7173462  92.0028935
  79.5773823   7.4534489  91.6775423  78.7047012   7.0237456  92.8375694
  70.6390817  11.5778143  80.1190340  69.9460062  11.6522498  79.4630376
  70.3942569  10.8138487  80.6411857  77.1137942  22.3132739  79.0854858
  76.5411909  22.9322926  78.6325329  77.6870736  22.8632100  79.6194779
  83.1813332  11.5591379  91.2701406  84.1330755  11.6589476  91.2913630
  83.0116782  10.7669647  91.7799491  81.2027712   8.6446962  91.4560807
  80.6077644   8.9251975  90.7607296  80.9177408   9.1340863  92.2277548
  80.3335202  22.5969889  80.2163440  81.2665875  22.5315450  80.4196315
  80.2458415  23.4326156  79.7577972  82.9623219  21.9135759  77.1767387
  82.8836850  21.5795623  78.0703145  83.7832885  22.4057527  77.1758860
  85.6601410  14.7797498  90.3843706  85.6277730  13.8413499  90.5703390
  86.2702034  14.8581535  89.6509531  77.4984741  13.6493551  76.4270910
  78.4443845  13.5199760  76.4959328  77.1198986  12.9108213  76.9040338
  85.8095898  11.5708542  90.4301989  85.2934947  10.7866999  90.2431918
  86.6935847  11.2427259  90.5948509  83.4706625   5.3149557  86.3897802
  83.2731446   5.0064646  87.2741134  84.0806331   6.0411196  86.5195732
  91.4777960  15.8413505  89.5249743  92.2081348  15.5798793  90.0857446
  90.8684905  15.1042227  89.5651811  89.5593257  13.9821368  90.1224194
  88.8326420  13.8477333  89.5140686  89.1440544  14.2898197  90.9280912
  77.3823433  17.7011298  97.8871567  78.3026443  17.8789897  98.0811614
  77.3473016  16.7567343  97.7351266  75.6827658  11.5743528  76.3625795
  74.7759113  11.2776641  76.4388509  75.9603639  11.2773346  75.4960081
  66.6005598  12.8949891  86.8124842  66.2808383  12.0415199  86.5199216
  66.0539026  13.1098469  87.5682809  70.3785506  15.6112332  90.5294348
  70.5971516  16.5429440  90.5482382  70.7911280  15.2520307  91.3149152
  77.2989724   6.1180418  82.5170037  76.4890452   5.7727503  82.8925283
  77.9874141   5.8087961  83.1057648  79.2280272   5.1958464  84.1394333
  79.7811310   5.6153918  84.7984356  79.4650358   4.2694212  84.1817289
  75.2513371  11.1845538  99.9197097  75.1510098  12.1339895  99.8509188
  75.0334913  10.8563777  99.0473167  74.4526442   8.4330463  76.5037774
  75.3145606   8.7585361  76.7633592  74.6376787   7.6461959  75.9910840
  66.4693858  16.5152803  88.7817963  65.7757330  16.1006756  88.2687918
  67.2166849  16.5573339  88.1851382  82.6059079   7.3058990  83.6472997
  82.0257748   7.9643794  83.2651050  82.3395012   6.4836334  83.2360415
  81.0562645   6.7064047  85.8494318  81.5562424   6.8180582  85.0408637
  81.6998253   6.4025100  86.4895126  75.1144641  14.6142677  98.7362159
  74.6311723  15.4143037  98.9426048  75.2005580  14.6250622  97.7829603
  68.3830601  16.4471057  86.6583978  68.3601289  16.5458744  85.7065861
  68.6931237  17.2936207  86.9801144  71.0417979  18.5047212  90.7730593
  71.9961232  18.4731154  90.7060524  70.8430502  18.0437835  91.5880818
  71.6317361  17.0748328  93.3401390  72.4510250  17.5692406  93.3636227
  71.9054168  16.1580296  93.3118958  81.3883957   9.4659080  82.7029346
  80.5009812   9.7508731  82.4849540  81.8037946   9.3052843  81.8556623
  84.7398493   9.4905601  86.4183685  85.5158883   9.9802053  86.6908302
  84.0146627   9.9163655  86.8755554  87.1771052  10.2033220  87.4757626
  87.7715543   9.9628956  86.7650934  87.2497635   9.4840351  88.1031162
  69.3968207  24.0466831  87.7900790  69.2622675  23.2867232  87.2238788
  68.9800270  24.7707731  87.3229579  80.5327170  19.2303755  76.7977366
  81.2363021  19.4353757  77.4135021  79.8089819  19.7980516  77.0626449
  81.3624981  14.9813616  82.9179636  81.3060182  15.4382167  82.0787268
  81.9153323  14.2204300  82.7402479  85.1729787  10.7703348  83.7429755
  84.9166721  10.3699983  84.5737963  84.5482655  11.4847142  83.6179895
  89.4842124  13.5099421  86.2501047  88.9241682  13.5792610  87.0232609
  88.8785628  13.3340406  85.5300543  72.5537333  24.9436148  88.0019233
  72.4369717  25.8881581  87.8997923  71.7329780  24.6409710  88.3905032
  82.4413868  19.6686284  78.8475826  83.2759472  19.2367482  78.6653301
  82.2798211  19.4968297  79.7752720  82.0959760  16.1718397  80.2132165
  82.0408564  16.0062669  79.2720609  81.4705815  16.8794430  80.3694355
  66.8852275  11.4086461  94.0393587  67.5311139  10.8985415  94.5280812
  66.6769426  12.1455143  94.6137013  79.4105667  18.4767309  99.5385728
  80.2796827  18.6507961  99.1772363  78.9312419  19.2961726  99.4161457
  75.4055886   5.6726506  79.7917483  75.3934555   6.6168346  79.9485754
  76.2979307   5.4896651  79.4976945  73.5791847  25.5964410  91.2175161
  74.4819094  25.6288020  91.5341656  73.3529218  24.6664861  91.2321497
  75.3345449  24.3495396  87.8785240  74.3841080  24.3497258  87.7649612
  75.6377936  23.6028131  87.3621275  71.2249766   8.5554079  98.1368601
  72.0881228   8.1990883  98.3471926  70.6515177   8.2167973  98.8244006
  91.0698143  30.1855935  88.9431002  91.7076553  30.0662682  88.2394343
  90.9518986  31.1336779  89.0018955  87.8787849  30.1383363  88.8792527
  87.5406361  30.0224428  87.9913062  88.7477617  29.7374528  88.8593533
  83.7374665  31.9918839  84.8689418  83.1739530  31.9008776  84.1005706
  83.6227060  31.1718744  85.3491911  88.3607632  31.2918215  94.8378733
  88.3496273  30.8971013  93.9659236  88.5228272  30.5584287  95.4312504
  81.2839097  33.4870031  87.7073639  82.0760389  33.1460856  87.2919938
  81.5235747  33.5965006  88.6275792  89.3174224  35.6589807  80.1803883
  88.6662203  36.2443888  79.7937897  90.1118586  36.1896002  80.2398921
  83.2429851  32.7478944  80.5791017  84.0160727  32.2007931  80.4403893
  83.5955250  33.6123194  80.7905479  85.0814893  34.0755327  93.7857917
  84.7904759  34.9800957  93.6704583  85.7171878  34.1171854  94.5001986
  86.0071100  31.4532175  90.3759276  86.6034672  31.2288197  89.6616239
  86.0646072  30.7116921  90.9784724  85.5796129  28.9071610  78.2109467
  85.8321649  28.3853132  77.4492930  84.6420688  28.7437756  78.3136151
  90.6239411  27.9107389  86.0184211  91.4102501  27.4926812  85.6674628
  90.8878116  28.8153481  86.1865859  90.7949489  33.3480239  80.7172867
  90.1595322  33.4214866  81.4293772  90.4646895  33.9373838  80.0391947
  96.0247839  27.8482622  86.9217189  96.7573011  27.2781839  87.1555019
  95.2687194  27.4604222  87.3623695  85.2992417  30.8099716  80.4133842
  85.1828675  30.1344620  81.0814927  85.4094677  30.3232090  79.5965995
  87.6423958  30.2709863  84.1180531  87.2782166  29.7440484  84.8293453
  88.4991074  29.8808332  83.9447017  93.5473259  21.5604196  91.3811798
  93.2156584  22.4299607  91.1573013  92.9518872  21.2440480  92.0605828
  87.2829445  25.2999763  79.1141880  87.4503848  26.1680000  79.4812351
  87.0926614  25.4627045  78.1903169  90.0404778  33.7616742  90.7807710
  89.7405502  34.6641781  90.6723518  89.6955838  33.4948925  91.6328863
  83.4917260  30.2130539  86.8144415  82.5667756  30.0806753  87.0222107
  83.7401673  30.9924758  87.3114357  93.4401922  26.2799282  88.4605148
  92.5318800  26.2114691  88.1663909  93.3889518  26.7571227  89.2886973
  87.2618666  27.7557421  80.0988547  87.1418291  28.2014471  80.9374027
  86.5671255  28.1042738  79.5402085  80.8526071  29.8563812  87.6488204
  80.9818452  30.1098291  88.5627616  80.1723522  30.4491520  87.3292859
  85.0225558  40.5261062  83.7478678  84.9449588  41.4768887  83.8267159
  84.4187202  40.1806935  84.4053604  87.5142788  27.6988928  96.4040045
  86.7376122  28.2582848  96.3942910  88.1533351  28.1845711  96.9254915
  95.3063569  24.4815721  90.2383022  94.6637949  24.7748254  89.5922816
  94.8018497  24.3668641  91.0436218  92.9603732  28.2278894  80.9268881
  93.8721588  28.4606281  80.7516578  92.4513379  28.8115938  80.3643959
  85.7689160  30.5074381  95.9658012  86.5103845  31.0459425  95.6892836
  85.0626146  31.1340670  96.1229564  91.2444500  32.6503522  94.5630173
  91.6527856  32.2085932  93.8184806  90.5221761  32.0756149  94.8164366
  87.5975570  27.5876128  91.9363730  88.4436765  28.0115542  92.0798379
  87.5374208  26.9309753  92.6302294  91.5673315  33.2104712  88.3182462
  90.9382177  33.3750426  87.6158530  91.1798977  33.6246322  89.0893426
  95.4462547  34.1459150  85.6726826  94.7613585  34.5258051  85.1223859
  95.5306396  34.7554477  86.4058774  90.7475015  25.2480497  93.5944904
  90.5035947  26.0022557  93.0579180  91.0234946  25.6265844  94.4292151
  92.7013478  31.7919109  92.2722170  92.9130373  32.4350869  91.5956551
  92.6543226  30.9581426  91.8044100  90.3039707  24.4036930  89.1758742
  89.4424186  24.7018183  89.4675479  90.3302142  24.6207329  88.2439774
  87.1201276  32.9479120  85.5832547  87.5839622  33.2266823  84.7937170
  86.8558075  32.0462565  85.4005638  84.0125358  32.4950602  88.5212311
  84.5826715  32.9237870  87.8829795  84.6033469  32.2133187  89.2196496
  86.0570163  29.0702273  82.3922113  86.7594206  29.5223316  82.8596039
  85.7250791  28.4286092  83.0202006  84.5050524  27.6614029  96.7673322
  83.8749185  28.3430310  97.0008719  84.3986612  27.5497111  95.8226460
  79.7995496  27.3285825  87.6939246  79.0094550  27.5843354  87.2179357
  80.2906744  28.1434163  87.7991287  93.8159306  34.6691065  90.4444527
  94.6376750  34.2671252  90.1627209  93.8121709  34.5659299  91.3960643
  81.7510242  27.6930405  84.6522723  80.9541405  27.8049099  85.1706219
  81.5235834  28.0317057  83.7863613  87.5815910  34.2175108  92.6005237
  87.6460342  34.6795515  93.4363409  86.8726833  33.5872473  92.7287547
  78.0833199  27.5816316  90.1254237  78.3341238  28.4663326  90.3911813
  78.6192748  27.4020917  89.3529329 101.9065299  31.0129813  86.7929498
 101.1529007  30.4437211  86.6373503 102.0412840  30.9792478  87.7400133
  87.2963927  35.8843215  82.4684218  87.1609602  36.7294751  82.8969066
  87.8373740  36.0862493  81.7050152  83.7831267  21.9634795  99.1298573
  83.3898212  21.4100994  99.8046217  84.5997407  22.2745374  99.5205091
  80.7493325  33.4018653  83.0412143  81.2617845  34.1961904  83.1917708
  81.4016037  32.7044944  82.9745744  82.5588209  36.5184410  85.1234896
  82.7354838  37.4402374  84.9355880  83.3545043  36.2042829  85.5529276
  86.6999228  23.3792674  96.7218830  87.4408941  23.9799827  96.6423292
  86.9317151  22.6370312  96.1636872  81.8440566  28.5649042  94.9997059
  81.7294081  27.6634299  95.3004158  80.9885084  28.8112738  94.6481876
  88.9232404  36.5066782  96.5984560  88.4796258  35.7203160  96.2805464
  89.5849617  36.6945932  95.9328451  83.6819525  38.0362583  91.1245238
  84.2326950  37.9079647  90.3522232  82.8431001  38.3357472  90.7740131
  91.0213642  36.7869582  94.6265961  91.0032117  37.6078463  94.1346230
  91.9433562  36.6623657  94.8516102  87.4786696  34.3013711  95.4689470
  88.0115033  33.5401999  95.2388777  86.9500777  34.0087363  96.2113624
  90.6456391  19.4073777  90.9983111  90.3020660  20.2975419  90.9222222
  91.0135353  19.2175435  90.1352696  78.7142241  31.7307308  83.8171713
  79.5517463  32.1404316  83.6005421  78.8920509  30.7906750  83.7871907
  90.6106673  29.3982388  79.5055546  90.0953297  30.1686993  79.7443934
  90.3383982  28.7247524  80.1288608  88.1953784  24.2432089  84.5640785
  87.3395381  23.8538939  84.3846423  88.6080736  24.3224050  83.7040570
  89.7252931  21.7778432  88.9632345  89.2217727  21.7408568  88.1500150
  90.0183538  22.6871175  89.0229001  85.9695817  21.8617162  87.9698526
  86.8348814  21.6659971  87.6104416  86.0373326  21.6327514  88.8967883
  95.5840948  32.1514743  81.4408720  94.8070390  31.8125902  80.9963882
  96.2632429  32.1567366  80.7663685  90.3992977  27.2709480  81.3315328
  90.0943112  27.5855630  82.1825471  91.3523419  27.3490900  81.3742661
  88.8439408  33.4299704  82.9808282  88.3160770  32.6952463  82.6681519
  88.3426911  34.2074380  82.7348250  93.8232254  31.6248724  88.0975328
  93.1655929  32.3147986  88.1855456  94.6272654  32.0145156  88.4409314
  83.5758136  24.0919370  85.3414893  84.1501888  23.8694552  84.6088086
  84.1629119  24.1608065  86.0943494  92.6337713  29.9793097  86.1479270
  93.1469595  30.6123089  86.6500979  93.2838937  29.3794292  85.7822630
  83.9027723  26.1223831  79.3610778  83.0665035  26.4598518  79.6820053
  83.7632493  25.9872811  78.4237915  85.8780804  20.9660619  84.0689962
  85.2245216  20.6509636  83.4446577  85.8361278  20.3436359  84.7949785
  86.9892009  31.2479914  75.9843255  86.0819070  31.0169167  76.1834404
  87.4863041  30.4517533  76.1717236  89.8960088  39.9577421  78.9039941
  89.2221786  40.2609118  79.5124899  90.2825909  40.7606502  78.5545398
  89.1118544  27.4542552  88.3937610  88.1941106  27.6757499  88.2359298
  89.5278688  27.5288863  87.5349317  89.8953592  28.8533968  83.5240290
  90.6425411  29.3655365  83.2147412  90.1645181  28.5318021  84.3844684
  88.1680242  31.3492509  80.5067245  87.2591461  31.0651542  80.6039714
  88.1975326  31.7691587  79.6470552  93.3999510  34.9599098  84.2758412
  92.9461837  34.1190008  84.3323603  92.7693476  35.5960497  84.6133192
  92.3432429  25.8891084  85.5059080  91.6055186  25.3768471  85.8369322
  92.5959203  25.4491466  84.6942357  91.8432449  36.7975595  85.2108230
  92.1355423  37.3580652  84.4920596  92.3531069  37.0904156  85.9661389
  92.4444056  18.6667336  86.1000849  92.7502933  17.8064700  85.8126764
  93.1696661  19.2584957  85.8999843  78.7368412  29.0698023  84.4882447
  78.5392812  28.4767384  83.7633513  78.1815076  28.7650233  85.2058386
  86.7165136  28.9621129  86.6077040  86.7713746  28.0094966  86.5319517
  85.9056338  29.1180569  87.0918338  87.8656330  32.8901253  77.8455323
  87.4275760  32.1737111  77.3860961  88.6066771  33.1177367  77.2840415
  84.6557496  27.5798189  84.3667419  83.8425362  27.8792360  84.7732611
  85.1516490  27.1853878  85.0841901  86.8066074  37.5755946  86.3001684
  86.7642253  37.8016792  85.3710216  87.7228773  37.3419321  86.4487485
  90.2531708  28.0440014  93.1982313  90.6081095  28.2711487  94.0576779
  90.9003839  28.3758390  92.5759568  95.9829445  31.1658450  83.9031642
  95.8447343  31.3560046  82.9752831  95.6265663  31.9277832  84.3599693
  84.1471571  25.1516545  89.9828654  84.7870950  25.0105304  89.2851617
  83.3149101  24.8651058  89.6067256  96.0098824  33.2334977  88.9142913
  96.4435331  33.1410266  89.7625967  96.7230405  33.2092477  88.2762929
  84.9231875  34.4518975  86.0963646  85.7172473  33.9569295  85.8946221
  84.2123567  33.9236838  85.7331352  89.7426719  36.8337071  90.4476014
  89.7963741  37.4028007  91.2153730  88.8741501  37.0038956  90.0830051
  81.2314638  28.5962057  82.1723399  80.3012226  28.5346512  82.3893361
  81.3272110  28.0738010  81.3760040  81.1500187  25.1216870  84.7601641
  81.4107005  26.0362203  84.6510801  81.9717360  24.6541312  84.9098253
  82.6225113  26.5354627  91.9300465  83.2948166  26.3271989  91.2813114
  81.7954899  26.3376713  91.4905697  96.8714374  33.2758677  91.4475799
  97.0650264  34.1804488  91.6935074  96.7714992  32.8166096  92.2814384
  88.5250685  23.1616568  93.9466126  87.8778600  23.8606517  93.8530602
  89.2951700  23.5952712  94.3142374  91.9329483  33.4265420  97.0216679
  91.7814989  33.1975972  96.1046763  91.9234162  34.3836021  97.0348024
  88.7014819  30.9997333  92.0062946  89.6306879  31.1508492  91.8331913
  88.2805849  31.0881354  91.1511592  87.5003151  35.0247997  89.7761483
  87.3614236  34.6566782  90.6487421  86.7117747  35.5395637  89.6045441
  88.0951303  40.1257094  81.1187020  88.2703058  39.6545137  81.9332643
  87.4084091  40.7522860  81.3468281  89.0508366  34.4029600  87.1650321
  88.7158198  34.3630370  88.0607971  88.5512312  33.7374316  86.6920731
  83.0252610  29.8097230  92.6902902  82.8872408  29.0777469  93.2914441
  83.9357533  29.7206130  92.4087090  91.9867557  31.7485634  77.4387381
  91.3696728  31.0232462  77.3420433  91.5184046  32.5094994  77.0954455
  85.6534910  29.5217189  92.1786582  86.3634529  28.8810381  92.1373200
  85.6104219  29.7730084  93.1012763  93.6421689  36.4584543  95.0993161
  93.5834235  35.7743763  94.4323744  94.0441208  37.2003533  94.6473787
  84.3663844  26.5082407  93.9982221  83.8301201  26.0573146  94.6503818
  83.7780553  26.6428316  93.2552686  82.6612388  43.2746456  87.8926880
  82.9008986  43.9064981  88.5705899  81.8181584  42.9234496  88.1792239
  83.7766103  25.9671058  76.5608685  82.8995570  25.8459859  76.1970932
  84.2523856  25.1757137  76.3087574  93.6439096  34.4224126  93.3307141
  92.7565875  34.0850048  93.4533540  94.2137647  33.6907158  93.5675906
  75.2968244  30.7548218  86.6550192  75.9839283  30.4409948  86.0671208
  75.1416372  31.6589583  86.3817444  80.1002966  25.6438415  91.0835216
  80.0161154  25.0364084  90.3485626  79.2785672  26.1347433  91.0844712
  87.1740250  39.0825579  90.2968384  87.1010421  39.8880550  90.8087689
  86.7317643  39.2817545  89.4716405  86.9630029  38.3197349  83.8071206
  86.1797551  38.8619029  83.9009430  87.6622775  38.8371328  84.2065447
  90.2726680  24.1291978  86.4505411  90.7695379  23.3761941  86.1306481
  89.5013661  24.1656295  85.8848620  98.1256437  29.8332344  88.0923702
  98.1146313  30.7157059  87.7217636  97.2573816  29.4803895  87.8978240
  89.6338933  38.9812413  92.4526543  90.3466906  39.6159878  92.3802444
  89.1428962  39.0776279  91.6366545  91.3556460  32.8863666  84.0243834
  90.4212739  33.0065128  83.8548539  91.5333129  31.9836132  83.7603844
  86.8561648  26.2709361  86.1777096  86.4859436  25.7180402  86.8658001
  87.3520741  25.6667495  85.6252096  94.7429012  28.7280985  84.5593869
  95.2089464  29.5608976  84.4854171  95.1936512  28.2625966  85.2639127
  84.6850847  36.7306856  93.2732114  85.3860306  37.3643339  93.4261508
  84.2145962  37.0721588  92.5127753  92.8105243  35.0724806  81.5580021
  93.0865087  34.9581401  82.4673895  91.9409741  34.6742291  81.5192194
  92.7145674  21.0961572  88.5984770  91.8008754  21.3265799  88.7666977
  93.1438776  21.1800016  89.4498802  92.4852133  29.2851464  91.0984664
  91.8323583  29.5327371  90.4437117  92.8632513  28.4715602  90.7647141
  89.4459307  39.3211157  85.2012834  89.6281701  38.5032813  85.6640587
  90.2692293  39.5378849  84.7637724  89.7801472  38.2479342  82.4627883
  90.3089239  37.7371797  81.8498045  90.0429692  37.9321872  83.3273416
  88.5339706  30.0271275  97.5850701  87.8580343  29.9265404  98.2553076
  89.3567340  29.8710489  98.0486698  80.2818565  36.2643211  90.2063216
  80.8672002  35.5186899  90.3391120  80.0843403  36.5747168  91.0899880
  83.1357220  39.2994459  85.2225659  82.4667595  39.7840586  84.7389699
  82.9970090  39.5463679  86.1369037  74.8736220  28.8348812  88.9267659
  74.9120319  28.3012402  89.7204777  74.3676512  28.3084017  88.3078637
  87.2762489  41.3338202  91.8208317  87.8280797  41.4969824  92.5857402
  87.6168682  41.9242640  91.1488342  82.2526982  23.6813352  92.4230202
  82.3168308  24.5428183  92.0107599  82.1894102  23.0687354  91.6902560
  81.7279255  25.7536485  96.0703236  82.3551293  25.3713562  96.6840760
  80.8707173  25.5350687  96.4358928  92.1273363  36.1599460  97.6756971
  92.6713267  36.7729418  97.1811926  91.5460208  36.7179038  98.1923984
  78.5044797  27.5612914  82.0021591  78.7998238  26.6523592  81.9488644
  77.6032833  27.5400653  81.6802593  90.4130876  39.2820178  88.8071999
  90.2882015  38.4809918  88.2982945  91.0709967  39.7766371  88.3185969
  82.0339044  25.6368910  87.9849139  81.3125630  26.2504878  87.8456613
  82.8232300  26.1726675  87.9065785  92.4765784  37.0829198  90.4351549
  91.5296120  36.9634549  90.3629876  92.8248558  36.1951696  90.5177811
  84.8365358  22.9723337  94.2589791  85.3599760  23.2185633  95.0216100
  84.6177691  23.8043372  93.8392928  80.2332639  25.2427011  82.1260916
  79.9045345  24.3624390  81.9436022  80.5872010  25.1874680  83.0137305
  89.4812218  36.8781914  86.6355901  89.3337180  35.9498622  86.8163471
  90.3065711  36.9002005  86.1512977  83.3474462  25.5299981  82.4936394
  83.6870535  26.0585902  81.7715002  83.7946582  25.8680387  83.2694960
  93.0846340  37.7010473  87.7220774  94.0092887  37.4953334  87.5845225
  92.9161643  37.4526874  88.6310116  86.0417903  23.9137032  91.9439462
  85.7014723  23.1144845  92.3460142  85.3356909  24.2138743  91.3716295
  86.6934375  20.9986344  90.3966785  87.5160444  20.5246823  90.2745675
  86.9372438  21.7776828  90.8965471  85.3342609  24.0274603  80.6929686
  86.0550972  24.4055856  80.1893403  84.7107913  24.7463480  80.7964664
  89.4773732  24.7319752  81.6288019  89.6937346  25.6144390  81.3276847
  88.9967799  24.3405965  80.8993661  84.2172953  27.6905465  88.2058763
  84.0717534  28.0045768  89.0983045  83.7398157  28.3090365  87.6529662
  86.0769336  24.6808013  88.2539653  86.0630905  23.7849106  87.9171951
  86.7941764  24.6878677  88.8877939  87.9295467  25.1145353  90.2992780
  87.6713245  26.0362424  90.2977111  87.3980507  24.7175788  90.9893244
  92.8741656  38.2196140  83.0782866  93.0478533  37.6542563  82.3256718
  93.3670547  39.0197035  82.8962356  78.6918616  30.2310809  91.1446424
  78.1472084  31.0070617  91.2766699  79.5697965  30.5781614  90.9865546
  85.4806232  23.5622393  83.5227223  85.6022143  22.6339039  83.7218110
  85.1908275  23.5761079  82.6105538  88.3497423  21.2477304  86.6593943
  88.3719119  21.3116637  85.7045922  88.7665482  20.4081812  86.8534449
  98.7281047  30.9832563  84.6973165  99.1712193  30.2339888  84.2992289
  97.8507557  30.9742700  84.3146897  93.8616828  37.5362905  80.1779764
  94.5567733  38.1569597  80.3967079  94.2039978  36.6858256  80.4532142
  79.4784637  29.3580706  94.0376581  78.7366373  29.5063341  94.6241212
  79.1577382  29.6188971  93.1743331  95.7608251  34.9862610  81.7067095
  96.2859575  35.3249883  80.9816415  95.6730604  34.0509626  81.5230229
  87.4228300  38.8996684  93.8356971  87.7315427  38.6545831  94.7079671
  88.2203782  39.1043322  93.3475842  87.4448912  41.0534593  86.0662348
  87.0053902  40.5610972  86.7595205  88.1957029  40.5107561  85.8254423
  79.9241251  37.2446134  86.0686976  80.7499271  36.9449906  85.6885619
  79.5735303  36.4753757  86.5176765  84.8922784  36.5972603  88.1384650
  84.2702794  35.9343308  87.8386877  85.5627651  36.6233734  87.4558297
  78.1249856  35.1632461  87.0275910  77.2881764  34.7354635  86.8459911
  78.0973502  35.3564904  87.9646701  84.9647312  25.0754391  97.7317156
  85.0135467  25.9516513  97.3494925  85.5069826  24.5331784  97.1588799
  95.4502157  35.6195514  97.0118293  94.6597701  35.6019653  96.4722792
  95.2135512  36.1583808  97.7667329  95.5700032  32.4687980  94.3251021
  95.6198037  32.3037988  95.2666544  95.4613956  31.6015239  93.9348902
  84.4536291  35.1476526  81.6143110  84.6024412  35.8311990  80.9609783
  85.2602735  35.1281616  82.1292566  92.8603795  28.4518908  95.6410328
  93.7613658  28.3125373  95.3494326  92.9351769  28.6173363  96.5808505
  87.1946600  25.8285763  94.4863514  86.3249910  26.1219329  94.2146103
  87.4306081  26.4126208  95.2070778  97.0718229  34.8884922  94.5693043
  96.7803038  35.2514902  95.4056504  96.4590361  34.1751930  94.3906375
  98.2713912  32.4537802  87.0895613  99.1060803  32.8927606  87.2533173
  98.4073040  31.9776455  86.2703859  95.3205418  30.0117536  93.0373101
  95.7959539  30.2045183  92.2291952  94.3970983  30.0676722  92.7916484
  82.2088924  31.1741704  82.6204179  81.9634966  30.2704034  82.8184389
  82.3784839  31.1758854  81.6783657  89.8985634  22.0465380  92.0028935
  90.4167578  22.7826407  91.6775423  89.5440767  22.3529373  92.8375694
  81.4784572  26.9070061  80.1190340  80.7853817  26.9814416  79.4630376
  81.2336324  26.1430405  80.6411857  90.1498228  18.4665662  87.5229831
  90.4299982  17.7988852  88.1490258  90.9348835  18.6594758  87.0104495
  87.9531697  37.6424656  79.0854858  87.3805664  38.2614844  78.6325329
  88.5264490  38.1924018  79.6194779  94.0207087  26.8883296  91.2701406
  94.9724509  26.9881394  91.2913630  93.8510537  26.0961565  91.7799491
  92.0421466  23.9738880  91.4560807  91.4471398  24.2543892  90.7607296
  91.7571163  24.4632781  92.2277548  91.1728956  37.9261806  80.2163440
  92.1059630  37.8607368  80.4196315  91.0852169  38.7618073  79.7577972
  93.8016973  37.2427677  77.1767387  93.7230605  36.9087540  78.0703145
  94.6226640  37.7349445  77.1758860  96.4995164  30.1089416  90.3843706
  96.4671484  29.1705417  90.5703390  97.1095788  30.1873453  89.6509531
  88.3378495  28.9785469  76.4270910  89.2837600  28.8491677  76.4959328
  87.9592740  28.2400131  76.9040338  96.6489653  26.9000460  90.4301989
  96.1328701  26.1158916  90.2431918  97.5329601  26.5719176  90.5948509
  94.3100380  20.6441475  86.3897802  94.1125201  20.3356563  87.2741134
  94.9200085  21.3703114  86.5195732 102.3171714  31.1705423  89.5249743
 103.0475103  30.9090711  90.0857446 101.7078660  30.4334145  89.5651811
 100.3987011  29.3113286  90.1224194  99.6720175  29.1769251  89.5140686
  99.9834298  29.6190114  90.9280912  88.2217188  33.0303215  97.8871567
  89.1420197  33.2081814  98.0811614  88.1866771  32.0859261  97.7351266
  86.5221412  26.9035446  76.3625795  85.6152868  26.6068558  76.4388509
  86.7997393  26.6065264  75.4960081  77.4399353  28.2241809  86.8124842
  77.1202137  27.3707117  86.5199216  76.8932781  28.4390387  87.5682809
  81.2179260  30.9404250  90.5294348  81.4365270  31.8721358  90.5482382
  81.6305034  30.5812224  91.3149152  88.1383478  21.4472335  82.5170037
  87.3284206  21.1019420  82.8925283  88.8267895  21.1379879  83.1057648
  90.0674026  20.5250382  84.1394333  90.6205065  20.9445835  84.7984356
  90.3044113  19.5986130  84.1817289  86.0907126  26.5137456  99.9197097
  85.9903852  27.4631813  99.8509188  85.8728668  26.1855695  99.0473167
  85.2920197  23.7622381  76.5037774  86.1539361  24.0877279  76.7633592
  85.4770541  22.9753877  75.9910840  77.3087613  31.8444720  88.7817963
  76.6151084  31.4298673  88.2687918  78.0560604  31.8865257  88.1851382
  93.4452833  22.6350907  83.6472997  92.8651503  23.2935711  83.2651050
  93.1788766  21.8128252  83.2360415  91.8956400  22.0355965  85.8494318
  92.3956178  22.1472499  85.0408637  92.5392008  21.7317018  86.4895126
  85.9538396  29.9434595  98.7362159  85.4705477  30.7434955  98.9426048
  86.0399335  29.9542539  97.7829603  79.2224355  31.7762974  86.6583978
  79.1995043  31.8750661  85.7065861  79.5324992  32.6228125  86.9801144
  81.8811733  33.8339129  90.7730593  82.8354987  33.8023072  90.7060524
  81.6824257  33.3729753  91.5880818  82.4711115  32.4040245  93.3401390
  83.2904004  32.8984324  93.3636227  82.7447923  31.4872213  93.3118958
  92.2277711  24.7950998  82.7029346  91.3403567  25.0800648  82.4849540
  92.6431701  24.6344761  81.8556623  95.5792248  24.8197519  86.4183685
  96.3552638  25.3093971  86.6908302  94.8540382  25.2455573  86.8755554
  98.0164806  25.5325138  87.4757626  98.6109297  25.2920874  86.7650934
  98.0891390  24.8132268  88.1031162  80.2361962  39.3758749  87.7900790
  80.1016430  38.6159150  87.2238788  79.8194024  40.0999649  87.3229579
  91.3720925  34.5595672  76.7977366  92.0756775  34.7645675  77.4135021
  90.6483574  35.1272434  77.0626449  92.2018735  30.3105534  82.9179636
  92.1453937  30.7674085  82.0787268  92.7547078  29.5496218  82.7402479
  96.0123541  26.0995265  83.7429755  95.7560475  25.6991901  84.5737963
  95.3876409  26.8139059  83.6179895 100.3235879  28.8391339  86.2501047
  99.7635437  28.9084528  87.0232609  99.7179382  28.6632323  85.5300543
  83.3931088  40.2728066  88.0019233  83.2763472  41.2173498  87.8997923
  82.5723534  39.9701627  88.3905032  93.2807622  34.9978201  78.8475826
  94.1153226  34.5659400  78.6653301  93.1191965  34.8260215  79.7752720
  92.9353515  31.5010315  80.2132165  92.8802318  31.3354586  79.2720609
  92.3099570  32.2086348  80.3694355  77.7246030  26.7378379  94.0393587
  78.3704893  26.2277333  94.5280812  77.5163181  27.4747061  94.6137013
  90.2499422  33.8059227  99.5385728  91.1190581  33.9799879  99.1772363
  89.7706173  34.6253643  99.4161457  86.2449640  21.0018424  79.7917483
  86.2328310  21.9460264  79.9485754  87.1373062  20.8188569  79.4976945
  84.4185602  40.9256328  91.2175161  85.3212849  40.9579938  91.5341656
  84.1922972  39.9956779  91.2321497  86.1739204  39.6787314  87.8785240
  85.2234835  39.6789176  87.7649612  86.4771690  38.9320049  87.3621275
  90.0601759  17.5961200  84.0463420  89.2934155  17.0419687  84.1920103
  90.4712464  17.6683069  84.9077572  82.0643521  23.8845996  98.1368601
  82.9274982  23.5282801  98.3471926  81.4908931  23.5459891  98.8244006
 101.9091897  45.5147853  88.9431002 102.5470307  45.3954600  88.2394343
 101.7912740  46.4628697  89.0018955  98.7181604  45.4675281  88.8792527
  98.3800115  45.3516345  87.9913062  99.5871372  45.0666446  88.8593533
  94.5768419  47.3210757  84.8689418  94.0133285  47.2300694  84.1005706
  94.4620814  46.5010662  85.3491911  99.2001387  46.6210132  94.8378733
  99.1890027  46.2262931  93.9659236  99.3622026  45.8876205  95.4312504
  92.1232851  48.8161949  87.7073639  92.9154143  48.4752773  87.2919938
  92.3629502  48.9256924  88.6275792 100.1567978  50.9881725  80.1803883
  99.5055958  51.5735805  79.7937897 100.9512341  51.5187920  80.2398921
  94.0823605  48.0770862  80.5791017  94.8554481  47.5299849  80.4403893
  94.4349004  48.9415111  80.7905479  95.9208648  49.4047244  93.7857917
  95.6298514  50.3092875  93.6704583  96.5565632  49.4463772  94.5001986
  96.8464855  46.7824093  90.3759276  97.4428427  46.5580115  89.6616239
  96.9039826  46.0408838  90.9784724  96.4189883  44.2363528  78.2109467
  96.6715404  43.7145049  77.4492930  95.4814442  44.0729673  78.3136151
 101.4633166  43.2399306  86.0184211 102.2496255  42.8218730  85.6674628
 101.7271870  44.1445399  86.1865859 101.6343243  48.6772157  80.7172867
 100.9989076  48.7506783  81.4293772 101.3040650  49.2665756  80.0391947
 106.8641593  43.1774540  86.9217189 107.5966765  42.6073756  87.1555019
 106.1080949  42.7896140  87.3623695  96.1386172  46.1391634  80.4133842
  96.0222430  45.4636537  81.0814927  96.2488432  45.6524008  79.5965995
  98.4817713  45.6001781  84.1180531  98.1175920  45.0732402  84.8293453
  99.3384829  45.2100250  83.9447017 104.3867013  36.8896114  91.3811798
 104.0550338  37.7591525  91.1573013 103.7912627  36.5732398  92.0605828
  98.1223200  40.6291681  79.1141880  98.2897602  41.4971917  79.4812351
  97.9320369  40.7918962  78.1903169 100.8798533  49.0908660  90.7807710
 100.5799256  49.9933699  90.6723518 100.5349592  48.8240843  91.6328863
  94.3311014  45.5422457  86.8144415  93.4061511  45.4098671  87.0222107
  94.5795428  46.3216676  87.3114357 104.2795677  41.6091200  88.4605148
 103.3712554  41.5406608  88.1663909 104.2283273  42.0863145  89.2886973
  98.1012421  43.0849338  80.0988547  97.9812046  43.5306389  80.9374027
  97.4065009  43.4334656  79.5402085  91.6919825  45.1855730  87.6488204
  91.8212207  45.4390209  88.5627616  91.0117277  45.7783438  87.3292859
  95.8619313  55.8552980  83.7478678  95.7843342  56.8060805  83.8267159
  95.2580956  55.5098853  84.4053604  98.3536543  43.0280845  96.4040045
  97.5769877  43.5874766  96.3942910  98.9927106  43.5137628  96.9254915
 106.1457323  39.8107638  90.2383022 105.5031703  40.1040171  89.5922816
 105.6412252  39.6960559  91.0436218 103.7997487  43.5570811  80.9268881
 104.7115343  43.7898198  80.7516578 103.2907134  44.1407856  80.3643959
  96.6082915  45.8366299  95.9658012  97.3497599  46.3751343  95.6892836
  95.9019900  46.4632588  96.1229564 102.0838254  47.9795439  94.5630173
 102.4921610  47.5377850  93.8184806 101.3615516  47.4048067  94.8164366
  98.4369324  42.9168046  91.9363730  99.2830520  43.3407460  92.0798379
  98.3767962  42.2601670  92.6302294 102.4067069  48.5396630  88.3182462
 101.7775932  48.7042344  87.6158530 102.0192731  48.9538239  89.0893426
 106.2856301  49.4751068  85.6726826 105.6007339  49.8549969  85.1223859
 106.3700150  50.0846394  86.4058774 101.5868770  40.5772414  93.5944904
 101.3429702  41.3314475  93.0579180 101.8628700  40.9557762  94.4292151
 103.5407233  47.1211027  92.2722170 103.7524128  47.7642787  91.5956551
 103.4936981  46.2873343  91.8044100 101.1433462  39.7328847  89.1758742
 100.2817941  40.0310101  89.4675479 101.1695896  39.9499246  88.2439774
  97.9595031  48.2771038  85.5832547  98.4233377  48.5558741  84.7937170
  97.6951829  47.3754483  85.4005638  94.8519112  47.8242520  88.5212311
  95.4220469  48.2529788  87.8829795  95.4427224  47.5425104  89.2196496
  96.8963917  44.3994190  82.3922113  97.5987960  44.8515234  82.8596039
  96.5644546  43.7578009  83.0202006  95.3444279  42.9905947  96.7673322
  94.7142939  43.6722228  97.0008719  95.2380366  42.8789029  95.8226460
  90.6389251  42.6577743  87.6939246  89.8488305  42.9135272  87.2179357
  91.1300498  43.4726081  87.7991287 104.6553061  49.9982982  90.4444527
 105.4770504  49.5963169  90.1627209 104.6515463  49.8951216  91.3960643
  92.5903996  43.0222322  84.6522723  91.7935160  43.1341017  85.1706219
  92.3629589  43.3608975  83.7863613  98.4209664  49.5467026  92.6005237
  98.4854097  50.0087433  93.4363409  97.7120588  48.9164390  92.7287547
  88.9226954  42.9108233  90.1254237  89.1734992  43.7955243  90.3911813
  89.4586502  42.7312835  89.3529329 112.7459054  46.3421731  86.7929498
 111.9922762  45.7729129  86.6373503 112.8806595  46.3084395  87.7400133
  98.1357682  51.2135133  82.4684218  98.0003356  52.0586669  82.8969066
  98.6767494  51.4154411  81.7050152  94.6225021  37.2926713  99.1298573
  94.2291967  36.7392911  99.8046217  95.4391162  37.6037291  99.5205091
  91.5887079  48.7310571  83.0412143  92.1011600  49.5253821  83.1917708
  92.2409792  48.0336861  82.9745744  93.3981964  51.8476327  85.1234896
  93.5748592  52.7694292  84.9355880  94.1938797  51.5334747  85.5529276
  97.5392982  38.7084592  96.7218830  98.2802696  39.3091745  96.6423292
  97.7710905  37.9662230  96.1636872  92.6834320  43.8940959  94.9997059
  92.5687835  42.9926216  95.3004158  91.8278838  44.1404656  94.6481876
  99.7626158  51.8358700  96.5984560  99.3190012  51.0495078  96.2805464
 100.4243372  52.0237850  95.9328451  94.5213279  53.3654501  91.1245238
  95.0720704  53.2371564  90.3522232  93.6824755  53.6649390  90.7740131
 101.8607396  52.1161499  94.6265961 101.8425871  52.9370380  94.1346230
 102.7827316  51.9915575  94.8516102  98.3180450  49.6305629  95.4689470
  98.8508787  48.8693917  95.2388777  97.7894531  49.3379281  96.2113624
 101.4850145  34.7365695  90.9983111 101.1414415  35.6267337  90.9222222
 101.8529108  34.5467353  90.1352696  89.5535996  47.0599225  83.8171713
  90.3911218  47.4696234  83.6005421  89.7314264  46.1198668  83.7871907
 101.4500428  44.7274306  79.5055546 100.9347051  45.4978911  79.7443934
 101.1777736  44.0539442  80.1288608  99.0347539  39.5724007  84.5640785
  98.1789135  39.1830857  84.3846423  99.4474491  39.6515968  83.7040570
 100.5646686  37.1070350  88.9632345 100.0611481  37.0700485  88.1500150
 100.8577292  38.0163093  89.0229001  96.8089571  37.1909080  87.9698526
  97.6742568  36.9951888  87.6104416  96.8767080  36.9619432  88.8967883
 106.4234702  47.4806661  81.4408720 105.6464145  47.1417820  80.9963882
 107.1026183  47.4859284  80.7663685 101.2386731  42.6001398  81.3315328
 100.9336867  42.9147547  82.1825471 102.1917173  42.6782818  81.3742661
  99.6833163  48.7591621  82.9808282  99.1554525  48.0244381  82.6681519
  99.1820666  49.5366298  82.7348250 104.6626009  46.9540642  88.0975328
 104.0049683  47.6439903  88.1855456 105.4666408  47.3437074  88.4409314
  94.4151891  39.4211288  85.3414893  94.9895642  39.1986469  84.6088086
  95.0022873  39.4899982  86.0943494 103.4731468  45.3085015  86.1479270
 103.9863350  45.9415006  86.6500979 104.1232692  44.7086210  85.7822630
  94.7421478  41.4515749  79.3610778  93.9058790  41.7890435  79.6820053
  94.6026247  41.3164729  78.4237915  96.7174558  36.2952537  84.0689962
  96.0638971  35.9801554  83.4446577  96.6755032  35.6728277  84.7949785
  97.8285763  46.5771832  75.9843255  96.9212825  46.3461085  76.1834404
  98.3256795  45.7809451  76.1717236 100.7353842  55.2869339  78.9039941
 100.0615541  55.5901036  79.5124899 101.1219664  56.0898419  78.5545398
  99.9512299  42.7834470  88.3937610  99.0334860  43.0049417  88.2359298
 100.3672442  42.8580781  87.5349317 100.7347346  44.1825886  83.5240290
 101.4819165  44.6947283  83.2147412 101.0038936  43.8609939  84.3844684
  99.0073997  46.6784427  80.5067245  98.0985216  46.3943459  80.6039714
  99.0369080  47.0983505  79.6470552 104.2393264  50.2891016  84.2758412
 103.7855591  49.4481926  84.3323603 103.6087231  50.9252414  84.6133192
 103.1826184  41.2183002  85.5059080 102.4448940  40.7060388  85.8369322
 103.4352957  40.7783384  84.6942357 102.6826203  52.1267513  85.2108230
 102.9749178  52.6872570  84.4920596 103.1924824  52.4196074  85.9661389
 103.2837811  33.9959254  86.1000849 103.5896688  33.1356617  85.8126764
 104.0090416  34.5876874  85.8999843  89.5762167  44.3989941  84.4882447
  89.3786567  43.8059301  83.7633513  89.0208831  44.0942151  85.2058386
  97.5558891  44.2913047  86.6077040  97.6107500  43.3386884  86.5319517
  96.7450093  44.4472486  87.0918338  98.7050084  48.2193170  77.8455323
  98.2669514  47.5029029  77.3860961  99.4460525  48.4469285  77.2840415
  95.4951251  42.9090107  84.3667419  94.6819116  43.2084277  84.7732611
  95.9910245  42.5145796  85.0841901  97.6459828  52.9047864  86.3001684
  97.6036007  53.1308710  85.3710216  98.5622527  52.6711238  86.4487485
 101.0925462  43.3731931  93.1982313 101.4474850  43.6003404  94.0576779
 101.7397593  43.7050308  92.5759568 106.8223199  46.4950367  83.9031642
 106.6841098  46.6851963  82.9752831 106.4659418  47.2569750  84.3599693
  94.9865325  40.4808462  89.9828654  95.6264705  40.3397222  89.2851617
  94.1542856  40.1942976  89.6067256 106.8492579  48.5626894  88.9142913
 107.2829085  48.4702183  89.7625967 107.5624159  48.5384395  88.2762929
  95.7625629  49.7810893  86.0963646  96.5566228  49.2861213  85.8946221
  95.0517322  49.2528756  85.7331352 100.5820474  52.1628988  90.4476014
 100.6357496  52.7319925  91.2153730  99.7135255  52.3330873  90.0830051
  92.0708393  43.9253975  82.1723399  91.1405981  43.8638430  82.3893361
  92.1665865  43.4029927  81.3760040  91.9893942  40.4508787  84.7601641
  92.2500759  41.3654121  84.6510801  92.8111114  39.9833230  84.9098253
  93.4618867  41.8646545  91.9300465  94.1341920  41.6563907  91.2813114
  92.6348654  41.6668631  91.4905697 107.7108128  48.6050595  91.4475799
 107.9044018  49.5096405  91.6935074 107.6108746  48.1458014  92.2814384
  99.3644439  38.4908485  93.9466126  98.7172354  39.1898435  93.8530602
 100.1345454  38.9244629  94.3142374 102.7723237  48.7557338  97.0216679
 102.6208743  48.5267889  96.1046763 102.7627916  49.7127939  97.0348024
  99.5408573  46.3289250  92.0062946 100.4700633  46.4800410  91.8331913
  99.1199603  46.4173271  91.1511592  98.3396905  50.3539915  89.7761483
  98.2007991  49.9858699  90.6487421  97.5511501  50.8687554  89.6045441
  98.9345057  55.4549011  81.1187020  99.1096813  54.9837054  81.9332643
  98.2477845  56.0814777  81.3468281  99.8902120  49.7321518  87.1650321
  99.5551953  49.6922287  88.0607971  99.3906066  49.0666233  86.6920731
  93.8646364  45.1389148  92.6902902  93.7266162  44.4069386  93.2914441
  94.7751288  45.0498048  92.4087090 102.8261312  47.0777552  77.4387381
 102.2090483  46.3524380  77.3420433 102.3577800  47.8386912  77.0954455
  96.4928665  44.8509107  92.1786582  97.2028283  44.2102299  92.1373200
  96.4497973  45.1022002  93.1012763 104.4815444  51.7876460  95.0993161
 104.4227990  51.1035680  94.4323744 104.8834962  52.5295450  94.6473787
  95.2057599  41.8374325  93.9982221  94.6694956  41.3865063  94.6503818
  94.6174307  41.9720234  93.2552686  93.5006142  58.6038374  87.8926880
  93.7402741  59.2356898  88.5705899  92.6575339  58.2526414  88.1792239
  94.6159858  41.2962976  76.5608685  93.7389324  41.1751777  76.1970932
  95.0917611  40.5049054  76.3087574 104.4832851  49.7516044  93.3307141
 103.5959630  49.4141966  93.4533540 105.0531402  49.0199075  93.5675906
  86.1361998  46.0840136  86.6550192  86.8233038  45.7701866  86.0671208
  85.9810127  46.9881501  86.3817444  90.9396720  40.9730332  91.0835216
  90.8554909  40.3656002  90.3485626  90.1179427  41.4639351  91.0844712
  98.0134004  54.4117496  90.2968384  97.9404176  55.2172468  90.8087689
  97.5711397  54.6109462  89.4716405  97.8023784  53.6489267  83.8071206
  97.0191306  54.1910947  83.9009430  98.5016529  54.1663246  84.2065447
 101.1120434  39.4583896  86.4505411 101.6089134  38.7053858  86.1306481
 100.3407416  39.4948213  85.8848620 108.9650191  45.1624262  88.0923702
 108.9540068  46.0448977  87.7217636 108.0967571  44.8095812  87.8978240
 100.4732688  54.3104331  92.4526543 101.1860660  54.9451795  92.3802444
  99.9822716  54.4068197  91.6366545 102.1950215  48.2155583  84.0243834
 101.2606493  48.3357046  83.8548539 102.3726883  47.3128050  83.7603844
  97.6955403  41.6001279  86.1777096  97.3253190  41.0472319  86.8658001
  98.1914495  40.9959412  85.6252096 105.5822766  44.0572902  84.5593869
 106.0483218  44.8900894  84.4854171 106.0330267  43.5917884  85.2639127
  95.5244601  52.0598774  93.2732114  96.2254061  52.6935257  93.4261508
  95.0539716  52.4013506  92.5127753 103.6498997  50.4016724  81.5580021
 103.9258841  50.2873318  82.4673895 102.7803496  50.0034209  81.5192194
 103.5539429  36.4253489  88.5984770 102.6402509  36.6557716  88.7666977
 103.9832530  36.5091934  89.4498802 103.3245887  44.6143381  91.0984664
 102.6717338  44.8619289  90.4437117 103.7026267  43.8007520  90.7647141
 100.2853061  54.6503075  85.2012834 100.4675456  53.8324731  85.6640587
 101.1086047  54.8670767  84.7637724 100.6195227  53.5771260  82.4627883
 101.1482993  53.0663714  81.8498045 100.8823446  53.2613790  83.3273416
  99.3733460  45.3563192  97.5850701  98.6974097  45.2557322  98.2553076
 100.1961094  45.2002406  98.0486698  91.1212319  51.5935129  90.2063216
  91.7065756  50.8478817  90.3391120  90.9237158  51.9039086  91.0899880
  93.9750975  54.6286376  85.2225659  93.3061350  55.1132504  84.7389699
  93.8363844  54.8755597  86.1369037  85.7129974  44.1640729  88.9267659
  85.7514074  43.6304320  89.7204777  85.2070267  43.6375935  88.3078637
  98.1156243  56.6630120  91.8208317  98.6674551  56.8261741  92.5857402
  98.4562437  57.2534558  91.1488342  93.0920736  39.0105270  92.4230202
  93.1562063  39.8720101  92.0107599  93.0287857  38.3979271  91.6902560
  92.5673009  41.0828402  96.0703236  93.1945048  40.7005480  96.6840760
  91.7100928  40.8642604  96.4358928 102.9667118  51.4891377  97.6756971
 103.5107022  52.1021336  97.1811926 102.3853962  52.0470956  98.1923984
  89.3438552  42.8904831  82.0021591  89.6391993  41.9815510  81.9488644
  88.4426588  42.8692571  81.6802593 101.2524631  54.6112095  88.8071999
 101.1275770  53.8101835  88.2982945 101.9103722  55.1058289  88.3185969
  92.8732799  40.9660828  87.9849139  92.1519385  41.5796796  87.8456613
  93.6626055  41.5018593  87.9065785 103.3159539  52.4121116  90.4351549
 102.3689874  52.2926467  90.3629876 103.6642312  51.5243614  90.5177811
  95.6759112  38.3015254  94.2589791  96.1993514  38.5477551  95.0216100
  95.4571446  39.1335289  93.8392928  91.0726393  40.5718929  82.1260916
  90.7439099  39.6916308  81.9436022  91.4265764  40.5166598  83.0137305
 100.3205972  52.2073832  86.6355901 100.1730935  51.2790539  86.8163471
 101.1459466  52.2293922  86.1512977  94.1868216  40.8591899  82.4936394
  94.5264289  41.3877820  81.7715002  94.6340337  41.1972305  83.2694960
 103.9240094  53.0302390  87.7220774 104.8486642  52.8245252  87.5845225
 103.7555397  52.7818792  88.6310116  96.8811657  39.2428950  91.9439462
  96.5408478  38.4436763  92.3460142  96.1750664  39.5430660  91.3716295
  97.5328129  36.3278262  90.3966785  98.3554198  35.8538740  90.2745675
  97.7766193  37.1068746  90.8965471  96.1736364  39.3566520  80.6929686
  96.8944726  39.7347773  80.1893403  95.5501668  40.0755397  80.7964664
 100.3167487  40.0611669  81.6288019 100.5331101  40.9436307  81.3276847
  99.8361554  39.6697883  80.8993661  95.0566708  43.0197383  88.2058763
  94.9111289  43.3337686  89.0983045  94.5791912  43.6382283  87.6529662
  96.9163091  40.0099931  88.2539653  96.9024660  39.1141024  87.9171951
  97.6335519  40.0170594  88.8877939  98.7689221  40.4437271  90.2992780
  98.5106999  41.3654341  90.2977111  98.2374262  40.0467705  90.9893244
 103.7135410  53.5488058  83.0782866 103.8872288  52.9834480  82.3256718
 104.2064301  54.3488953  82.8962356  89.5312370  45.5602727  91.1446424
  88.9865838  46.3362535  91.2766699  90.4091720  45.9073532  90.9865546
  96.3199987  38.8914311  83.5227223  96.4415898  37.9630957  83.7218110
  96.0302029  38.9052997  82.6105538  99.1891177  36.5769221  86.6593943
  99.2112874  36.6408554  85.7045922  99.6059236  35.7373730  86.8534449
 109.5674801  46.3124481  84.6973165 110.0105947  45.5631806  84.2992289
 108.6901312  46.3034617  84.3146897 104.7010583  52.8654822  80.1779764
 105.3961487  53.4861515  80.3967079 105.0433733  52.0150174  80.4532142
  90.3178392  44.6872623  94.0376581  89.5760128  44.8355259  94.6241212
  89.9971136  44.9480889  93.1743331 106.6002006  50.3154528  81.7067095
 107.1253330  50.6541801  80.9816415 106.5124358  49.3801543  81.5230229
  98.2622055  54.2288602  93.8356971  98.5709181  53.9837748  94.7079671
  99.0597537  54.4335240  93.3475842  98.2842667  56.3826511  86.0662348
  97.8447657  55.8902890  86.7595205  99.0350784  55.8399479  85.8254423
  90.7635006  52.5738052  86.0686976  91.5893026  52.2741824  85.6885619
  90.4129058  51.8045674  86.5176765  95.7316539  51.9264520  88.1384650
  95.1096548  51.2635225  87.8386877  96.4021406  51.9525652  87.4558297
  88.9643611  50.4924378  87.0275910  88.1275519  50.0646553  86.8459911
  88.9367256  50.6856822  87.9646701  95.8041066  40.4046308  97.7317156
  95.8529222  41.2808431  97.3494925  96.3463580  39.8623701  97.1588799
 106.2895912  50.9487432  97.0118293 105.4991456  50.9311570  96.4722792
 106.0529266  51.4875725  97.7667329 106.4093787  47.7979898  94.3251021
 106.4591792  47.6329905  95.2666544 106.3007710  46.9307157  93.9348902
  95.2930046  50.4768444  81.6143110  95.4418166  51.1603908  80.9609783
  96.0996489  50.4573534  82.1292566 103.6997549  43.7810826  95.6410328
 104.6007412  43.6417291  95.3494326 103.7745524  43.9465281  96.5808505
  98.0340355  41.1577681  94.4863514  97.1643664  41.4511247  94.2146103
  98.2699835  41.7418126  95.2070778 107.9111984  50.2176839  94.5693043
 107.6196792  50.5806820  95.4056504 107.2984115  49.5043848  94.3906375
 109.1107666  47.7829719  87.0895613 109.9454558  48.2219523  87.2533173
 109.2466795  47.3068372  86.2703859 106.1599172  45.3409454  93.0373101
 106.6353294  45.5337100  92.2291952 105.2364737  45.3968640  92.7916484
  93.0482679  46.5033621  82.6204179  92.8028721  45.5995951  82.8184389
  93.2178593  46.5050772  81.6783657 100.7379389  37.3757298  92.0028935
 101.2561332  38.1118325  91.6775423 100.3834521  37.6821291  92.8375694
  92.3178326  42.2361979  80.1190340  91.6247571  42.3106334  79.4630376
  92.0730078  41.4722322  80.6411857 100.9891983  33.7957580  87.5229831
 101.2693736  33.1280769  88.1490258 101.7742590  33.9886676  87.0104495
  98.7925451  52.9716574  79.0854858  98.2199418  53.5906761  78.6325329
  99.3658245  53.5215936  79.6194779 104.8600841  42.2175214  91.2701406
 105.8118264  42.3173312  91.2913630 104.6904291  41.4253483  91.7799491
 102.8815221  39.3030797  91.4560807 102.2865153  39.5835810  90.7607296
 102.5964917  39.7924698  92.2277548 102.0122711  53.2553724  80.2163440
 102.9453384  53.1899286  80.4196315 101.9245924  54.0909991  79.7577972
 104.6410728  52.5719595  77.1767387 104.5624359  52.2379458  78.0703145
 105.4620394  53.0641362  77.1758860 107.3388919  45.4381334  90.3843706
 107.3065239  44.4997335  90.5703390 107.9489542  45.5165371  89.6509531
  99.1772250  44.3077387  76.4270910 100.1231354  44.1783595  76.4959328
  98.7986495  43.5692049  76.9040338 107.4883407  42.2292377  90.4301989
 106.9722456  41.4450834  90.2431918 108.3723356  41.9011094  90.5948509
 105.1494134  35.9733393  86.3897802 104.9518955  35.6648481  87.2741134
 105.7593840  36.6995032  86.5195732 113.1565469  46.4997341  89.5249743
 113.8868857  46.2382629  90.0857446 112.5472414  45.7626063  89.5651811
 111.2380766  44.6405203  90.1224194 110.5113929  44.5061168  89.5140686
 110.8228053  44.9482032  90.9280912  99.0610942  48.3595133  97.8871567
  99.9813952  48.5373732  98.0811614  99.0260525  47.4151178  97.7351266
  97.3615167  42.2327363  76.3625795  96.4546622  41.9360476  76.4388509
  97.6391148  41.9357181  75.4960081  88.2793107  43.5533727  86.8124842
  87.9595892  42.6999035  86.5199216  87.7326535  43.7682305  87.5682809
  92.0573015  46.2696168  90.5294348  92.2759025  47.2013275  90.5482382
  92.4698789  45.9104142  91.3149152  98.9777233  36.7764253  82.5170037
  98.1677961  36.4311338  82.8925283  99.6661650  36.4671797  83.1057648
 100.9067781  35.8542300  84.1394333 101.4598819  36.2737753  84.7984356
 101.1437867  34.9278048  84.1817289  96.9300880  41.8429373  99.9197097
  96.8297607  42.7923730  99.8509188  96.7122422  41.5147612  99.0473167
  96.1313951  39.0914298  76.5037774  96.9933115  39.4169197  76.7633592
  96.3164296  38.3045794  75.9910840  88.1481367  47.1736638  88.7817963
  87.4544839  46.7590591  88.2687918  88.8954358  47.2157175  88.1851382
 104.2846588  37.9642825  83.6472997 103.7045257  38.6227629  83.2651050
 104.0182521  37.1420169  83.2360415 102.7350154  37.3647883  85.8494318
 103.2349933  37.4764417  85.0408637 103.3785762  37.0608935  86.4895126
  96.7932150  45.2726512  98.7362159  96.3099232  46.0726872  98.9426048
  96.8793089  45.2834457  97.7829603  90.0618110  47.1054892  86.6583978
  90.0388798  47.2042579  85.7065861  90.3718746  47.9520043  86.9801144
  92.7205488  49.1631047  90.7730593  93.6748741  49.1314989  90.7060524
  92.5218011  48.7021671  91.5880818  93.3104870  47.7332163  93.3401390
  94.1297759  48.2276242  93.3636227  93.5841677  46.8164131  93.3118958
 103.0671466  40.1242915  82.7029346 102.1797321  40.4092566  82.4849540
 103.4825455  39.9636679  81.8556623 106.4186002  40.1489436  86.4183685
 107.1946392  40.6385889  86.6908302 105.6934136  40.5747490  86.8755554
 108.8558561  40.8617055  87.4757626 109.4503052  40.6212791  86.7650934
 108.9285144  40.1424186  88.1031162  91.0755716  54.7050666  87.7900790
  90.9410184  53.9451067  87.2238788  90.6587779  55.4291566  87.3229579
 102.2114679  49.8887590  76.7977366 102.9150530  50.0937592  77.4135021
 101.4877328  50.4564352  77.0626449 103.0412490  45.6397451  82.9179636
 102.9847691  46.0966003  82.0787268 103.5940832  44.8788136  82.7402479
 106.8517296  41.4287183  83.7429755 106.5954230  41.0283819  84.5737963
 106.2270164  42.1430977  83.6179895 111.1629633  44.1683256  86.2501047
 110.6029191  44.2376446  87.0232609 110.5573137  43.9924241  85.5300543
  94.2324842  55.6019983  88.0019233  94.1157226  56.5465416  87.8997923
  93.4117289  55.2993545  88.3905032 104.1201377  50.3270119  78.8475826
 104.9546981  49.8951318  78.6653301 103.9585720  50.1552133  79.7752720
 103.7747269  46.8302232  80.2132165 103.7196073  46.6646504  79.2720609
 103.1493324  47.5378265  80.3694355  88.5639784  42.0670297  94.0393587
  89.2098648  41.5569251  94.5280812  88.3556935  42.8038978  94.6137013
 101.0893176  49.1351144  99.5385728 101.9584336  49.3091797  99.1772363
 100.6099928  49.9545561  99.4161457  97.0843394  36.3310341  79.7917483
  97.0722064  37.2752181  79.9485754  97.9766816  36.1480487  79.4976945
  95.2579356  56.2548245  91.2175161  96.1606603  56.2871856  91.5341656
  95.0316726  55.3248696  91.2321497  97.0132958  55.0079232  87.8785240
  96.0628589  55.0081093  87.7649612  97.3165445  54.2611966  87.3621275
 100.8995514  32.9253118  84.0463420 100.1327910  32.3711605  84.1920103
 101.3106219  32.9974987  84.9077572  92.9037275  39.2137914  98.1368601
  93.7668737  38.8574719  98.3471926  92.3302686  38.8751809  98.8244006
 112.7485652  60.8439770  88.9431002 113.3864062  60.7246518  88.2394343
 112.6306495  61.7920614  89.0018955 109.5575358  60.7967198  88.8792527
 109.2193870  60.6808263  87.9913062 110.4265126  60.3958363  88.8593533
 105.4162174  62.6502675  84.8689418 104.8527039  62.5592612  84.1005706
 105.3014569  61.8302579  85.3491911 110.0395141  61.9502050  94.8378733
 110.0283782  61.5554848  93.9659236 110.2015781  61.2168123  95.4312504
 102.9626606  64.1453866  87.7073639 103.7547898  63.8044691  87.2919938
 103.2023256  64.2548841  88.6275792 110.9961733  66.3173642  80.1803883
 110.3449712  66.9027723  79.7937897 111.7906095  66.8479837  80.2398921
 104.9217360  63.4062780  80.5791017 105.6948236  62.8591767  80.4403893
 105.2742759  64.2707029  80.7905479 106.7602402  64.7339162  93.7857917
 106.4692268  65.6384793  93.6704583 107.3959387  64.7755689  94.5001986
 107.6858609  62.1116010  90.3759276 108.2822181  61.8872033  89.6616239
 107.7433581  61.3700756  90.9784724 107.2583638  59.5655446  78.2109467
 107.5109158  59.0436967  77.4492930 106.3208197  59.4021591  78.3136151
 112.3026920  58.5691224  86.0184211 113.0890010  58.1510647  85.6674628
 112.5665625  59.4737316  86.1865859 112.4736998  64.0064074  80.7172867
 111.8382831  64.0798701  81.4293772 112.1434404  64.5957673  80.0391947
 117.7035348  58.5066457  86.9217189 118.4360519  57.9365674  87.1555019
 116.9474703  58.1188058  87.3623695 106.9779926  61.4683552  80.4133842
 106.8616184  60.7928455  81.0814927 107.0882186  60.9815926  79.5965995
 109.3211467  60.9293699  84.1180531 108.9569674  60.4024320  84.8293453
 110.1778583  60.5392168  83.9447017 115.2260768  52.2188031  91.3811798
 114.8944093  53.0883442  91.1573013 114.6306381  51.9024315  92.0605828
 108.9616954  55.9583598  79.1141880 109.1291357  56.8263835  79.4812351
 108.7714123  56.1210880  78.1903169 111.7192287  64.4200577  90.7807710
 111.4193011  65.3225616  90.6723518 111.3743347  64.1532761  91.6328863
 105.1704769  60.8714374  86.8144415 104.2455265  60.7390588  87.0222107
 105.4189182  61.6508593  87.3114357 115.1189431  56.9383118  88.4605148
 114.2106309  56.8698526  88.1663909 115.0677027  57.4155062  89.2886973
 108.9406175  58.4141256  80.0988547 108.8205800  58.8598307  80.9374027
 108.2458763  58.7626574  79.5402085 102.5313580  60.5147648  87.6488204
 102.6605961  60.7682127  88.5627616 101.8511031  61.1075356  87.3292859
 106.7013067  71.1844898  83.7478678 106.6237097  72.1352723  83.8267159
 106.0974711  70.8390770  84.4053604 109.1930297  58.3572763  96.4040045
 108.4163631  58.9166683  96.3942910 109.8320860  58.8429546  96.9254915
 116.9851078  55.1399556  90.2383022 116.3425458  55.4332089  89.5922816
 116.4806006  55.0252476  91.0436218 114.6391241  58.8862729  80.9268881
 115.5509097  59.1190116  80.7516578 114.1300888  59.4699773  80.3643959
 107.4476669  61.1658217  95.9658012 108.1891354  61.7043260  95.6892836
 106.7413655  61.7924505  96.1229564 112.9232009  63.3087357  94.5630173
 113.3315365  62.8669767  93.8184806 112.2009270  62.7339984  94.8164366
 109.2763079  58.2459964  91.9363730 110.1224274  58.6699377  92.0798379
 109.2161717  57.5893588  92.6302294 113.2460824  63.8688548  88.3182462
 112.6169686  64.0334262  87.6158530 112.8586486  64.2830157  89.0893426
 117.1250055  64.8042985  85.6726826 116.4401094  65.1841887  85.1223859
 117.2093905  65.4138312  86.4058774 112.4262524  55.9064332  93.5944904
 112.1823456  56.6606393  93.0579180 112.7022455  56.2849680  94.4292151
 114.3800987  62.4502944  92.2722170 114.5917882  63.0934704  91.5956551
 114.3330735  61.6165261  91.8044100 111.9827216  55.0620765  89.1758742
 111.1211695  55.3602019  89.4675479 112.0089651  55.2791164  88.2439774
 108.7988785  63.6062956  85.5832547 109.2627131  63.8850659  84.7937170
 108.5345584  62.7046400  85.4005638 105.6912867  63.1534437  88.5212311
 106.2614224  63.5821706  87.8829795 106.2820978  62.8717022  89.2196496
 107.7357672  59.7286108  82.3922113 108.4381715  60.1807152  82.8596039
 107.4038300  59.0869927  83.0202006 106.1838033  58.3197865  96.7673322
 105.5536694  59.0014146  97.0008719 106.0774121  58.2080946  95.8226460
 101.4783005  57.9869661  87.6939246 100.6882059  58.2427189  87.2179357
 101.9694253  58.8017999  87.7991287 115.4946815  65.3274900  90.4444527
 116.3164259  64.9255087  90.1627209 115.4909218  65.2243134  91.3960643
 103.4297751  58.3514240  84.6522723 102.6328914  58.4632934  85.1706219
 103.2023343  58.6900892  83.7863613 109.2603418  64.8758943  92.6005237
 109.3247851  65.3379350  93.4363409 108.5514342  64.2456308  92.7287547
  99.7620708  58.2400151  90.1254237 100.0128747  59.1247161  90.3911813
 100.2980257  58.0604753  89.3529329 108.9751436  66.5427051  82.4684218
 108.8397111  67.3878586  82.8969066 109.5161249  66.7446328  81.7050152
 105.4618776  52.6218631  99.1298573 105.0685721  52.0684829  99.8046217
 106.2784916  52.9329209  99.5205091 102.4280834  64.0602489  83.0412143
 102.9405354  64.8545739  83.1917708 103.0803546  63.3628779  82.9745744
 104.2375718  67.1768245  85.1234896 104.4142347  68.0986210  84.9355880
 105.0332552  66.8626664  85.5529276 108.3786737  54.0376510  96.7218830
 109.1196450  54.6383663  96.6423292 108.6104660  53.2954147  96.1636872
 103.5228075  59.2232877  94.9997059 103.4081590  58.3218134  95.3004158
 102.6672593  59.4696574  94.6481876 110.6019913  67.1650617  96.5984560
 110.1583767  66.3786996  96.2805464 111.2637126  67.3529768  95.9328451
 105.3607034  68.6946419  91.1245238 105.9114459  68.5663482  90.3522232
 104.5218510  68.9941308  90.7740131 112.7001151  67.4453417  94.6265961
 112.6819626  68.2662298  94.1346230 113.6221071  67.3207492  94.8516102
 109.1574205  64.9597547  95.4689470 109.6902542  64.1985835  95.2388777
 108.6288286  64.6671198  96.2113624 112.3243900  50.0657613  90.9983111
 111.9808169  50.9559254  90.9222222 112.6922862  49.8759270  90.1352696
 100.3929750  62.3891143  83.8171713 101.2304972  62.7988151  83.6005421
 100.5708018  61.4490585  83.7871907 112.2894182  60.0566224  79.5055546
 111.7740806  60.8270828  79.7443934 112.0171491  59.3831360  80.1288608
 109.8741293  54.9015924  84.5640785 109.0182890  54.5122775  84.3846423
 110.2868245  54.9807885  83.7040570 111.4040440  52.4362268  88.9632345
 110.9005236  52.3992403  88.1500150 111.6971047  53.3455010  89.0229001
 107.6483326  52.5200997  87.9698526 108.5136323  52.3243806  87.6104416
 107.7160835  52.2911349  88.8967883 117.2628457  62.8098578  81.4408720
 116.4857899  62.4709738  80.9963882 117.9419938  62.8151201  80.7663685
 112.0780486  57.9293316  81.3315328 111.7730621  58.2439465  82.1825471
 113.0310928  58.0074736  81.3742661 110.5226917  64.0883539  82.9808282
 109.9948279  63.3536299  82.6681519 110.0214420  64.8658215  82.7348250
 115.5019763  62.2832560  88.0975328 114.8443438  62.9731821  88.1855456
 116.3060163  62.6728992  88.4409314 105.2545645  54.7503205  85.3414893
 105.8289397  54.5278387  84.6088086 105.8416627  54.8191900  86.0943494
 114.3125222  60.6376932  86.1479270 114.8257104  61.2706924  86.6500979
 114.9626446  60.0378128  85.7822630 105.5815232  56.7807666  79.3610778
 104.7452544  57.1182353  79.6820053 105.4420002  56.6456646  78.4237915
 107.5568313  51.6244454  84.0689962 106.9032725  51.3093471  83.4446577
 107.5148787  51.0020195  84.7949785 108.6679518  61.9063749  75.9843255
 107.7606579  61.6753003  76.1834404 109.1650550  61.1101369  76.1717236
 111.5747597  70.6161257  78.9039941 110.9009295  70.9192953  79.5124899
 111.9613418  71.4190337  78.5545398 110.7906053  58.1126388  88.3937610
 109.8728615  58.3341335  88.2359298 111.2066197  58.1872698  87.5349317
 111.5741101  59.5117803  83.5240290 112.3212920  60.0239201  83.2147412
 111.8432690  59.1901856  84.3844684 109.8467751  62.0076344  80.5067245
 108.9378970  61.7235377  80.6039714 109.8762835  62.4275423  79.6470552
 115.0787018  65.6182934  84.2758412 114.6249346  64.7773844  84.3323603
 114.4480985  66.2544332  84.6133192 114.0219938  56.5474920  85.5059080
 113.2842695  56.0352306  85.8369322 114.2746712  56.1075301  84.6942357
 113.5219958  67.4559430  85.2108230 113.8142932  68.0164488  84.4920596
 114.0318578  67.7487991  85.9661389 114.1231565  49.3251172  86.1000849
 114.4290442  48.4648535  85.8126764 114.8484170  49.9168792  85.8999843
 100.4155921  59.7281858  84.4882447 100.2180321  59.1351219  83.7633513
  99.8602585  59.4234069  85.2058386 108.3952645  59.6204965  86.6077040
 108.4501255  58.6678801  86.5319517 107.5843847  59.7764404  87.0918338
 109.5443839  63.5485088  77.8455323 109.1063269  62.8320947  77.3860961
 110.2854280  63.7761203  77.2840415 106.3345005  58.2382025  84.3667419
 105.5212871  58.5376195  84.7732611 106.8303999  57.8437713  85.0841901
 108.4853583  68.2339781  86.3001684 108.4429762  68.4600628  85.3710216
 109.4016282  68.0003156  86.4487485 111.9319217  58.7023849  93.1982313
 112.2868604  58.9295322  94.0576779 112.5791348  59.0342226  92.5759568
 117.6616954  61.8242285  83.9031642 117.5234852  62.0143881  82.9752831
 117.3053172  62.5861668  84.3599693 105.8259080  55.8100380  89.9828654
 106.4658459  55.6689139  89.2851617 104.9936610  55.5234893  89.6067256
 117.6886333  63.8918812  88.9142913 118.1222840  63.7994101  89.7625967
 118.4017914  63.8676312  88.2762929 106.6019384  65.1102810  86.0963646
 107.3959982  64.6153131  85.8946221 105.8911076  64.5820674  85.7331352
 111.4214228  67.4920906  90.4476014 111.4751250  68.0611842  91.2153730
 110.5529010  67.6622791  90.0830051 102.9102147  59.2545892  82.1723399
 101.9799735  59.1930348  82.3893361 103.0059619  58.7321845  81.3760040
 102.8287696  55.7800705  84.7601641 103.0894514  56.6946038  84.6510801
 103.6504869  55.3125148  84.9098253 104.3012622  57.1938462  91.9300465
 104.9735675  56.9855824  91.2813114 103.4742408  56.9960548  91.4905697
 118.5501883  63.9342513  91.4475799 118.7437773  64.8388323  91.6935074
 118.4502501  63.4749932  92.2814384 110.2038194  53.8200403  93.9466126
 109.5566109  54.5190353  93.8530602 110.9739209  54.2536547  94.3142374
 113.6116991  64.0849255  97.0216679 113.4602498  63.8559807  96.1046763
 113.6021671  65.0419857  97.0348024 110.3802328  61.6581168  92.0062946
 111.3094388  61.8092328  91.8331913 109.9593358  61.7465189  91.1511592
 109.1790660  65.6831832  89.7761483 109.0401745  65.3150617  90.6487421
 108.3905256  66.1979472  89.6045441 109.7738812  70.7840929  81.1187020
 109.9490567  70.3128972  81.9332643 109.0871600  71.4106695  81.3468281
 110.7295875  65.0613435  87.1650321 110.3945707  65.0214205  88.0607971
 110.2299821  64.3958151  86.6920731 104.7040119  60.4681065  92.6902902
 104.5659917  59.7361304  93.2914441 105.6145042  60.3789965  92.4087090
 113.6655066  62.4069470  77.4387381 113.0484237  61.6816298  77.3420433
 113.1971555  63.1678830  77.0954455 107.3322419  60.1801025  92.1786582
 108.0422038  59.5394217  92.1373200 107.2891728  60.4313919  93.1012763
 115.3209198  67.1168378  95.0993161 115.2621744  66.4327598  94.4323744
 115.7228717  67.8587368  94.6473787 106.0451353  57.1666242  93.9982221
 105.5088710  56.7156981  94.6503818 105.4568062  57.3012151  93.2552686
 104.3399897  73.9330292  87.8926880 104.5796495  74.5648816  88.5705899
 103.4969093  73.5818332  88.1792239 105.4553612  56.6254894  76.5608685
 104.5783079  56.5043695  76.1970932 105.9311365  55.8340972  76.3087574
 115.3226605  65.0807962  93.3307141 114.4353384  64.7433884  93.4533540
 115.8925156  64.3490993  93.5675906  96.9755753  61.4132054  86.6550192
  97.6626792  61.0993784  86.0671208  96.8203881  62.3173418  86.3817444
 101.7790475  56.3022250  91.0835216 101.6948663  55.6947920  90.3485626
 100.9573181  56.7931268  91.0844712 108.8527759  69.7409414  90.2968384
 108.7797930  70.5464386  90.8087689 108.4105152  69.9401380  89.4716405
 108.6417538  68.9781184  83.8071206 107.8585060  69.5202864  83.9009430
 109.3410284  69.4955164  84.2065447 111.9514189  54.7875814  86.4505411
 112.4482888  54.0345776  86.1306481 111.1801170  54.8240130  85.8848620
 119.8043946  60.4916179  88.0923702 119.7933822  61.3740895  87.7217636
 118.9361325  60.1387730  87.8978240 111.3126442  69.6396248  92.4526543
 112.0254415  70.2743713  92.3802444 110.8216471  69.7360114  91.6366545
 113.0343969  63.5447501  84.0243834 112.1000248  63.6648963  83.8548539
 113.2120638  62.6419968  83.7603844 108.5349157  56.9293197  86.1777096
 108.1646945  56.3764237  86.8658001 109.0308250  56.3251330  85.6252096
 116.4216521  59.3864820  84.5593869 116.8876973  60.2192812  84.4854171
 116.8724021  58.9209802  85.2639127 106.3638356  67.3890692  93.2732114
 107.0647815  68.0227175  93.4261508 105.8933471  67.7305423  92.5127753
 114.4892752  65.7308641  81.5580021 114.7652596  65.6165236  82.4673895
 113.6197250  65.3326126  81.5192194 114.3933183  51.7545407  88.5984770
 113.4796263  51.9849634  88.7666977 114.8226285  51.8383851  89.4498802
 114.1639642  59.9435299  91.0984664 113.5111092  60.1911207  90.4437117
 114.5420022  59.1299437  90.7647141 111.1246816  69.9794992  85.2012834
 111.3069210  69.1616648  85.6640587 111.9479802  70.1962685  84.7637724
 111.4588981  68.9063177  82.4627883 111.9876748  68.3955632  81.8498045
 111.7217201  68.5905708  83.3273416 110.2127215  60.6855110  97.5850701
 109.5367852  60.5849239  98.2553076 111.0354849  60.5294324  98.0486698
 101.9606074  66.9227047  90.2063216 102.5459511  66.1770735  90.3391120
 101.7630912  67.2331003  91.0899880 104.8144729  69.9578294  85.2225659
 104.1455104  70.4424422  84.7389699 104.6757599  70.2047515  86.1369037
  96.5523729  59.4932647  88.9267659  96.5907828  58.9596238  89.7204777
  96.0464021  58.9667852  88.3078637 108.9549998  71.9922038  91.8208317
 109.5068306  72.1553659  92.5857402 109.2956191  72.5826475  91.1488342
 103.9314491  54.3397187  92.4230202 103.9955817  55.2012018  92.0107599
 103.8681611  53.7271189  91.6902560 103.4066763  56.4120320  96.0703236
 104.0338802  56.0297397  96.6840760 102.5494682  56.1934522  96.4358928
 113.8060872  66.8183295  97.6756971 114.3500776  67.4313253  97.1811926
 113.2247717  67.3762874  98.1923984 100.1832306  58.2196749  82.0021591
 100.4785747  57.3107427  81.9488644  99.2820342  58.1984489  81.6802593
 112.0918385  69.9404013  88.8071999 111.9669524  69.1393753  88.2982945
 112.7497476  70.4350207  88.3185969 103.7126553  56.2952746  87.9849139
 102.9913139  56.9088713  87.8456613 104.5019809  56.8310510  87.9065785
 114.1553293  67.7413033  90.4351549 113.2083629  67.6218384  90.3629876
 114.5036067  66.8535531  90.5177811 106.5152867  53.6307172  94.2589791
 107.0387269  53.8769469  95.0216100 106.2965200  54.4627207  93.8392928
 101.9120148  55.9010847  82.1260916 101.5832854  55.0208226  81.9436022
 102.2659519  55.8458515  83.0137305 111.1599727  67.5365749  86.6355901
 111.0124689  66.6082457  86.8163471 111.9853220  67.5585840  86.1512977
 105.0261971  56.1883817  82.4936394 105.3658043  56.7169738  81.7715002
 105.4734091  56.5264223  83.2694960 114.7633849  68.3594308  87.7220774
 115.6880396  68.1537170  87.5845225 114.5949152  68.1110709  88.6310116
 107.7205412  54.5720867  91.9439462 107.3802232  53.7728680  92.3460142
 107.0144418  54.8722578  91.3716295 108.3721884  51.6570180  90.3966785
 109.1947953  51.1830658  90.2745675 108.6159947  52.4360663  90.8965471
 107.0130118  54.6858438  80.6929686 107.7338481  55.0639691  80.1893403
 106.3895422  55.4047315  80.7964664 111.1561241  55.3903587  81.6288019
 111.3724855  56.2728225  81.3276847 110.6755308  54.9989801  80.8993661
 105.8960462  58.3489300  88.2058763 105.7505043  58.6629603  89.0983045
 105.4185666  58.9674201  87.6529662 107.7556845  55.3391848  88.2539653
 107.7418414  54.4432942  87.9171951 108.4729273  55.3462512  88.8877939
 109.6082976  55.7729189  90.2992780 109.3500754  56.6946259  90.2977111
 109.0768016  55.3759623  90.9893244 114.5529165  68.8779976  83.0782866
 114.7266042  68.3126398  82.3256718 115.0458056  69.6780871  82.8962356
 100.3706125  60.8894645  91.1446424  99.8259593  61.6654453  91.2766699
 101.2485474  61.2365449  90.9865546 107.1593741  54.2206229  83.5227223
 107.2809652  53.2922875  83.7218110 106.8695784  54.2344915  82.6105538
 110.0284932  51.9061139  86.6593943 110.0506628  51.9700472  85.7045922
 110.4452991  51.0665648  86.8534449 120.4068556  61.6416399  84.6973165
 120.8499702  60.8923724  84.2992289 119.5295066  61.6326535  84.3146897
 115.5404337  68.1946740  80.1779764 116.2355242  68.8153433  80.3967079
 115.8827487  67.3442091  80.4532142 101.1572146  60.0164541  94.0376581
 100.4153882  60.1647176  94.6241212 100.8364891  60.2772807  93.1743331
 117.4395760  65.6446446  81.7067095 117.9647084  65.9833718  80.9816415
 117.3518113  64.7093461  81.5230229 109.1015809  69.5580519  93.8356971
 109.4102935  69.3129666  94.7079671 109.8991291  69.7627158  93.3475842
 109.1236421  71.7118429  86.0662348 108.6841411  71.2194808  86.7595205
 109.8744538  71.1691397  85.8254423 101.6028760  67.9029970  86.0686976
 102.4286780  67.6033742  85.6885619 101.2522812  67.1337592  86.5176765
 106.5710293  67.2556438  88.1384650 105.9490303  66.5927143  87.8386877
 107.2415160  67.2817570  87.4558297  99.8037365  65.8216296  87.0275910
  98.9669273  65.3938471  86.8459911  99.7761011  66.0148740  87.9646701
 106.6434821  55.7338226  97.7317156 106.6922976  56.6100349  97.3494925
 107.1857335  55.1915619  97.1588799 117.1289666  66.2779349  97.0118293
 116.3385210  66.2603488  96.4722792 116.8923021  66.8167643  97.7667329
 117.2487541  63.1271816  94.3251021 117.2985546  62.9621823  95.2666544
 117.1401465  62.2599075  93.9348902 106.1323800  65.8060361  81.6143110
 106.2811921  66.4895826  80.9609783 106.9390244  65.7865451  82.1292566
 114.5391304  59.1102744  95.6410328 115.4401167  58.9709208  95.3494326
 114.6139278  59.2757198  96.5808505 108.8734109  56.4869598  94.4863514
 108.0037419  56.7803164  94.2146103 109.1093590  57.0710043  95.2070778
 118.7505738  65.5468757  94.5693043 118.4590547  65.9098738  95.4056504
 118.1377870  64.8335765  94.3906375 119.9501421  63.1121637  87.0895613
 120.7848312  63.5511441  87.2533173 120.0860549  62.6360290  86.2703859
 116.9992927  60.6701372  93.0373101 117.4747048  60.8629018  92.2291952
 116.0758492  60.7260558  92.7916484 103.8876433  61.8325539  82.6204179
 103.6422475  60.9287869  82.8184389 104.0572348  61.8342689  81.6783657
 111.5773143  52.7049215  92.0028935 112.0955087  53.4410242  91.6775423
 111.2228276  53.0113209  92.8375694 103.1572081  57.5653896  80.1190340
 102.4641326  57.6398251  79.4630376 102.9123833  56.8014240  80.6411857
 111.8285737  49.1249498  87.5229831 112.1087491  48.4572687  88.1490258
 112.6136344  49.3178593  87.0104495 109.6319206  68.3008492  79.0854858
 109.0593173  68.9198679  78.6325329 110.2051999  68.8507853  79.6194779
 115.6994596  57.5467132  91.2701406 116.6512018  57.6465229  91.2913630
 115.5298046  56.7545400  91.7799491 113.7208975  54.6322715  91.4560807
 113.1258907  54.9127728  90.7607296 113.4358672  55.1216616  92.2277548
 112.8516465  68.5845642  80.2163440 113.7847139  68.5191204  80.4196315
 112.7639678  69.4201909  79.7577972 115.4804482  67.9011512  77.1767387
 115.4018114  67.5671376  78.0703145 116.3014149  68.3933280  77.1758860
 118.1782673  60.7673252  90.3843706 118.1458993  59.8289252  90.5703390
 118.7883297  60.8457288  89.6509531 110.0166004  59.6369304  76.4270910
 110.9625109  59.5075513  76.4959328 109.6380249  58.8983966  76.9040338
 118.3277162  57.5584295  90.4301989 117.8116210  56.7742752  90.2431918
 119.2117110  57.2303012  90.5948509 115.9887889  51.3025311  86.3897802
 115.7912710  50.9940399  87.2741134 116.5987594  52.0286949  86.5195732
 109.9004697  63.6887051  97.8871567 110.8207706  63.8665650  98.0811614
 109.8654280  62.7443096  97.7351266 108.2008921  57.5619281  76.3625795
 107.2940377  57.2652394  76.4388509 108.4784902  57.2649099  75.4960081
  99.1186862  58.8825644  86.8124842  98.7989646  58.0290952  86.5199216
  98.5720290  59.0974222  87.5682809 102.8966769  61.5988085  90.5294348
 103.1152779  62.5305193  90.5482382 103.3092543  61.2396060  91.3149152
 109.8170987  52.1056171  82.5170037 109.0071715  51.7603256  82.8925283
 110.5055404  51.7963714  83.1057648 111.7461535  51.1834217  84.1394333
 112.2992574  51.6029671  84.7984356 111.9831622  50.2569965  84.1817289
 107.7694635  57.1721291  99.9197097 107.6691361  58.1215648  99.8509188
 107.5516177  56.8439530  99.0473167 106.9707706  54.4206216  76.5037774
 107.8326870  54.7461114  76.7633592 107.1558050  53.6337712  75.9910840
  98.9875122  62.5028556  88.7817963  98.2938593  62.0882509  88.2687918
  99.7348113  62.5449092  88.1851382 115.1240342  53.2934743  83.6472997
 114.5439011  53.9519547  83.2651050 114.8576275  52.4712087  83.2360415
 113.5743909  52.6939800  85.8494318 114.0743687  52.8056335  85.0408637
 114.2179517  52.3900853  86.4895126 107.6325905  60.6018430  98.7362159
 107.1492986  61.4018790  98.9426048 107.7186844  60.6126375  97.7829603
 100.9011864  62.4346810  86.6583978 100.8782552  62.5334497  85.7065861
 101.2112501  63.2811960  86.9801144 103.5599242  64.4922965  90.7730593
 104.5142496  64.4606907  90.7060524 103.3611766  64.0313588  91.5880818
 104.1498624  63.0624081  93.3401390 104.9691513  63.5568159  93.3636227
 104.4235432  62.1456049  93.3118958 113.9065220  55.4534833  82.7029346
 113.0191075  55.7384484  82.4849540 114.3219210  55.2928596  81.8556623
 117.2579757  55.4781354  86.4183685 118.0340147  55.9677806  86.6908302
 116.5327891  55.9039408  86.8755554 119.6952315  56.1908973  87.4757626
 120.2896806  55.9504709  86.7650934 119.7678899  55.4716104  88.1031162
 101.9149471  70.0342584  87.7900790 101.7803939  69.2742985  87.2238788
 101.4981533  70.7583484  87.3229579 113.0508434  65.2179508  76.7977366
 113.7544284  65.4229510  77.4135021 112.3271083  65.7856269  77.0626449
 113.8806244  60.9689369  82.9179636 113.8241446  61.4257920  82.0787268
 114.4334587  60.2080053  82.7402479 117.6911050  56.7579101  83.7429755
 117.4347984  56.3575736  84.5737963 117.0663918  57.4722895  83.6179895
 105.0718597  70.9311901  88.0019233 104.9550981  71.8757334  87.8997923
 104.2511043  70.6285463  88.3905032 114.9595131  65.6562037  78.8475826
 115.7940735  65.2243235  78.6653301 114.7979474  65.4844050  79.7752720
 114.6141024  62.1594150  80.2132165 114.5589827  61.9938422  79.2720609
 113.9887079  62.8670183  80.3694355  99.4033538  57.3962214  94.0393587
 100.0492402  56.8861168  94.5280812  99.1950690  58.1330896  94.6137013
 111.9286931  64.4643062  99.5385728 112.7978090  64.6383714  99.1772363
 111.4493682  65.2837479  99.4161457 107.9237149  51.6602259  79.7917483
 107.9115819  52.6044099  79.9485754 108.8160571  51.4772405  79.4976945
 106.0973111  71.5840163  91.2175161 107.0000358  71.6163773  91.5341656
 105.8710481  70.6540614  91.2321497 107.8526713  70.3371150  87.8785240
 106.9022344  70.3373011  87.7649612 108.1559199  69.5903884  87.3621275
 111.7389268  48.2545036  84.0463420 110.9721664  47.7003522  84.1920103
 112.1499973  48.3266905  84.9077572 103.7431029  54.5429832  98.1368601
 104.6062491  54.1866636  98.3471926 103.1696440  54.2043726  98.8244006
 120.3969113  76.1259116  88.8792527 120.0587624  76.0100181  87.9913062
 121.2658881  75.7250281  88.8593533 116.2555928  77.9794592  84.8689418
 115.6920794  77.8884529  84.1005706 116.1408323  77.1594497  85.3491911
 120.8788896  77.2793968  94.8378733 120.8677536  76.8846766  93.9659236
 121.0409535  76.5460040  95.4312504 113.8020360  79.4745784  87.7073639
 114.5941652  79.1336609  87.2919938 114.0417010  79.5840759  88.6275792
 115.7611114  78.7354697  80.5791017 116.5341990  78.1883684  80.4403893
 116.1136513  79.5998947  80.7905479 117.5996157  80.0631080  93.7857917
 117.3086023  80.9676710  93.6704583 118.2353141  80.1047607  94.5001986
 118.5252364  77.4407928  90.3759276 119.1215936  77.2163950  89.6616239
 118.5827335  76.6992674  90.9784724 118.0977392  74.8947363  78.2109467
 118.3502913  74.3728885  77.4492930 117.1601951  74.7313509  78.3136151
 117.8173681  76.7975469  80.4133842 117.7009939  76.1220373  81.0814927
 117.9275941  76.3107843  79.5965995 120.1605222  76.2585616  84.1180531
 119.7963429  75.7316237  84.8293453 121.0172338  75.8684086  83.9447017
 119.8010709  71.2875516  79.1141880 119.9685111  72.1555753  79.4812351
 119.6107878  71.4502798  78.1903169 116.0098523  76.2006292  86.8144415
 115.0849020  76.0682506  87.0222107 116.2582937  76.9800511  87.3114357
 119.7799930  73.7433174  80.0988547 119.6599555  74.1890224  80.9374027
 119.0852518  74.0918491  79.5402085 113.3707334  75.8439565  87.6488204
 113.4999716  76.0974044  88.5627616 112.6904786  76.4367273  87.3292859
 117.5406822  86.5136815  83.7478678 117.4630851  87.4644640  83.8267159
 116.9368465  86.1682688  84.4053604 120.0324051  73.6864681  96.4040045
 119.2557386  74.2458601  96.3942910 120.6714615  74.1721464  96.9254915
 118.2870424  76.4950134  95.9658012 119.0285108  77.0335178  95.6892836
 117.5807409  77.1216423  96.1229564 120.1156833  73.5751881  91.9363730
 120.9618029  73.9991295  92.0798379 120.0555471  72.9185506  92.6302294
 119.6382540  78.9354873  85.5832547 120.1020885  79.2142576  84.7937170
 119.3739338  78.0338318  85.4005638 116.5306621  78.4826355  88.5212311
 117.1007978  78.9113623  87.8829795 117.1214733  78.2008940  89.2196496
 118.5751426  75.0578026  82.3922113 119.2775469  75.5099069  82.8596039
 118.2432055  74.4161845  83.0202006 117.0231788  73.6489782  96.7673322
 116.3930448  74.3306063  97.0008719 116.9167875  73.5372864  95.8226460
 112.3176760  73.3161578  87.6939246 111.5275814  73.5719107  87.2179357
 112.8088007  74.1309916  87.7991287 114.2691505  73.6806158  84.6522723
 113.4722669  73.7924852  85.1706219 114.0417098  74.0192810  83.7863613
 120.0997173  80.2050861  92.6005237 120.1641605  80.6671268  93.4363409
 119.3908097  79.5748226  92.7287547 110.6014463  73.5692069  90.1254237
 110.8522501  74.4539079  90.3911813 111.1374011  73.3896670  89.3529329
 119.8145191  81.8718968  82.4684218 119.6790865  82.7170504  82.8969066
 120.3555003  82.0738246  81.7050152 116.3012530  67.9510548  99.1298573
 115.9079476  67.3976747  99.8046217 117.1178671  68.2621127  99.5205091
 113.2674588  79.3894406  83.0412143 113.7799109  80.1837657  83.1917708
 113.9197301  78.6920697  82.9745744 115.0769473  82.5060163  85.1234896
 115.2536101  83.4278127  84.9355880 115.8726306  82.1918582  85.5529276
 119.2180491  69.3668427  96.7218830 119.9590205  69.9675580  96.6423292
 119.4498414  68.6246065  96.1636872 114.3621829  74.5524795  94.9997059
 114.2475344  73.6510052  95.3004158 113.5066347  74.7988491  94.6481876
 116.2000788  84.0238336  91.1245238 116.7508213  83.8955400  90.3522232
 115.3612264  84.3233225  90.7740131 119.9967959  80.2889464  95.4689470
 120.5296296  79.5277752  95.2388777 119.4682040  79.9963116  96.2113624
 111.2323505  77.7183061  83.8171713 112.0698727  78.1280069  83.6005421
 111.4101773  76.7782503  83.7871907 120.7135048  70.2307842  84.5640785
 119.8576644  69.8414693  84.3846423 121.1262000  70.3099803  83.7040570
 118.4877080  67.8492915  87.9698526 119.3530077  67.6535724  87.6104416
 118.5554589  67.6203267  88.8967883 121.3620672  79.4175457  82.9808282
 120.8342034  78.6828216  82.6681519 120.8608175  80.1950133  82.7348250
 116.0939400  70.0795123  85.3414893 116.6683151  69.8570305  84.6088086
 116.6810382  70.1483818  86.0943494 116.4208987  72.1099584  79.3610778
 115.5846299  72.4474271  79.6820053 116.2813756  71.9748564  78.4237915
 118.3962067  66.9536372  84.0689962 117.7426480  66.6385389  83.4446577
 118.3542541  66.3312112  84.7949785 119.5073272  77.2355667  75.9843255
 118.6000334  77.0044920  76.1834404 120.0044304  76.4393286  76.1717236
 120.6861506  77.3368262  80.5067245 119.7772725  77.0527295  80.6039714
 120.7156589  77.7567340  79.6470552 111.2549676  75.0573776  84.4882447
 111.0574076  74.4643137  83.7633513 110.6996340  74.7525986  85.2058386
 119.2346400  74.9496882  86.6077040 119.2895009  73.9970719  86.5319517
 118.4237602  75.1056322  87.0918338 120.3837593  78.8777006  77.8455323
 119.9457023  78.1612864  77.3860961 121.1248034  79.1053120  77.2840415
 117.1738760  73.5673942  84.3667419 116.3606625  73.8668113  84.7732611
 117.6697754  73.1729631  85.0841901 119.3247337  83.5631699  86.3001684
 119.2823516  83.7892545  85.3710216 120.2410036  83.3295074  86.4487485
 116.6652834  71.1392298  89.9828654 117.3052214  70.9981057  89.2851617
 115.8330365  70.8526811  89.6067256 117.4413138  80.4394728  86.0963646
 118.2353737  79.9445048  85.8946221 116.7304831  79.9112591  85.7331352
 113.7495902  74.5837810  82.1723399 112.8193490  74.5222265  82.3893361
 113.8453374  74.0613763  81.3760040 113.6681451  71.1092623  84.7601641
 113.9288268  72.0237956  84.6510801 114.4898623  70.6417065  84.9098253
 115.1406376  72.5230380  91.9300465 115.8129429  72.3147742  91.2813114
 114.3136163  72.3252466  91.4905697 120.0184414  81.0123750  89.7761483
 119.8795500  80.6442535  90.6487421 119.2299010  81.5271390  89.6045441
 120.6132566  86.1132847  81.1187020 120.7884322  85.6420890  81.9332643
 119.9265354  86.7398613  81.3468281 121.5689629  80.3905353  87.1650321
 121.2339462  80.3506123  88.0607971 121.0693575  79.7250069  86.6920731
 115.5433873  75.7972983  92.6902902 115.4053671  75.0653222  93.2914441
 116.4538797  75.7081883  92.4087090 118.1716174  75.5092942  92.1786582
 118.8815792  74.8686134  92.1373200 118.1285482  75.7605837  93.1012763
 116.8845108  72.4958160  93.9982221 116.3482465  72.0448899  94.6503818
 116.2961816  72.6304069  93.2552686 115.1793651  89.2622209  87.8926880
 115.4190250  89.8940734  88.5705899 114.3362848  88.9110249  88.1792239
 116.2947367  71.9546812  76.5608685 115.4176833  71.8335612  76.1970932
 116.7705120  71.1632890  76.3087574 107.8149507  76.7423971  86.6550192
 108.5020547  76.4285701  86.0671208 107.6597636  77.6465336  86.3817444
 112.6184229  71.6314168  91.0835216 112.5342418  71.0239837  90.3485626
 111.7966936  72.1223186  91.0844712 119.6921513  85.0701332  90.2968384
 119.6191685  85.8756303  90.8087689 119.2498906  85.2693298  89.4716405
 119.4811293  84.3073102  83.8071206 118.6978815  84.8494782  83.9009430
 120.1804038  84.8247082  84.2065447 119.3742912  72.2585114  86.1777096
 119.0040699  71.7056155  86.8658001 119.8702004  71.6543248  85.6252096
 117.2032110  82.7182609  93.2732114 117.9041570  83.3519092  93.4261508
 116.7327225  83.0597341  92.5127753 112.7999828  82.2518964  90.2063216
 113.3853265  81.5062652  90.3391120 112.6024667  82.5622921  91.0899880
 115.6538484  85.2870212  85.2225659 114.9848859  85.7716339  84.7389699
 115.5151353  85.5339432  86.1369037 107.3917483  74.8224565  88.9267659
 107.4301583  74.2888155  89.7204777 106.8857776  74.2959770  88.3078637
 119.7943752  87.3213955  91.8208317 120.3462060  87.4845577  92.5857402
 120.1349946  87.9118393  91.1488342 114.7708245  69.6689105  92.4230202
 114.8349572  70.5303936  92.0107599 114.7075366  69.0563107  91.6902560
 114.2460518  71.7412238  96.0703236 114.8732557  71.3589315  96.6840760
 113.3888437  71.5226440  96.4358928 111.0226061  73.5488667  82.0021591
 111.3179502  72.6399345  81.9488644 110.1214096  73.5276406  81.6802593
 114.5520308  71.6244663  87.9849139 113.8306893  72.2380631  87.8456613
 115.3413563  72.1602428  87.9065785 117.3546621  68.9599090  94.2589791
 117.8781023  69.2061386  95.0216100 117.1358955  69.7919125  93.8392928
 112.7513902  71.2302764  82.1260916 112.4226608  70.3500143  81.9436022
 113.1053273  71.1750433  83.0137305 115.8655725  71.5175734  82.4936394
 116.2051798  72.0461655  81.7715002 116.3127846  71.8556140  83.2694960
 118.5599166  69.9012785  91.9439462 118.2195987  69.1020598  92.3460142
 117.8538173  70.2014496  91.3716295 119.2115638  66.9862097  90.3966785
 120.0341707  66.5122576  90.2745675 119.4553702  67.7652581  90.8965471
 117.8523873  70.0150356  80.6929686 118.5732235  70.3931609  80.1893403
 117.2289177  70.7339233  80.7964664 116.7354217  73.6781218  88.2058763
 116.5898798  73.9921521  89.0983045 116.2579421  74.2966118  87.6529662
 118.5950600  70.6683766  88.2539653 118.5812169  69.7724859  87.9171951
 119.3123028  70.6754430  88.8877939 120.4476730  71.1021106  90.2992780
 120.1894508  72.0238177  90.2977111 119.9161771  70.7051541  90.9893244
 111.2099879  76.2186562  91.1446424 110.6653347  76.9946370  91.2766699
 112.0879229  76.5657367  90.9865546 117.9987496  69.5498146  83.5227223
 118.1203407  68.6214792  83.7218110 117.7089538  69.5636832  82.6105538
 120.8678686  67.2353057  86.6593943 120.8900383  67.2992390  85.7045922
 121.2846745  66.3957565  86.8534449 111.9965901  75.3456459  94.0376581
 111.2547637  75.4939094  94.6241212 111.6758645  75.6064724  93.1743331
 119.9409564  84.8872437  93.8356971 120.2496690  84.6421584  94.7079671
 120.7385046  85.0919075  93.3475842 119.9630176  87.0410347  86.0662348
 119.5235166  86.5486725  86.7595205 120.7138293  86.4983314  85.8254423
 112.4422515  83.2321887  86.0686976 113.2680534  82.9325659  85.6885619
 112.0916567  82.4629510  86.5176765 117.4104048  82.5848356  88.1384650
 116.7884057  81.9219061  87.8386877 118.0808915  82.6109487  87.4558297
 110.6431120  81.1508214  87.0275910 109.8063028  80.7230388  86.8459911
 110.6154765  81.3440657  87.9646701 117.4828575  71.0630144  97.7317156
 117.5316731  71.9392266  97.3494925 118.0251089  70.5207537  97.1588799
 116.9717555  81.1352279  81.6143110 117.1205675  81.8187743  80.9609783
 117.7783998  81.1157369  82.1292566 119.7127864  71.8161516  94.4863514
 118.8431173  72.1095082  94.2146103 119.9487344  72.4001961  95.2070778
 114.7270188  77.1617457  82.6204179 114.4816230  76.2579787  82.8184389
 114.8966102  77.1634607  81.6783657 113.9965835  72.8945814  80.1190340
 113.3035080  72.9690169  79.4630376 113.7517587  72.1306158  80.6411857
 120.4712960  83.6300409  79.0854858 119.8986927  84.2490597  78.6325329
 121.0445754  84.1799771  79.6194779 119.0402676  72.8911199  76.3625795
 118.1334131  72.5944311  76.4388509 119.3178657  72.5941017  75.4960081
 109.9580616  74.2117562  86.8124842 109.6383401  73.3582870  86.5199216
 109.4114044  74.4266140  87.5682809 113.7360524  76.9280003  90.5294348
 113.9546534  77.8597111  90.5482382 114.1486298  76.5687977  91.3149152
 120.6564742  67.4348088  82.5170037 119.8465470  67.0895173  82.8925283
 121.3449158  67.1255632  83.1057648 118.6088389  72.5013209  99.9197097
 118.5085116  73.4507566  99.8509188 118.3909931  72.1731448  99.0473167
 117.8101460  69.7498134  76.5037774 118.6720624  70.0753032  76.7633592
 117.9951805  68.9629630  75.9910840 109.8268876  77.8320473  88.7817963
 109.1332348  77.4174426  88.2687918 110.5741867  77.8741010  88.1851382
 118.4719659  75.9310348  98.7362159 117.9886741  76.7310708  98.9426048
 118.5580598  75.9418292  97.7829603 111.7405619  77.7638727  86.6583978
 111.7176307  77.8626414  85.7065861 112.0506255  78.6103878  86.9801144
 114.3992997  79.8214882  90.7730593 115.3536250  79.7898825  90.7060524
 114.2005520  79.3605506  91.5880818 114.9892379  78.3915998  93.3401390
 115.8085268  78.8860077  93.3636227 115.2629186  77.4747966  93.3118958
 112.7543225  85.3634502  87.7900790 112.6197693  84.6034903  87.2238788
 112.3375288  86.0875402  87.3229579 115.9112351  86.2603819  88.0019233
 115.7944735  87.2049251  87.8997923 115.0904798  85.9577380  88.3905032
 110.2427293  72.7254132  94.0393587 110.8886157  72.2153086  94.5280812
 110.0344444  73.4622814  94.6137013 118.7630903  66.9894177  79.7917483
 118.7509573  67.9336017  79.9485754 119.6554325  66.8064322  79.4976945
 116.9366865  86.9132081  91.2175161 117.8394112  86.9455691  91.5341656
 116.7104235  85.9832532  91.2321497 118.6920467  85.6663067  87.8785240
 117.7416098  85.6664929  87.7649612 118.9952954  84.9195802  87.3621275
 114.5824784  69.8721749  98.1368601 115.4456246  69.5158554  98.3471926
 114.0090195  69.5335644  98.8244006 118.6543262  92.0715889  86.6550192
 119.3414301  91.7577619  86.0671208 118.4991390  92.9757254  86.3817444
 118.2311238  90.1516482  88.9267659 118.2695337  89.6180073  89.7204777
 117.7251530  89.6251688  88.3078637 121.4824874  96.4800132  87.0275910
 120.6456782  96.0522306  86.8459911 121.4548520  96.6732575  87.9646701
 120.7974371  89.5409480  86.8124842 120.4777155  88.6874788  86.5199216
 120.2507799  89.7558058  87.5682809 120.6662631  93.1612391  88.7817963
 119.9726102  92.7466344  88.2687918 121.4135622  93.2032928  88.1851382
  74.1831805   2.2031267  70.4723985  74.1055835   3.1539092  70.5512465
  73.5793449   1.8577140  71.1298911  71.8218635   4.9516661  74.6172187
  72.0615233   5.5835185  75.2951205  70.9787831   4.6004701  74.9037546
  72.2963467   0.9764664  71.9470965  71.6273842   1.4610791  71.4635005
  72.1576337   1.2233884  72.8614344  76.4368736   3.0108407  78.5453624
  76.9887044   3.1740029  79.3102709  76.7774929   3.6012845  77.8733648
  69.3968209   1.0528954  74.5146097  69.2622677   0.2929355  73.9484095
  68.9800271   1.7769853  74.0474886  72.5537335   1.9498271  74.7264540
  72.4369719   2.8943703  74.6243230  71.7329781   1.6471832  75.1150339
  73.5791849   2.6026533  77.9420468  74.4819095   2.6350143  78.2586963
  73.3529219   1.6726983  77.9566804  87.8787850   7.1445486  75.6037834
  87.5406362   7.0286550  74.7158369  88.7477619   6.7436651  75.5838840
  83.7374666   8.9980962  71.5934725  83.1739531   8.9070899  70.8251013
  83.6227061   8.1780866  72.0737217  88.3607633   8.2980337  81.5624039
  88.3496274   7.9033136  80.6904543  88.5228273   7.5646410  82.1557811
  81.2839098  10.4932154  74.4318945  82.0760390  10.1522978  74.0165245
  81.5235748  10.6027129  75.3521099  89.3174225  12.6651930  66.9049190
  88.6662205  13.2506010  66.5183203  90.1118588  13.1958125  66.9644227
  83.2429852   9.7541067  67.3036324  84.0160728   9.2070054  67.1649200
  83.5955251  10.6185316  67.5150785  85.0814895  11.0817449  80.5103223
  84.7904761  11.9863080  80.3949890  85.7171879  11.1233977  81.2247293
  86.0071101   8.4594298  77.1004583  86.6034674   8.2350320  76.3861546
  86.0646073   7.7179043  77.7030031  90.7949490  10.3542362  67.4418174
  90.1595323  10.4276988  68.1539079  90.4646896  10.9435960  66.7637253
  85.2992419   7.8161839  67.1379149  85.1828677   7.1406742  67.8060233
  85.4094679   7.3294213  66.3211302  87.6423960   7.2771986  70.8425838
  87.2782167   6.7502607  71.5538760  88.4991075   6.8870455  70.6692324
  90.0404780  10.7678865  77.5053017  89.7405503  11.6703903  77.3968824
  89.6955839  10.5011048  78.3574170  83.4917261   7.2192661  73.5389721
  82.5667758   7.0868876  73.7467413  83.7401674   7.9986881  74.0359664
  80.8526072   6.8625935  74.3733511  80.9818453   7.1160414  75.2872922
  80.1723524   7.4553643  74.0538166  85.0225560  17.5323185  70.4723985
  84.9449589  18.4831010  70.5512465  84.4187203  17.1869057  71.1298911
  85.7689162   7.5136504  82.6903319  86.5103846   8.0521548  82.4138142
  85.0626147   8.1402793  82.8474870  91.2444501   9.6565644  81.2875480
  91.6527857   9.2148055  80.5430112  90.5221763   9.0818272  81.5409673
  91.5673316  10.2166835  75.0427769  90.9382178  10.3812549  74.3403837
  91.1798978  10.6308444  75.8138733  95.4462548  11.1521273  72.3972133
  94.7613586  11.5320174  71.8469166  95.5306397  11.7616599  73.1304080
  92.7013479   8.7981232  78.9967476  92.9130375   9.4412992  78.3201857
  92.6543228   7.9643548  78.5289406  87.1201278   9.9541243  72.3077854
  87.5839623  10.2328946  71.5182477  86.8558076   9.0524688  72.1250945
  84.0125359   9.5012724  75.2457617  84.5826716   9.9299993  74.6075102
  84.6033471   9.2195309  75.9441803  79.7995498   4.3347948  74.4184553
  79.0094552   4.5905476  73.9424663  80.2906745   5.1496286  74.5236593
  93.8159307  11.6753187  77.1689834  94.6376751  11.2733374  76.8872515
  93.8121710  11.5721421  78.1205949  81.7510243   4.6992527  71.3768029
  80.9541406   4.8111221  71.8951525  81.5235835   5.0379179  70.5108920
  87.5815911  11.2237230  79.3250544  87.6460343  11.6857638  80.1608716
  86.8726835  10.5934595  79.4532854  78.0833201   4.5878438  76.8499544
  78.3341239   5.4725448  77.1157120  78.6192749   4.4083040  76.0774635
  87.2963928  12.8905338  69.1929524  87.1609603  13.7356874  69.6214372
  87.8373741  13.0924616  68.4295458  80.7493326  10.4080776  69.7657450
  81.2617846  11.2024026  69.9163014  81.4016039   9.7107066  69.6991051
  82.5588211  13.5246532  71.8480203  82.7354839  14.4464497  71.6601187
  83.3545044  13.2104951  72.2774582  81.8440567   5.5711164  81.7242366
  81.7294082   4.6696421  82.0249465  80.9885085   5.8174861  81.3727182
  88.9232405  13.5128904  83.3229867  88.4796259  12.7265283  83.0050771
  89.5849618  13.7008055  82.6573757  83.6819526  15.0424706  77.8490545
  84.2326951  14.9141769  77.0767539  82.8431002  15.3419595  77.4985438
  91.0213643  13.7931704  81.3511268  91.0032118  14.6140585  80.8591537
  91.9433563  13.6685780  81.5761409  87.4786697  11.3075834  82.1934776
  88.0115034  10.5464122  81.9634084  86.9500778  11.0149486  82.9358931
  78.7142243   8.7369430  70.5417020  79.5517465   9.1466439  70.3250728
  78.8920510   7.7968872  70.5117214  88.8439410  10.4361826  69.7053588
  88.3160771   9.7014586  69.3926826  88.3426912  11.2136503  69.4593557
  93.8232256   8.6310847  74.8220634  93.1655930   9.3210108  74.9100763
  94.6272655   9.0207279  75.1654621  86.9892010   8.2542037  62.7088561
  86.0819072   8.0231290  62.9079710  87.4863042   7.4579656  62.8962543
  89.8960089  16.9639544  65.6285247  89.2221788  17.2671241  66.2370205
  90.2825911  17.7668624  65.2790704  88.1680243   8.3554631  67.2312551
  87.2591463   8.0713664  67.3285021  88.1975327   8.7753710  66.3715858
  93.3999511  11.9661221  71.0003719  92.9461838  11.1252131  71.0568909
  92.7693477  12.6022619  71.3378499  91.8432450  13.8037718  71.9353537
  92.1355424  14.3642775  71.2165903  92.3531071  14.0966279  72.6906696
  78.7368414   6.0760146  71.2127754  78.5392814   5.4829506  70.4878820
  78.1815078   5.7712356  71.9303692  87.8656331   9.8963375  64.5700630
  87.4275761   9.1799234  64.1106267  88.6066772  10.1239490  64.0085721
  86.8066075  14.5818069  73.0246990  86.7642254  14.8078915  72.0955522
  87.7228774  14.3481443  73.1732791  96.0098826  10.2397099  75.6388220
  96.4435332  10.1472388  76.4871274  96.7230406  10.2154600  75.0008236
  84.9231876  11.4581098  72.8208953  85.7172474  10.9631418  72.6191528
  84.2123568  10.9298961  72.4576658  89.7426720  13.8399193  77.1721321
  89.7963743  14.4090130  77.9399036  88.8741502  14.0101078  76.8075358
  81.2314639   5.6024179  68.8968706  80.3012228   5.5408635  69.1138668
  81.3272111   5.0800132  68.1005347  96.8714375  10.2820800  78.1721105
  97.0650265  11.1866610  78.4180380  96.7714993   9.8228219  79.0059690
  91.9329484  10.4327543  83.7461986  91.7814990  10.2038094  82.8292070
  91.9234163  11.3898144  83.7593331  88.7014820   8.0059455  78.7308252
  89.6306880   8.1570615  78.5577220  88.2805850   8.0943476  77.8756899
  87.5003152  12.0310120  76.5006790  87.3614238  11.6628904  77.3732728
  86.7117748  12.5457759  76.3290748  88.0951304  17.1319216  67.8432327
  88.2703060  16.6607259  68.6577949  87.4084092  17.7584982  68.0713587
  89.0508367  11.4091722  73.8895628  88.7158200  11.3692492  74.7853278
  88.5512313  10.7436438  73.4166038  83.0252611   6.8159352  79.4148209
  82.8872409   6.0839591  80.0159748  83.9357535   6.7268253  79.1332397
  91.9867559   8.7547757  64.1632687  91.3696729   8.0294585  64.0665740
  91.5184047   9.5157117  63.8199762  85.6534912   6.5279312  78.9031889
  86.3634530   5.8872504  78.8618507  85.6104220   6.7792207  79.8258069
  93.6421690  13.4646665  81.8238468  93.5834237  12.7805885  81.1569051
  94.0441209  14.2065655  81.3719094  82.6612389  20.2808579  74.6172187
  82.9008987  20.9127103  75.2951205  81.8181586  19.9296619  74.9037546
  93.6439098  11.4286249  80.0552447  92.7565876  11.0912171  80.1778846
  94.2137649  10.6969280  80.2921213  75.2968245   7.7610341  73.3795499
  75.9839285   7.4472071  72.7916514  75.1416373   8.6651705  73.1062750
  87.1740251  16.0887701  77.0213691  87.1010423  16.8942673  77.5332995
  86.7317644  16.2879667  76.1961712  86.9630031  15.3259471  70.5316512
  86.1797553  15.8681152  70.6254737  87.6622776  15.8433451  70.9310753
  89.6338935  15.9874535  79.1771849  90.3466907  16.6222000  79.1047751
  89.1428963  16.0838401  78.3611851  91.3556462   9.8925788  70.7489141
  90.4212740  10.0127251  70.5793845  91.5333130   8.9898255  70.4849151
  84.6850848  13.7368979  79.9977420  85.3860308  14.3705462  80.1506814
  84.2145963  14.0783710  79.2373059  92.8105244  12.0786929  68.2825327
  93.0865088  11.9643523  69.1919201  91.9409743  11.6804414  68.2437500
  89.4459308  16.3273280  71.9258141  89.6281703  15.5094935  72.3885893
  90.2692294  16.5440972  71.4883031  89.7801473  15.2541465  69.1873189
  90.3089240  14.7433919  68.5743351  90.0429693  14.9383995  70.0518722
  88.5339707   7.0333397  84.3096008  87.8580344   6.9327527  84.9798383
  89.3567341   6.8772611  84.7732005  80.2818566  13.2705334  76.9308523
  80.8672003  12.5249022  77.0636427  80.0843405  13.5809291  77.8145187
  83.1357221  16.3056581  71.9470965  82.4667597  16.7902709  71.4635005
  82.9970091  16.5525802  72.8614344  74.8736221   5.8410934  75.6512966
  74.9120320   5.3074525  76.4450084  74.3676514   5.3146140  75.0323943
  87.2762490  18.3400325  78.5453624  87.8280798  18.5031946  79.3102709
  87.6168683  18.9304763  77.8733648  92.1273364  13.1661582  84.4002278
  92.6713268  13.7791541  83.9057233  91.5460209  13.7241161  84.9169291
  78.5044799   4.5675036  68.7266897  78.7998240   3.6585715  68.6733951
  77.6032834   4.5462776  68.4047900  90.4130877  16.2882300  75.5317306
  90.2882017  15.4872040  75.0228251  91.0709968  16.7828494  75.0431276
  92.4765786  14.0891320  77.1596856  91.5296121  13.9696672  77.0875183
  92.8248559  13.2013819  77.2423117  89.4812219  13.8844037  73.3601208
  89.3337181  12.9560744  73.5408778  90.3065712  13.9064127  72.8758283
  93.0846341  14.7072595  74.4466081  94.0092888  14.5015457  74.3090532
  92.9161644  14.4588997  75.3555422  92.8741657  15.2258263  69.8028172
  93.0478535  14.6604685  69.0502025  93.3670548  16.0259158  69.6207662
  78.6918617   7.2372932  77.8691731  78.1472085   8.0132740  78.0012005
  79.5697967   7.5843736  77.7110853  93.8616830  14.5425027  66.9025071
  94.5567734  15.1631720  67.1212385  94.2039980  13.6920378  67.1777448
  79.4784639   6.3642828  80.7621888  78.7366375   6.5125464  81.3486518
  79.1577383   6.6251094  79.8988637  95.7608253  11.9924733  68.4312401
  96.2859577  12.3312006  67.7061721  95.6730605  11.0571748  68.2475536
  87.4228301  15.9058806  80.5602278  87.7315428  15.6607953  81.4324978
  88.2203783  16.1105445  80.0721148  87.4448913  18.0596716  72.7907655
  87.0053904  17.5673095  73.4840511  88.1957030  17.5169684  72.5499730
  79.9241252  14.2508257  72.7932283  80.7499272  13.9512029  72.4130926
  79.5735304  13.4815879  73.2422071  84.8922786  13.6034725  74.8629956
  84.2702795  12.9405430  74.5632184  85.5627652  13.6295857  74.1803604
  78.1249857  12.1694583  73.7521216  77.2881766  11.7416758  73.5705217
  78.0973503  12.3627027  74.6892007  95.4502159  12.6257636  83.7363599
  94.6597702  12.6081775  83.1968099  95.2135513  13.1645930  84.4912636
  84.4536292  12.1538649  68.3388417  84.6024413  12.8374113  67.6855089
  85.2602736  12.1343739  68.8537872  97.0718231  11.8947044  81.2938349
  96.7803039  12.2577025  82.1301810  96.4590362  11.1814053  81.1151681
  82.2088925   8.1803826  69.3449486  81.9634967   7.2766156  69.5429696
  82.3784840   8.1820977  68.4028964  87.9531698  14.6486779  65.8100164
  87.3805665  15.2676966  65.3570636  88.5264492  15.1986141  66.3440086
  91.1728958  14.9323929  66.9408746  92.1059631  14.8669491  67.1441622
  91.0852171  15.7680196  66.4823279  93.8016974  14.2489799  63.9012694
  93.7230606  13.9149663  64.7948452  94.6226641  14.7411567  63.9004166
  88.2217189  10.0365338  84.6116874  89.1420198  10.2143937  84.8056920
  88.1866772   9.0921383  84.4596573  77.4399354   5.2303932  73.5370148
  77.1202138   4.3769240  73.2444522  76.8932782   5.4452510  74.2928116
  81.2179262   7.9466373  77.2539655  81.4365271   8.8783480  77.2727689
  81.6305035   7.5874347  78.0394459  77.3087614   8.8506843  75.5063270
  76.6151085   8.4360796  74.9933224  78.0560605   8.8927380  74.9096689
  85.9538397   6.9496717  85.4607465  85.4705479   7.7497077  85.6671354
  86.0399336   6.9604662  84.5074909  79.2224357   8.7825097  73.3829285
  79.1995045   8.8812784  72.4311168  79.5324993   9.6290248  73.7046451
  81.8811734  10.8401252  77.4975899  82.8354988  10.8085194  77.4305831
  81.6824258  10.3791876  78.3126125  82.4711117   9.4102368  80.0646697
  83.2904006   9.9046447  80.0881534  82.7447924   8.4934336  80.0364264
  80.2361963  16.3820871  74.5146097  80.1016431  15.6221272  73.9484095
  79.8194025  17.1061771  74.0474886  91.3720926  11.5657795  63.5222672
  92.0756776  11.7707797  64.1380328  90.6483575  12.1334557  63.7871756
  83.3931089  17.2790188  74.7264540  83.2763473  18.2235621  74.6243230
  82.5723535  16.9763750  75.1150339  93.2807624  12.0040324  65.5721132
  94.1153228  11.5721523  65.3898607  93.1191967  11.8322338  66.4998027
  92.9353516   8.5072437  66.9377472  92.8802320   8.3416709  65.9965916
  92.3099571   9.2148470  67.0939661  77.7246031   3.7440502  80.7638894
  78.3704894   3.2339456  81.2526119  77.5163182   4.4809183  81.3382319
  90.2499423  10.8121349  86.2631034  91.1190583  10.9862001  85.9017669
  89.7706174  11.6315766  86.1406764  84.4185603  17.9318450  77.9420468
  85.3212850  17.9642060  78.2586963  84.1922973  17.0018901  77.9566804
  86.1739205  16.6849437  74.6030547  85.2234836  16.6851298  74.4894919
  86.4771691  15.9382171  74.0866581 101.9091899  22.5209975  75.6676309
 102.5470309  22.4016723  74.9639649 101.7912742  23.4690819  75.7264261
  98.7181605  22.4737403  75.6037834  98.3800117  22.3578468  74.7158369
  99.5871373  22.0728568  75.5838840  94.5768421  24.3272880  71.5934725
  94.0133286  24.2362817  70.8251013  94.4620816  23.5072784  72.0737217
  99.2001388  23.6272255  81.5624039  99.1890029  23.2325053  80.6904543
  99.3622027  22.8938328  82.1557811  92.1232853  25.8224071  74.4318945
  92.9154145  25.4814896  74.0165245  92.3629503  25.9319046  75.3521099
 100.1567979  27.9943847  66.9049190  99.5055959  28.5797928  66.5183203
 100.9512342  28.5250042  66.9644227  94.0823607  25.0832985  67.3036324
  94.8554483  24.5361972  67.1649200  94.4349005  25.9477234  67.5150785
  95.9208649  26.4109367  80.5103223  95.6298515  27.3154998  80.3949890
  96.5565633  26.4525894  81.2247293  96.8464856  23.7886215  77.1004583
  97.4428428  23.5642238  76.3861546  96.9039827  23.0470961  77.7030031
  96.4189884  21.2425651  64.9354774  96.6715405  20.7207172  64.1738237
  95.4814443  21.0791796  65.0381458 101.4633167  20.2461429  72.7429517
 102.2496256  19.8280852  72.3919934 101.7271872  21.1507521  72.9111166
 106.8641594  20.1836662  73.6462496 107.5966766  19.6135879  73.8800325
 106.1080950  19.7958263  74.0869001  96.1386173  23.1453757  67.1379149
  96.0222431  22.4698660  67.8060233  96.2488433  22.6586131  66.3211302
  98.4817714  22.6063904  70.8425838  98.1175921  22.0794525  71.5538760
  99.3384830  22.2162373  70.6692324 104.3867015  13.8958236  78.1057104
 104.0550339  14.7653647  77.8818319 103.7912628  13.5794520  78.7851135
  98.1223201  17.6353803  65.8387187  98.2897603  18.5034040  66.2057658
  97.9320370  17.7981085  64.9148476 100.8798534  26.0970782  77.5053017
 100.5799257  26.9995821  77.3968824 100.5349594  25.8302966  78.3574170
  94.3311016  22.5484579  73.5389721  93.4061512  22.4160793  73.7467413
  94.5795429  23.3278798  74.0359664 104.2795678  18.6153322  75.1850454
 103.3712555  18.5468731  74.8909215 104.2283274  19.0925267  76.0132280
  98.1012422  20.0911461  66.8233853  97.9812047  20.5368512  67.6619334
  97.4065010  20.4396779  66.2647392  91.6919827  22.1917853  74.3733511
  91.8212208  22.4452332  75.2872922  91.0117278  22.7845561  74.0538166
  95.8619314  32.8615103  70.4723985  95.7843344  33.8122928  70.5512465
  95.2580958  32.5160975  71.1298911  98.3536544  20.0342968  83.1285352
  97.5769878  20.5936888  83.1188216  98.9927107  20.5199751  83.6500222
 106.1457324  16.8169761  76.9628328 105.5031705  17.1102294  76.3168123
 105.6412253  16.7022681  77.7681525  96.6082916  22.8428421  82.6903319
  97.3497600  23.3813465  82.4138142  95.9019902  23.4694710  82.8474870
 102.0838256  24.9857562  81.2875480 102.4921612  24.5439972  80.5430112
 101.3615517  24.4110189  81.5409673  98.4369326  19.9230169  78.6609037
  99.2830521  20.3469582  78.8043686  98.3767963  19.2663793  79.3547600
 102.4067070  25.5458753  75.0427769 101.7775933  25.7104467  74.3403837
 102.0192732  25.9600362  75.8138733 106.2856302  26.4813190  72.3972133
 105.6007340  26.8612092  71.8469166 106.3700152  27.0908517  73.1304080
 101.5868771  17.5834537  80.3190211 101.3429703  18.3376598  79.7824486
 101.8628702  17.9619885  81.1537458 103.5407234  24.1273149  78.9967476
 103.7524129  24.7704909  78.3201857 103.4936982  23.2935466  78.5289406
 101.1433463  16.7390970  75.9004048 100.2817942  17.0372224  76.1920786
 101.1695897  16.9561369  74.9685081  94.8519113  24.8304642  75.2457617
  95.4220470  25.2591911  74.6075102  95.4427225  24.5487227  75.9441803
  96.8963918  21.4056313  69.1167419  97.5987962  21.8577357  69.5841346
  96.5644547  20.7640132  69.7447312  95.3444280  19.9968070  83.4918629
  94.7142940  20.6784350  83.7254025  95.2380368  19.8851151  82.5471767
  90.6389252  19.6639866  74.4184553  89.8488306  19.9197394  73.9424663
  91.1300500  20.4788203  74.5236593 104.6553062  27.0045105  77.1689834
 105.4770506  26.6025292  76.8872515 104.6515465  26.9013339  78.1205949
  92.5903998  20.0284445  71.3768029  91.7935161  20.1403139  71.8951525
  92.3629590  20.3671097  70.5108920  98.4209665  26.5529148  79.3250544
  98.4854098  27.0149555  80.1608716  97.7120589  25.9226513  79.4532854
  88.9226955  19.9170356  76.8499544  89.1734994  20.8017366  77.1157120
  89.4586504  19.7374958  76.0774635 112.7459055  23.3483853  73.5174805
 111.9922763  22.7791251  73.3618810 112.8806596  23.3146518  74.4645440
  94.6225023  14.2988835  85.8543880  94.2291968  13.7455034  86.5291524
  95.4391163  14.6099414  86.2450397  91.5887080  25.7372694  69.7657450
  92.1011601  26.5315944  69.9163014  92.2409793  25.0398984  69.6991051
  93.3981965  28.8538450  71.8480203  93.5748593  29.7756415  71.6601187
  94.1938799  28.5396869  72.2774582  97.5392984  15.7146715  83.4464136
  98.2802697  16.3153868  83.3668599  97.7710906  14.9724352  82.8882179
  92.6834322  20.9003082  81.7242366  92.5687837  19.9988339  82.0249465
  91.8278839  21.1466779  81.3727182  99.7626159  28.8420822  83.3229867
  99.3190013  28.0557201  83.0050771 100.4243373  29.0299973  82.6573757
  94.5213280  30.3716624  77.8490545  95.0720706  30.2433687  77.0767539
  93.6824756  30.6711513  77.4985438 101.8607397  29.1223622  81.3511268
 101.8425873  29.9432503  80.8591537 102.7827317  28.9977697  81.5761409
  98.3180452  26.6367752  82.1934776  98.8508788  25.8756040  81.9634084
  97.7894533  26.3441403  82.9358931 101.4850146  11.7427817  77.7228418
 101.1414416  12.6329459  77.6467528 101.8529109  11.5529475  76.8598003
  89.5535997  24.0661348  70.5417020  90.3911219  24.4758356  70.3250728
  89.7314265  23.1260790  70.5117214 101.4500429  21.7336429  66.2300853
 100.9347053  22.5041033  66.4689240 101.1777738  21.0601565  66.8533914
  99.0347540  16.5786129  71.2886091  98.1789137  16.1892980  71.1091730
  99.4474492  16.6578090  70.4285877 100.5646687  14.1132473  75.6877651
 100.0611482  14.0762608  74.8745456 100.8577294  15.0225215  75.7474308
  96.8089573  14.1971202  74.6943833  97.6742570  14.0014011  74.3349722
  96.8767082  13.9681554  75.6213190 106.4234703  24.4868783  68.1654026
 105.6464146  24.1479943  67.7209189 107.1026184  24.4921406  67.4908992
 101.2386732  19.6063521  68.0560634 100.9336868  19.9209670  68.9070777
 102.1917174  19.6844941  68.0987967  99.6833164  25.7653744  69.7053588
  99.1554526  25.0306504  69.3926826  99.1820667  26.5428420  69.4593557
 104.6626010  23.9602764  74.8220634 104.0049685  24.6502026  74.9100763
 105.4666409  24.3499196  75.1654621  94.4151892  16.4273410  72.0660200
  94.9895644  16.2048592  71.3333393  95.0022874  16.4962105  72.8188801
 103.4731469  22.3147137  72.8724576 103.9863351  22.9477129  73.3746286
 104.1232693  21.7148333  72.5067936  94.7421479  18.4577871  66.0856085
  93.9058791  18.7952558  66.4065360  94.6026249  18.3226851  65.1483222
  96.7174560  13.3014659  70.7935269  96.0638972  12.9863676  70.1691884
  96.6755034  12.6790400  71.5195092  97.8285764  23.5833954  62.7088561
  96.9212826  23.3523208  62.9079710  98.3256796  22.7871574  62.8962543
 100.7353843  32.2931461  65.6285247 100.0615542  32.5963158  66.2370205
 101.1219665  33.0960542  65.2790704  99.9512300  19.7896593  75.1182917
  99.0334861  20.0111540  74.9604605 100.3672444  19.8642903  74.2594624
  99.0073998  23.6846549  67.2312551  98.0985217  23.4005582  67.3285021
  99.0369082  24.1045628  66.3715858 104.2393265  27.2953139  71.0003719
 103.7855592  26.4544049  71.0568909 103.6087232  27.9314537  71.3378499
 103.1826185  18.2245125  72.2304386 102.4448942  17.7122511  72.5614629
 103.4352958  17.7845506  71.4187663 102.6826204  29.1329635  71.9353537
 102.9749179  29.6934692  71.2165903 103.1924825  29.4258196  72.6906696
  89.5762168  21.4052063  71.2127754  89.3786568  20.8121424  70.4878820
  89.0208832  21.1004273  71.9303692  97.5558892  21.2975170  73.3322347
  97.6107502  20.3449006  73.2564823  96.7450094  21.4534609  73.8163645
  98.7050086  25.2255293  64.5700630  98.2669516  24.5091152  64.1106267
  99.4460527  25.4531408  64.0085721  95.4951252  19.9152229  71.0912726
  94.6819117  20.2146400  71.4977918  95.9910246  19.5207918  71.8087208
  97.6459830  29.9109986  73.0246990  97.6036008  30.1370833  72.0955522
  98.5622529  29.6773361  73.1732791 101.0925463  20.3794054  79.9227619
 101.4474851  20.6065527  80.7822085 101.7397595  20.7112431  79.3004875
 106.8223200  23.5012490  70.6276948 106.6841099  23.6914086  69.6998138
 106.4659419  24.2631873  71.0845000  94.9865327  17.4870585  76.7073960
  95.6264706  17.3459344  76.0096924  94.1542857  17.2005098  76.3312562
 106.8492580  25.5689017  75.6388220 107.2829087  25.4764306  76.4871274
 107.5624161  25.5446517  75.0008236  95.7625630  26.7873015  72.8208953
  96.5566229  26.2923336  72.6191528  95.0517323  26.2590879  72.4576658
 100.5820475  29.1691111  77.1721321 100.6357497  29.7382047  77.9399036
  99.7135256  29.3392996  76.8075358  92.0708394  20.9316097  68.8968706
  91.1405982  20.8700553  69.1138668  92.1665866  20.4092050  68.1005347
  91.9893943  17.4570910  71.4846947  92.2500760  18.3716243  71.3756108
  92.8111115  16.9895353  71.6343560  93.4618868  18.8708667  78.6545772
  94.1341922  18.6626029  78.0058421  92.6348655  18.6730753  78.2151004
 107.7108130  25.6112718  78.1721105 107.9044020  26.5158528  78.4180380
 107.6108748  25.1520137  79.0059690  99.3644440  15.4970608  80.6711433
  98.7172355  16.1960558  80.5775909 100.1345456  15.9306752  81.0387681
 102.7723238  25.7619460  83.7461986 102.6208745  25.5330012  82.8292070
 102.7627918  26.7190062  83.7593331  99.5408575  23.3351373  78.7308252
 100.4700635  23.4862533  78.5577220  99.1199605  23.4235394  77.8756899
  98.3396906  27.3602037  76.5006790  98.2007992  26.9920822  77.3732728
  97.5511503  27.8749677  76.3290748  98.9345058  32.4611134  67.8432327
  99.1096814  31.9899177  68.6577949  98.2477846  33.0876900  68.0713587
  99.8902122  26.7383640  73.8895628  99.5551954  26.6984410  74.7853278
  99.3906067  26.0728356  73.4166038  93.8646366  22.1451270  79.4148209
  93.7266164  21.4131509  80.0159748  94.7751289  22.0560170  79.1332397
 102.8261313  24.0839674  64.1632687 102.2090484  23.3586503  64.0665740
 102.3577802  24.8449035  63.8199762  96.4928666  21.8571229  78.9031889
  97.2028285  21.2164422  78.8618507  96.4497974  22.1084124  79.8258069
 104.4815445  28.7938583  81.8238468 104.4227991  28.1097803  81.1569051
 104.8834963  29.5357573  81.3719094  95.2057600  18.8436447  80.7227528
  94.6694957  18.3927186  81.3749124  94.6174309  18.9782356  79.9797992
  93.5006144  35.6100497  74.6172187  93.7402742  36.2419021  75.2951205
  92.6575340  35.2588537  74.9037546  94.6159859  18.3025099  63.2853992
  93.7389325  18.1813900  62.9216238  95.0917612  17.5111177  63.0332880
 104.4832852  26.7578167  80.0552447 103.5959631  26.4204089  80.1778846
 105.0531403  26.0261198  80.2921213  86.1361999  23.0902258  73.3795499
  86.8233039  22.7763989  72.7916514  85.9810128  23.9943623  73.1062750
  90.9396721  17.9792455  77.8080523  90.8554910  17.3718125  77.0730933
  90.1179428  18.4701473  77.8090019  98.0134006  31.4179619  77.0213691
  97.9404177  32.2234591  77.5332995  97.5711399  31.6171585  76.1961712
  97.8023785  30.6551389  70.5316512  97.0191307  31.1973069  70.6254737
  98.5016530  31.1725369  70.9310753 101.1120435  16.4646019  73.1750718
 101.6089135  15.7115981  72.8551788 100.3407417  16.5010335  72.6093927
 108.9650193  22.1686384  74.8169009 108.9540069  23.0511100  74.4462942
 108.0967572  21.8157935  74.6223546 100.4732689  31.3166453  79.1771849
 101.1860661  31.9513918  79.1047751  99.9822718  31.4130319  78.3611851
 102.1950216  25.2217706  70.7489141 101.2606495  25.3419168  70.5793845
 102.3726884  24.3190173  70.4849151  97.6955404  18.6063402  72.9022402
  97.3253192  18.0534442  73.5903308  98.1914497  18.0021535  72.3497402
 105.5822767  21.0635025  71.2839175 106.0483220  21.8963017  71.2099478
 106.0330268  20.5980007  71.9884434  95.5244603  29.0660897  79.9977420
  96.2254062  29.6997380  80.1506814  95.0539718  29.4075628  79.2373059
 103.6498998  27.4078846  68.2825327 103.9258842  27.2935441  69.1919201
 102.7803497  27.0096331  68.2437500 103.5539430  13.4315612  75.3230076
 102.6402510  13.6619839  75.4912283 103.9832532  13.5154056  76.1744109
 103.3245889  21.6205504  77.8229971 102.6717339  21.8681411  77.1682423
 103.7026268  20.8069642  77.4892448 100.2853062  31.6565197  71.9258141
 100.4675457  30.8386853  72.3885893 101.1086048  31.8732889  71.4883031
 100.6195228  30.5833382  69.1873189 101.1482994  30.0725837  68.5743351
 100.8823448  30.2675913  70.0518722  99.3733462  22.3625315  84.3096008
  98.6974099  22.2619444  84.9798383 100.1961096  22.2064529  84.7732005
  91.1212321  28.5997252  76.9308523  91.7065758  27.8540940  77.0636427
  90.9237159  28.9101208  77.8145187  93.9750976  31.6348499  71.9470965
  93.3061351  32.1194627  71.4635005  93.8363846  31.8817719  72.8614344
  85.7129975  21.1702852  75.6512966  85.7514075  20.6366443  76.4450084
  85.2070268  20.6438057  75.0323943  98.1156245  33.6692243  78.5453624
  98.6674553  33.8323864  79.3102709  98.4562438  34.2596680  77.8733648
  93.0920738  16.0167392  79.1475508  93.1562064  16.8782223  78.7352906
  93.0287858  15.4041394  78.4147867  92.5673010  18.0890525  82.7948543
  93.1945049  17.7067602  83.4086067  91.7100929  17.8704727  83.1604235
 102.9667119  28.4953500  84.4002278 103.5107023  29.1083458  83.9057233
 102.3853964  29.0533078  84.9169291  89.3438553  19.8966954  68.7266897
  89.6391994  18.9877632  68.6733951  88.4426589  19.8754693  68.4047900
 101.2524632  31.6174218  75.5317306 101.1275771  30.8163958  75.0228251
 101.9103723  32.1120411  75.0431276  92.8732800  17.9722951  74.7094446
  92.1519386  18.5858918  74.5701919  93.6626056  18.5080715  74.6311092
 103.3159540  29.4183238  77.1596856 102.3689876  29.2988589  77.0875183
 103.6642313  28.5305736  77.2423117  95.6759114  15.3077377  80.9835098
  96.1993515  15.5539674  81.7461407  95.4571447  16.1397412  80.5638235
  91.0726395  17.5781052  68.8506223  90.7439101  16.6978431  68.6681328
  91.4265765  17.5228720  69.7382612 100.3205973  29.2135954  73.3601208
 100.1730936  28.2852662  73.5408778 101.1459467  29.2356045  72.8758283
  94.1868218  17.8654021  69.2181700  94.5264290  18.3939943  68.4960309
  94.6340338  18.2034428  69.9940267 103.9240095  30.0364513  74.4466081
 104.8486643  29.8307374  74.3090532 103.7555399  29.7880914  75.3555422
  96.8811659  16.2491072  78.6684768  96.5408479  15.4498885  79.0705448
  96.1750665  16.5492783  78.0961601  97.5328130  13.3340385  77.1212091
  98.3554200  12.8600863  76.9990982  97.7766194  14.1130868  77.6210778
  96.1736365  16.3628643  67.4174993  96.8944727  16.7409896  66.9138710
  95.5501669  17.0817520  67.5209971 100.3167488  17.0673792  68.3533325
 100.5331102  17.9498430  68.0522153  99.8361555  16.6760005  67.6238967
  95.0566709  20.0259505  74.9304070  94.9111290  20.3399808  75.8228351
  94.5791913  20.6444406  74.3774969  96.9163092  17.0162053  74.9784959
  96.9024661  16.1203147  74.6417257  97.6335520  17.0232717  75.6123246
  98.7689223  17.4499393  77.0238087  98.5107001  18.3716464  77.0222417
  98.2374263  17.0529828  77.7138551 103.7135412  30.5550181  69.8028172
 103.8872289  29.9896603  69.0502025 104.2064303  31.3551075  69.6207662
  89.5312371  22.5664850  77.8691731  88.9865839  23.3424658  78.0012005
  90.4091721  22.9135654  77.7110853  96.3199988  15.8976434  70.2472530
  96.4415899  14.9693080  70.4463417  96.0302030  15.9115119  69.3350845
  99.1891178  13.5831344  73.3839249  99.2112875  13.6470677  72.4291229
  99.6059237  12.7435853  73.5779756 109.5674803  23.3186603  71.4218472
 110.0105949  22.5693929  71.0237595 108.6901313  23.3096740  71.0392204
 104.7010584  29.8716945  66.9025071 105.3961489  30.4923638  67.1212385
 105.0433734  29.0212296  67.1777448  90.3178393  21.6934746  80.7621888
  89.5760129  21.8417381  81.3486518  89.9971137  21.9543012  79.8988637
 106.6002007  27.3216650  68.4312401 107.1253331  27.6603923  67.7061721
 106.5124360  26.3863666  68.2475536  98.2622056  31.2350724  80.5602278
  98.5709182  30.9899871  81.4324978  99.0597538  31.4397363  80.0721148
  98.2842668  33.3888634  72.7907655  97.8447658  32.8965012  73.4840511
  99.0350785  32.8461601  72.5499730  90.7635007  29.5800175  72.7932283
  91.5893027  29.2803946  72.4130926  90.4129059  28.8107797  73.2422071
  95.7316540  28.9326643  74.8629956  95.1096549  28.2697348  74.5632184
  96.4021407  28.9587775  74.1803604  88.9643612  27.4986501  73.7521216
  88.1275520  27.0708675  73.5705217  88.9367257  27.6918944  74.6892007
  95.8041068  17.4108431  84.4562462  95.8529223  18.2870554  84.0740232
  96.3463582  16.8685824  83.8834105 106.2895913  27.9549554  83.7363599
 105.4991457  27.9373693  83.1968099 106.0529268  28.4937848  84.4912636
 106.4093788  24.8042020  81.0496328 106.4591793  24.6392028  81.9911851
 106.3007712  23.9369280  80.6594209  95.2930047  27.4830566  68.3388417
  95.4418167  28.1666031  67.6855089  96.0996490  27.4635656  68.8537872
 103.6997551  20.7872949  82.3655635 104.6007413  20.6479413  82.0739632
 103.7745525  20.9527403  83.3053812  98.0340356  18.1639803  81.2108821
  97.1643665  18.4573369  80.9391409  98.2699836  18.7480248  81.9316084
 107.9111985  27.2238962  81.2938349 107.6196793  27.5868943  82.1301810
 107.2984116  26.5105970  81.1151681 109.1107667  24.7891842  73.8140920
 109.9454559  25.2281646  73.9778480 109.2466796  24.3130495  72.9949165
 106.1599173  22.3471577  79.7618407 106.6353295  22.5399223  78.9537259
 105.2364739  22.4030762  79.5161791  93.0482680  23.5095744  69.3449486
  92.8028722  22.6058074  69.5429696  93.2178594  23.5112894  68.4028964
 100.7379390  14.3819420  78.7274241 101.2561334  15.1180447  78.4020730
 100.3834523  14.6883413  79.5621000  92.3178327  19.2424101  66.8435647
  91.6247572  19.3168456  66.1875683  92.0730079  18.4784445  67.3657164
  98.7925452  29.9778697  65.8100164  98.2199420  30.5968884  65.3570636
  99.3658246  30.5278058  66.3440086 104.8600842  19.2237337  77.9946713
 105.8118265  19.3235434  78.0158937 104.6904293  18.4315605  78.5044797
 102.8815222  16.3092920  78.1806114 102.2865154  16.5897933  77.4852603
 102.5964918  16.7986821  78.9522855 102.0122712  30.2615847  66.9408746
 102.9453385  30.1961408  67.1441622 101.9245925  31.0972114  66.4823279
 104.6410729  29.5781717  63.9012694 104.5624360  29.2441581  64.7948452
 105.4620396  30.0703485  63.9004166 107.3388920  22.4443456  77.1089013
 107.3065240  21.5059457  77.2948696 107.9489544  22.5227493  76.3754837
  99.1772251  21.3139509  63.1516217 100.1231356  21.1845717  63.2204635
  98.7986496  20.5754171  63.6285645 107.4883409  19.2354500  77.1547296
 106.9722457  18.4512956  76.9677225 108.3723357  18.9073216  77.3193815
 105.1494135  12.9795515  73.1143108 104.9518957  12.6710604  73.9986440
 105.7593841  13.7057154  73.2441038 113.1565470  23.5059463  76.2495049
 113.8868858  23.2444751  76.8102753 112.5472415  22.7688185  76.2897117
 111.2380767  21.6467326  76.8469501 110.5113931  21.5123291  76.2385992
 110.8228054  21.9544154  77.6526219  99.0610943  25.3657256  84.6116874
  99.9813953  25.5435855  84.8056920  99.0260527  24.4213301  84.4596573
  97.3615168  19.2389486  63.0871102  96.4546623  18.9422598  63.1633815
  97.6391149  18.9419304  62.2205388  88.2793108  20.5595849  73.5370148
  87.9595893  19.7061157  73.2444522  87.7326537  20.7744427  74.2928116
  92.0573016  23.2758290  77.2539655  92.2759026  24.2075398  77.2727689
  92.4698790  22.9166265  78.0394459  98.9777234  13.7826375  69.2415343
  98.1677962  13.4373460  69.6170589  99.6661651  13.4733919  69.8302955
 100.9067782  12.8604422  70.8639640 101.4598821  13.2799876  71.5229663
 101.1437868  11.9340170  70.9062596  96.9300881  18.8491496  86.6442404
  96.8297608  19.7985853  86.5754495  96.7122423  18.5209735  85.7718474
  96.1313953  16.0976421  63.2283081  96.9933117  16.4231319  63.4878898
  96.3164297  15.3107917  62.7156147  88.1481368  24.1798761  75.5063270
  87.4544840  23.7652713  74.9933224  88.8954359  24.2219297  74.9096689
 104.2846589  14.9704947  70.3718304 103.7045258  15.6289751  69.9896356
 104.0182522  14.1482292  69.9605722 102.7350156  14.3710005  72.5739624
 103.2349934  14.4826540  71.7653943 103.3785763  14.0671058  73.2140433
  96.7932151  22.2788635  85.4607465  96.3099233  23.0788995  85.6671354
  96.8793090  22.2896580  84.5074909  90.0618111  24.1117014  73.3829285
  90.0388799  24.2104702  72.4311168  90.3718748  24.9582165  73.7046451
  92.7205489  26.1693169  77.4975899  93.6748742  26.1377112  77.4305831
  92.5218012  25.7083793  78.3126125  93.3104871  24.7394286  80.0646697
  94.1297760  25.2338364  80.0881534  93.5841679  23.8226254  80.0364264
 103.0671467  17.1305038  69.4274652 102.1797322  17.4154688  69.2094847
 103.4825456  16.9698801  68.5801929 106.4186003  17.1551559  73.1428992
 107.1946393  17.6448011  73.4153608 105.6934138  17.5809613  73.6000861
 108.8558562  17.8679178  74.2002932 109.4503053  17.6274914  73.4896240
 108.9285146  17.1486309  74.8276468  91.0755718  31.7112789  74.5146097
  90.9410186  30.9513190  73.9484095  90.6587780  32.4353689  74.0474886
 102.2114681  26.8949713  63.5222672 102.9150531  27.0999715  64.1380328
 101.4877329  27.4626474  63.7871756 103.0412491  22.6459574  69.6424942
 102.9847692  23.1028125  68.8032575 103.5940833  21.8850258  69.4647785
 106.8517297  18.4349306  70.4675062 106.5954231  18.0345941  71.2983270
 106.2270165  19.1493100  70.3425201 111.1629635  21.1745379  72.9746353
 110.6029193  21.2438568  73.7477915 110.5573138  20.9986364  72.2545850
  94.2324844  32.6082106  74.7264540  94.1157228  33.5527538  74.6243230
  93.4117290  32.3055668  75.1150339 104.1201378  27.3332242  65.5721132
 104.9546982  26.9013440  65.3898607 103.9585721  27.1614255  66.4998027
 103.7747270  23.8364355  66.9377472 103.7196074  23.6708626  65.9965916
 103.1493326  24.5440388  67.0939661  88.5639785  19.0732419  80.7638894
  89.2098649  18.5631373  81.2526119  88.3556936  19.8101101  81.3382319
 101.0893177  26.1413267  86.2631034 101.9584337  26.3153919  85.9017669
 100.6099929  26.9607684  86.1406764  97.0843396  13.3372464  66.5162790
  97.0722066  14.2814304  66.6731061  97.9766818  13.1542609  66.2222251
  95.2579358  33.2610368  77.9420468  96.1606604  33.2933978  78.2586963
  95.0316728  32.3310819  77.9566804  97.0132960  32.0141354  74.6030547
  96.0628591  32.0143216  74.4894919  97.3165446  31.2674089  74.0866581
  92.9037276  16.2200036  84.8613908  93.7668738  15.8636841  85.0717233
  92.3302687  15.8813931  85.5489312 112.7485653  37.8501893  75.6676309
 113.3864063  37.7308640  74.9639649 112.6306496  38.7982737  75.7264261
 109.5575359  37.8029321  75.6037834 109.2193871  37.6870386  74.7158369
 110.4265128  37.4020486  75.5838840 105.4162175  39.6564797  71.5934725
 104.8527040  39.5654734  70.8251013 105.3014570  38.8364702  72.0737217
 110.0395142  38.9564173  81.5624039 110.0283783  38.5616971  80.6904543
 110.2015782  38.2230245  82.1557811 102.9626607  41.1515989  74.4318945
 103.7547899  40.8106814  74.0165245 103.2023257  41.2610964  75.3521099
 110.9961734  43.3235765  66.9049190 110.3449714  43.9089845  66.5183203
 111.7906097  43.8541960  66.9644227 104.9217361  40.4124902  67.3036324
 105.6948237  39.8653889  67.1649200 105.2742760  41.2769152  67.5150785
 106.7602404  41.7401284  80.5103223 106.4692270  42.6446915  80.3949890
 107.3959388  41.7817812  81.2247293 107.6858610  39.1178133  77.1004583
 108.2822183  38.8934155  76.3861546 107.7433582  38.3762878  77.7030031
 107.2583639  36.5717568  64.9354774 107.5109160  36.0499090  64.1738237
 106.3208198  36.4083714  65.0381458 112.3026922  35.5753347  72.7429517
 113.0890011  35.1572770  72.3919934 112.5665626  36.4799439  72.9111166
 112.4736999  41.0126197  67.4418174 111.8382832  41.0860823  68.1539079
 112.1434405  41.6019796  66.7637253 117.7035349  35.5128580  73.6462496
 118.4360521  34.9427797  73.8800325 116.9474705  35.1250180  74.0869001
 106.9779928  38.4745674  67.1379149 106.8616186  37.7990578  67.8060233
 107.0882187  37.9878048  66.3211302 109.3211469  37.9355821  70.8425838
 108.9569676  37.4086442  71.5538760 110.1778584  37.5454290  70.6692324
 115.2260769  29.2250154  78.1057104 114.8944094  30.0945565  77.8818319
 114.6306383  28.9086438  78.7851135 108.9616956  32.9645721  65.8387187
 109.1291358  33.8325957  66.2057658 108.7714125  33.1273003  64.9148476
 111.7192289  41.4262700  77.5053017 111.4193012  42.3287739  77.3968824
 111.3743348  41.1594883  78.3574170 105.1704770  37.8776497  73.5389721
 104.2455267  37.7452711  73.7467413 105.4189183  38.6570716  74.0359664
 115.1189432  33.9445240  75.1850454 114.2106310  33.8760649  74.8909215
 115.0677028  34.4217185  76.0132280 108.9406176  35.4203379  66.8233853
 108.8205802  35.8660429  67.6619334 108.2458765  35.7688696  66.2647392
 102.5313581  37.5209770  74.3733511 102.6605962  37.7744249  75.2872922
 101.8511033  38.1137478  74.0538166 106.7013068  48.1907020  70.4723985
 106.6237098  49.1414845  70.5512465 106.0974712  47.8452893  71.1298911
 109.1930298  35.3634886  83.1285352 108.4163632  35.9228806  83.1188216
 109.8320861  35.8491669  83.6500222 116.9851079  32.1461679  76.9628328
 116.3425459  32.4394212  76.3168123 116.4806007  32.0314599  77.7681525
 114.6391243  35.8924852  67.6514188 115.5509099  36.1252238  67.4761885
 114.1300890  36.4761896  67.0889266 107.4476671  38.1720339  82.6903319
 108.1891355  38.7105383  82.4138142 106.7413656  38.7986628  82.8474870
 112.9232010  40.3149480  81.2875480 113.3315366  39.8731890  80.5430112
 112.2009272  39.7402107  81.5409673 109.2763080  35.2522086  78.6609037
 110.1224275  35.6761500  78.8043686 109.2161718  34.5955711  79.3547600
 113.2460825  40.8750670  75.0427769 112.6169687  41.0396384  74.3403837
 112.8586487  41.2892280  75.8138733 117.1250057  41.8105108  72.3972133
 116.4401095  42.1904009  71.8469166 117.2093906  42.4200435  73.1304080
 112.4262526  32.9126455  80.3190211 112.1823457  33.6668515  79.7824486
 112.7022456  33.2911802  81.1537458 114.3800988  39.4565067  78.9967476
 114.5917884  40.0996827  78.3201857 114.3330737  38.6227384  78.5289406
 111.9827217  32.0682888  75.9004048 111.1211696  32.3664141  76.1920786
 112.0089652  32.2853287  74.9685081 108.7988787  40.6125078  72.3077854
 109.2627132  40.8912781  71.5182477 108.5345585  39.7108523  72.1250945
 105.6912868  40.1596560  75.2457617 106.2614225  40.5883828  74.6075102
 106.2820980  39.8779145  75.9441803 107.7357673  36.7348231  69.1167419
 108.4381716  37.1869274  69.5841346 107.4038301  36.0932050  69.7447312
 106.1838034  35.3259987  83.4918629 105.5536695  36.0076268  83.7254025
 106.0774122  35.2143069  82.5471767 101.4783007  34.9931783  74.4184553
 100.6882061  35.2489312  73.9424663 101.9694254  35.8080121  74.5236593
 115.4946816  42.3337022  77.1689834 116.3164260  41.9317210  76.8872515
 115.4909219  42.2305257  78.1205949 103.4297752  35.3576363  71.3768029
 102.6328915  35.4695057  71.8951525 103.2023344  35.6963015  70.5108920
 109.2603420  41.8821066  79.3250544 109.3247852  42.3441473  80.1608716
 108.5514344  41.2518431  79.4532854  99.7620710  35.2462274  76.8499544
 100.0128748  36.1309284  77.1157120 100.2980258  35.0666875  76.0774635
 108.9751437  43.5489173  69.1929524 108.8397112  44.3940709  69.6214372
 109.5161250  43.7508451  68.4295458 105.4618777  29.6280753  85.8543880
 105.0685723  29.0746952  86.5291524 106.2784917  29.9391332  86.2450397
 102.4280835  41.0664611  69.7657450 102.9405355  41.8607862  69.9163014
 103.0803548  40.3690902  69.6991051 104.2375719  44.1830368  71.8480203
 104.4142348  45.1048332  71.6601187 105.0332553  43.8688787  72.2774582
 108.3786738  31.0438632  83.4464136 109.1196451  31.6445785  83.3668599
 108.6104661  30.3016270  82.8882179 103.5228076  36.2294999  81.7242366
 103.4081591  35.3280257  82.0249465 102.6672594  36.4758696  81.3727182
 110.6019914  44.1712740  83.3229867 110.1583768  43.3849118  83.0050771
 111.2637127  44.3591890  82.6573757 105.3607035  45.7008541  77.8490545
 105.9114460  45.5725605  77.0767539 104.5218511  46.0003430  77.4985438
 112.7001152  44.4515540  81.3511268 112.6819627  45.2724421  80.8591537
 113.6221072  44.3269615  81.5761409 109.1574206  41.9659669  82.1934776
 109.6902543  41.2047957  81.9634084 108.6288287  41.6733321  82.9358931
 112.3243901  27.0719735  77.7228418 111.9808170  27.9621377  77.6467528
 112.6922864  26.8821393  76.8598003 100.3929752  39.3953266  70.5417020
 101.2304974  39.8050274  70.3250728 100.5708019  38.4552708  70.5117214
 112.2894184  37.0628346  66.2300853 111.7740807  37.8332951  66.4689240
 112.0171492  36.3893482  66.8533914 109.8741295  31.9078047  71.2886091
 109.0182891  31.5184897  71.1091730 110.2868246  31.9870008  70.4285877
 111.4040441  29.4424390  75.6877651 110.9005237  29.4054525  74.8745456
 111.6971048  30.3517133  75.7474308 107.6483327  29.5263120  74.6943833
 108.5136324  29.3305929  74.3349722 107.7160836  29.2973472  75.6213190
 117.2628458  39.8160701  68.1654026 116.4857901  39.4771860  67.7209189
 117.9419939  39.8213324  67.4908992 112.0780487  34.9355438  68.0560634
 111.7730622  35.2501588  68.9070777 113.0310929  35.0136858  68.0987967
 110.5226919  41.0945662  69.7053588 109.9948280  40.3598421  69.3926826
 110.0214421  41.8720338  69.4593557 115.5019765  39.2894682  74.8220634
 114.8443439  39.9793944  74.9100763 116.3060164  39.6791114  75.1654621
 105.2545646  31.7565328  72.0660200 105.8289398  31.5340509  71.3333393
 105.8416629  31.8254022  72.8188801 114.3125224  37.6439055  72.8724576
 114.8257105  38.2769047  73.3746286 114.9626447  37.0440250  72.5067936
 105.5815233  33.7869789  66.0856085 104.7452546  34.1244476  66.4065360
 105.4420003  33.6518769  65.1483222 107.5568314  28.6306577  70.7935269
 106.9032726  28.3155594  70.1691884 107.5148788  28.0082317  71.5195092
 108.6679519  38.9125872  62.7088561 107.7606581  38.6815125  62.9079710
 109.1650551  38.1163491  62.8962543 111.5747598  47.6223379  65.6285247
 110.9009297  47.9255076  66.2370205 111.9613420  48.4252459  65.2790704
 110.7906054  35.1188510  75.1182917 109.8728616  35.3403457  74.9604605
 111.2066198  35.1934821  74.2594624 111.5741102  36.5179926  70.2485597
 112.3212921  37.0301323  69.9392719 111.8432692  36.1963979  71.1089991
 109.8467752  39.0138467  67.2312551 108.9378972  38.7297500  67.3285021
 109.8762836  39.4337545  66.3715858 115.0787020  42.6245056  71.0003719
 114.6249347  41.7835966  71.0568909 114.4480986  43.2606455  71.3378499
 114.0219939  33.5537042  72.2304386 113.2842696  33.0414429  72.5614629
 114.2746713  33.1137424  71.4187663 113.5219959  44.4621553  71.9353537
 113.8142933  45.0226610  71.2165903 114.0318580  44.7550114  72.6906696
 114.1231567  26.3313294  72.8246156 114.4290443  25.4710658  72.5372071
 114.8484171  26.9230915  72.6245149 100.4155923  36.7343981  71.2127754
 100.2180323  36.1413342  70.4878820  99.8602587  36.4296191  71.9303692
 108.3952646  36.6267087  73.3322347 108.4501256  35.6740924  73.2564823
 107.5843848  36.7826527  73.8163645 109.5443840  40.5547210  64.5700630
 109.1063270  39.8383069  64.1106267 110.2854281  40.7823325  64.0085721
 106.3345006  35.2444147  71.0912726 105.5212872  35.5438318  71.4977918
 106.8304000  34.8499836  71.8087208 108.4853584  45.2401904  73.0246990
 108.4429763  45.4662750  72.0955522 109.4016283  45.0065279  73.1732791
 111.9319218  35.7085972  79.9227619 112.2868606  35.9357445  80.7822085
 112.5791349  36.0404348  79.3004875 117.6616955  38.8304408  70.6276948
 117.5234854  39.0206003  69.6998138 117.3053174  39.5923790  71.0845000
 105.8259081  32.8162503  76.7073960 106.4658460  32.6751262  76.0096924
 104.9936612  32.5297016  76.3312562 117.6886335  40.8980935  75.6388220
 118.1222841  40.8056224  76.4871274 118.4017915  40.8738435  75.0008236
 106.6019385  42.1164933  72.8208953 107.3959983  41.6215253  72.6191528
 105.8911077  41.5882796  72.4576658 111.4214229  44.4983029  77.1721321
 111.4751252  45.0673965  77.9399036 110.5529011  44.6684914  76.8075358
 102.9102148  36.2608015  68.8968706 101.9799737  36.1992470  69.1138668
 103.0059620  35.7383968  68.1005347 102.8287697  32.7862828  71.4846947
 103.0894515  33.7008161  71.3756108 103.6504870  32.3187270  71.6343560
 104.3012623  34.2000585  78.6545772 104.9735676  33.9917947  78.0058421
 103.4742409  34.0022671  78.2151004 118.5501884  40.9404635  78.1721105
 118.7437774  41.8450446  78.4180380 118.4502502  40.4812054  79.0059690
 110.2038195  30.8262526  80.6711433 109.5566110  31.5252475  80.5775909
 110.9739210  31.2598670  81.0387681 113.6116993  41.0911378  83.7461986
 113.4602499  40.8621930  82.8292070 113.6021672  42.0481979  83.7593331
 110.3802329  38.6643291  78.7308252 111.3094389  38.8154450  78.5577220
 109.9593359  38.7527311  77.8756899 109.1790661  42.6893955  76.5006790
 109.0401747  42.3212739  77.3732728 108.3905257  43.2041595  76.3290748
 109.7738813  47.7903052  67.8432327 109.9490569  47.3191095  68.6577949
 109.0871601  48.4168818  68.0713587 110.7295876  42.0675558  73.8895628
 110.3945709  42.0276328  74.7853278 110.2299822  41.4020274  73.4166038
 104.7040120  37.4743188  79.4148209 104.5659918  36.7423427  80.0159748
 105.6145044  37.3852088  79.1332397 113.6655068  39.4131592  64.1632687
 113.0484238  38.6878420  64.0665740 113.1971556  40.1740952  63.8199762
 107.3322421  37.1863147  78.9031889 108.0422039  36.5456339  78.8618507
 107.2891729  37.4376042  79.8258069 115.3209199  44.1230500  81.8238468
 115.2621746  43.4389721  81.1569051 115.7228718  44.8649490  81.3719094
 106.0451355  34.1728365  80.7227528 105.5088712  33.7219103  81.3749124
 105.4568063  34.3074274  79.9797992 104.3399898  50.9392414  74.6172187
 104.5796496  51.5710938  75.2951205 103.4969095  50.5880454  74.9037546
 105.4553614  33.6317016  63.2853992 104.5783080  33.5105817  62.9216238
 105.9311367  32.8403095  63.0332880 115.3226607  42.0870084  80.0552447
 114.4353385  41.7496006  80.1778846 115.8925158  41.3553116  80.2921213
  96.9755754  38.4194176  73.3795499  97.6626794  38.1055906  72.7916514
  96.8203882  39.3235541  73.1062750 101.7790476  33.3084373  77.8080523
 101.6948665  32.7010042  77.0730933 100.9573182  33.7993391  77.8090019
 108.8527760  46.7471537  77.0213691 108.7797932  47.5526508  77.5332995
 108.4105153  46.9463503  76.1961712 108.6417540  45.9843307  70.5316512
 107.8585062  46.5264987  70.6254737 109.3410285  46.5017286  70.9310753
 111.9514190  31.7937936  73.1750718 112.4482889  31.0407899  72.8551788
 111.1801171  31.8302253  72.6093927 119.8043947  37.4978302  74.8169009
 119.7933823  38.3803017  74.4462942 118.9361327  37.1449853  74.6223546
 111.3126444  46.6458371  79.1771849 112.0254416  47.2805836  79.1047751
 110.8216472  46.7422237  78.3611851 113.0343970  40.5509623  70.7489141
 112.1000249  40.6711086  70.5793845 113.2120639  39.6482090  70.4849151
 108.5349159  33.9355319  72.9022402 108.1646946  33.3826360  73.5903308
 109.0308251  33.3313453  72.3497402 116.4216522  36.3926943  71.2839175
 116.8876974  37.2254934  71.2099478 116.8724022  35.9271924  71.9884434
 106.3638357  44.3952814  79.9977420 107.0647817  45.0289297  80.1506814
 105.8933472  44.7367546  79.2373059 114.4892753  42.7370764  68.2825327
 114.7652597  42.6227359  69.1919201 113.6197252  42.3388249  68.2437500
 114.3933185  28.7607530  75.3230076 113.4796264  28.9911757  75.4912283
 114.8226286  28.8445974  76.1744109 114.1639643  36.9497422  77.8229971
 113.5111093  37.1973329  77.1682423 114.5420023  36.1361560  77.4892448
 111.1246817  46.9857115  71.9258141 111.3069211  46.1678771  72.3885893
 111.9479803  47.2024807  71.4883031 111.4588982  45.9125300  69.1873189
 111.9876749  45.4017755  68.5743351 111.7217202  45.5967830  70.0518722
 110.2127216  37.6917233  84.3096008 109.5367853  37.5911362  84.9798383
 111.0354850  37.5356447  84.7732005 101.9606075  43.9289169  76.9308523
 102.5459512  43.1832857  77.0636427 101.7630914  44.2393126  77.8145187
 104.8144730  46.9640417  71.9470965 104.1455106  47.4486544  71.4635005
 104.6757600  47.2109637  72.8614344  96.5523730  36.4994770  75.6512966
  96.5907829  35.9658360  76.4450084  96.0464023  35.9729975  75.0323943
 108.9549999  48.9984160  78.5453624 109.5068307  49.1615782  79.3102709
 109.2956192  49.5888598  77.8733648 103.9314492  31.3459310  79.1475508
 103.9955819  32.2074141  78.7352906 103.8681612  30.7333312  78.4147867
 103.4066765  33.4182443  82.7948543 104.0338804  33.0359520  83.4086067
 102.5494684  33.1996644  83.1604235 113.8060873  43.8245418  84.4002278
 114.3500777  44.4375376  83.9057233 113.2247718  44.3824996  84.9169291
 100.1832307  35.2258872  68.7266897 100.4785749  34.3169550  68.6733951
  99.2820343  35.2046611  68.4047900 112.0918386  46.9466136  75.5317306
 111.9669526  46.1455876  75.0228251 112.7497477  47.4412329  75.0431276
 103.7126554  33.3014868  74.7094446 102.9913140  33.9150836  74.5701919
 104.5019810  33.8372633  74.6311092 114.1553295  44.7475156  77.1596856
 113.2083630  44.6280507  77.0875183 114.5036068  43.8597654  77.2423117
 106.5152868  30.6369295  80.9835098 107.0387270  30.8831591  81.7461407
 106.2965201  31.4689330  80.5638235 101.9120149  32.9072969  68.8506223
 101.5832855  32.0270348  68.6681328 102.2659520  32.8520638  69.7382612
 111.1599728  44.5427872  73.3601208 111.0124690  43.6144579  73.5408778
 111.9853221  44.5647963  72.8758283 105.0261972  33.1945939  69.2181700
 105.3658045  33.7231860  68.4960309 105.4734093  33.5326345  69.9940267
 114.7633850  45.3656431  74.4466081 115.6880397  45.1599292  74.3090532
 114.5949153  45.1172832  75.3555422 107.7205413  31.5782990  78.6684768
 107.3802233  30.7790803  79.0705448 107.0144419  31.8784701  78.0961601
 108.3721885  28.6632302  77.1212091 109.1947954  28.1892780  76.9990982
 108.6159948  29.4422786  77.6210778 107.0130119  31.6920561  67.4174993
 107.7338482  32.0701814  66.9138710 106.3895424  32.4109438  67.5209971
 111.1561242  32.3965710  68.3533325 111.3724857  33.2790348  68.0522153
 110.6755309  32.0051923  67.6238967 105.8960464  35.3551423  74.9304070
 105.7505044  35.6691726  75.8228351 105.4185667  35.9736323  74.3774969
 107.7556847  32.3453971  74.9784959 107.7418415  31.4495064  74.6417257
 108.4729275  32.3524635  75.6123246 109.6082977  32.7791311  77.0238087
 109.3500755  33.7008382  77.0222417 109.0768018  32.3821746  77.7138551
 114.5529166  45.8842098  69.8028172 114.7266044  45.3188521  69.0502025
 115.0458057  46.6842993  69.6207662 100.3706126  37.8956767  77.8691731
  99.8259594  38.6716575  78.0012005 101.2485476  38.2427572  77.7110853
 107.1593742  31.2268351  70.2472530 107.2809654  30.2984997  70.4463417
 106.8695785  31.2407037  69.3350845 110.0284933  28.9123262  73.3839249
 110.0506630  28.9762595  72.4291229 110.4452992  28.0727770  73.5779756
 120.4068557  38.6478521  71.4218472 120.8499703  37.8985846  71.0237595
 119.5295067  38.6388658  71.0392204 115.5404338  45.2008863  66.9025071
 116.2355243  45.8215555  67.1212385 115.8827489  44.3504214  67.1777448
 101.1572148  37.0226664  80.7621888 100.4153884  37.1709299  81.3486518
 100.8364892  37.2834929  79.8988637 117.4395762  42.6508568  68.4312401
 117.9647086  42.9895841  67.7061721 117.3518114  41.7155583  68.2475536
 109.1015810  46.5642642  80.5602278 109.4102937  46.3191789  81.4324978
 109.8991292  46.7689280  80.0721148 109.1236422  48.7180551  72.7907655
 108.6841413  48.2256930  73.4840511 109.8744539  48.1753519  72.5499730
 101.6028761  44.9092092  72.7932283 102.4286781  44.6095864  72.4130926
 101.2522813  44.1399715  73.2422071 106.5710295  44.2618561  74.8629956
 105.9490304  43.5989266  74.5632184 107.2415161  44.2879692  74.1803604
  99.8037366  42.8278419  73.7521216  98.9669275  42.4000593  73.5705217
  99.7761012  43.0210862  74.6892007 106.6434822  32.7400349  84.4562462
 106.6922977  33.6162471  84.0740232 107.1857336  32.1977742  83.8834105
 117.1289668  43.2841472  83.7363599 116.3385211  43.2665611  83.1968099
 116.8923022  43.8229765  84.4912636 117.2487543  40.1333938  81.0496328
 117.2985548  39.9683946  81.9911851 117.1401466  39.2661197  80.6594209
 106.1323801  42.8122484  68.3388417 106.2811922  43.4957948  67.6855089
 106.9390245  42.7927574  68.8537872 114.5391305  36.1164866  82.3655635
 115.4401168  35.9771331  82.0739632 114.6139280  36.2819321  83.3053812
 108.8734110  33.4931721  81.2108821 108.0037420  33.7865287  80.9391409
 109.1093591  34.0772166  81.9316084 118.7505740  42.5530880  81.2938349
 118.4590548  42.9160860  82.1301810 118.1377871  41.8397888  81.1151681
 119.9501422  40.1183759  73.8140920 120.7848313  40.5573564  73.9778480
 120.0860551  39.6422413  72.9949165 116.9992928  37.6763494  79.7618407
 117.4747049  37.8691141  78.9537259 116.0758493  37.7322680  79.5161791
 103.8876434  38.8387661  69.3449486 103.6422476  37.9349991  69.5429696
 104.0572349  38.8404812  68.4028964 111.5773144  29.7111338  78.7274241
 112.0955088  30.4472365  78.4020730 111.2228277  30.0175331  79.5621000
 103.1572082  34.5716019  66.8435647 102.4641327  34.6460374  66.1875683
 102.9123834  33.8076363  67.3657164 111.8285738  26.1311620  74.2475138
 112.1087492  25.4634809  74.8735564 112.6136345  26.3240716  73.7349802
 115.6994597  34.5529254  77.9946713 116.6512020  34.6527352  78.0158937
 115.5298047  33.7607523  78.5044797 113.7208976  31.6384838  78.1806114
 113.1258908  31.9189850  77.4852603 113.4358673  32.1278739  78.9522855
 112.8516467  45.5907764  66.9408746 113.7847140  45.5253326  67.1441622
 112.7639680  46.4264031  66.4823279 115.4804483  44.9073635  63.9012694
 115.4018115  44.5733498  64.7948452 116.3014150  45.3995403  63.9004166
 118.1782675  37.7735374  77.1089013 118.1458995  36.8351375  77.2948696
 118.7883298  37.8519411  76.3754837 110.0166005  36.6431427  63.1516217
 110.9625110  36.5137635  63.2204635 109.6380250  35.9046089  63.6285645
 118.3277163  34.5646418  77.1547296 117.8116212  33.7804874  76.9677225
 119.2117112  34.2365134  77.3193815 115.9887890  28.3087433  73.1143108
 115.7912711  28.0002521  73.9986440 116.5987596  29.0349072  73.2441038
 109.9004698  40.6949173  84.6116874 110.8207707  40.8727772  84.8056920
 109.8654281  39.7505219  84.4596573 108.2008923  34.5681403  63.0871102
 107.2940378  34.2714516  63.1633815 108.4784904  34.2711222  62.2205388
  99.1186863  35.8887767  73.5370148  98.7989647  35.0353075  73.2444522
  98.5720291  36.1036345  74.2928116 102.8966771  38.6050208  77.2539655
 103.1152780  39.5367316  77.2727689 103.3092544  38.2458182  78.0394459
 109.8170988  29.1118293  69.2415343 109.0071717  28.7665378  69.6170589
 110.5055405  28.8025837  69.8302955 111.7461537  28.1896340  70.8639640
 112.2992575  28.6091793  71.5229663 111.9831623  27.2632088  70.9062596
 107.7694636  34.1783414  86.6442404 107.6691363  35.1277771  86.5754495
 107.5516178  33.8501653  85.7718474 106.9707707  31.4268339  63.2283081
 107.8326871  31.7523237  63.4878898 107.1558051  30.6399835  62.7156147
  98.9875123  39.5090678  75.5063270  98.2938594  39.0944631  74.9933224
  99.7348114  39.5511215  74.9096689 115.1240344  30.2996865  70.3718304
 114.5439013  30.9581669  69.9896356 114.8576276  29.4774210  69.9605722
 113.5743910  29.7001923  72.5739624 114.0743688  29.8118457  71.7653943
 114.2179518  29.3962976  73.2140433 107.6325906  37.6080552  85.4607465
 107.1492988  38.4080913  85.6671354 107.7186845  37.6188497  84.5074909
 100.9011866  39.4408932  73.3829285 100.8782554  39.5396619  72.4311168
 101.2112502  40.2874083  73.7046451 103.5599243  41.4985087  77.4975899
 104.5142497  41.4669029  77.4305831 103.3611767  41.0375711  78.3126125
 104.1498626  40.0686203  80.0646697 104.9691515  40.5630282  80.0881534
 104.4235433  39.1518171  80.0364264 113.9065222  32.4596956  69.4274652
 113.0191077  32.7446606  69.2094847 114.3219211  32.2990719  68.5801929
 117.2579758  32.4843476  73.1428992 118.0340148  32.9739929  73.4153608
 116.5327892  32.9101531  73.6000861 119.6952316  33.1971096  74.2002932
 120.2896807  32.9566832  73.4896240 119.7678900  32.4778226  74.8276468
 101.9149472  47.0404707  74.5146097 101.7803940  46.2805108  73.9484095
 101.4981534  47.7645607  74.0474886 113.0508435  42.2241630  63.5222672
 113.7544285  42.4291633  64.1380328 112.3271084  42.7918392  63.7871756
 113.8806245  37.9751491  69.6424942 113.8241447  38.4320043  68.8032575
 114.4334588  37.2142176  69.4647785 117.6911051  33.7641223  70.4675062
 117.4347986  33.3637859  71.2983270 117.0663919  34.4785017  70.3425201
 105.0718598  47.9374024  74.7264540 104.9550982  48.8819456  74.6243230
 104.2511044  47.6347585  75.1150339 114.9595133  42.6624159  65.5721132
 115.7940737  42.2305358  65.3898607 114.7979476  42.4906173  66.4998027
 114.6141025  39.1656273  66.9377472 114.5589829  39.0000544  65.9965916
 113.9887080  39.8732306  67.0939661  99.4033540  34.4024337  80.7638894
 100.0492403  33.8923291  81.2526119  99.1950691  35.1393019  81.3382319
 111.9286932  41.4705185  86.2631034 112.7978092  41.6445837  85.9017669
 111.4493683  42.2899601  86.1406764 107.9237150  28.6664382  66.5162790
 107.9115820  29.6106222  66.6731061 108.8160572  28.4834527  66.2222251
 106.0973112  48.5902286  77.9420468 107.0000359  48.6225896  78.2586963
 105.8710482  47.6602737  77.9566804 107.8526714  47.3433272  74.6030547
 106.9022345  47.3435134  74.4894919 108.1559200  46.5966007  74.0866581
 111.7389270  25.2607158  70.7708727 110.9721665  24.7065645  70.9165409
 112.1499975  25.3329027  71.6322878 103.7431031  31.5491954  84.8613908
 104.6062492  31.1928759  85.0717233 103.1696441  31.2105849  85.5489312
 120.3969114  53.1321239  75.6037834 120.0587625  53.0162303  74.7158369
 121.2658882  52.7312404  75.5838840 116.2555930  54.9856715  71.5934725
 115.6920795  54.8946652  70.8251013 116.1408325  54.1656619  72.0737217
 120.8788897  54.2856090  81.5624039 120.8677538  53.8908889  80.6904543
 121.0409536  53.5522163  82.1557811 113.8020362  56.4807907  74.4318945
 114.5941654  56.1398731  74.0165245 114.0417012  56.5902882  75.3521099
 115.7611116  55.7416820  67.3036324 116.5341992  55.1945807  67.1649200
 116.1136514  56.6061069  67.5150785 117.5996158  57.0693202  80.5103223
 117.3086024  57.9738833  80.3949890 118.2353142  57.1109730  81.2247293
 118.5252365  54.4470051  77.1004583 119.1215937  54.2226073  76.3861546
 118.5827336  53.7054796  77.7030031 118.0977393  51.9009486  64.9354774
 118.3502914  51.3791007  64.1738237 117.1601952  51.7375631  65.0381458
 117.8173682  53.8037592  67.1379149 117.7009940  53.1282495  67.8060233
 117.9275942  53.3169966  66.3211302 120.1605223  53.2647739  70.8425838
 119.7963430  52.7378360  71.5538760 121.0172339  52.8746208  70.6692324
 119.8010710  48.2937639  65.8387187 119.9685112  49.1617875  66.2057658
 119.6107879  48.4564920  64.9148476 116.0098525  53.2068414  73.5389721
 115.0849021  53.0744629  73.7467413 116.2582938  53.9862634  74.0359664
 119.7799931  50.7495296  66.8233853 119.6599556  51.1952347  67.6619334
 119.0852519  51.0980614  66.2647392 113.3707336  52.8501688  74.3733511
 113.4999717  53.1036167  75.2872922 112.6904787  53.4429396  74.0538166
 117.5406823  63.5198938  70.4723985 117.4630853  64.4706763  70.5512465
 116.9368467  63.1744810  71.1298911 120.0324053  50.6926803  83.1285352
 119.2557387  51.2520724  83.1188216 120.6714616  51.1783586  83.6500222
 118.2870425  53.5012257  82.6903319 119.0285109  54.0397301  82.4138142
 117.5807411  54.1278546  82.8474870 120.1156835  50.5814004  78.6609037
 120.9618030  51.0053418  78.8043686 120.0555472  49.9247628  79.3547600
 119.6382541  55.9416996  72.3077854 120.1020887  56.2204699  71.5182477
 119.3739339  55.0400441  72.1250945 116.5306622  55.4888478  75.2457617
 117.1007979  55.9175746  74.6075102 117.1214734  55.2071062  75.9441803
 118.5751427  52.0640148  69.1167419 119.2775471  52.5161192  69.5841346
 118.2432056  51.4223967  69.7447312 117.0231789  50.6551905  83.4918629
 116.3930449  51.3368186  83.7254025 116.9167877  50.5434987  82.5471767
 112.3176761  50.3223701  74.4184553 111.5275815  50.5781230  73.9424663
 112.8088009  51.1372039  74.5236593 114.2691507  50.6868280  71.3768029
 113.4722670  50.7986974  71.8951525 114.0417099  51.0254932  70.5108920
 120.0997174  57.2112983  79.3250544 120.1641607  57.6733391  80.1608716
 119.3908098  56.5810348  79.4532854 110.6014464  50.5754191  76.8499544
 110.8522503  51.4601201  77.1157120 111.1374013  50.3958793  76.0774635
 119.8145192  58.8781091  69.1929524 119.6790867  59.7232627  69.6214372
 120.3555004  59.0800369  68.4295458 116.3012532  44.9572671  85.8543880
 115.9079477  44.4038869  86.5291524 117.1178672  45.2683249  86.2450397
 113.2674589  56.3956529  69.7657450 113.7799110  57.1899779  69.9163014
 113.9197302  55.6982819  69.6991051 115.0769474  59.5122285  71.8480203
 115.2536102  60.4340250  71.6601187 115.8726308  59.1980704  72.2774582
 119.2180493  46.3730550  83.4464136 119.9590206  46.9737703  83.3668599
 119.4498415  45.6308188  82.8882179 114.3621831  51.5586917  81.7242366
 114.2475346  50.6572174  82.0249465 113.5066348  51.8050614  81.3727182
 116.2000789  61.0300459  77.8490545 116.7508215  60.9017522  77.0767539
 115.3612265  61.3295348  77.4985438 119.9967961  57.2951587  82.1934776
 120.5296297  56.5339875  81.9634084 119.4682042  57.0025239  82.9358931
 111.2323506  54.7245183  70.5417020 112.0698728  55.1342192  70.3250728
 111.4101774  53.7844625  70.5117214 120.7135049  47.2369965  71.2886091
 119.8576646  46.8476815  71.1091730 121.1262001  47.3161926  70.4285877
 118.4877082  44.8555038  74.6943833 119.3530079  44.6597846  74.3349722
 118.5554591  44.6265389  75.6213190 121.3620673  56.4237579  69.7053588
 120.8342035  55.6890339  69.3926826 120.8608176  57.2012256  69.4593557
 116.0939401  47.0857246  72.0660200 116.6683153  46.8632427  71.3333393
 116.6810383  47.1545940  72.8188801 116.4208988  49.1161707  66.0856085
 115.5846300  49.4536393  66.4065360 116.2813758  48.9810686  65.1483222
 118.3962069  43.9598495  70.7935269 117.7426481  43.6447512  70.1691884
 118.3542543  43.3374235  71.5195092 119.5073273  54.2417790  62.7088561
 118.6000335  54.0107043  62.9079710 120.0044305  53.4455409  62.8962543
 120.6861507  54.3430384  67.2312551 119.7772726  54.0589417  67.3285021
 120.7156591  54.7629463  66.3715858 111.2549677  52.0635899  71.2127754
 111.0574077  51.4705259  70.4878820 110.6996341  51.7588109  71.9303692
 119.2346401  51.9559005  73.3322347 119.2895011  51.0032841  73.2564823
 118.4237603  52.1118444  73.8163645 120.3837595  55.8839128  64.5700630
 119.9457025  55.1674987  64.1106267 121.1248035  56.1115243  64.0085721
 117.1738761  50.5736065  71.0912726 116.3606626  50.8730235  71.4977918
 117.6697755  50.1791754  71.8087208 119.3247339  60.5693822  73.0246990
 119.2823517  60.7954668  72.0955522 120.2410038  60.3357196  73.1732791
 116.6652836  48.1454420  76.7073960 117.3052215  48.0043179  76.0096924
 115.8330366  47.8588934  76.3312562 117.4413139  57.4456851  72.8208953
 118.2353738  56.9507171  72.6191528 116.7304832  56.9174714  72.4576658
 113.7495903  51.5899933  68.8968706 112.8193491  51.5284388  69.1138668
 113.8453375  51.0675885  68.1005347 113.6681452  48.1154745  71.4846947
 113.9288269  49.0300079  71.3756108 114.4898624  47.6479188  71.6343560
 115.1406377  49.5292503  78.6545772 115.8129431  49.3209865  78.0058421
 114.3136164  49.3314589  78.2151004 120.0184415  58.0185873  76.5006790
 119.8795501  57.6504657  77.3732728 119.2299012  58.5333512  76.3290748
 120.6132567  63.1194969  67.8432327 120.7884323  62.6483012  68.6577949
 119.9265355  63.7460735  68.0713587 121.5689631  57.3967475  73.8895628
 121.2339463  57.3568245  74.7853278 121.0693576  56.7312191  73.4166038
 115.5433875  52.8035105  79.4148209 115.4053672  52.0715344  80.0159748
 116.4538798  52.7144006  79.1332397 118.1716175  52.5155065  78.9031889
 118.8815794  51.8748257  78.8618507 118.1285483  52.7667960  79.8258069
 116.8845109  49.5020283  80.7227528 116.3482466  49.0511021  81.3749124
 116.2961818  49.6366192  79.9797992 115.1793653  66.2684332  74.6172187
 115.4190251  66.9002856  75.2951205 114.3362849  65.9172372  74.9037546
 116.2947368  48.9608934  63.2853992 115.4176834  48.8397735  62.9216238
 116.7705121  48.1695012  63.0332880 107.8149508  53.7486094  73.3795499
 108.5020548  53.4347824  72.7916514 107.6597637  54.6527458  73.1062750
 112.6184230  48.6376290  77.8080523 112.5342419  48.0301960  77.0730933
 111.7966937  49.1285309  77.8090019 119.6921515  62.0763454  77.0213691
 119.6191686  62.8818426  77.5332995 119.2498908  62.2755420  76.1961712
 119.4811294  61.3135224  70.5316512 118.6978816  61.8556905  70.6254737
 120.1804039  61.8309204  70.9310753 119.3742913  49.2647237  72.9022402
 119.0040701  48.7118277  73.5903308 119.8702005  48.6605370  72.3497402
 117.2032112  59.7244732  79.9977420 117.9041571  60.3581215  80.1506814
 116.7327227  60.0659463  79.2373059 112.7999830  59.2581087  76.9308523
 113.3853266  58.5124775  77.0636427 112.6024668  59.5685044  77.8145187
 115.6538485  62.2932334  71.9470965 114.9848860  62.7778462  71.4635005
 115.5151355  62.5401555  72.8614344 107.3917484  51.8286687  75.6512966
 107.4301584  51.2950278  76.4450084 106.8857777  51.3021893  75.0323943
 119.7943753  64.3276078  78.5453624 120.3462062  64.4907699  79.3102709
 120.1349947  64.9180516  77.8733648 114.7708247  46.6751228  79.1475508
 114.8349573  47.5366059  78.7352906 114.7075367  46.0625229  78.4147867
 114.2460519  48.7474360  82.7948543 114.8732558  48.3651438  83.4086067
 113.3888438  48.5288562  83.1604235 111.0226062  50.5550789  68.7266897
 111.3179503  49.6461468  68.6733951 110.1214098  50.5338529  68.4047900
 114.5520309  48.6306786  74.7094446 113.8306895  49.2442754  74.5701919
 115.3413565  49.1664551  74.6311092 117.3546623  45.9661212  80.9835098
 117.8781024  46.2123509  81.7461407 117.1358956  46.7981247  80.5638235
 112.7513904  48.2364887  68.8506223 112.4226610  47.3562266  68.6681328
 113.1053274  48.1812556  69.7382612 115.8655727  48.5237857  69.2181700
 116.2051799  49.0523778  68.4960309 116.3127847  48.8618263  69.9940267
 118.5599168  46.9074908  78.6684768 118.2195988  46.1082721  79.0705448
 117.8538174  47.2076618  78.0961601 119.2115639  43.9924220  77.1212091
 120.0341709  43.5184698  76.9990982 119.4553703  44.7714704  77.6210778
 117.8523874  47.0212478  67.4174993 118.5732236  47.3993731  66.9138710
 117.2289178  47.7401355  67.5209971 116.7354218  50.6843341  74.9304070
 116.5898799  50.9983644  75.8228351 116.2579422  51.3028241  74.3774969
 118.5950601  47.6745889  74.9784959 118.5812170  46.7786982  74.6417257
 119.3123029  47.6816552  75.6123246 120.4476732  48.1083229  77.0238087
 120.1894510  49.0300299  77.0222417 119.9161772  47.7113663  77.7138551
 111.2099880  53.2248685  77.8691731 110.6653348  54.0008493  78.0012005
 112.0879230  53.5719489  77.7110853 117.9987497  46.5560269  70.2472530
 118.1203408  45.6276915  70.4463417 117.7089539  46.5698955  69.3350845
 120.8678687  44.2415179  73.3839249 120.8900384  44.3054512  72.4291229
 121.2846746  43.4019688  73.5779756 111.9965902  52.3518581  80.7621888
 111.2547638  52.5001217  81.3486518 111.6758646  52.6126847  79.8988637
 119.9409565  61.8934559  80.5602278 120.2496691  61.6483706  81.4324978
 120.7385047  62.0981198  80.0721148 119.9630177  64.0472469  72.7907655
 119.5235167  63.5548848  73.4840511 120.7138294  63.5045437  72.5499730
 112.4422516  60.2384010  72.7932283 113.2680536  59.9387782  72.4130926
 112.0916568  59.4691632  73.2422071 117.4104049  59.5910478  74.8629956
 116.7884058  58.9281183  74.5632184 118.0808916  59.6171610  74.1803604
 110.6431121  58.1570336  73.7521216 109.8063029  57.7292511  73.5705217
 110.6154766  58.3502780  74.6892007 117.4828576  48.0692266  84.4562462
 117.5316732  48.9454389  84.0740232 118.0251091  47.5269659  83.8834105
 116.9717556  58.1414402  68.3388417 117.1205676  58.8249866  67.6855089
 117.7783999  58.1219492  68.8537872 119.7127865  48.8223639  81.2108821
 118.8431174  49.1157205  80.9391409 119.9487345  49.4064084  81.9316084
 114.7270189  54.1679579  69.3449486 114.4816231  53.2641909  69.5429696
 114.8966103  54.1696730  68.4028964 113.9965836  49.9007937  66.8435647
 113.3035081  49.9752292  66.1875683 113.7517588  49.1368280  67.3657164
 120.4712961  60.6362532  65.8100164 119.8986929  61.2552719  65.3570636
 121.0445755  61.1861894  66.3440086 119.0402677  49.8973321  63.0871102
 118.1334132  49.6006434  63.1633815 119.3178658  49.6003139  62.2205388
 109.9580617  51.2179685  73.5370148 109.6383402  50.3644993  73.2444522
 109.4114046  51.4328263  74.2928116 113.7360525  53.9342126  77.2539655
 113.9546535  54.8659233  77.2727689 114.1486299  53.5750100  78.0394459
 120.6564743  44.4410211  69.2415343 119.8465471  44.0957296  69.6170589
 121.3449160  44.1317755  69.8302955 118.6088390  49.5075331  86.6442404
 118.5085117  50.4569688  86.5754495 118.3909932  49.1793570  85.7718474
 117.8101462  46.7560256  63.2283081 118.6720626  47.0815155  63.4878898
 117.9951806  45.9691752  62.7156147 109.8268877  54.8382596  75.5063270
 109.1332349  54.4236549  74.9933224 110.5741868  54.8803133  74.9096689
 118.4719660  52.9372470  85.4607465 117.9886742  53.7372830  85.6671354
 118.5580599  52.9480415  84.5074909 111.7405620  54.7700850  73.3829285
 111.7176308  54.8688537  72.4311168 112.0506256  55.6166001  73.7046451
 114.3992998  56.8277005  77.4975899 115.3536251  56.7960947  77.4305831
 114.2005521  56.3667629  78.3126125 114.9892380  55.3978121  80.0646697
 115.8085269  55.8922200  80.0881534 115.2629188  54.4810089  80.0364264
 112.7543227  62.3696624  74.5146097 112.6197695  61.6097025  73.9484095
 112.3375289  63.0937524  74.0474886 115.9112353  63.2665941  74.7264540
 115.7944737  64.2111374  74.6243230 115.0904799  62.9639503  75.1150339
 110.2427294  49.7316255  80.7638894 110.8886158  49.2215209  81.2526119
 110.0344445  50.4684936  81.3382319 118.7630905  43.9956299  66.5162790
 118.7509575  44.9398139  66.6731061 119.6554327  43.8126445  66.2222251
 116.9366867  63.9194203  77.9420468 117.8394113  63.9517814  78.2586963
 116.7104237  62.9894654  77.9566804 118.6920469  62.6725190  74.6030547
 117.7416100  62.6727051  74.4894919 118.9952955  61.9257924  74.0866581
 114.5824785  46.8783872  84.8613908 115.4456247  46.5220677  85.0717233
 114.0090196  46.5397767  85.5489312 118.6543263  69.0778012  73.3795499
 119.3414303  68.7639742  72.7916514 118.4991391  69.9819376  73.1062750
 118.2311239  67.1578605  75.6512966 118.2695338  66.6242196  76.4450084
 117.7251532  66.6313810  75.0323943 121.4824875  73.4862254  73.7521216
 120.6456784  73.0584428  73.5705217 121.4548521  73.6794697  74.6892007
 120.7974372  66.5471602  73.5370148 120.4777156  65.6936910  73.2444522
 120.2507800  66.7620180  74.2928116 120.6662632  70.1674514  75.5063270
 119.9726103  69.7528467  74.9933224 121.4135623  70.2095050  74.9096689
  95.8619315   9.8677225  57.1969291  95.7843345  10.8185050  57.2757772
  95.2580959   9.5223098  57.8544218  93.5006145  12.6162619  61.3417493
  93.7402743  13.2481143  62.0196512  92.6575341  12.2650659  61.6282853
  93.9750977   8.6410622  58.6716272  93.3061352   9.1256749  58.1880312
  93.8363847   8.8879842  59.5859650  98.1156246  10.6754365  65.2698930
  98.6674554  10.8385987  66.0348015  98.4562439  11.2658803  64.5978955
  91.0755719   8.7174912  61.2391404  90.9410187   7.9575312  60.6729402
  90.6587781   9.4415811  60.7720193  94.2324845   9.6144229  61.4509846
  94.1157229  10.5589661  61.3488537  93.4117291   9.3117790  61.8395646
  95.2579359  10.2672490  64.6665775  96.1606606  10.2996101  64.9832270
  95.0316729   9.3372941  64.6812111 109.5575361  14.8091444  62.3283140
 109.2193872  14.6932508  61.4403675 110.4265129  14.4082609  62.3084147
 105.4162176  16.6626920  58.3180031 104.8527042  16.5716857  57.5496319
 105.3014571  15.8426824  58.7982524 110.0395144  15.9626295  68.2869346
 110.0283784  15.5679094  67.4149850 110.2015783  15.2292368  68.8803117
 102.9626608  18.1578112  61.1564252 103.7547900  17.8168936  60.7410551
 103.2023259  18.2673087  62.0766405 110.9961735  20.3297888  53.6294496
 110.3449715  20.9151968  53.2428510 111.7906098  20.8604083  53.6889534
 104.9217362  17.4187025  54.0281631 105.6948238  16.8716012  53.8894506
 105.2742761  18.2831274  54.2396092 106.7602405  18.7463407  67.2348530
 106.4692271  19.6509038  67.1195196 107.3959389  18.7879935  67.9492600
 107.6858612  16.1240256  63.8249890 108.2822184  15.8996278  63.1106853
 107.7433583  15.3825001  64.4275337 112.4737000  18.0188320  54.1663481
 111.8382833  18.0922946  54.8784385 112.1434407  18.6081918  53.4882560
 106.9779929  15.4807797  53.8624456 106.8616187  14.8052700  54.5305540
 107.0882189  14.9940171  53.0456609 109.3211470  14.9417944  57.5671145
 108.9569677  14.4148565  58.2784066 110.1778586  14.5516413  57.3937630
 111.7192290  18.4324823  64.2298324 111.4193013  19.3349861  64.1214131
 111.3743349  18.1657006  65.0819477 105.1704771  14.8838619  60.2635028
 104.2455268  14.7514834  60.4712720 105.4189185  15.6632839  60.7604970
 102.5313582  14.5271893  61.0978817 102.6605964  14.7806372  62.0118229
 101.8511034  15.1199601  60.7783472 106.7013070  25.1969143  57.1969291
 106.6237099  26.1476968  57.2757772 106.0974713  24.8515015  57.8544218
 107.4476672  15.1782462  69.4148625 108.1891356  15.7167506  69.1383449
 106.7413657  15.8048750  69.5720177 112.9232011  17.3211602  68.0120787
 113.3315367  16.8794013  67.2675419 112.2009273  16.7464230  68.2654980
 113.2460826  17.8812793  61.7673076 112.6169689  18.0458507  61.0649143
 112.8586488  18.2954402  62.5384040 117.1250058  18.8167231  59.1217439
 116.4401096  19.1966132  58.5714473 117.2093907  19.4262557  59.8549387
 114.3800990  16.4627190  65.7212783 114.5917885  17.1058950  65.0447164
 114.3330738  15.6289506  65.2534713 108.7988788  17.6187201  59.0323161
 109.2627134  17.8974904  58.2427783 108.5345586  16.7170645  58.8496251
 105.6912869  17.1658682  61.9702924 106.2614226  17.5945951  61.3320408
 106.2820981  16.8841267  62.6687110 101.4783008  11.9993906  61.1429859
 100.6882062  12.2551434  60.6669970 101.9694255  12.8142244  61.2481900
 115.4946818  19.3399145  63.8935140 116.3164261  18.9379332  63.6117822
 115.4909220  19.2367379  64.8451256 103.4297753  12.3638485  58.1013336
 102.6328917  12.4757179  58.6196832 103.2023346  12.7025137  57.2354227
 109.2603421  18.8883188  66.0495851 109.3247854  19.3503596  66.8854023
 108.5514345  18.2580553  66.1778161  99.7620711  12.2524396  63.5744850
 100.0128749  13.1371406  63.8402426 100.2980259  12.0728998  62.8019942
 108.9751439  20.5551296  55.9174831 108.8397113  21.4002832  56.3459679
 109.5161251  20.7570574  55.1540765 102.4280836  18.0726734  56.4902756
 102.9405357  18.8669984  56.6408321 103.0803549  17.3753024  56.4236358
 104.2375721  21.1892490  58.5725509 104.4142349  22.1110455  58.3846493
 105.0332554  20.8750909  59.0019889 103.5228077  13.2357122  68.4487673
 103.4081592  12.3342379  68.7494771 102.6672595  13.4820819  68.0972489
 110.6019915  21.1774862  70.0475173 110.1583769  20.3911241  69.7296078
 111.2637129  21.3654013  69.3819064 112.7001153  21.4577662  68.0756574
 112.6819628  22.2786543  67.5836844 113.6221073  21.3331738  68.3006716
 109.1574207  18.9721792  68.9180083 109.6902544  18.2110080  68.6879391
 108.6288288  18.6795444  69.6604237 100.3929753  16.4015388  57.2662327
 101.2304975  16.8112397  57.0496034 100.5708021  15.4614830  57.2362521
 110.5226920  18.1007784  56.4298895 109.9948282  17.3660544  56.1172132
 110.0214423  18.8782461  56.1838863 115.5019766  16.2956805  61.5465941
 114.8443440  16.9856066  61.6346070 116.3060165  16.6853237  61.8899927
 108.6679520  15.9187995  49.4333868 107.7606582  15.6877248  49.6325017
 109.1650552  15.1225614  49.6207849 111.5747599  24.6285502  52.3530554
 110.9009298  24.9317198  52.9615512 111.9613421  25.4314582  52.0036011
 109.8467754  16.0200589  53.9557858 108.9378973  15.7359622  54.0530328
 109.8762837  16.4399668  53.0961165 115.0787021  19.6307179  57.7249025
 114.6249348  18.7898089  57.7814216 114.4480988  20.2668577  58.0623806
 113.5219960  21.4683676  58.6598844 113.8142935  22.0288733  57.9411209
 114.0318581  21.7612237  59.4152003 100.4155924  13.7406104  57.9373060
 100.2180324  13.1475464  57.2124127  99.8602588  13.4358314  58.6548999
 109.5443841  17.5609333  51.2945937 109.1063271  16.8445192  50.8351574
 110.2854282  17.7885448  50.7331028 108.4853585  22.2464027  59.7492297
 108.4429764  22.4724873  58.8200829 109.4016284  22.0127401  59.8978098
 117.6886336  17.9043057  62.3633527 118.1222842  17.8118346  63.2116581
 118.4017916  17.8800558  61.7253543 106.6019386  19.1227056  59.5454260
 107.3959985  18.6277376  59.3436835 105.8911079  18.5944919  59.1821965
 111.4214231  21.5045151  63.8966627 111.4751253  22.0736088  64.6644343
 110.5529012  21.6747036  63.5320664 102.9102150  13.2670137  55.6214012
 101.9799738  13.2054593  55.8383974 103.0059622  12.7446090  54.8250654
 118.5501885  17.9466758  64.8966412 118.7437775  18.8512568  65.1425687
 118.4502503  17.4874177  65.7304997 113.6116994  18.0973501  70.4707293
 113.4602500  17.8684052  69.5537376 113.6021673  19.0544102  70.4838638
 110.3802330  15.6705413  65.4553559 111.3094390  15.8216573  65.2822526
 109.9593360  15.7589434  64.6002206 109.1790662  19.6956078  63.2252097
 109.0401748  19.3274862  64.0978035 108.3905258  20.2103717  63.0536054
 109.7738814  24.7965174  54.5677633 109.9490570  24.3253217  55.3823256
 109.0871602  25.4230940  54.7958894 110.7295877  19.0737680  60.6140934
 110.3945710  19.0338450  61.5098584 110.2299823  18.4082396  60.1411345
 104.7040121  14.4805310  66.1393516 104.5659919  13.7485549  66.7405055
 105.6145045  14.3914211  65.8577703 113.6655069  16.4193715  50.8877994
 113.0484240  15.6940543  50.7911047 113.1971557  17.1803075  50.5445068
 107.3322422  14.1925270  65.6277195 108.0422041  13.5518462  65.5863814
 107.2891730  14.4438165  66.5503376 115.3209201  21.1292623  68.5483774
 115.2621747  20.4451843  67.8814357 115.7228719  21.8711613  68.0964400
 104.3399899  27.9454537  61.3417493 104.5796498  28.5773061  62.0196512
 103.4969096  27.5942577  61.6282853 115.3226608  19.0932207  66.7797754
 114.4353387  18.7558129  66.9024153 115.8925159  18.3615238  67.0166520
  96.9755755  15.4256299  60.1040806  97.6626795  15.1118029  59.5161821
  96.8203884  16.3297663  59.8308057 108.8527761  23.7533659  63.7458997
 108.7797933  24.5588631  64.2578302 108.4105154  23.9525625  62.9207019
 108.6417541  22.9905429  57.2561819 107.8585063  23.5327110  57.3500043
 109.3410286  23.5079409  57.6556060 111.3126445  23.6520493  65.9017156
 112.0254417  24.2867958  65.8293057 110.8216473  23.7484359  65.0857158
 113.0343972  17.5571746  57.4734448 112.1000250  17.6773209  57.3039152
 113.2120640  16.6544213  57.2094458 106.3638358  21.4014937  66.7222727
 107.0647818  22.0351420  66.8752121 105.8933473  21.7429668  65.9618366
 114.4892754  19.7432887  55.0070634 114.7652598  19.6289481  55.9164508
 113.6197253  19.3450371  54.9682807 111.1246818  23.9919237  58.6503447
 111.3069213  23.1740893  59.1131200 111.9479804  24.2086930  58.2128337
 111.4588984  22.9187423  55.9118496 111.9876750  22.4079877  55.2988658
 111.7217203  22.6029953  56.7764029 110.2127217  14.6979355  71.0341314
 109.5367854  14.5973485  71.7043689 111.0354851  14.5418569  71.4977311
 101.9606076  20.9351292  63.6553829 102.5459513  20.1894980  63.7881734
 101.7630915  21.2455249  64.5390493 104.8144732  23.9702539  58.6716272
 104.1455107  24.4548667  58.1880312 104.6757601  24.2171760  59.5859650
  96.5523731  13.5056892  62.3758273  96.5907831  12.9720483  63.1695391
  96.0464024  12.9792098  61.7569250 108.9550000  26.0046283  65.2698930
 109.5068308  26.1677904  66.0348015 109.2956194  26.5950721  64.5978955
 113.8060875  20.8307540  71.1247585 114.3500779  21.4437499  70.6302539
 113.2247719  21.3887119  71.6414598 100.1832309  12.2320994  55.4512204
 100.4785750  11.3231673  55.3979258  99.2820345  12.2108734  55.1293206
 112.0918388  23.9528258  62.2562612 111.9669527  23.1517998  61.7473558
 112.7497479  24.4474452  61.7676582 114.1553296  21.7537278  63.8842162
 113.2083631  21.6342630  63.8120489 114.5036069  20.8659776  63.9668424
 111.1599729  21.5489995  60.0846515 111.0124692  20.6206702  60.2654085
 111.9853223  21.5710085  59.6003590 114.7633851  22.3718553  61.1711387
 115.6880399  22.1661415  61.0335839 114.5949154  22.1234955  62.0800729
 114.5529167  22.8904221  56.5273479 114.7266045  22.3250643  55.7747331
 115.0458058  23.6905116  56.3452969 100.3706127  14.9018890  64.5937038
  99.8259595  15.6778698  64.7257312 101.2485477  15.2489694  64.4356159
 115.5404340  22.2070985  53.6270377 116.2355244  22.8277678  53.8457692
 115.8827490  21.3566336  53.9022755 101.1572149  14.0288786  67.4867195
 100.4153885  14.1771422  68.0731825 100.8364893  14.2897052  66.6233944
 117.4395763  19.6570691  55.1557708 117.9647087  19.9957964  54.4307028
 117.3518115  18.7217706  54.9720843 109.1015812  23.5704764  67.2847585
 109.4102938  23.3253911  68.1570284 109.8991294  23.7751403  66.7966455
 109.1236424  25.7242674  59.5152961 108.6841414  25.2319053  60.2085818
 109.8744541  25.1815642  59.2745036 101.6028763  21.9154215  59.5177589
 102.4286783  21.6157987  59.1376233 101.2522815  21.1461837  59.9667378
 106.5710296  21.2680683  61.5875263 105.9490305  20.6051388  61.2877491
 107.2415163  21.2941815  60.9048911  99.8037368  19.8340541  60.4766523
  98.9669276  19.4062716  60.2950524  99.7761013  20.0272985  61.4137314
 117.1289669  20.2903594  70.4608906 116.3385213  20.2727733  69.9213405
 116.8923024  20.8291888  71.2157943 106.1323803  19.8184606  55.0633723
 106.2811923  20.5020071  54.4100396 106.9390246  19.7989697  55.5783179
 118.7505741  19.5593002  68.0183656 118.4590549  19.9222983  68.8547117
 118.1377872  18.8460011  67.8396988 103.8876436  15.8449784  56.0694792
 103.6422478  14.9412114  56.2675002 104.0572350  15.8466935  55.1274270
 109.6319208  22.3132737  52.5345471 109.0593175  22.9322924  52.0815943
 110.2052002  22.8632099  53.0685393 112.8516468  22.5969887  53.6654053
 113.7847141  22.5315449  53.8686929 112.7639681  23.4326154  53.2068586
 115.4804485  21.9135757  50.6258001 115.4018116  21.5795621  51.5193759
 116.3014151  22.4057525  50.6249473 109.9004699  17.7011296  71.3362180
 110.8207709  17.8789895  71.5302227 109.8654282  16.7567341  71.1841880
  99.1186864  12.8949889  60.2615455  98.7989649  12.0415198  59.9689829
  98.5720292  13.1098468  61.0173422 102.8966772  15.6112330  63.9784961
 103.1152782  16.5429438  63.9972995 103.3092546  15.2520305  64.7639765
  98.9875124  16.5152801  62.2308576  98.2938596  16.1006754  61.7178531
  99.7348115  16.5573337  61.6341995 107.6325907  14.6142675  72.1852772
 107.1492989  15.4143035  72.3916661 107.7186846  14.6250620  71.2320216
 100.9011867  16.4471055  60.1074591 100.8782555  16.5458742  59.1556474
 101.2112503  17.2936206  60.4291758 103.5599245  18.5047210  64.2221206
 104.5142498  18.4731152  64.1551137 103.3611768  18.0437833  65.0371432
 104.1498627  17.0748326  66.7892003 104.9691516  17.5692404  66.8126841
 104.4235434  16.1580294  66.7609571 101.9149473  24.0466829  61.2391404
 101.7803941  23.2867230  60.6729402 101.4981536  24.7707729  60.7720193
 113.0508436  19.2303753  50.2467979 113.7544287  19.4353755  50.8625635
 112.3271085  19.7980515  50.5117062 105.0718599  24.9436146  61.4509846
 104.9550983  25.8881579  61.3488537 104.2511046  24.6409708  61.8395646
 114.9595134  19.6686282  52.2966439 115.7940738  19.2367480  52.1143914
 114.7979477  19.4968296  53.2243333 114.6141026  16.1718395  53.6622778
 114.5589830  16.0062667  52.7211222 113.9887081  16.8794428  53.8184968
  99.4033541  11.4086460  67.4884201 100.0492405  10.8985414  67.9771426
  99.1950692  12.1455141  68.0627626 111.9286933  18.4767307  72.9876341
 112.7978093  18.6507959  72.6262976 111.4493685  19.2961724  72.8652070
 106.0973113  25.5964408  64.6665775 107.0000360  25.6288018  64.9832270
 105.8710483  24.6664859  64.6812111 120.3969115  30.1383361  62.3283140
 120.0587627  30.0224426  61.4403675 121.2658883  29.7374526  62.3084147
 116.2555931  31.9918838  58.3180031 115.6920796  31.9008775  57.5496319
 116.1408326  31.1718742  58.7982524 120.8788898  31.2918213  68.2869346
 120.8677539  30.8971011  67.4149850 121.0409538  30.5584286  68.8803117
 113.8020363  33.4870029  61.1564252 114.5941655  33.1460854  60.7410551
 114.0417013  33.5965004  62.0766405 115.7611117  32.7478942  54.0281631
 116.5341993  32.2007930  53.8894506 116.1136516  33.6123192  54.2396092
 117.5996159  34.0755325  67.2348530 117.3086025  34.9800956  67.1195196
 118.2353144  34.1171852  67.9492600 118.5252366  31.4532173  63.8249890
 119.1215938  31.2288196  63.1106853 118.5827338  30.7116919  64.4275337
 118.0977395  28.9071609  51.6600081 118.3502915  28.3853130  50.8983544
 117.1601954  28.7437754  51.7626764 117.8173683  30.8099715  53.8624456
 117.7009941  30.1344618  54.5305540 117.9275943  30.3232088  53.0456609
 120.1605224  30.2709862  57.5671145 119.7963432  29.7440483  58.2784066
 121.0172340  29.8808331  57.3937630 119.8010711  25.2999761  52.5632493
 119.9685114  26.1679998  52.9302964 119.6107880  25.4627043  51.6393783
 116.0098526  30.2130537  60.2635028 115.0849022  30.0806751  60.4712720
 116.2582939  30.9924756  60.7604970 119.7799932  27.7557419  53.5479160
 119.6599557  28.2014470  54.3864640 119.0852521  28.1042737  52.9892698
 113.3707337  29.8563811  61.0978817 113.4999718  30.1098290  62.0118229
 112.6904788  30.4491519  60.7783472 117.5406824  40.5261061  57.1969291
 117.4630854  41.4768886  57.2757772 116.9368468  40.1806933  57.8544218
 120.0324054  27.6988926  69.8530658 119.2557388  28.2582846  69.8433523
 120.6714617  28.1845709  70.3745528 118.2870426  30.5074379  69.4148625
 119.0285111  31.0459423  69.1383449 117.5807412  31.1340668  69.5720177
 120.1156836  27.5876127  65.3854344 120.9618031  28.0115540  65.5288993
 120.0555474  26.9309751  66.0792907 119.6382542  32.9479119  59.0323161
 120.1020888  33.2266822  58.2427783 119.3739341  32.0462563  58.8496251
 116.5306624  32.4950600  61.9702924 117.1007981  32.9237868  61.3320408
 117.1214735  32.2133185  62.6687110 118.5751429  29.0702271  55.8412726
 119.2775472  29.5223315  56.3086652 118.2432057  28.4286090  56.4692619
 117.0231790  27.6614028  70.2163935 116.3930451  28.3430308  70.4499332
 116.9167878  27.5497109  69.2717073 112.3176762  27.3285824  61.1429859
 111.5275816  27.5843352  60.6669970 112.8088010  28.1434161  61.2481900
 114.2691508  27.6930403  58.1013336 113.4722671  27.8049097  58.6196832
 114.0417100  28.0317055  57.2354227 120.0997175  34.2175106  66.0495851
 120.1641608  34.6795513  66.8854023 119.3908099  33.5872471  66.1778161
 110.6014465  27.5816314  63.5744850 110.8522504  28.4663324  63.8402426
 111.1374014  27.4020916  62.8019942 119.8145193  35.8843214  55.9174831
 119.6790868  36.7294749  56.3459679 120.3555006  36.0862491  55.1540765
 116.3012533  21.9634793  72.5789186 115.9079478  21.4100992  73.2536831
 117.1178673  22.2745372  72.9695704 113.2674591  33.4018652  56.4902756
 113.7799111  34.1961902  56.6408321 113.9197303  32.7044942  56.4236358
 115.0769475  36.5184408  58.5725509 115.2536104  37.4402373  58.3846493
 115.8726309  36.2042827  59.0019889 119.2180494  23.3792672  70.1709443
 119.9590207  23.9799826  70.0913905 119.4498417  22.6370310  69.6127485
 114.3621832  28.5649040  68.4487673 114.2475347  27.6634297  68.7494771
 113.5066350  28.8112737  68.0972489 116.2000791  38.0362582  64.5735852
 116.7508216  37.9079645  63.8012846 115.3612267  38.3357471  64.2230744
 119.9967962  34.3013709  68.9180083 120.5296299  33.5401998  68.6879391
 119.4682043  34.0087361  69.6604237 111.2323507  31.7307306  57.2662327
 112.0698729  32.1404314  57.0496034 111.4101775  30.7906748  57.2362521
 120.7135050  24.2432087  58.0131398 119.8576647  23.8538938  57.8337037
 121.1262002  24.3224048  57.1531184 118.4877083  21.8617160  61.4189140
 119.3530080  21.6659969  61.0595029 118.5554592  21.6327512  62.3458496
 121.3620674  33.4299702  56.4298895 120.8342036  32.6952462  56.1172132
 120.8608177  34.2074378  56.1838863 116.0939402  24.0919368  58.7905506
 116.6683154  23.8694550  58.0578699 116.6810385  24.1608063  59.5434108
 116.4208989  26.1223829  52.8101392 115.5846301  26.4598516  53.1310666
 116.2813759  25.9872809  51.8728529 118.3962070  20.9660617  57.5180576
 117.7426482  20.6509634  56.8937191 118.3542544  20.3436358  58.2440399
 119.5073275  31.2479912  49.4333868 118.6000336  31.0169166  49.6325017
 120.0044307  30.4517531  49.6207849 120.6861508  31.3492507  53.9557858
 119.7772727  31.0651540  54.0530328 120.7156592  31.7691586  53.0961165
 111.2549678  29.0698021  57.9373060 111.0574078  28.4767382  57.2124127
 110.6996342  28.7650231  58.6548999 119.2346402  28.9621128  60.0567653
 119.2895012  28.0094964  59.9810130 118.4237604  29.1180567  60.5408952
 120.3837596  32.8901251  51.2945937 119.9457026  32.1737110  50.8351574
 121.1248037  33.1177366  50.7331028 117.1738762  27.5798187  57.8158032
 116.3606628  27.8792358  58.2223224 117.6697756  27.1853876  58.5332514
 119.3247340  37.5755944  59.7492297 119.2823519  37.8016791  58.8200829
 120.2410039  37.3419319  59.8978098 116.6652837  25.1516543  63.4319267
 117.3052216  25.0105302  62.7342230 115.8330367  24.8651056  63.0557869
 117.4413141  34.4518973  59.5454260 118.2353739  33.9569294  59.3436835
 116.7304833  33.9236837  59.1821965 113.7495904  28.5962055  55.6214012
 112.8193492  28.5346511  55.8383974 113.8453376  28.0738008  54.8250654
 113.6681453  25.1216868  58.2092254 113.9288271  26.0362201  58.1001414
 114.4898626  24.6541311  58.3588867 115.1406379  26.5354625  65.3791078
 115.8129432  26.3271987  64.7303727 114.3136165  26.3376711  64.9396311
 120.0184417  35.0247995  63.2252097 119.8795502  34.6566780  64.0978035
 119.2299013  35.5395635  63.0536054 120.6132569  40.1257092  54.5677633
 120.7884324  39.6545135  55.3823256 119.9265357  40.7522858  54.7958894
 121.5689632  34.4029598  60.6140934 121.2339464  34.3630368  61.5098584
 121.0693578  33.7374314  60.1411345 115.5433876  29.8097228  66.1393516
 115.4053674  29.0777467  66.7405055 116.4538799  29.7206128  65.8577703
 118.1716176  29.5217187  65.6277195 118.8815795  28.8810380  65.5863814
 118.1285485  29.7730082  66.5503376 116.8845110  26.5082405  67.4472835
 116.3482467  26.0573144  68.0994431 116.2961819  26.6428314  66.7043299
 115.1793654  43.2746455  61.3417493 115.4190252  43.9064979  62.0196512
 114.3362850  42.9234495  61.6282853 116.2947369  25.9671057  50.0099298
 115.4176836  25.8459857  49.6461545 116.7705122  25.1757135  49.7578187
 107.8149510  30.7548216  60.1040806 108.5020549  30.4409946  59.5161821
 107.6597638  31.6589581  59.8308057 112.6184232  25.6438413  64.5325829
 112.5342420  25.0364083  63.7976239 111.7966938  26.1347431  64.5335326
 119.6921516  39.0825577  63.7458997 119.6191687  39.8880549  64.2578302
 119.2498909  39.2817543  62.9207019 119.4811295  38.3197347  57.2561819
 118.6978817  38.8619027  57.3500043 120.1804041  38.8371327  57.6556060
 119.3742914  26.2709360  59.6267709 119.0040702  25.7180400  60.3148614
 119.8702007  25.6667493  59.0742709 117.2032113  36.7306855  66.7222727
 117.9041572  37.3643337  66.8752121 116.7327228  37.0721586  65.9618366
 112.7999831  36.2643210  63.6553829 113.3853268  35.5186897  63.7881734
 112.6024669  36.5747166  64.5390493 107.3917486  28.8348810  62.3758273
 107.4301585  28.3012400  63.1695391 106.8857778  28.3084015  61.7569250
 119.7943755  41.3338200  65.2698930 120.3462063  41.4969822  66.0348015
 120.1349948  41.9242638  64.5978955 114.7708248  23.6813350  65.8720815
 114.8349574  24.5428181  65.4598213 114.7075368  23.0687352  65.1393173
 114.2460520  25.7536483  69.5193849 114.8732559  25.3713560  70.1331374
 113.3888439  25.5350685  69.8849542 111.0226063  27.5612912  55.4512204
 111.3179504  26.6523590  55.3979258 110.1214099  27.5400651  55.1293206
 114.5520310  25.6368909  61.4339753 113.8306896  26.2504876  61.2947226
 115.3413566  26.1726673  61.3556399 117.3546624  22.9723335  67.7080404
 117.8781026  23.2185632  68.4706714 117.1358957  23.8043370  67.2883542
 112.7513905  25.2427010  55.5751529 112.4226611  24.3624389  55.3926635
 113.1053276  25.1874678  56.4627918 115.8655728  25.5299979  55.9427007
 116.2051800  26.0585901  55.2205615 116.3127848  25.8680386  56.7185573
 118.5599169  23.9137030  65.3930075 118.2195989  23.1144843  65.7950755
 117.8538175  24.2138741  64.8206908 119.2115641  20.9986343  63.8457398
 120.0341710  20.5246821  63.7236288 119.4553704  21.7776826  64.3456084
 117.8523875  24.0274601  54.1420300 118.5732238  24.4055854  53.6384016
 117.2289179  24.7463478  54.2455278 116.7354219  27.6905463  61.6549377
 116.5898800  28.0045766  62.5473658 116.2579423  28.3090364  61.1020275
 118.5950602  24.6808011  61.7030266 118.5812171  23.7849104  61.3662564
 119.3123030  24.6878675  62.3368552 120.4476733  25.1145351  63.7483394
 120.1894511  26.0362422  63.7467724 119.9161773  24.7175786  64.4383858
 111.2099882  30.2310808  64.5937038 110.6653350  31.0070616  64.7257312
 112.0879231  30.5781612  64.4356159 117.9987498  23.5622391  56.9717836
 118.1203409  22.6339038  57.1708724 117.7089541  23.5761077  56.0596152
 120.8678689  21.2477302  60.1084556 120.8900385  21.3116635  59.1536536
 121.2846748  20.4081811  60.3025062 111.9965903  29.3580704  67.4867195
 111.2547639  29.5063339  68.0731825 111.6758648  29.6188969  66.6233944
 119.9409566  38.8996682  67.2847585 120.2496693  38.6545829  68.1570284
 120.7385048  39.1043321  66.7966455 119.9630178  41.0534592  59.5152961
 119.5235168  40.5610970  60.2085818 120.7138295  40.5107559  59.2745036
 112.4422517  37.2446133  59.5177589 113.2680537  36.9449904  59.1376233
 112.0916569  36.4753755  59.9667378 117.4104050  36.5972601  61.5875263
 116.7884060  35.9343306  61.2877491 118.0808917  36.6233733  60.9048911
 110.6431122  35.1632459  60.4766523 109.8063030  34.7354633  60.2950524
 110.6154768  35.3564902  61.4137314 117.4828578  25.0754389  71.1807769
 117.5316733  25.9516512  70.7985538 118.0251092  24.5331782  70.6079412
 116.9717557  35.1476524  55.0633723 117.1205678  35.8311989  54.4100396
 117.7784001  35.1281614  55.5783179 119.7127866  25.8285761  67.9354127
 118.8431176  26.1219327  67.6636716 119.9487347  26.4126206  68.6561391
 114.7270190  31.1741702  56.0694792 114.4816232  30.2704032  56.2675002
 114.8966105  31.1758852  55.1274270 113.9965838  26.9070059  53.5680954
 113.3035083  26.9814414  52.9120990 113.7517590  26.1430403  54.0902471
 120.4712963  37.6424655  52.5345471 119.8986930  38.2614842  52.0815943
 121.0445756  38.1924016  53.0685393 119.0402678  26.9035444  49.8116409
 118.1334134  26.6068556  49.8879122 119.3178659  26.6065262  48.9450695
 113.7360526  30.9404248  63.9784961 113.9546536  31.8721356  63.9972995
 114.1486300  30.5812223  64.7639765 120.6564744  21.4472333  55.9660650
 119.8465472  21.1019418  56.3415896 121.3449161  21.1379877  56.5548261
 118.6088392  26.5137454  73.3687710 118.5085118  27.4631811  73.2999801
 118.3909934  26.1855693  72.4963780 117.8101463  23.7622379  49.9528388
 118.6720627  24.0877277  50.2124205 117.9951807  22.9753875  49.4401454
 109.8268879  31.8444719  62.2308576 109.1332350  31.4298671  61.7178531
 110.5741870  31.8865255  61.6341995 118.4719662  29.9434593  72.1852772
 117.9886743  30.7434953  72.3916661 118.5580601  29.9542538  71.2320216
 111.7405621  31.7762972  60.1074591 111.7176309  31.8750660  59.1556474
 112.0506258  32.6228123  60.4291758 114.3992999  33.8339127  64.2221206
 115.3536253  33.8023070  64.1551137 114.2005523  33.3729751  65.0371432
 114.9892381  32.4040243  66.7892003 115.8085270  32.8984322  66.8126841
 115.2629189  31.4872212  66.7609571 112.7543228  39.3758747  61.2391404
 112.6197696  38.6159148  60.6729402 112.3375290  40.0999647  60.7720193
 115.9112354  40.2728064  61.4509846 115.7944738  41.2173496  61.3488537
 115.0904800  39.9701625  61.8395646 110.2427295  26.7378377  67.4884201
 110.8886159  26.2277331  67.9771426 110.0344447  27.4747059  68.0627626
 118.7630906  21.0018422  53.2408097 118.7509576  21.9460262  53.3976368
 119.6554328  20.8188567  52.9467558 116.9366868  40.9256326  64.6665775
 117.8394115  40.9579936  64.9832270 116.7104238  39.9956777  64.6812111
 118.6920470  39.6787312  61.3275853 117.7416101  39.6789174  61.2140226
 118.9952956  38.9320047  60.8111888 114.5824786  23.8845994  71.5859215
 115.4456248  23.5282799  71.7962539 114.0090197  23.5459889  72.2734619
 118.6543264  46.0840134  60.1040806 119.3414304  45.7701864  59.5161821
 118.4991393  46.9881499  59.8308057 118.2311240  44.1640727  62.3758273
 118.2695340  43.6304318  63.1695391 117.7251533  43.6375933  61.7569250
 121.4824877  50.4924377  60.4766523 120.6456785  50.0646551  60.2950524
 121.4548522  50.6856820  61.4137314 120.7974373  43.5533725  60.2615455
 120.4777158  42.6999033  59.9689829 120.2507801  43.7682303  61.0173422
 120.6662633  47.1736636  62.2308576 119.9726105  46.7590589  61.7178531
 121.4135624  47.2157173  61.6341995 117.5406825  17.5323183  43.9214598
 117.4630855  18.4831008  44.0003079 116.9368469  17.1869056  44.5789524
 115.1793655  20.2808577  48.0662800 115.4190253  20.9127101  48.7441819
 114.3362852  19.9296617  48.3528159 115.6538487  16.3056580  45.3961579
 114.9848863  16.7902707  44.9125619 115.5151357  16.5525800  46.3104957
 119.7943756  18.3400323  51.9944237 120.3462064  18.5031945  52.7593322
 120.1349949  18.9304761  51.3224262 112.7543229  16.3820870  47.9636710
 112.6197697  15.6221270  47.3974708 112.3375291  17.1061769  47.4965499
 115.9112355  17.2790187  48.1755153 115.7944739  18.2235619  48.0733843
 115.0904801  16.9763748  48.5640952 116.9366869  17.9318448  51.3911081
 117.8394116  17.9642059  51.7077576 116.7104239  17.0018899  51.4057417
 118.6543265  23.0902257  46.8286112 119.3414305  22.7763987  46.2407127
 118.4991394  23.9943621  46.5553364 118.2311241  21.1702850  49.1003579
 118.2695341  20.6366441  49.8940697 117.7251534  20.6438056  48.4814556
 121.4824878  27.4986499  47.2011829 120.6456786  27.0708674  47.0195831
 121.4548523  27.6918943  48.1382621 120.7974374  20.5595847  46.9860762
 120.4777159  19.7061156  46.6935136 120.2507803  20.7744426  47.7418729
 120.6662634  24.1798759  48.9553883 119.9726106  23.7652712  48.4423838
 121.4135625  24.2219295  48.3587302  24.8597557  62.9515300 118.7304018
  24.1859256  63.2546997 119.3388976  25.2463379  63.7544381 118.3809475
  28.8254298  60.5300784 120.0043841  29.5205202  61.1507477 120.2231156
  29.1677448  59.6796135 120.2796219  22.9169166  60.6362536 118.9118935
  22.3443133  61.2552723 118.4589406  23.4901960  61.1861897 119.4458856
  26.1366426  60.9199686 120.0427517  27.0697099  60.8545247 120.2460392
  26.0489639  61.7555953 119.5842049  28.7654442  60.2365556 117.0031464
  28.6868074  59.9025420 117.8967222  29.5864109  60.7287324 117.0022937
  26.3358394  57.5533551 116.6241443  27.0394244  57.7583554 117.2399098
  25.6121043  58.1210313 116.8890526  28.2445092  57.9916081 118.6739903
  29.0790696  57.5597279 118.4917378  28.0829435  57.8198094 119.6016797
  36.8729367  68.5085732 128.7695079  37.5107777  68.3892479 128.0658420
  36.7550210  69.4566576 128.8283032  29.5405889  70.3148636 124.6953495
  28.9770754  70.2238573 123.9269783  29.4258284  69.4948541 125.1755988
  35.1205447  73.9819604 120.0067960  34.4693427  74.5673684 119.6201974
  35.9149810  74.5125799 120.0662998  29.0461075  71.0708741 120.4055094
  29.8191951  70.5237728 120.2667970  29.3986473  71.9352990 120.6169556
  31.3827352  67.2301407 118.0373544  31.6352873  66.7082928 117.2757007
  30.4451911  67.0667553 118.1400228  36.4270635  66.2337186 125.8448288
  37.2133724  65.8156609 125.4938705  36.6909340  67.1383278 126.0129936
  36.5980713  71.6710036 120.5436944  35.9626546  71.7444662 121.2557849
  36.2678119  72.2603635 119.8656024  41.8279062  66.1712419 126.7481266
  42.5604234  65.6011636 126.9819096  41.0718418  65.7834019 127.1887772
  31.1023641  69.1329513 120.2397919  30.9859899  68.4574417 120.9079004
  31.2125901  68.6461887 119.4230072  33.4455182  68.5939660 123.9444609
  33.0813389  68.0670281 124.6557530  34.3022298  68.2038129 123.7711094
  33.0860669  63.6229560 118.9405957  33.2535071  64.4909796 119.3076428
  32.8957838  63.7856842 118.0167246  33.0649890  66.0787217 119.9252624
  32.9449515  66.5244268 120.7638104  32.3702478  66.4272535 119.3666162
  30.8256782  78.8490859 123.5742755  30.7480812  79.7998684 123.6531236
  30.2218426  78.5036732 124.2317681  38.7634956  66.5508691 120.7532958
  39.6752812  66.7836077 120.5780655  38.2544603  67.1345735 120.1908036
  37.3704538  71.5334509 128.1446539  36.7413401  71.6980223 127.4422607
  36.9830200  71.9476119 128.9157503  41.2493770  72.4688947 125.4990903
  40.5644808  72.8487848 124.9487936  41.3337620  73.0784274 126.2322851
  32.9232500  71.2708917 125.4096624  33.3870846  71.5496620 124.6201247
  32.6589298  70.3692362 125.2269715  31.8601386  67.3932070 122.2186190
  32.5625430  67.8453113 122.6860116  31.5282015  66.7515888 122.8466083
  39.6190530  72.9920861 130.2708604  40.4407974  72.5901049 129.9891286
  39.6152933  72.8889096 131.2224720  47.7096523  69.3359610 126.6193575
  46.9560231  68.7667008 126.4637580  47.8444064  69.3022274 127.5664210
  33.0995151  74.2073012 122.2948295  32.9640826  75.0524548 122.7233143
  33.6404963  74.4092290 121.5314229  26.5524548  71.7248450 122.8676220
  27.0649069  72.5191700 123.0181785  27.2047261  71.0274741 122.8009821
  28.3619433  74.8414207 124.9498973  28.5386061  75.7632171 124.7619957
  29.1576267  74.5272626 125.3793353  24.5173465  70.0537105 123.6435790
  25.3548687  70.4634113 123.4269498  24.6951733  69.1136547 123.6135984
  36.4137897  67.7212185 119.3319623  35.8984521  68.4916790 119.5708011
  36.1415206  67.0477321 119.9552685  33.9985008  62.5661886 124.3904862
  33.1426605  62.1768736 124.2110500  34.4111960  62.6453847 123.5304647
  41.3872171  70.4744540 121.2672797  40.6101614  70.1355699 120.8227959
  42.0663652  70.4797163 120.5927762  36.2024200  65.5939277 121.1579405
  35.8974336  65.9085426 122.0089548  37.1554643  65.6720697 121.2006738
  34.6470632  71.7529501 122.8072359  34.1191994  71.0182260 122.4945596
  34.1458135  72.5304177 122.5612327  39.6263478  69.9478521 127.9239405
  38.9687153  70.6377782 128.0119533  40.4303877  70.3374953 128.2673391
  38.4368937  68.3022894 125.9743347  38.9500819  68.9352886 126.4765056
  39.0870161  67.7024089 125.6086707  29.7058947  64.4453628 119.1874855
  28.8696259  64.7828314 119.5084130  29.5663717  64.3102608 118.2501992
  32.7923232  69.5709711 115.8107332  31.8850294  69.3398964 116.0098481
  33.2894264  68.7747330 115.9981313  35.6991311  78.2807218 118.7304018
  35.0253010  78.5838915 119.3388976  36.0857133  79.0836298 118.3809475
  35.6984816  67.1763765 123.3504367  36.4456635  67.6885162 123.0411489
  35.9676405  66.8547818 124.2108761  33.9711466  69.6722306 120.3331322
  33.0622685  69.3881339 120.4303791  34.0006550  70.0921384 119.4734629
  39.2030733  73.2828895 124.1022489  38.7493060  72.4419805 124.1587680
  38.5724700  73.9190294 124.4397269  38.1463653  64.2120881 125.3323157
  37.4086410  63.6998267 125.6633399  38.3990426  63.7721263 124.5206434
  37.6463673  75.1205392 125.0372307  37.9386647  75.6810449 124.3184673
  38.1562293  75.4133953 125.7925466  32.5196360  67.2850926 126.4341117
  32.5744970  66.3324763 126.3583594  31.7087562  67.4410365 126.9182415
  33.6687554  71.2131049 117.6719400  33.2306984  70.4966908 117.2125038
  34.4097995  71.4407164 117.1104492  30.4588720  65.9027986 124.1931496
  29.6456585  66.2022157 124.5996688  30.9547714  65.5083675 124.9105978
  32.6097298  75.8985743 126.1265761  32.5673477  76.1246589 125.1974293
  33.5259997  75.6649118 126.2751562  41.7860668  69.4888246 123.7295719
  41.6478567  69.6789842 122.8016908  41.4296887  70.2507629 124.1863770
  41.8130048  71.5564773 128.7406990  42.2466555  71.4640063 129.5890044
  42.5261629  71.5322274 128.1027006  30.7263098  72.7748772 125.9227723
  31.5203697  72.2799092 125.7210298  30.0154791  72.2466635 125.5595429
  27.0345862  66.9191854 121.9987476  26.1043450  66.8576309 122.2157438
  27.1303334  66.3967807 121.2024117  42.6745598  71.5988474 131.2739876
  42.8681488  72.5034285 131.5199151  42.5746216  71.1395893 132.1078461
  33.8982526  78.4486890 120.9451097  34.0734282  77.9774934 121.7596720
  33.2115314  79.0752657 121.1732358  34.8539590  72.7259397 126.9914398
  34.5189422  72.6860167 127.8872048  34.3543535  72.0604113 126.5184808
  37.7898781  70.0715431 117.2651458  37.1727952  69.3462259 117.1684511
  37.3215270  70.8324791 116.9218532  29.5797327  64.2900855 116.3872762
  28.7026794  64.1689656 116.0235009  30.0555080  63.4986934 116.1351651
  32.7661253  76.6427146 123.6335283  31.9828775  77.1848826 123.7273507
  33.4653998  77.1601125 124.0329524  43.9287661  68.1562141 127.9187780
  43.9177537  69.0386856 127.5481713  43.0605040  67.8033692 127.7242317
  37.1587684  71.2093462 123.8507911  36.2243963  71.3294925 123.6812616
  37.3364352  70.3065929 123.5867921  40.5460235  67.0510782 124.3857946
  41.0120688  67.8838773 124.3118248  40.9967736  66.5855763 125.0903204
  38.6136466  73.3954603 121.3844098  38.8896310  73.2811198 122.2937972
  37.7440965  72.9972088 121.3456271  35.2490531  77.6440954 125.0276911
  35.4312925  76.8262610 125.4904664  36.0723517  77.8608646 124.5901801
  35.5832696  76.5709139 122.2891960  36.1120462  76.0601594 121.6762122
  35.8460916  76.2551669 123.1537493  24.3076021  65.8842711 121.8285668
  24.6029462  64.9753389 121.7752721  23.4064057  65.8630450 121.5066670
  36.2162100  77.6049975 128.6336076  36.0913239  76.8039714 128.1247022
  36.8741191  78.0996168 128.1450046  38.2797008  75.4058995 130.2615626
  37.3327344  75.2864346 130.1893953  38.6279781  74.5181493 130.3441888
  35.2843441  75.2011711 126.4619978  35.1368404  74.2728418 126.6427548
  36.1096935  75.2231802 125.9777054  29.1505686  63.8529778 122.3200471
  29.4901758  64.3815699 121.5979079  29.5977806  64.1910184 123.0959037
  38.8877563  76.0240270 127.5484851  39.8124111  75.8183131 127.4109302
  38.7192867  75.7756671 128.4574193  31.1373833  62.3504400 120.5193763
  31.8582195  62.7285652 120.0157480  30.5139137  63.0693276 120.6228741
  35.2804956  63.0549549 121.4552096  35.4968570  63.9374186 121.1540924
  34.7999023  62.6635762 120.7257738  38.6772880  76.5425937 122.9046943
  38.8509757  75.9772360 122.1520795  39.1701771  77.3426832 122.7226433
  44.5312271  69.3062360 124.5237242  44.9743417  68.5569685 124.1256366
  43.6538781  69.2972496 124.1410974  39.6648052  75.8592702 120.0043841
  40.3598957  76.4799394 120.2231156  40.0071202  75.0088053 120.2796219
  41.5639475  73.3092407 121.5331172  42.0890799  73.6479680 120.8080492
  41.4761828  72.3739422 121.3494306  30.2567515  73.4706323 121.4407187
  30.4055635  74.1541787 120.7873860  31.0633958  73.4511413 121.9556643
  44.0745135  70.7767598 126.9159690  44.9092027  71.2157402 127.0797250
  44.2104264  70.3006252 126.0967936  28.0120148  69.4971500 122.4468256
  27.7666190  68.5933830 122.6448466  28.1816062  69.4988651 121.5047734
  27.2815795  65.2299858 119.9454417  26.5885040  65.3044213 119.2894453
  27.0367547  64.4660202 120.4675934  33.7562920  75.9654453 118.9118935
  33.1836888  76.5844640 118.4589406  34.3295714  76.5153815 119.4458856
  36.9760180  76.2491603 120.0427517  37.9090853  76.1837165 120.2460392
  36.8883393  77.0847870 119.5842049  39.6048197  75.5657474 117.0031464
  39.5261828  75.2317337 117.8967222  40.4257864  76.0579242 117.0022937
  42.3026388  68.4319213 130.2107783  42.2702708  67.4935214 130.3967467
  42.9127012  68.5103250 129.4773608  34.1409719  67.3015266 116.2534987
  35.0868824  67.1721474 116.3223405  33.7623964  66.5629928 116.7304415
  48.1202938  69.4935220 129.3513820  48.8506326  69.2320508 129.9121523
  47.5109883  68.7563942 129.3915888  46.2018235  67.6343082 129.9488271
  45.4751399  67.4999047 129.3404763  45.7865522  67.9419911 130.7544989
  32.3252636  65.2265242 116.1889872  31.4184092  64.9298355 116.2652586
  32.6028617  64.9295060 115.3224158  33.9414702  59.7702132 122.3434114
  33.1315430  59.4249217 122.7189360  34.6299119  59.4609676 122.9321725
  31.0951421  62.0852178 116.3301851  31.9570585  62.4107076 116.5897669
  31.2801765  61.2983673 115.8174917  39.2484057  60.9580704 123.4737074
  38.6682726  61.6165508 123.0915127  38.9819990  60.1358049 123.0624492
  38.0308935  63.1180794 122.5293423  37.1434790  63.4030445 122.3113617
  38.4462924  62.9574558 121.6820700  41.3823471  63.1427315 126.2447762
  42.1583862  63.6323768 126.5172379  40.6571606  63.5685370 126.7019631
  43.8196030  63.8554935 127.3021703  44.4140521  63.6150671 126.5915011
  43.8922614  63.1362065 127.9295239  37.1752149  72.8825469 116.6241443
  37.8787999  73.0875472 117.2399098  36.4514797  73.4502231 116.8890526
  38.0049959  68.6335330 122.7443713  37.9485160  69.0903882 121.9051345
  38.5578301  67.8726015 122.5666556  41.8154765  64.4225062 123.5693832
  41.5591699  64.0221698 124.4002040  41.1907633  65.1368856 123.4443972
  46.1267103  67.1621135 126.0765124  45.5666661  67.2314325 126.8496686
  45.5210606  66.9862120 125.3564620  39.0838846  73.3207998 118.6739903
  39.9184450  72.8889197 118.4917378  38.9223189  73.1490012 119.6016797
  38.7384738  69.8240112 120.0396242  38.6833542  69.6584383 119.0984686
  38.1130794  70.5316145 120.1958432  32.0480864  59.3248221 119.6181560
  32.0359534  60.2690061 119.7749831  32.9404286  59.1418366 119.3241022
  40.3799643  85.6440554 124.6953495  39.8164508  85.5530491 123.9269783
  40.2652038  84.8240458 125.1755988  45.9599202  89.3111522 120.0067960
  45.3087182  89.8965602 119.6201974  46.7543565  89.8417717 120.0662998
  39.8854829  86.4000659 120.4055094  40.6585705  85.8529646 120.2667970
  40.2380228  87.2644908 120.6169556  42.2221107  82.5593325 118.0373544
  42.4746628  82.0374846 117.2757007  41.2845666  82.3959470 118.1400228
  47.2664390  81.5629103 125.8448288  48.0527479  81.1448526 125.4938705
  47.5303094  82.4675195 126.0129936  47.4374467  87.0001954 120.5436944
  46.8020300  87.0736580 121.2557849  47.1071873  87.5895552 119.8656024
  41.9417396  84.4621431 120.2397919  41.8253654  83.7866334 120.9079004
  42.0519656  83.9753805 119.4230072  44.2848937  83.9231578 123.9444609
  43.9207144  83.3962199 124.6557530  45.1416052  83.5330047 123.7711094
  43.9254424  78.9521478 118.9405957  44.0928826  79.8201714 119.3076428
  43.7351593  79.1148759 118.0167246  40.1342238  83.8652253 126.6408492
  39.2092735  83.7328468 126.8486184  40.3826651  84.6446473 127.1378434
  43.9043644  81.4079135 119.9252624  43.7843270  81.8536186 120.7638104
  43.2096233  81.7564453 119.3666162  49.6028711  81.8800608 120.7532958
  50.5146567  82.1127995 120.5780655  49.0938358  82.4637653 120.1908036
  46.9464685  78.0558644 129.0022819  46.0849164  78.3539898 129.2939556
  46.9727120  78.2729043 128.0703851  43.7626255  86.6000835 125.4096624
  44.2264600  86.8788538 124.6201247  43.4983053  85.6984279 125.2269715
  42.6995141  82.7223987 122.2186190  43.4019184  83.1745031 122.6860116
  42.3675769  82.0807806 122.8466083  36.4420475  80.9807540 127.5203323
  35.6519529  81.2365068 127.0443434  36.9331722  81.7955878 127.6255364
  38.3935220  81.3452119 124.4786800  37.5966383  81.4570813 124.9970296
  38.1660812  81.6838771 123.6127690  43.9388905  89.5364930 122.2948295
  43.8034580  90.3816466 122.7233143  44.4798718  89.7384208 121.5314229
  37.3918303  87.0540368 122.8676220  37.9042823  87.8483618 123.0181785
  38.0441016  86.3566658 122.8009821  39.2013188  90.1706124 124.9498973
  39.3779816  91.0924089 124.7619957  39.9970021  89.8564543 125.3793353
  47.2881369  73.0595492 130.8247188  46.9445638  73.9497133 130.7486299
  47.6560332  72.8697149 129.9616773  35.3567220  85.3829022 123.6435790
  36.1942442  85.7926031 123.4269498  35.5345487  84.4428464 123.6135984
  47.2531652  83.0504103 119.3319623  46.7378275  83.8208707 119.5708011
  46.9808960  82.3769239 119.9552685  44.8378763  77.8953804 124.3904862
  43.9820359  77.5060654 124.2110500  45.2505715  77.9745764 123.5304647
  46.3677909  75.4300147 128.7896422  45.8642705  75.3930282 127.9764227
  46.6608516  76.3392890 128.8493078  42.6120795  75.5138877 127.7962603
  43.4773792  75.3181685 127.4368493  42.6798304  75.2849228 128.7231960
  52.2265926  85.8036458 121.2672797  51.4495369  85.4647617 120.8227959
  52.9057407  85.8089081 120.5927762  47.0417955  80.9231195 121.1579405
  46.7368090  81.2377344 122.0089548  47.9948397  81.0012615 121.2006738
  45.4864387  87.0821418 122.8072359  44.9585748  86.3474178 122.4945596
  44.9851889  87.8596095 122.5612327  40.2183114  77.7441085 125.1678970
  40.7926866  77.5216266 124.4352163  40.8054097  77.8129779 125.9207571
  40.5452701  79.7745546 119.1874855  39.7090014  80.1120232 119.5084130
  40.4057471  79.6394525 118.2501992  42.5205782  74.6182333 123.8954039
  41.8670194  74.3031351 123.2710654  42.4786256  73.9958074 124.6213862
  43.6316987  84.9001629 115.8107332  42.7244049  84.6690882 116.0098481
  44.1288019  84.1039248 115.9981313  46.5385066  93.6099136 118.7304018
  45.8646765  93.9130832 119.3388976  46.9250888  94.4128216 118.3809475
  45.7543522  81.1064267 128.2201687  44.8366084  81.3279214 128.0623375
  46.1703666  81.1810577 127.3613394  46.5378570  82.5055683 123.3504367
  47.2850389  83.0177080 123.0411489  46.8070160  82.1839735 124.2108761
  44.8105220  85.0014223 120.3331322  43.9016440  84.7173256 120.4303791
  44.8400304  85.4213302 119.4734629  48.9857407  79.5412799 125.3323157
  48.2480164  79.0290185 125.6633399  49.2384181  79.1013181 124.5206434
  49.0869035  72.3189051 125.9264926  49.3927911  71.4586414 125.6390841
  49.8121639  72.9106671 125.7263920  35.3793391  82.7219738 124.3146524
  35.1817791  82.1289098 123.5897590  34.8240055  82.4171948 125.0322463
  43.3590114  82.6142844 126.4341117  43.4138724  81.6616680 126.3583594
  42.5481316  82.7702283 126.9182415  44.5081308  86.5422967 117.6719400
  44.0700738  85.8258826 117.2125038  45.2491749  86.7699082 117.1104492
  41.2982474  81.2319904 124.1931496  40.4850340  81.5314074 124.5996688
  41.7941469  80.8375593 124.9105978  52.6254423  84.8180164 123.7295719
  52.4872322  85.0081760 122.8016908  52.2690642  85.5799547 124.1863770
  40.7896549  78.8038259 129.8092731  41.4295928  78.6627018 129.1115694
  39.9574080  78.5172773 129.4331333  41.5656853  88.1040690 125.9227723
  42.3597451  87.6091010 125.7210298  40.8548545  87.5758553 125.5595429
  37.8739616  82.2483771 121.9987476  36.9437205  82.1868227 122.2157438
  37.9697088  81.7259724 121.2024117  37.7925165  78.7738584 124.5865718
  38.0531983  79.6883918 124.4774878  38.6142338  78.3063027 124.7362330
  44.7376281  93.7778808 120.9451097  44.9128037  93.3066851 121.7596720
  44.0509069  94.4044574 121.1732358  48.6292536  85.4007349 117.2651458
  48.0121706  84.6754177 117.1684511  48.1609024  86.1616709 116.9218532
  40.4191082  79.6192773 116.3872762  39.5420548  79.4981574 116.0235009
  40.8948835  78.8278851 116.1351651  46.9151658  77.7813693 126.2769488
  47.4120357  77.0283655 125.9570558  46.1438639  77.8178009 125.7112697
  47.9981439  86.5385380 123.8507911  47.0637717  86.6586843 123.6812616
  48.1758107  85.6357847 123.5867921  43.4986627  79.9231076 126.0041173
  43.1284414  79.3702116 126.6922078  43.9945719  79.3189209 125.4516173
  51.3853990  82.3802699 124.3857946  51.8514442  83.2130691 124.3118248
  51.8361490  81.9147681 125.0903204  49.4530221  88.7246521 121.3844098
  49.7290065  88.6103115 122.2937972  48.5834720  88.3264005 121.3456271
  49.3570653  74.7483286 128.4248847  48.4433732  74.9787513 128.5931054
  49.7863754  74.8321730 129.2762879  46.4226450  91.9001057 122.2891960
  46.9514217  91.3893511 121.6762122  46.6854670  91.5843587 123.1537493
  38.8951960  77.3335067 132.2494279  38.9593287  78.1949898 131.8371676
  38.8319080  76.7209068 131.5166637  35.1469776  81.2134628 121.8285668
  35.4423217  80.3045307 121.7752721  34.2457811  81.1922368 121.5066670
  38.6764023  79.2890625 127.8113216  37.9550608  79.9026593 127.6720690
  39.4657278  79.8248390 127.7329862  36.8757617  78.8948726 121.9524993
  36.5470323  78.0146105 121.7700099  37.2296988  78.8396395 122.8401382
  39.9899440  79.1821696 122.3200471  40.3295513  79.7107617 121.5979079
  40.4371561  79.5202102 123.0959037  42.6842881  77.5658746 131.7703539
  42.3439701  76.7666560 132.1724219  41.9781887  77.8660457 131.1980372
  43.3359353  74.6508059 130.2230862  44.1585422  74.1768537 130.1009752
  43.5797416  75.4298543 130.7229548  41.9767587  77.6796317 120.5193763
  42.6975950  78.0577570 120.0157480  41.3532892  78.3985194 120.6228741
  46.1198710  78.3841466 121.4552096  46.3362325  79.2666104 121.1540924
  45.6392777  77.9927680 120.7257738  40.8597932  81.3427180 128.0322840
  40.7142512  81.6567483 128.9247122  40.3823135  81.9612080 127.4793739
  42.7194315  78.3329727 128.0803730  42.7055883  77.4370821 127.7436028
  43.4366743  78.3400391 128.7142016  44.5720445  78.7667068 130.1256857
  44.3138223  79.6884138 130.1241188  44.0405486  78.3697502 130.8157321
  42.1231210  77.2144108 123.3491300  42.2447122  76.2860754 123.5482187
  41.8333253  77.2282794 122.4369615  44.9922401  74.8999018 126.4858020
  45.0144098  74.9638351 125.5309999  45.4090460  74.0603527 126.6798526
  50.5041807  91.1884619 120.0043841  51.1992711  91.8091312 120.2231156
  50.8464957  90.3379970 120.2796219  52.4033230  88.6384325 121.5331172
  52.9284554  88.9771598 120.8080492  52.3155582  87.7031340 121.3494306
  41.0961269  88.7998240 121.4407187  41.2449390  89.4833705 120.7873860
  41.9027713  88.7803331 121.9556643  38.8513902  84.8263418 122.4468256
  38.6059944  83.9225748 122.6448466  39.0209817  84.8280569 121.5047734
  38.1209550  80.5591776 119.9454417  37.4278795  80.6336131 119.2894453
  37.8761302  79.7952119 120.4675934  46.7923206  72.1187377 127.3493908
  47.0724960  71.4510566 127.9754335  47.5773813  72.3116473 126.8368572
  44.5956675  91.2946371 118.9118935  44.0230642  91.9136558 118.4589406
  45.1689469  91.8445733 119.4458856  47.8153935  91.5783521 120.0427517
  48.7484608  91.5129083 120.2460392  47.7277148  92.4139788 119.5842049
  50.4441951  90.8949391 117.0031464  50.3655583  90.5609255 117.8967222
  51.2651618  91.3871159 117.0022937  44.9803473  82.6307184 116.2534987
  45.9262578  82.5013392 116.3223405  44.6017718  81.8921846 116.7304415
  50.9525358  74.2963190 126.2161879  50.7550179  73.9878278 127.1005211
  51.5625064  75.0224829 126.3459809  43.1646391  80.5557160 116.1889872
  42.2577846  80.2590273 116.2652586  43.4422372  80.2586978 115.3224158
  44.7808456  75.0994050 122.3434114  43.9709185  74.7541135 122.7189360
  45.4692873  74.7901593 122.9321725  46.7099005  74.1772097 123.9658410
  47.2630043  74.5967550 124.6248433  46.9469091  73.2507845 124.0081366
  41.9345175  77.4144095 116.3301851  42.7964339  77.7398994 116.5897669
  42.1195519  76.6275591 115.8174917  50.0877812  76.2872622 123.4737074
  49.5076481  76.9457426 123.0915127  49.8213744  75.4649966 123.0624492
  48.5381378  75.6877679 125.6758395  49.0381156  75.7994214 124.8672714
  49.1816986  75.3838732 126.3159203  48.8702690  78.4472712 122.5293423
  47.9828545  78.7322363 122.3113617  49.2856679  78.2866475 121.6820700
  52.2217226  78.4719233 126.2447762  52.9977616  78.9615686 126.5172379
  51.4965360  78.8977287 126.7019631  48.0145903  88.2117387 116.6241443
  48.7181753  88.4167389 117.2399098  47.2908552  88.7794149 116.8890526
  48.8443713  83.9627248 122.7443713  48.7878915  84.4195799 121.9051345
  49.3972056  83.2017933 122.5666556  52.6548519  79.7516980 123.5693832
  52.3985454  79.3513616 124.4002040  52.0301387  80.4660774 123.4443972
  49.9232601  88.6499916 118.6739903  50.7578205  88.2181114 118.4917378
  49.7616944  88.4781930 119.6016797  49.5778493  85.1532029 120.0396242
  49.5227297  84.9876301 119.0984686  48.9524548  85.8608062 120.1958432
  42.8874618  74.6540138 119.6181560  42.8753288  75.5981978 119.7749831
  43.7798040  74.4710284 119.3241022  46.7026738  71.2482915 123.8727497
  45.9359134  70.6941402 124.0184180  47.1137443  71.3204784 124.7341649
  51.3846456  95.1037463 119.1874855  50.5483768  95.4412150 119.5084130
  51.2451226  94.9686443 118.2501992  51.2584836  94.9484691 116.3872762
  50.3814302  94.8273491 116.0235009  51.7342589  94.1570769 116.1351651
  48.9603304  95.8883693 119.9454417  48.2672549  95.9628048 119.2894453
  48.7155056  95.1244037 120.4675934  54.0040145  95.8849078 116.1889872
  53.0971601  95.5882190 116.2652586  54.2816126  95.5878896 115.3224158
  52.7738930  92.7436013 116.3301851  53.6358094  93.0690911 116.5897669
  52.9589274  91.9567509 115.8174917  53.7268373  89.9832056 119.6181560
  53.7147043  90.9273896 119.7749831  54.6191795  89.8002201 119.3241022
  24.8597558  39.9577423 105.4549324  24.1859257  40.2609120 106.0634282
  25.2463380  40.7606503 105.1054781  28.8254299  37.5362906 106.7289148
  29.5205203  38.1569599 106.9476462  29.1677449  36.6858258 107.0041525
  22.9169167  37.6424658 105.6364241  22.3443134  38.2614845 105.1834713
  23.4901961  38.1924020 106.1704163  26.1366427  37.9261808 106.7672823
  27.0697100  37.8607370 106.9705699  26.0489640  38.7618075 106.3087356
  28.7654444  37.2427679 103.7276771  28.6868075  36.9087542 104.6212529
  29.5864110  37.7349447 103.7268243  26.3358395  34.5595674 103.3486749
  27.0394246  34.7645677 103.9644405  25.6121044  35.1272436 103.6135833
  28.2445093  34.9978203 105.3985209  29.0790697  34.5659402 105.2162684
  28.0829436  34.8260217 106.3262104  36.8729368  45.5147854 115.4940386
  37.5107778  45.3954602 114.7903726  36.7550211  46.4628698 115.5528338
  29.5405890  47.3210759 111.4198802  28.9770755  47.2300696 110.6515090
  29.4258285  46.5010663 111.9001294  35.1205449  50.9881727 106.7313267
  34.4693428  51.5735807 106.3447280  35.9149811  51.5187921 106.7908304
  29.0461076  48.0770864 107.1300401  29.8191952  47.5299851 106.9913277
  29.3986475  48.9415113 107.3414862  31.3827354  44.2363530 104.7618851
  31.6352874  43.7145051 104.0002314  30.4451913  44.0729675 104.8645535
  36.4270636  43.2399308 112.5693594  37.2133726  42.8218731 112.2184011
  36.6909341  44.1445400 112.7375243  36.5980714  48.6772158 107.2682251
  35.9626547  48.7506785 107.9803156  36.2678120  49.2665757 106.5901330
  41.8279064  43.1774541 113.4726573  42.5604236  42.6073758 113.7064402
  41.0718419  42.7896142 113.9133078  31.1023642  46.1391636 106.9643226
  30.9859900  45.4636539 107.6324310  31.2125902  45.6524010 106.1475379
  33.4455183  45.6001783 110.6689915  33.0813391  45.0732404 111.3802837
  34.3022299  45.2100252 110.4956401  33.0860670  40.6291683 105.6651264
  33.2535073  41.4971919 106.0321735  32.8957839  40.7918964 104.7412553
  33.0649891  43.0849340 106.6497930  32.9449516  43.5306391 107.4883411
  32.3702480  43.4334658 106.0911469  30.8256783  55.8552982 110.2988062
  30.7480813  56.8060807 110.3776542  30.2218427  55.5098854 110.9562988
  38.7634957  43.5570813 107.4778265  39.6752813  43.7898200 107.3025962
  38.2544604  44.1407857 106.9153343  37.3704540  48.5396632 114.8691846
  36.7413402  48.7042346 114.1667914  36.9830202  48.9538241 115.6402810
  41.2493772  49.4751070 112.2236210  40.5644810  49.8549971 111.6733243
  41.3337621  50.0846396 112.9568158  32.9232502  48.2771040 112.1341931
  33.3870847  48.5558743 111.3446554  32.6589300  47.3754484 111.9515022
  31.8601388  44.3994192 108.9431496  32.5625431  44.8515236 109.4105423
  31.5282016  43.7578011 109.5711389  39.6190531  49.9982984 116.9953911
  40.4407975  49.5963171 116.7136592  39.6152934  49.8951218 117.9470026
  47.7096524  46.3421732 113.3438882  46.9560233  45.7729131 113.1882887
  47.8444065  46.3084397 114.2909517  33.0995152  51.2135135 109.0193601
  32.9640827  52.0586671 109.4478449  33.6404965  51.4154412 108.2559535
  26.5524550  48.7310573 109.5921527  27.0649070  49.5253823 109.7427091
  27.2047262  48.0336863 109.5255128  28.3619434  51.8476329 111.6744280
  28.5386063  52.7694294 111.4865264  29.1576268  51.5334748 112.1038659
  29.4850750  53.3654503 117.6754622  30.0358175  53.2371566 116.9031616
  28.6462226  53.6649392 117.3249515  24.5173466  47.0599227 110.3681097
  25.3548688  47.4696235 110.1514805  24.6951734  46.1198669 110.3381291
  36.4137898  44.7274308 106.0564930  35.8984522  45.4978912 106.2953317
  36.1415207  44.0539444 106.6797991  33.9985010  39.5724009 111.1150168
  33.1426606  39.1830859 110.9355807  34.4111961  39.6515969 110.2549954
  41.3872173  47.4806662 107.9918103  40.6101615  47.1417822 107.5473266
  42.0663654  47.4859286 107.3173069  36.2024202  42.6001400 107.8824711
  35.8974337  42.9147549 108.7334854  37.1554644  42.6782820 107.9252044
  34.6470634  48.7591623 109.5317665  34.1191995  48.0244383 109.2190903
  34.1458136  49.5366300 109.2857634  39.6263480  46.9540644 114.6484711
  38.9687154  47.6439905 114.7364840  40.4303879  47.3437076 114.9918698
  38.4368938  45.3085016 112.6988653  38.9500820  45.9415008 113.2010363
  39.0870162  44.7086212 112.3332013  29.7058948  41.4515750 105.9120162
  28.8696260  41.7890437 106.2329437  29.5663718  41.3164730 104.9747299
  32.7923234  46.5771833 102.5352638  31.8850295  46.3461087 102.7343787
  33.2894266  45.7809453 102.7226620  35.6991313  55.2869341 105.4549324
  35.0253011  55.5901037 106.0634282  36.0857135  56.0898421 105.1054781
  35.6984817  44.1825888 110.0749674  36.4456636  44.6947285 109.7656796
  35.9676406  43.8609940 110.9354068  33.9711467  46.6784428 107.0576628
  33.0622686  46.3943461 107.1549098  34.0006551  47.0983507 106.1979935
  39.2030735  50.2891018 110.8267796  38.7493062  49.4481928 110.8832986
  38.5724701  50.9252416 111.1642576  38.1463654  41.2183004 112.0568463
  37.4086411  40.7060390 112.3878706  38.3990428  40.7783385 111.2451740
  37.6463674  52.1267515 111.7617614  37.9386648  52.6872572 111.0429980
  38.1562294  52.4196076 112.5170773  32.5196361  44.2913049 113.1586424
  32.5744971  43.3386885 113.0828900  31.7087563  44.4472488 113.6427722
  33.6687555  48.2193172 104.3964707  33.2306985  47.5029031 103.9370344
  34.4097996  48.4469287 103.8349798  30.4588721  42.9090109 110.9176803
  29.6456587  43.2084279 111.3241995  30.9547715  42.5145797 111.6351285
  32.6097299  52.9047866 112.8511067  32.5673478  53.1308712 111.9219599
  33.5259998  52.6711240 112.9996868  41.7860670  46.4950369 110.4541025
  41.6478568  46.6851965 109.5262215  41.4296889  47.2569752 110.9109077
  41.8130049  48.5626896 115.4652297  42.2466556  48.4702185 116.3135351
  42.5261630  48.5384396 114.8272313  30.7263100  49.7810895 112.6473030
  31.5203698  49.2861215 112.4455605  30.0154792  49.2528758 112.2840735
  35.5457944  52.1628990 116.9985398  35.5994966  52.7319926 117.7663113
  34.6772726  52.3330875 116.6339435  27.0345863  43.9253976 108.7232783
  26.1043451  43.8638432 108.9402745  27.1303335  43.4029929 107.9269424
  42.6745599  48.6050597 117.9985182  42.8681489  49.5096407 118.2444457
  42.5746217  48.1458016 118.8323767  33.3034376  50.3539917 116.3270867
  33.1645461  49.9858701 117.1996805  32.5148972  50.8687556 116.1554825
  33.8982528  55.4549013 107.6696404  34.0734283  54.9837056 108.4842026
  33.2115316  56.0814779 107.8977664  34.8539591  49.7321519 113.7159705
  34.5189423  49.6922289 114.6117355  34.3543537  49.0666235 113.2430115
  37.7898783  47.0777554 103.9896764  37.1727953  46.3524382 103.8929817
  37.3215271  47.8386914 103.6463839  28.4643613  58.6038376 114.4436264
  28.7040211  59.2356900 115.1215282  27.6212809  58.2526416 114.7301623
  29.5797328  41.2962978 103.1118069  28.7026795  41.1751779 102.7480315
  30.0555082  40.5049056 102.8596957  32.9771475  54.4117498 116.8477768
  32.9041646  55.2172470 117.3597072  32.5348868  54.6109464 116.0225789
  32.7661254  53.6489268 110.3580589  31.9828776  54.1910948 110.4518814
  33.4654000  54.1663248 110.7574830  43.9287662  45.1624263 114.6433086
  43.9177538  46.0448979 114.2727019  43.0605041  44.8095814 114.4487623
  35.4370158  54.3104332 119.0035926  36.1498131  54.9451797 118.9311828
  34.9460187  54.4068198 118.1875928  37.1587685  48.2155585 110.5753218
  36.2243964  48.3357047 110.4057922  37.3364354  47.3128052 110.3113228
  40.5460237  44.0572904 111.1103252  41.0120689  44.8900896 111.0363555
  40.9967737  43.5917886 111.8148511  38.6136468  50.4016726 108.1089404
  38.8896312  50.2873320 109.0183278  37.7440966  50.0034210 108.0701577
  35.2490532  54.6503076 111.7522218  35.4312926  53.8324732 112.2149970
  36.0723518  54.8670769 111.3147108  35.5832697  53.5771262 109.0137266
  36.1120464  53.0663716 108.4007428  35.8460917  53.2613792 109.8782799
  28.9388445  54.6286378 111.7735042  28.2698820  55.1132506 111.2899082
  28.8001315  54.8755599 112.6878421  33.0793714  56.6630122 118.3717701
  33.6312022  56.8261743 119.1366786  33.4199907  57.2534560 117.6997725
  24.3076022  42.8904833 108.5530974  24.6029463  41.9815512 108.4998028
  23.4064058  42.8692573 108.2311977  36.2162101  54.6112097 115.3581383
  36.0913241  53.8101837 114.8492328  36.8741192  55.1058291 114.8695353
  38.2797009  52.4121117 116.9860933  37.3327345  52.2926469 116.9139260
  38.6279783  51.5243615 117.0687194  35.2843443  52.2073834 113.1865285
  35.1368405  51.2790541 113.3672855  36.1096936  52.2293924 112.7022360
  29.1505687  40.8591901 109.0445777  29.4901760  41.3877822 108.3224386
  29.5977808  41.1972307 109.8204344  38.8877565  53.0302392 114.2730158
  39.8124112  52.8245254 114.1354609  38.7192868  52.7818793 115.1819499
  31.1373834  39.3566522 107.2439070  31.8582197  39.7347775 106.7402787
  30.5139138  40.0755399 107.3474048  35.2804957  40.0611671 108.1797402
  35.4968571  40.9436309 107.8786230  34.7999024  39.6697885 107.4503044
  38.6772881  53.5488060 109.6292249  38.8509758  52.9834482 108.8766102
  39.1701772  54.3488955 109.4471739  44.5312272  46.3124483 111.2482549
  44.9743418  45.5631808 110.8501672  43.6538782  46.3034619 110.8656281
  39.6648053  52.8654824 106.7289148  40.3598958  53.4861517 106.9476462
  40.0071203  52.0150175 107.0041525  41.5639476  50.3154530 108.2576478
  42.0890800  50.6541802 107.5325798  41.4761829  49.3801545 108.0739613
  33.2480137  56.3826513 112.6171732  32.8085127  55.8902892 113.3104588
  33.9988254  55.8399481 112.3763807  25.7272476  52.5738054 112.6196360
  26.5530496  52.2741826 112.2395003  25.3766528  51.8045676 113.0686148
  30.6954009  51.9264522 114.6894033  30.0734019  51.2635227 114.3896261
  31.3658876  51.9525654 114.0067681  30.2567516  50.4768445 108.1652494
  30.4055637  51.1603910 107.5119166  31.0633960  50.4573535 108.6801949
  44.0745137  47.7829721 113.6404997  44.9092028  48.2219525 113.8042557
  44.2104265  47.3068374 112.8213242  28.0120149  46.5033623 109.1713563
  27.7666191  45.5995953 109.3693773  28.1816064  46.5050773 108.2293041
  27.2815797  42.2361981 106.6699724  26.5885042  42.3106336 106.0139760
  27.0367549  41.4722324 107.1921241  33.7562922  52.9716576 105.6364241
  33.1836889  53.5906763 105.1834713  34.3295715  53.5215938 106.1704163
  36.9760182  53.2553726 106.7672823  37.9090855  53.1899288 106.9705699
  36.8883394  54.0909993 106.3087356  42.3026389  45.4381336 116.9353090
  42.2702709  44.4997336 117.1212773  42.9127013  45.5165372 116.2018914
  34.1409720  44.3077389 102.9780294  35.0868825  44.1783597 103.0468712
  33.7623965  43.5692050 103.4549722  48.1202939  46.4997342 116.0759126
  48.8506328  46.2382631 116.6366830  47.5109885  45.7626064 116.1161194
  46.2018236  44.6405205 116.6733578  45.4751400  44.5061170 116.0650069
  45.7865523  44.9482034 117.4790296  32.3252637  42.2327365 102.9135179
  31.4184093  41.9360478 102.9897892  32.6028618  41.9357183 102.0469465
  33.9414703  36.7764255 109.0679420  33.1315431  36.4311340 109.4434666
  34.6299120  36.4671798 109.6567032  31.0951422  39.0914300 103.0547158
  31.9570586  39.4169198 103.3142975  31.2801766  38.3045796 102.5420224
  39.2484058  37.9642827 110.1982381  38.6682728  38.6227631 109.8160433
  38.9819991  37.1420171 109.7869799  38.0308937  40.1242917 109.2538729
  37.1434792  40.4092568 109.0358924  38.4462926  39.9636680 108.4066006
  41.3823473  40.1489438 112.9693069  42.1583863  40.6385890 113.2417685
  40.6571607  40.5747492 113.4264938  43.8196031  40.8617057 114.0267009
  44.4140522  40.6212793 113.3160317  43.8922615  40.1424188 114.6540545
  26.0393187  54.7050668 114.3410174  25.9047655  53.9451069 113.7748172
  25.6225249  55.4291568 113.8738963  37.1752150  49.8887592 103.3486749
  37.8788000  50.0937594 103.9644405  36.4514799  50.4564354 103.6135833
  38.0049960  45.6397453 109.4689019  37.9485162  46.0966004 108.6296652
  38.5578303  44.8788138 109.2911862  41.8154766  41.4287185 110.2939139
  41.5591700  41.0283820 111.1247347  41.1907634  42.1430979 110.1689278
  46.1267104  44.1683258 112.8010430  45.5666662  44.2376447 113.5741992
  45.5210607  43.9924243 112.0809927  29.1962313  55.6019985 114.5528617
  29.0794697  56.5465418 114.4507307  28.3754759  55.2993547 114.9414416
  39.0838847  50.3270121 105.3985209  39.9184451  49.8951319 105.2162684
  38.9223190  50.1552135 106.3262104  38.7384740  46.8302234 106.7641549
  38.6833543  46.6646506 105.8229993  38.1130795  47.5378267 106.9203738
  32.0480865  36.3310343 106.3426867  32.0359535  37.2752183 106.4995138
  32.9404287  36.1480489 106.0486328  30.2216827  56.2548247 117.7684545
  31.1244074  56.2871857 118.0851040  29.9954197  55.3248698 117.7830881
  31.9770429  55.0079234 114.4294624  31.0266060  55.0081095 114.3158996
  32.2802915  54.2611968 113.9130658  47.7123122  60.8439772 115.4940386
  48.3501532  60.7246519 114.7903726  47.5943965  61.7920616 115.5528338
  44.5212829  60.7967200 115.4301911  44.1831340  60.6808265 114.5422446
  45.3902597  60.3958365 115.4102917  45.0032612  61.9502052 121.3888116
  44.9921253  61.5554850 120.5168620  45.1653251  61.2168124 121.9821888
  37.9264076  64.1453868 114.2583022  38.7185368  63.8044693 113.8429322
  38.1660727  64.2548843 115.1785176  41.7239873  64.7339164 120.3367300
  41.4329739  65.6384794 120.2213967  42.3596857  64.7755691 121.0511370
  42.6496080  62.1116012 116.9268660  43.2459652  61.8872035 116.2125623
  42.7071051  61.3700758 117.5294108  47.2664391  58.5691226 112.5693594
  48.0527480  58.1510649 112.2184011  47.5303095  59.4737318 112.7375243
  52.6672818  58.5066459 113.4726573  53.3997990  57.9365676 113.7064402
  51.9112174  58.1188060 113.9133078  44.2848938  60.9293701 110.6689915
  43.9207145  60.4024322 111.3802837  45.1416054  60.5392170 110.4956401
  50.1898238  52.2188033 117.9321181  49.8581563  53.0883444 117.7082396
  49.5943852  51.9024317 118.6115212  46.6829758  64.4200579 117.3317094
  46.3830481  65.3225618 117.2232901  46.3380817  64.1532762 118.1838247
  40.1342239  60.8714376 113.3653798  39.2092736  60.7390590 113.5731490
  40.3826653  61.6508595 113.8623741  50.0826902  56.9383119 115.0114531
  49.1743779  56.8698528 114.7173292  50.0314498  57.4155064 115.8396357
  37.4951050  60.5147650 114.1997588  37.6243432  60.7682128 115.1136999
  36.8148502  61.1075358 113.8802243  44.1567768  58.3572765 122.9549429
  43.3801102  58.9166685 122.9452293  44.7958331  58.8429548 123.4764299
  51.9488548  55.1399558 116.7892405  51.3062928  55.4332091 116.1432200
  51.4443477  55.0252478 117.5945602  49.6028712  58.8862731 107.4778265
  50.5146568  59.1190118 107.3025962  49.0938359  59.4699775 106.9153343
  42.4114140  61.1658218 122.5167396  43.1528824  61.7043262 122.2402219
  41.7051125  61.7924507 122.6738947  47.8869479  63.3087359 121.1139557
  48.2952836  62.8669769 120.3694189  47.1646741  62.7339986 121.3673750
  44.2400550  58.2459966 118.4873114  45.0861745  58.6699379 118.6307763
  44.1799187  57.5893590 119.1811677  52.0887526  64.8042987 112.2236210
  51.4038564  65.1841889 111.6733243  52.1731375  65.4138314 112.9568158
  47.3899995  55.9064334 120.1454288  47.1460927  56.6606394 119.6088563
  47.6659925  56.2849681 120.9801535  49.3438458  62.4502946 118.8231553
  49.5555353  63.0934706 118.1465934  49.2968206  61.6165263 118.3553483
  46.9464687  55.0620767 115.7268125  46.0849166  55.3602020 116.0184863
  46.9727121  55.2791166 114.7949158  40.6550337  63.1534439 115.0721694
  41.2251694  63.5821707 114.4339179  41.2458449  62.8717024 115.7705880
  42.6995142  59.7286110 108.9431496  43.4019185  60.1807154 109.4105423
  42.3675771  59.0869929 109.5711389  41.1475504  58.3197866 123.3182706
  40.5174164  59.0014147 123.5518102  41.0411591  58.2080948 122.3735844
  36.4420476  57.9869662 114.2448630  35.6519530  58.2427191 113.7688740
  36.9331723  58.8018000 114.3500670  50.4584286  65.3274902 116.9953911
  51.2801729  64.9255089 116.7136592  50.4546688  65.2243136 117.9470026
  38.3935221  58.3514242 111.2032106  37.5966385  58.4632936 111.7215602
  38.1660814  58.6900894 110.3372997  44.2240889  64.8758945 119.1514621
  44.2885322  65.3379352 119.9872793  43.5151813  64.2456310 119.2796931
  34.7258179  58.2400153 116.6763621  34.9766217  59.1247163 116.9421197
  35.2617727  58.0604754 115.9038712  58.5490279  61.6713650 113.3438882
  57.7953987  61.1021048 113.1882887  58.6837820  61.6376315 114.2909517
  37.3918304  64.0602490 109.5921527  37.9042825  64.8545741 109.7427091
  38.0441017  63.3628781 109.5255128  43.3424207  54.0376511 123.2728213
  44.0833921  54.6383665 123.1932676  43.5742130  53.2954149 122.7146256
  38.4865545  59.2232879 121.5506443  38.3719060  58.3218136 121.8513542
  37.6310063  59.4696575 121.1991259  45.5657383  67.1650619 123.1493944
  45.1221237  66.3786998 122.8314848  46.2274597  67.3529769 122.4837834
  40.3244504  68.6946421 117.6754622  40.8751929  68.5663484 116.9031616
  39.4855980  68.9941310 117.3249515  47.6638621  67.4453419 121.1775345
  47.6457096  68.2662300 120.6855614  48.5858541  67.3207494 121.4025486
  44.1211675  64.9597548 122.0198853  44.6540012  64.1985837 121.7898161
  43.5925756  64.6671200 122.7623008  47.2881370  50.0657614 117.5492495
  46.9445640  50.9559256 117.4731605  47.6560333  49.8759272 116.6862080
  35.3567221  62.3891145 110.3681097  36.1942443  62.7988153 110.1514805
  35.5345489  61.4490587 110.3381291  44.8378764  54.9015926 111.1150168
  43.9820360  54.5122777 110.9355807  45.2505716  54.9807887 110.2549954
  46.3677911  52.4362269 115.5141728  45.8642706  52.3992405 114.7009533
  46.6608518  53.3455012 115.5738385  42.6120797  52.5200999 114.5207910
  43.4773793  52.3243808 114.1613799  42.6798305  52.2911351 115.4477267
  52.2265927  62.8098580 107.9918103  51.4495370  62.4709740 107.5473266
  52.9057408  62.8151203 107.3173069  47.0417956  57.9293318 107.8824711
  46.7368092  58.2439467 108.7334854  47.9948398  58.0074737 107.9252044
  50.4657234  62.2832561 114.6484711  49.8080908  62.9731823 114.7364840
  51.2697633  62.6728993 114.9918698  40.2183116  54.7503207 111.8924277
  40.7926868  54.5278389 111.1597470  40.8054098  54.8191902 112.6452878
  49.2762693  60.6376934 112.6988653  49.7894575  61.2706926 113.2010363
  49.9263917  60.0378130 112.3332013  42.5205783  51.6244456 110.6199346
  41.8670196  51.3093473 109.9955961  42.4786257  51.0020197 111.3459169
  45.7543524  58.1126390 114.9446994  44.8366085  58.3341337 114.7868682
  46.1703667  58.1872700 114.0858701  46.5378571  59.5117805 110.0749674
  47.2850390  60.0239202 109.7656796  46.8070161  59.1901858 110.9354068
  48.9857409  56.5474922 112.0568463  48.2480165  56.0352308 112.3878706
  49.2384182  56.1075303 111.2451740  49.0869036  49.3251174 112.6510233
  49.3927913  48.4648537 112.3636148  49.8121641  49.9168794 112.4509226
  35.3793392  59.7281860 111.0391831  35.1817792  59.1351221 110.3142897
  34.8240056  59.4234070 111.7567769  43.3590116  59.6204967 113.1586424
  43.4138725  58.6678803 113.0828900  42.5481318  59.7764406 113.6427722
  41.2982476  58.2382026 110.9176803  40.4850341  58.5376197 111.3241995
  41.7941470  57.8437715 111.6351285  46.8956687  58.7023851 119.7491696
  47.2506075  58.9295324 120.6086162  47.5428818  59.0342228 119.1268952
  52.6254424  61.8242287 110.4541025  52.4872323  62.0143883 109.5262215
  52.2690643  62.5861670 110.9109077  40.7896550  55.8100382 116.5338037
  41.4295930  55.6689141 115.8361001  39.9574081  55.5234895 116.1576639
  52.6523804  63.8918814 115.4652297  53.0860310  63.7994103 116.3135351
  53.3655385  63.8676314 114.8272313  46.3851699  67.4920908 116.9985398
  46.4388721  68.0611844 117.7663113  45.5166480  67.6622793 116.6339435
  37.8739618  59.2545894 108.7232783  36.9437206  59.1930350 108.9402745
  37.9697090  58.7321847 107.9269424  37.7925167  55.7800707 111.3111024
  38.0531984  56.6946040 111.2020185  38.6142339  55.3125149 111.4607637
  39.2650092  57.1938464 118.4809849  39.9373146  56.9855826 117.8322498
  38.4379879  56.9960550 118.0415081  53.5139353  63.9342514 117.9985182
  53.7075243  64.8388325 118.2444457  53.4139972  63.4749933 118.8323767
  45.1675664  53.8200405 120.4975510  44.5203579  54.5190355 120.4039986
  45.9376679  54.2536549 120.8651758  48.5754462  64.0849257 123.5726063
  48.4239968  63.8559809 122.6556147  48.5659142  65.0419859 123.5857408
  45.3439798  61.6581170 118.5572329  46.2731858  61.8092329 118.3841297
  44.9230828  61.7465191 117.7020976  39.6677589  60.4681067 119.2412286
  39.5297387  59.7361306 119.8423825  40.5782513  60.3789967 118.9596474
  42.2959890  60.1801026 118.7295966  43.0059509  59.5394219 118.6882584
  42.2529198  60.4313921 119.6522146  50.2846669  67.1168380 121.6502545
  50.2259215  66.4327600 120.9833128  50.6866187  67.8587370 121.1983171
  41.0088824  57.1666244 120.5491605  40.4726181  56.7156983 121.2013201
  40.4205532  57.3012153 119.8062069  39.3037367  73.9330294 114.4436264
  39.5433966  74.5648818 115.1215282  38.4606564  73.5818334 114.7301623
  50.2864076  65.0807964 119.8816524  49.3990855  64.7433885 120.0042923
  50.8562627  64.3490995 120.1185290  31.9393223  61.4132055 113.2059576
  32.6264263  61.0993785 112.6180591  31.7841352  62.3173420 112.9326827
  36.7427945  56.3022252 117.6344600  36.6586134  55.6947921 116.8995010
  35.9210652  56.7931270 117.6354096  43.8165229  69.7409416 116.8477768
  43.7435401  70.5464387 117.3597072  43.3742622  69.9401382 116.0225789
  46.9151659  54.7875815 113.0014795  47.4120359  54.0345778 112.6815865
  46.1438641  54.8240132 112.4358004  54.7681416  60.4916181 114.6433086
  54.7571293  61.3740896 114.2727019  53.8998796  60.1387732 114.4487623
  46.2763913  69.6396250 119.0035926  46.9891885  70.2743715 118.9311828
  45.7853942  69.7360116 118.1875928  43.4986628  56.9293198 112.7286479
  43.1284415  56.3764239 113.4167385  43.9945720  56.3251332 112.1761479
  51.3853991  59.3864822 111.1103252  51.8514443  60.2192814 111.0363555
  51.8361492  58.9209804 111.8148511  41.3275826  67.3890693 119.8241497
  42.0285286  68.0227176 119.9770891  40.8570941  67.7305425 119.0637136
  49.3570654  51.7545409 115.1494154  48.4433734  51.9849636 115.3176360
  49.7863755  51.8383853 116.0008186  49.1277112  59.9435301 117.6494048
  48.4748563  60.1911208 116.9946500  49.5057492  59.1299439 117.3156525
  45.1764685  60.6855112 124.1360085  44.5005322  60.5849241 124.8062460
  45.9992319  60.5294326 124.5996082  36.9243544  66.9227048 116.7572600
  37.5096981  66.1770736 116.8900504  36.7268383  67.2331005 117.6409264
  31.5161199  59.4932649 115.4777043  31.5545299  58.9596239 116.2714161
  31.0101492  58.9667854 114.8588020  43.9187468  71.9922039 118.3717701
  44.4705776  72.1553661 119.1366786  44.2593662  72.5826477 117.6997725
  38.8951961  54.3397189 118.9739585  38.9593288  55.2012020 118.5616983
  38.8319082  53.7271191 118.2411944  48.7698343  66.8183297 124.2266355
  49.3138247  67.4313255 123.7321310  48.1885187  67.3762875 124.7433368
  35.1469777  58.2196751 108.5530974  35.4423218  57.3107429 108.4998028
  34.2457813  58.1984490 108.2311977  47.0555856  69.9404015 115.3581383
  46.9306995  69.1393755 114.8492328  47.7134947  70.4350208 114.8695353
  38.6764024  56.2952747 114.5358523  37.9550610  56.9088715 114.3965996
  39.4657280  56.8310512 114.4575169  49.1190764  67.7413035 116.9860933
  48.1721099  67.6218386 116.9139260  49.4673537  66.8535533 117.0687194
  41.4790337  53.6307174 120.8099175  42.0024739  53.8769470 121.5725484
  41.2602671  54.4627209 120.3902312  36.8757618  55.9010849 108.6770300
  36.5470325  55.0208227 108.4945405  37.2296989  55.8458517 109.5646689
  39.9899442  56.1883818 109.0445777  40.3295514  56.7169740 108.3224386
  40.4371562  56.5264224 109.8204344  49.7271319  68.3594310 114.2730158
  50.6517867  68.1537171 114.1354609  49.5586622  68.1110711 115.1819499
  42.6842882  54.5720869 118.4948845  42.3439703  53.7728682 118.8969525
  41.9781889  54.8722580 117.9225678  43.3359354  51.6570181 116.9476168
  44.1585423  51.1830660 116.8255059  43.5797418  52.4360665 117.4474855
  41.9767589  54.6858440 107.2439070  42.6975951  55.0639693 106.7402787
  41.3532893  55.4047317 107.3474048  46.1198712  55.3903589 108.1797402
  46.3362326  56.2728227 107.8786230  45.6392779  54.9989802 107.4503044
  40.8597933  58.3489302 114.7568147  40.7142514  58.6629605 115.6492428
  40.3823137  58.9674202 114.2039046  42.7194316  55.3391850 114.8049036
  42.7055885  54.4432943 114.4681334  43.4366744  55.3462514 115.4387323
  44.5720447  55.7729190 116.8502164  44.3138224  56.6946261 116.8486494
  44.0405487  55.3759625 117.5402628  35.3343595  60.8894646 117.6955808
  34.7897063  61.6654454 117.8276082  36.2122945  61.2365451 117.5374930
  42.1231212  54.2206230 110.0736607  42.2447123  53.2922877 110.2727494
  41.8333254  54.2344916 109.1614922  44.9922402  51.9061141 113.2103326
  45.0144099  51.9700474 112.2555306  45.4090461  51.0665649 113.4043833
  55.3706026  61.6416400 111.2482549  55.8137172  60.8923726 110.8501672
  54.4932537  61.6326537 110.8656281  36.1209617  60.0164543 120.5885965
  35.3791353  60.1647178 121.1750595  35.8002361  60.2772808 119.7252714
  52.4033231  65.6446447 108.2576478  52.9284555  65.9833720 107.5325798
  52.3155583  64.7093463 108.0739613  44.0653280  69.5580521 120.3866355
  44.3740406  69.3129668 121.2589055  44.8628762  69.7627159 119.8985225
  34.7674836  65.8216298 113.5785293  33.9306744  65.3938472 113.3969294
  34.7398481  66.0148741 114.5156084  52.0927137  66.2779351 123.5627676
  51.3022681  66.2603490 123.0232176  51.8560492  66.8167645 124.3176713
  52.2125012  63.1271817 120.8760405  52.2623017  62.9621825 121.8175928
  52.1038935  62.2599076 120.4858286  49.5028774  59.1102745 122.1919712
  50.4038637  58.9709210 121.9003709  49.5776749  59.2757200 123.1317889
  43.8371580  56.4869600 121.0372898  42.9674889  56.7803166 120.7655486
  44.0731060  57.0710045 121.7580161  53.7143209  65.5468759 121.1202426
  53.4228017  65.9098739 121.9565887  53.1015340  64.8335767 120.9415758
  54.9138891  63.1121639 113.6404997  55.7485783  63.5511443 113.8042557
  55.0498020  62.6360292 112.8213242  51.9630397  60.6701373 119.5882484
  52.4384519  60.8629020 118.7801336  51.0395962  60.7260559 119.3425868
  46.5410614  52.7049217 118.5538318  47.0592557  53.4410244 118.2284807
  46.1865746  53.0113210 119.3885077  38.1209551  57.5653898 106.6699724
  37.4278796  57.6398253 106.0139760  37.8761303  56.8014242 107.1921241
  46.7923208  49.1249500 114.0739215  47.0724962  48.4572689 114.6999641
  47.5773815  49.3178595 113.5613879  50.6632066  57.5467134 117.8210790
  51.6149489  57.6465231 117.8423014  50.4935516  56.7545402 118.3308874
  48.6846446  54.6322717 118.0070191  48.0896378  54.9127730 117.3116680
  48.3996142  55.1216618 118.7786932  50.4441953  67.9011514 103.7276771
  50.3655584  67.5671378 104.6212529  51.2651619  68.3933282 103.7268243
  53.1420144  60.7673253 116.9353090  53.1096464  59.8289254 117.1212773
  53.7520768  60.8457290 116.2018914  53.2914632  57.5584297 116.9811373
  52.7753681  56.7742753 116.7941302  54.1754581  57.2303013 117.1457892
  50.9525359  51.3025312 112.9407185  50.7550180  50.9940400 113.8250517
  51.5625065  52.0286951 113.0705115  58.9596694  61.8289260 116.0759126
  59.6900082  61.5674548 116.6366830  58.3503639  61.0917982 116.1161194
  57.0411991  59.9697123 116.6733578  56.3145154  59.8353088 116.0650069
  56.6259278  60.2773951 117.4790296  44.8642167  63.6887052 124.4380951
  45.7845177  63.8665651 124.6320997  44.8291750  62.7443098 124.2860650
  34.0824332  58.8825646 113.3634225  33.7627117  58.0290954 113.0708599
  33.5357760  59.0974224 114.1192193  37.8604240  61.5988087 117.0803732
  38.0790250  62.5305195 117.0991766  38.2730014  61.2396061 117.8658536
  44.7808458  52.1056172 109.0679420  43.9709186  51.7603257 109.4434666
  45.4692875  51.7963716 109.6567032  46.7099006  51.1834219 110.6903717
  47.2630045  51.6029673 111.3493740  46.9469092  50.2569967 110.7326673
  33.9512592  62.5028558 115.3327347  33.2576064  62.0882510 114.8197301
  34.6985583  62.5449094 114.7360766  50.0877813  53.2934744 110.1982381
  49.5076482  53.9519548 109.8160433  49.8213746  52.4712089 109.7869799
  48.5381379  52.6939802 112.4003701  49.0381158  52.8056337 111.5918020
  49.1816987  52.3900855 113.0404510  42.5963375  60.6018432 125.2871542
  42.1130457  61.4018792 125.4935431  42.6824314  60.6126377 124.3338986
  35.8649335  62.4346811 113.2093362  35.8420023  62.5334499 112.2575245
  36.1749971  63.2811962 113.5310528  38.5236713  64.4922966 117.3239976
  39.4779966  64.4606909 117.2569908  38.3249236  64.0313590 118.1390202
  39.1136095  63.0624082 119.8910774  39.9328984  63.5568161 119.9145611
  39.3872903  62.1456051 119.8628341  48.8702691  55.4534835 109.2538729
  47.9828546  55.7384485 109.0358924  49.2856680  55.2928598 108.4066006
  52.2217227  55.4781356 112.9693069  52.9977617  55.9677808 113.2417685
  51.4965361  55.9039410 113.4264938  54.6589786  56.1908975 114.0267009
  55.2534277  55.9504711 113.3160317  54.7316369  55.4716105 114.6540545
  36.8786941  70.0342586 114.3410174  36.7441409  69.2742987 113.7748172
  36.4619004  70.7583486 113.8738963  48.8443715  60.9689371 109.4689019
  48.7878916  61.4257922 108.6296652  49.3972057  60.2080055 109.2911862
  52.6548521  56.7579102 110.2939139  52.3985455  56.3575738 111.1247347
  52.0301389  57.4722896 110.1689278  56.9660859  59.4975176 112.8010430
  56.4060416  59.5668365 113.5741992  56.3604362  59.3216160 112.0809927
  49.9232602  65.6562039 105.3985209  50.7578206  65.2243237 105.2162684
  49.7616945  65.4844052 106.3262104  34.3671009  57.3962216 120.5902971
  35.0129873  56.8861170 121.0790196  34.1588160  58.1330898 121.1646396
  46.8924401  64.4643064 126.0895111  47.7615561  64.6383716 125.7281746
  46.4131153  65.2837481 125.9670841  42.8874620  51.6602261 106.3426867
  42.8753289  52.6044101 106.4995138  43.7798041  51.4772406 106.0486328
  41.0610581  71.5840165 117.7684545  41.9637828  71.6163775 118.0851040
  40.8347952  70.6540616 117.7830881  46.7026739  48.2545038 110.5972804
  45.9359135  47.7003524 110.7429486  47.1137444  48.3266906 111.4586955
  58.5516877  76.1731690 115.4940386  59.1895287  76.0538437 114.7903726
  58.4337720  77.1212534 115.5528338  55.3606583  76.1259118 115.4301911
  55.0225095  76.0100182 114.5422446  56.2296351  75.7250283 115.4102917
  51.2193399  77.9794594 111.4198802  50.6558264  77.8884531 110.6515090
  51.1045794  77.1594499 111.9001294  55.8426366  77.2793970 121.3888116
  55.8315007  76.8846768 120.5168620  56.0047006  76.5460042 121.9821888
  48.7657831  79.4745786 114.2583022  49.5579123  79.1336610 113.8429322
  49.0054481  79.5840761 115.1785176  56.7992958  81.6465562 106.7313267
  56.1480937  82.2319642 106.3447280  57.5937320  82.1771757 106.7908304
  50.7248585  78.7354699 107.1300401  51.4979461  78.1883686 106.9913277
  51.0773984  79.5998948 107.3414862  52.5633627  80.0631081 120.3367300
  52.2723493  80.9676712 120.2213967  53.1990612  80.1047609 121.0511370
  53.4889834  77.4407930 116.9268660  54.0853406  77.2163952 116.2125623
  53.5464806  76.6992675 117.5294108  53.0614863  74.8947365 104.7618851
  53.3140383  74.3728886 104.0002314  52.1239422  74.7313511 104.8645535
  58.1058145  73.8983144 112.5693594  58.8921235  73.4802567 112.2184011
  58.3696850  74.8029236 112.7375243  58.2768223  79.3355994 107.2682251
  57.6414056  79.4090620 107.9803156  57.9465629  79.9249593 106.5901330
  63.5066573  73.8358377 113.4726573  64.2391745  73.2657594 113.7064402
  62.7505928  73.4479977 113.9133078  52.7811151  76.7975471 106.9643226
  52.6647409  76.1220375 107.6324310  52.8913411  76.3107845 106.1475379
  55.1242692  76.2585618 110.6689915  54.7600900  75.7316239 111.3802837
  55.9809808  75.8684087 110.4956401  61.0291993  67.5479951 117.9321181
  60.6975318  68.4175362 117.7082396  60.4337606  67.2316235 118.6115212
  54.7648179  71.2875518 105.6651264  54.9322582  72.1555754 106.0321735
  54.5745348  71.4502800 104.7412553  57.5223512  79.7492497 117.3317094
  57.2224236  80.6517536 117.2232901  57.1774572  79.4824680 118.1838247
  50.9735994  76.2006294 113.3653798  50.0486490  76.0682508 113.5731490
  51.2220407  76.9800513 113.8623741  60.9220656  72.2675037 115.0114531
  60.0137534  72.1990445 114.7173292  60.8708252  72.7446982 115.8396357
  54.7437400  73.7433175 106.6497930  54.6237025  74.1890226 107.4883411
  54.0489989  74.0918493 106.0911469  48.3344805  75.8439567 114.1997588
  48.4637186  76.0974046 115.1136999  47.6542256  76.4367275 113.8802243
  52.5044292  86.5136817 110.2988062  52.4268322  87.4644642 110.3776542
  51.9005936  86.1682690 110.9562988  54.9961522  73.6864683 122.9549429
  54.2194856  74.2458603 122.9452293  55.6352085  74.1721466 123.4764299
  62.7882303  70.4691475 116.7892405  62.1456683  70.7624009 116.1432200
  62.2837231  70.3544396 117.5945602  60.4422466  74.2154649 107.4778265
  61.3540322  74.4482035 107.3025962  59.9332113  74.7991693 106.9153343
  53.2507894  76.4950136 122.5167396  53.9922579  77.0335180 122.2402219
  52.5444880  77.1216425 122.6738947  58.7263234  78.6379276 121.1139557
  59.1346590  78.1961687 120.3694189  58.0040495  78.0631904 121.3673750
  55.0794304  73.5751883 118.4873114  55.9255499  73.9991297 118.6307763
  55.0192942  72.9185508 119.1811677  59.0492049  79.1980467 114.8691846
  58.4200911  79.3626181 114.1667914  58.6617711  79.6122077 115.6402810
  62.9281281  80.1334905 112.2236210  62.2432319  80.5133806 111.6733243
  63.0125130  80.7430232 112.9568158  58.2293749  71.2356252 120.1454288
  57.9854681  71.9898312 119.6088563  58.5053680  71.6141599 120.9801535
  60.1832212  77.7794864 118.8231553  60.3949107  78.4226624 118.1465934
  60.1361960  76.9457180 118.3553483  57.7858441  70.3912685 115.7268125
  56.9242920  70.6893938 116.0184863  57.8120876  70.6083083 114.7949158
  54.6020010  78.9354875 112.1341931  55.0658356  79.2142578 111.3446554
  54.3376809  78.0338320 111.9515022  51.4944092  78.4826357 115.0721694
  52.0645449  78.9113625 114.4339179  52.0852203  78.2008941 115.7705880
  53.5388897  75.0578028 108.9431496  54.2412940  75.5099071 109.4105423
  53.2069525  74.4161846 109.5711389  51.9869258  73.6489784 123.3182706
  51.3567919  74.3306065 123.5518102  51.8805346  73.5372866 122.3735844
  61.2978040  80.6566819 116.9953911  62.1195484  80.2547007 116.7136592
  61.2940443  80.5535054 117.9470026  55.0634644  80.2050863 119.1514621
  55.1279076  80.6671270 119.9872793  54.3545567  79.5748228 119.2796931
  45.5651933  73.5692071 116.6763621  45.8159972  74.4539081 116.9421197
  46.1011482  73.3896672 115.9038712  69.3884033  77.0005568 113.3438882
  68.6347742  76.4312966 113.1882887  69.5231574  76.9668232 114.2909517
  54.7782661  81.8718970 109.0193601  54.6428336  82.7170506 109.4478449
  55.3192474  82.0738248 108.2559535  51.2650001  67.9510550 125.6807957
  50.8716946  67.3976749 126.3555601  52.0816141  68.2621128 126.0714474
  48.2312059  79.3894408 109.5921527  48.7436579  80.1837658 109.7427091
  48.8834771  78.6920699 109.5255128  50.0406943  82.5060164 111.6744280
  50.2173572  83.4278129 111.4865264  50.8363777  82.1918584 112.1038659
  54.1817962  69.3668429 123.2728213  54.9227675  69.9675582 123.1932676
  54.4135885  68.6246067 122.7146256  49.3259300  74.5524796 121.5506443
  49.2112815  73.6510054 121.8513542  48.4703818  74.7988493 121.1991259
  56.4051138  82.4942537 123.1493944  55.9614992  81.7078915 122.8314848
  57.0668351  82.6821687 122.4837834  51.1638259  84.0238338 117.6754622
  51.7145684  83.8955402 116.9031616  50.3249735  84.3233227 117.3249515
  58.5032376  82.7745337 121.1775345  58.4850851  83.5954218 120.6855614
  59.4252296  82.6499412 121.4025486  54.9605430  80.2889466 122.0198853
  55.4933767  79.5277754 121.7898161  54.4319511  79.9963118 122.7623008
  58.1275125  65.3949532 117.5492495  57.7839394  66.2851174 117.4731605
  58.4954087  65.2051190 116.6862080  58.0925407  75.3858143 106.0564930
  57.5772031  76.1562748 106.2953317  57.8202716  74.7123279 106.6797991
  55.6772518  70.2307844 111.1150168  54.8214115  69.8414694 110.9355807
  56.0899470  70.3099805 110.2549954  57.2071665  67.7654187 115.5141728
  56.7036461  67.7284322 114.7009533  57.5002272  68.6746930 115.5738385
  53.4514551  67.8492917 114.5207910  54.3167548  67.6535726 114.1613799
  53.5192060  67.6203269 115.4477267  63.0659682  78.1390498 107.9918103
  62.2889124  77.8001657 107.5473266  63.7451163  78.1443121 107.3173069
  57.8811711  73.2585235 107.8824711  57.5761846  73.5731384 108.7334854
  58.8342153  73.3366655 107.9252044  56.3258142  79.4175459 109.5317665
  55.7979504  78.6828218 109.2190903  55.8245645  80.1950135 109.2857634
  61.3050989  77.6124479 114.6484711  60.6474663  78.3023740 114.7364840
  62.1091388  78.0020911 114.9918698  51.0576870  70.0795125 111.8924277
  51.6320622  69.8570306 111.1597470  51.6447853  70.1483819 112.6452878
  60.1156447  75.9668852 112.6988653  60.6288329  76.5998844 113.2010363
  60.7657671  75.3670047 112.3332013  51.3846457  72.1099586 105.9120162
  50.5483769  72.4474272 106.2329437  51.2451227  71.9748566 104.9747299
  53.3599538  66.9536374 110.6199346  52.7063950  66.6385391 109.9955961
  53.3180012  66.3312114 111.3459169  54.4710743  77.2355669 102.5352638
  53.5637804  77.0044922 102.7343787  54.9681775  76.4393288 102.7226620
  57.3778822  85.9453176 105.4549324  56.7040520  86.2484873 106.0634282
  57.7644644  86.7482256 105.1054781  56.5937278  73.4418307 114.9446994
  55.6759840  73.6633254 114.7868682  57.0097422  73.5164618 114.0858701
  57.3772326  74.8409723 110.0749674  58.1244145  75.3531120 109.7656796
  57.6463915  74.5193776 110.9354068  55.6498976  77.3368264 107.0576628
  54.7410195  77.0527296 107.1549098  55.6794060  77.7567342 106.1979935
  60.8818244  80.9474853 110.8267796  60.4280571  80.1065763 110.8832986
  60.2512210  81.5836252 111.1642576  59.8251163  71.8766839 112.0568463
  59.0873920  71.3644225 112.3878706  60.0777937  71.4367221 111.2451740
  59.3251183  82.7851350 111.7617614  59.6174157  83.3456407 111.0429980
  59.8349803  83.0779911 112.5170773  59.9262790  64.6543091 112.6510233
  60.2321667  63.7940455 112.3636148  60.6515395  65.2460711 112.4509226
  54.1983870  74.9496884 113.1586424  54.2532480  73.9970721 113.0828900
  53.3875072  75.1056323 113.6427722  55.3475064  78.8777007 104.3964707
  54.9094494  78.1612866 103.9370344  56.0885505  79.1053122 103.8349798
  52.1376230  73.5673944 110.9176803  51.3244096  73.8668115 111.3241995
  52.6335224  73.1729633 111.6351285  54.2884808  83.5631701 112.8511067
  54.2460987  83.7892547 111.9219599  55.2047507  83.3295076 112.9996868
  57.7350442  74.0315768 119.7491696  58.0899829  74.2587242 120.6086162
  58.3822573  74.3634145 119.1268952  63.4648179  77.1534204 110.4541025
  63.3266077  77.3435800 109.5262215  63.1084397  77.9153587 110.9109077
  51.6290305  71.1392300 116.5338037  52.2689684  70.9981059 115.8361001
  50.7967835  70.8526813 116.1576639  63.4917558  79.2210731 115.4652297
  63.9254065  79.1286020 116.3135351  64.2049139  79.1968232 114.8272313
  52.4050609  80.4394730 112.6473030  53.1991207  79.9445050 112.4455605
  51.6942301  79.9112593 112.2840735  57.2245453  82.8212825 116.9985398
  57.2782475  83.3903762 117.7663113  56.3560235  82.9914711 116.6339435
  50.1043847  72.5230382 118.4809849  50.7766900  72.3147744 117.8322498
  49.2773633  72.3252468 118.0415081  64.3533108  79.2634432 117.9985182
  64.5468998  80.1680243 118.2444457  64.2533726  78.8041851 118.8323767
  56.0069419  69.1492323 120.4975510  55.3597334  69.8482272 120.4039986
  56.7770434  69.5828467 120.8651758  59.4148217  79.4141175 123.5726063
  59.2633723  79.1851726 122.6556147  59.4052896  80.3711776 123.5857408
  56.1833553  76.9873088 118.5572329  57.1125613  77.1384247 118.3841297
  55.7624583  77.0757108 117.7020976  54.9821885  81.0123752 116.3270867
  54.8432970  80.6442536 117.1996805  54.1936481  81.5271391 116.1554825
  55.5770037  86.1132848 107.6696404  55.7521792  85.6420892 108.4842026
  54.8902825  86.7398615 107.8977664  56.5327100  80.3905355 113.7159705
  56.1976932  80.3506125 114.6117355  56.0331046  79.7250071 113.2430115
  50.5071344  75.7972985 119.2412286  50.3691142  75.0653224 119.8423825
  51.4176267  75.7081885 118.9596474  59.4686292  77.7361389 103.9896764
  58.8515462  77.0108217 103.8929817  59.0002780  78.4970749 103.6463839
  53.1353644  75.5092944 118.7295966  53.8453263  74.8686136 118.6882584
  53.0922953  75.7605839 119.6522146  61.1240423  82.4460297 121.6502545
  61.0652969  81.7619517 120.9833128  61.5259942  83.1879287 121.1983171
  51.8482578  72.4958162 120.5491605  51.3119935  72.0448900 121.2013201
  51.2599287  72.6304071 119.8062069  50.1431122  89.2622211 114.4436264
  50.3827720  89.8940735 115.1215282  49.3000318  88.9110251 114.7301623
  51.2584837  71.9546813 103.1118069  50.3814304  71.8335614 102.7480315
  51.7342590  71.1632892 102.8596957  61.1257830  80.4099881 119.8816524
  60.2384609  80.0725803 120.0042923  61.6956382  79.6782913 120.1185290
  42.7786978  76.7423973 113.2059576  43.4658017  76.4285703 112.6180591
  42.6235106  77.6465338 112.9326827  47.5821700  71.6314170 117.6344600
  47.4979888  71.0239839 116.8995010  46.7604406  72.1223188 117.6354096
  54.6558984  85.0701334 116.8477768  54.5829155  85.8756305 117.3597072
  54.2136377  85.2693299 116.0225789  54.4448763  84.3073104 110.3580589
  53.6616285  84.8494784 110.4518814  55.1441509  84.8247083 110.7574830
  57.7545414  70.1167733 113.0014795  58.2514113  69.3637695 112.6815865
  56.9832395  70.1532050 112.4358004  65.6075171  75.8208099 114.6433086
  65.5965047  76.7032814 114.2727019  64.7392550  75.4679649 114.4487623
  57.1157667  84.9688168 119.0035926  57.8285640  85.6035632 118.9311828
  56.6247696  85.0652034 118.1875928  58.8375194  78.8739420 110.5753218
  57.9031473  78.9940883 110.4057922  59.0151863  77.9711887 110.3113228
  54.3380382  72.2585116 112.7286479  53.9678170  71.7056156 113.4167385
  54.8339475  71.6543250 112.1761479  62.2247746  74.7156740 111.1103252
  62.6908198  75.5484731 111.0363555  62.6755246  74.2501721 111.8148511
  52.1669581  82.7182611 119.8241497  52.8679040  83.3519094 119.9770891
  51.6964696  83.0597343 119.0637136  60.2923977  81.0600561 108.1089404
  60.5683821  80.9457155 109.0183278  59.4228475  80.6618046 108.0701577
  60.1964408  67.0837327 115.1494154  59.2827488  67.3141553 115.3176360
  60.6257510  67.1675771 116.0008186  59.9670867  75.2727219 117.6494048
  59.3142317  75.5203126 116.9946500  60.3451247  74.4591357 117.3156525
  56.9278041  85.3086912 111.7522218  57.1100435  84.4908568 112.2149970
  57.7511027  85.5254604 111.3147108  57.2620206  84.2355097 109.0137266
  57.7907973  83.7247551 108.4007428  57.5248426  83.9197627 109.8782799
  56.0158440  76.0147030 124.1360085  55.3399077  75.9141159 124.8062460
  56.8386074  75.8586243 124.5996082  47.7637299  82.2518966 116.7572600
  48.3490736  81.5062654 116.8900504  47.5662137  82.5622923 117.6409264
  50.6175954  85.2870214 111.7735042  49.9486329  85.7716341 111.2899082
  50.4788824  85.5339434 112.6878421  42.3554954  74.8224566 115.4777043
  42.3939053  74.2888157 116.2714161  41.8495247  74.2959772 114.8588020
  54.7581223  87.3213957 118.3717701  55.3099531  87.4845579 119.1366786
  55.0987416  87.9118395 117.6997725  49.7345716  69.6689107 118.9739585
  49.7987042  70.5303938 118.5616983  49.6712836  69.0563109 118.2411944
  49.2097989  71.7412239 122.6212620  49.8370027  71.3589317 123.2350144
  48.3525907  71.5226441 122.9868312  57.8949610  85.2695933 115.3581383
  57.7700749  84.4685672 114.8492328  58.5528701  85.7642126 114.8695353
  49.5157778  71.6244665 114.5358523  48.7944364  72.2380633 114.3965996
  50.3051034  72.1602430 114.4575169  59.9584518  83.0704953 116.9860933
  59.0114854  82.9510304 116.9139260  60.3067292  82.1827451 117.0687194
  52.3184092  68.9599092 120.8099175  52.8418494  69.2061388 121.5725484
  52.0996425  69.7919126 120.3902312  56.9630952  82.8657669 113.1865285
  56.8155914  81.9374376 113.3672855  57.7884445  82.8877760 112.7022360
  60.5665074  83.6886228 114.2730158  61.4911621  83.4829089 114.1354609
  60.3980377  83.4402629 115.1819499  53.5236637  69.9012787 118.4948845
  53.1833457  69.1020600 118.8969525  52.8175643  70.2014498 117.9225678
  54.1753109  66.9862099 116.9476168  54.9979178  66.5122577 116.8255059
  54.4191172  67.7652583 117.4474855  52.8161343  70.0150358 107.2439070
  53.5369706  70.3931610 106.7402787  52.1926647  70.7339234 107.3474048
  56.9592466  70.7195507 108.1797402  57.1756080  71.6020144 107.8786230
  56.4786533  70.3281720 107.4503044  51.6991687  73.6781220 114.7568147
  51.5536268  73.9921523 115.6492428  51.2216891  74.2966120 114.2039046
  53.5588070  70.6683768 114.8049036  53.5449639  69.7724861 114.4681334
  54.2760498  70.6754432 115.4387323  55.4114201  71.1021108 116.8502164
  55.1531979  72.0238179 116.8486494  54.8799241  70.7051543 117.5402628
  60.3560390  84.2071895 109.6292249  60.5297267  83.6418318 108.8766102
  60.8489281  85.0072790 109.4471739  46.1737350  76.2186564 117.6955808
  45.6290818  76.9946372 117.8276082  47.0516699  76.5657369 117.5374930
  52.9624966  69.5498148 110.0736607  53.0840877  68.6214794 110.2727494
  52.6727009  69.5636834 109.1614922  55.8316157  67.2353058 113.2103326
  55.8537853  67.2992392 112.2555306  56.2484216  66.3957567 113.4043833
  66.2099781  76.9708318 111.2482549  66.6530927  76.2215643 110.8501672
  65.3326291  76.9618454 110.8656281  61.3435562  83.5238659 106.7289148
  62.0386467  84.1445352 106.9476462  61.6858712  82.6734011 107.0041525
  46.9603371  75.3456460 120.5885965  46.2185107  75.4939096 121.1750595
  46.6396116  75.6064726 119.7252714  63.2426985  80.9738365 108.2576478
  63.7678309  81.3125638 107.5325798  63.1549338  80.0385380 108.0739613
  54.9047034  84.8872439 120.3866355  55.2134161  84.6421585 121.2589055
  55.7022516  85.0919077 119.8985225  54.9267646  87.0410348 112.6171732
  54.4872636  86.5486727 113.3104588  55.6775763  86.4983316 112.3763807
  47.4059985  83.2321889 112.6196360  48.2318005  82.9325661 112.2395003
  47.0554037  82.4629512 113.0686148  52.3741518  82.5848357 114.6894033
  51.7521528  81.9219062 114.3896261  53.0446385  82.6109489 114.0067681
  45.6068590  81.1508216 113.5785293  44.7700498  80.7230390 113.3969294
  45.5792236  81.3440659 114.5156084  52.4466046  71.0630145 124.2826539
  52.4954201  71.9392268 123.9004309  52.9888560  70.5207538 123.7098182
  63.0518766  78.4563735 120.8760405  63.1016771  78.2913742 121.8175928
  62.9432690  77.5890994 120.4858286  51.9355025  81.1352281 108.1652494
  52.0843146  81.8187745 107.5119166  52.7421469  81.1157371 108.6801949
  60.3422529  74.4394663 122.1919712  61.2432392  74.3001128 121.9003709
  60.4170503  74.6049118 123.1317889  54.6765334  71.8161518 121.0372898
  53.8068644  72.1095084 120.7655486  54.9124815  72.4001963 121.7580161
  64.5536963  80.8760677 121.1202426  64.2621772  81.2390657 121.9565887
  63.9409095  80.1627685 120.9415758  65.7532646  78.4413556 113.6404997
  66.5879537  78.8803360 113.8042557  65.8891774  77.9652210 112.8213242
  62.8024152  75.9993291 119.5882484  63.2778273  76.1920937 118.7801336
  61.8789717  76.0552477 119.3425868  49.6907658  77.1617458 109.1713563
  49.4453700  76.2579788 109.3693773  49.8603573  77.1634609 108.2293041
  57.3804368  68.0341135 118.5538318  57.8986312  68.7702162 118.2284807
  57.0259501  68.3405128 119.3885077  57.6316962  64.4541417 114.0739215
  57.9118716  63.7864606 114.6999641  58.4167569  64.6470513 113.5613879
  55.4350431  83.6300411 105.6364241  54.8624398  84.2490598 105.1834713
  56.0083224  84.1799773 106.1704163  61.5025821  72.8759051 117.8210790
  62.4543243  72.9757149 117.8423014  61.3329271  72.0837320 118.3308874
  59.5240200  69.9614634 118.0070191  58.9290132  70.2419647 117.3116680
  59.2389897  70.4508535 118.7786932  58.6547691  83.9137561 106.7672823
  59.5878364  83.8483123 106.9705699  58.5670903  84.7493828 106.3087356
  61.2835707  83.2303432 103.7276771  61.2049339  82.8963295 104.6212529
  62.1045374  83.7225200 103.7268243  63.9813898  76.0965171 116.9353090
  63.9490218  75.1581172 117.1212773  64.5914522  76.1749208 116.2018914
  55.8197229  74.9661224 102.9780294  56.7656334  74.8367432 103.0468712
  55.4411474  74.2275886 103.4549722  64.1308387  72.8876214 116.9811373
  63.6147435  72.1034671 116.7941302  65.0148335  72.5594931 117.1457892
  61.7919114  66.6317230 112.9407185  61.5943935  66.3232318 113.8250517
  62.4018819  67.3578869 113.0705115  69.7990448  77.1581178 116.0759126
  70.5293837  76.8966466 116.6366830  69.1897394  76.4209900 116.1161194
  67.8805745  75.2989040 116.6733578  67.1538909  75.1645005 116.0650069
  67.4653032  75.6065869 117.4790296  55.7035922  79.0178970 124.4380951
  56.6238931  79.1957569 124.6320997  55.6685505  78.0735015 124.2860650
  54.0040146  72.8911200 102.9135179  53.0971602  72.5944313 102.9897892
  54.2816127  72.5941018 102.0469465  48.6997994  76.9280005 117.0803732
  48.9184004  77.8597113 117.0991766  49.1123768  76.5687979 117.8658536
  55.6202212  67.4348090 109.0679420  54.8102940  67.0895175 109.4434666
  56.3086629  67.1255634 109.6567032  57.5492760  66.5126137 110.6903717
  58.1023799  66.9321590 111.3493740  57.7862847  65.5861885 110.7326673
  53.5725860  72.5013210 126.4706481  53.4722587  73.4507567 126.4018572
  53.3547402  72.1731449 125.5982551  52.7738931  69.7498136 103.0547158
  53.6358095  70.0753034 103.3142975  52.9589275  68.9629631 102.5420224
  44.7906347  77.8320475 115.3327347  44.0969818  77.4174428 114.8197301
  45.5379338  77.8741012 114.7360766  60.9271567  68.6226662 110.1982381
  60.3470237  69.2811466 109.8160433  60.6607500  67.8004007 109.7869799
  59.3775134  68.0231720 112.4003701  59.8774912  68.1348254 111.5918020
  60.0210742  67.7192773 113.0404510  53.4357130  75.9310349 125.2871542
  52.9524211  76.7310709 125.4935431  53.5218069  75.9418294 124.3338986
  46.7043089  77.7638729 113.2093362  46.6813777  77.8626416 112.2575245
  47.0143726  78.6103880 113.5310528  49.3630467  79.8214884 117.3239976
  50.3173721  79.7898826 117.2569908  49.1642991  79.3605508 118.1390202
  49.9529849  78.3916000 119.8910774  50.7722738  78.8860079 119.9145611
  50.2266657  77.4747968 119.8628341  59.7096445  70.7826752 109.2538729
  58.8222301  71.0676403 109.0358924  60.1250435  70.6220516 108.4066006
  63.0610982  70.8073273 112.9693069  63.8371372  71.2969726 113.2417685
  62.3359116  71.2331328 113.4264938  65.4983540  71.5200893 114.0267009
  66.0928031  71.2796629 113.3160317  65.5710124  70.8008023 114.6540545
  47.7180696  85.3634504 114.3410174  47.5835164  84.6034904 113.7748172
  47.3012758  86.0875403 113.8738963  58.8539659  80.5471427 103.3486749
  59.5575509  80.7521430 103.9644405  58.1302308  81.1148189 103.6135833
  59.6837469  76.2981288 109.4689019  59.6272671  76.7549840 108.6296652
  60.2365812  75.5371973 109.2911862  63.4942275  72.0871020 110.2939139
  63.2379209  71.6867656 111.1247347  62.8695143  72.8014814 110.1689278
  67.8054613  74.8267093 112.8010430  67.2454171  74.8960283 113.5741992
  67.1998116  74.6508078 112.0809927  50.8749822  86.2603821 114.5528617
  50.7582206  87.2049253 114.4507307  50.0542268  85.9577382 114.9414416
  60.7626356  80.9853956 105.3985209  61.5971960  80.5535155 105.2162684
  60.6010699  80.8135970 106.3262104  60.4172249  77.4886070 106.7641549
  60.3621052  77.3230341 105.8229993  59.7918304  78.1962102 106.9203738
  45.2064764  72.7254134 120.5902971  45.8523627  72.2153088 121.0790196
  44.9981915  73.4622816 121.1646396  53.7268374  66.9894179 106.3426867
  53.7147044  67.9336018 106.4995138  54.6191796  66.8064324 106.0486328
  51.9004336  86.9132082 117.7684545  52.8031583  86.9455693 118.0851040
  51.6741706  85.9832533 117.7830881  53.6557938  85.6663069 114.4294624
  52.7053569  85.6664931 114.3158996  53.9590424  84.9195804 113.9130658
  57.5420493  63.5836955 110.5972804  56.7752889  63.0295442 110.7429486
  57.9531198  63.6558824 111.4586955  49.5462255  69.8721751 124.6877985
  50.4093716  69.5158556 124.8981310  48.9727665  69.5335646 125.3753389
  62.0587153  93.3086512 111.4198802  61.4952019  93.2176449 110.6515090
  61.9439548  92.4886416 111.9001294  59.6051585  94.8037703 114.2583022
  60.3972877  94.4628528 113.8429322  59.8448236  94.9132679 115.1785176
  67.6386712  96.9757480 106.7313267  66.9874692  97.5611560 106.3447280
  68.4331075  97.5063674 106.7908304  61.5642339  94.0646617 107.1300401
  62.3373215  93.5175604 106.9913277  61.9167738  94.9290866 107.3414862
  63.9008617  90.2239283 104.7618851  64.1534138  89.7020804 104.0002314
  62.9633176  90.0605428 104.8645535  68.9451900  89.2275061 112.5693594
  69.7314989  88.8094484 112.2184011  69.2090604  90.1321153 112.7375243
  69.1161977  94.6647912 107.2682251  68.4807810  94.7382538 107.9803156
  68.7859384  95.2541510 106.5901330  63.6204906  92.1267389 106.9643226
  63.5041164  91.4512292 107.6324310  63.7307166  91.6399763 106.1475379
  65.9636447  91.5877536 110.6689915  65.5994654  91.0608157 111.3802837
  66.8203563  91.1976005 110.4956401  65.6041934  86.6167436 105.6651264
  65.7716336  87.4847672 106.0321735  65.4139103  86.7794717 104.7412553
  61.8129748  91.5298211 113.3653798  60.8880245  91.3974425 113.5731490
  62.0614162  92.3092431 113.8623741  65.5831155  89.0725093 106.6497930
  65.4630780  89.5182144 107.4883411  64.8883743  89.4210411 106.0911469
  59.1738559  91.1731485 114.1997588  59.3030941  91.4265964 115.1136999
  58.4936011  91.7659193 113.8802243  71.2816221  89.5446566 107.4778265
  72.1934077  89.7773953 107.3025962  70.7725868  90.1283610 106.9153343
  68.6252196  85.7204602 115.7268125  67.7636675  86.0185856 116.0184863
  68.6514630  85.9375001 114.7949158  65.4413765  94.2646793 112.1341931
  65.9052111  94.5434496 111.3446554  65.1770563  93.3630237 111.9515022
  64.3782651  90.3869945 108.9431496  65.0806694  90.8390989 109.4105423
  64.0463280  89.7453764 109.5711389  58.1207985  88.6453498 114.2448630
  57.3307039  88.9011026 113.7688740  58.6119232  89.4601836 114.3500670
  60.0722730  89.0098077 111.2032106  59.2753894  89.1216771 111.7215602
  59.8448323  89.3484729 110.3372997  56.4045688  88.8983988 116.6763621
  56.6553726  89.7830998 116.9421197  56.9405236  88.7188590 115.9038712
  65.6176416  97.2010888 109.0193601  65.4822090  98.0462424 109.4478449
  66.1586228  97.4030165 108.2559535  59.0705813  94.7186326 109.5921527
  59.5830334  95.5129576 109.7427091  59.7228526  94.0212616 109.5255128
  60.8800698  97.8352082 111.6744280  61.0567326  98.7570047 111.4865264
  61.6757531  97.5210501 112.1038659  68.9668879  80.7241450 117.5492495
  68.6233149  81.6143091 117.4731605  69.3347842  80.5343107 116.6862080
  57.0354730  93.0474980 110.3681097  57.8729952  93.4571989 110.1514805
  57.2132998  92.1074422 110.3381291  68.9319162  90.7150061 106.0564930
  68.4165785  91.4854665 106.2953317  68.6596470  90.0415197 106.6797991
  66.5166273  85.5599762 111.1150168  65.6607869  85.1706612 110.9355807
  66.9293225  85.6391722 110.2549954  68.0465420  83.0946105 115.5141728
  67.5430215  83.0576240 114.7009533  68.3396026  84.0038848 115.5738385
  64.2908306  83.1784835 114.5207910  65.1561302  82.9827643 114.1613799
  64.3585814  82.9495186 115.4477267  73.9053436  93.4682415 107.9918103
  73.1282879  93.1293575 107.5473266  74.5844917  93.4735039 107.3173069
  68.7205465  88.5877153 107.8824711  68.4155601  88.9023302 108.7334854
  69.6735907  88.6658573 107.9252044  67.1651897  94.7467376 109.5317665
  66.6373259  94.0120136 109.2190903  66.6639400  95.5242053 109.2857634
  61.8970625  85.4087042 111.8924277  62.4714376  85.1862224 111.1597470
  62.4841607  85.4775737 112.6452878  62.2240212  87.4391504 105.9120162
  61.3877524  87.7766190 106.2329437  62.0844981  87.3040483 104.9747299
  64.1993292  82.2828291 110.6199346  63.5457705  81.9677309 109.9955961
  64.1573766  81.6604032 111.3459169  65.3104497  92.5647586 102.5352638
  64.4031559  92.3336840 102.7343787  65.8075529  91.7685206 102.7226620
  68.2172576 101.2745094 105.4549324  67.5434275 101.5776790 106.0634282
  68.6038398 102.0774174 105.1054781  67.4331033  88.7710225 114.9446994
  66.5153594  88.9925172 114.7868682  67.8491176  88.8456535 114.0858701
  68.2166080  90.1701641 110.0749674  68.9637899  90.6823038 109.7656796
  68.4857670  89.8485693 110.9354068  66.4892731  92.6660181 107.0576628
  65.5803950  92.3819214 107.1549098  66.5187814  93.0859260 106.1979935
  70.6644918  87.2058757 112.0568463  69.9267674  86.6936143 112.3878706
  70.9171691  86.7659138 111.2451740  70.7656545  79.9835009 112.6510233
  71.0715422  79.1232372 112.3636148  71.4909150  80.5752629 112.4509226
  57.0580901  90.3865695 111.0391831  56.8605301  89.7935056 110.3142897
  56.5027565  90.0817906 111.7567769  65.0377625  90.2788802 113.1586424
  65.0926234  89.3262638 113.0828900  64.2268827  90.4348241 113.6427722
  66.1868818  94.2068925 104.3964707  65.7488248  93.4904784 103.9370344
  66.9279259  94.4345040 103.8349798  62.9769985  88.8965862 110.9176803
  62.1637850  89.1960032 111.3241995  63.4728979  88.5021550 111.6351285
  74.3041933  92.4826122 110.4541025  74.1659832  92.6727718 109.5262215
  73.9478152  93.2445505 110.9109077  62.4684059  86.4684217 116.5338037
  63.1083439  86.3272976 115.8361001  61.6361590  86.1818731 116.1576639
  63.2444363  95.7686648 112.6473030  64.0384962  95.2736968 112.4455605
  62.5336056  95.2404511 112.2840735  59.5527127  89.9129729 108.7232783
  58.6224715  89.8514185 108.9402745  59.6484599  89.3905682 107.9269424
  59.4712676  86.4384542 111.3111024  59.7319493  87.3529875 111.2020185
  60.2929848  85.9708985 111.4607637  60.9437601  87.8522299 118.4809849
  61.6160654  87.6439662 117.8322498  60.1167388  87.6544385 118.0415081
  66.4163791 101.4424766 107.6696404  66.5915547 100.9712809 108.4842026
  65.7296579 102.0690532 107.8977664  70.3080046  93.0653307 103.9896764
  69.6909217  92.3400135 103.8929817  69.8396534  93.8262667 103.6463839
  62.0978592  87.2838731 103.1118069  61.2208058  87.1627532 102.7480315
  62.5736345  86.4924809 102.8596957  53.6180732  92.0715891 113.2059576
  54.3051772  91.7577621 112.6180591  53.4628861  92.9757255 112.9326827
  58.4215454  86.9606087 117.6344600  58.3373643  86.3531757 116.8995010
  57.5998161  87.4515106 117.6354096  68.5939168  85.4459651 113.0014795
  69.0907868  84.6929613 112.6815865  67.8226150  85.4823967 112.4358004
  69.6768949  94.2031338 110.5753218  68.7425227  94.3232800 110.4057922
  69.8545617  93.3003805 110.3113228  65.1774137  87.5877034 112.7286479
  64.8071924  87.0348074 113.4167385  65.6733229  86.9835167 112.1761479
  73.0641500  90.0448657 111.1103252  73.5301952  90.8776649 111.0363555
  73.5149001  89.5793639 111.8148511  71.1317731  96.3892479 108.1089404
  71.4077575  96.2749073 109.0183278  70.2622230  95.9909963 108.0701577
  71.0358163  82.4129244 115.1494154  70.1221243  82.6433471 115.3176360
  71.4651264  82.4967688 116.0008186  68.1013961  99.5647015 109.0137266
  68.6301727  99.0539469 108.4007428  68.3642180  99.2489545 109.8782799
  53.1948708  90.1516484 115.4777043  53.2332808  89.6180075 116.2714161
  52.6889001  89.6251690 114.8588020  60.5739470  84.9981025 118.9739585
  60.6380797  85.8595855 118.5616983  60.5106591  84.3855026 118.2411944
  56.8257286  88.8780586 108.5530974  57.1210727  87.9691265 108.4998028
  55.9245322  88.8568326 108.2311977  60.3551533  86.9536583 114.5358523
  59.6338119  87.5672550 114.3965996  61.1444789  87.4894348 114.4575169
  58.5545127  86.5594684 108.6770300  58.2257834  85.6792063 108.4945405
  58.9084498  86.5042353 109.5646689  61.6686951  86.8467654 109.0445777
  62.0083023  87.3753575 108.3224386  62.1159071  87.1848060 109.8204344
  64.3630391  85.2304704 118.4948845  64.0227212  84.4312517 118.8969525
  63.6569398  85.5306415 117.9225678  65.0146863  82.3154017 116.9476168
  65.8372932  81.8414495 116.8255059  65.2584927  83.0944501 117.4474855
  63.6555098  85.3442275 107.2439070  64.3763460  85.7223528 106.7402787
  63.0320402  86.0631152 107.3474048  67.7986221  86.0487424 108.1797402
  68.0149835  86.9312062 107.8786230  67.3180288  85.6573638 107.4503044
  62.5385442  89.0073137 114.7568147  62.3930023  89.3213441 115.6492428
  62.0610646  89.6258038 114.2039046  64.3981825  85.9975685 114.8049036
  64.3843394  85.1016779 114.4681334  65.1154253  86.0046349 115.4387323
  66.2507956  86.4313026 116.8502164  65.9925733  87.3530096 116.8486494
  65.7192996  86.0343460 117.5402628  57.0131104  91.5478482 117.6955808
  56.4684572  92.3238290 117.8276082  57.8910454  91.8949286 117.5374930
  63.8018721  84.8790066 110.0736607  63.9234632  83.9506712 110.2727494
  63.5120763  84.8928752 109.1614922  66.6709911  82.5644976 113.2103326
  66.6931608  82.6284309 112.2555306  67.0877970  81.7249485 113.4043833
  72.1829317  98.8530577 106.7289148  72.8780221  99.4737270 106.9476462
  72.5252467  98.0025928 107.0041525  74.0820740  96.3030283 108.2576478
  74.6072064  96.6417555 107.5325798  73.9943092  95.3677298 108.0739613
  58.2453740  98.5613807 112.6196360  59.0711760  98.2617579 112.2395003
  57.8947792  97.7921429 113.0686148  56.4462345  96.4800133 113.5785293
  55.6094253  96.0522308 113.3969294  56.4185990  96.6732577 114.5156084
  62.7748780  96.4644198 108.1652494  62.9236900  97.1479663 107.5119166
  63.5815223  96.4449288 108.6801949  60.5301413  92.4909376 109.1713563
  60.2847455  91.5871706 109.3693773  60.6997327  92.4926526 108.2293041
  59.7997060  88.2237734 106.6699724  59.1066305  88.2982089 106.0139760
  59.5548812  87.4598077 107.1921241  68.4710717  79.7833335 114.0739215
  68.7512470  79.1156524 114.6999641  69.2561324  79.9762431 113.5613879
  66.2744185  98.9592329 105.6364241  65.7018152  99.5782516 105.1834713
  66.8476979  99.5091691 106.1704163  69.4941445  99.2429479 106.7672823
  70.4272118  99.1775041 106.9705699  69.4064658 100.0785746 106.3087356
  72.1229462  98.5595349 103.7276771  72.0443093  98.2255213 104.6212529
  72.9439128  99.0517117 103.7268243  66.6590984  90.2953142 102.9780294
  67.6050088  90.1659350 103.0468712  66.2805229  89.5567804 103.4549722
  72.6312868  81.9609148 112.9407185  72.4337689  81.6524236 113.8250517
  73.2412574  82.6870787 113.0705115  64.8433901  88.2203118 102.9135179
  63.9365356  87.9236231 102.9897892  65.1209882  87.9232936 102.0469465
  55.7611841  89.5409481 113.3634225  55.4414626  88.6874790 113.0708599
  55.2145269  89.7558060 114.1192193  66.4595967  82.7640008 109.0679420
  65.6496695  82.4187093 109.4434666  67.1480384  82.4547551 109.6567032
  68.3886515  81.8418055 110.6903717  68.9417553  82.2613508 111.3493740
  68.6256601  80.9153803 110.7326673  63.6132685  85.0790053 103.0547158
  64.4751849  85.4044952 103.3142975  63.7983030  84.2921549 102.5420224
  55.6300101  93.1612393 115.3327347  54.9363573  92.7466346 114.8197301
  56.3773092  93.2032929 114.7360766  71.7665322  83.9518580 110.1982381
  71.1863991  84.6103384 109.8160433  71.5001255  83.1295924 109.7869799
  70.2168888  83.3523637 112.4003701  70.7168667  83.4640172 111.5918020
  70.8604496  83.0484690 113.0404510  57.5436844  93.0930647 113.2093362
  57.5207532  93.1918334 112.2575245  57.8537480  93.9395797 113.5310528
  70.5490200  86.1118670 109.2538729  69.6616055  86.3968321 109.0358924
  70.9644189  85.9512433 108.4066006  73.9004736  86.1365191 112.9693069
  74.6765126  86.6261643 113.2417685  73.1752870  86.5623245 113.4264938
  69.6933413  95.8763345 103.3486749  70.3969264  96.0813347 103.9644405
  68.9696062  96.4440107 103.6135833  70.5231224  91.6273206 109.4689019
  70.4666425  92.0841757 108.6296652  71.0759566  90.8663891 109.2911862
  74.3336030  87.4162938 110.2939139  74.0772964  87.0159574 111.1247347
  73.7088898  88.1306732 110.1689278  71.6020111  96.3145874 105.3985209
  72.4365715  95.8827072 105.2162684  71.4404454  96.1427888 106.3262104
  71.2566003  92.8177987 106.7641549  71.2014807  92.6522259 105.8229993
  70.6312058  93.5254020 106.9203738  56.0458518  88.0546052 120.5902971
  56.6917382  87.5445006 121.0790196  55.8375669  88.7914733 121.1646396
  64.5662128  82.3186096 106.3426867  64.5540798  83.2627936 106.4995138
  65.4585550  82.1356242 106.0486328  68.3814248  78.9128873 110.5972804
  67.6146644  78.3587360 110.7429486  68.7924953  78.9850742 111.4586955
  73.0633966 102.7683421 105.9120162  72.2271278 103.1058108 106.2329437
  72.9238736 102.6332401 104.9747299  72.9372346 102.6130649 103.1118069
  72.0601813 102.4919449 102.7480315  73.4130099 101.8216727 102.8596957
  70.6390815 103.5529651 106.6699724  69.9460060 103.6274006 106.0139760
  70.3942567 102.7889995 107.1921241  75.6827655 103.5495036 102.9135179
  74.7759111 103.2528148 102.9897892  75.9603636 103.2524854 102.0469465
  74.4526440 100.4081971 103.0547158  75.3145604 100.7336869 103.3142975
  74.6376784  99.6213467 102.5420224  75.4055883  97.6478014 106.3426867
  75.3934553  98.5919854 106.4995138  76.2979305  97.4648159 106.0486328
  24.8597559  16.9639546  92.1794631  24.1859258  17.2671242  92.7879589
  25.2463381  17.7668626  91.8300088  28.8254300  14.5425029  93.4534454
  29.5205205  15.1631722  93.6721769  29.1677450  13.6920380  93.7286832
  22.9169169  14.6486781  92.3609548  22.3443136  15.2676968  91.9080020
  23.4901962  15.1986142  92.8949470  26.1366428  14.9323931  93.4918130
  27.0697101  14.8669493  93.6951006  26.0489641  15.7680198  93.0332663
  28.7654445  14.2489801  90.4522078  28.6868076  13.9149665  91.3457836
  29.5864112  14.7411569  90.4513550  26.3358397  11.5657797  90.0732056
  27.0394247  11.7707799  90.6889712  25.6121046  12.1334559  90.3381139
  28.2445094  12.0040326  92.1230516  29.0790698  11.5721524  91.9407991
  28.0829437  11.8322340  93.0507410  36.8729369  22.5209977 102.2185693
  37.5107779  22.4016724 101.5149033  36.7550212  23.4690821 102.2773645
  29.5405891  24.3272881  98.1444108  28.9770756  24.2362818  97.3760396
  29.4258286  23.5072786  98.6246601  35.1205450  27.9943849  93.4558573
  34.4693430  28.5797930  93.0692587  35.9149813  28.5250044  93.5153611
  29.0461077  25.0832986  93.8545708  29.8191953  24.5361973  93.7158583
  29.3986476  25.9477236  94.0660169  31.3827355  21.2425652  91.4864158
  31.6352876  20.7207174  90.7247621  30.4451914  21.0791798  91.5890841
  36.4270638  20.2461431  99.2938901  37.2133727  19.8280854  98.9429318
  36.6909342  21.1507523  99.4620549  36.5980715  25.6834281  93.9927558
  35.9626548  25.7568908  94.7048462  36.2678121  26.2727880  93.3146637
  41.8279065  20.1836664 100.1971879  42.5604237  19.6135881 100.4309709
  41.0718421  19.7958264 100.6378385  31.1023644  23.1453758  93.6888533
  30.9859902  22.4698662  94.3569617  31.2125904  22.6586132  92.8720686
  33.4455185  22.6063905  97.3935222  33.0813392  22.0794526  98.1048143
  34.3022300  22.2162375  97.2201707  33.0860672  17.6353805  92.3896570
  33.2535074  18.5034042  92.7567041  32.8957841  17.7981087  91.4657860
  33.0649892  20.0911463  93.3743237  32.9449518  20.5368513  94.2128717
  32.3702481  20.4396780  92.8156775  30.8256785  32.8615104  97.0233368
  30.7480814  33.8122930  97.1021849  30.2218428  32.5160977  97.6808295
  38.7634959  20.5632936  94.2023571  39.6752815  20.7960323  94.0271269
  38.2544606  21.1469980  93.6398650  37.3704541  25.5458754 101.5937153
  36.7413403  25.7104468 100.8913220  36.9830203  25.9600364 102.3648117
  41.2493773  26.4813192  98.9481516  40.5644811  26.8612094  98.3978550
  41.3337622  27.0908519  99.6813464  32.9232503  25.2833162  98.8587238
  33.3870848  25.5620865  98.0691860  32.6589301  24.3816607  98.6760328
  31.8601389  21.4056315  95.6676803  32.5625432  21.8577358  96.1350729
  31.5282017  20.7640134  96.2956696  39.6190532  27.0045107 103.7199217
  40.4407976  26.6025294 103.4381899  39.6152935  26.9013341 104.6715333
  47.7096525  23.3483855 100.0684189  46.9560234  22.7791253  99.9128193
  47.8444067  23.3146520 101.0154823  33.0995153  28.2197257  95.7438908
  32.9640828  29.0648793  96.1723756  33.6404966  28.4216535  94.9804842
  26.5524551  25.7372695  96.3166833  27.0649071  26.5315946  96.4672398
  27.2047264  25.0398986  96.2500435  28.3619436  28.8538452  98.3989586
  28.5386064  29.7756416  98.2110570  29.1576269  28.5396871  98.8283966
  29.4850751  30.3716625 104.3999929  30.0358176  30.2433689 103.6276923
  28.6462227  30.6711514 104.0494821  24.5173468  24.0661350  97.0926404
  25.3548690  24.4758358  96.8760111  24.6951735  23.1260792  97.0626598
  36.4137900  21.7336430  92.7810237  35.8984523  22.5041035  93.0198624
  36.1415208  21.0601567  93.4043298  33.9985011  16.5786131  97.8395475
  33.1426607  16.1892982  97.6601114  34.4111963  16.6578092  96.9795261
  41.3872174  24.4868785  94.7163410  40.6101617  24.1479945  94.2718572
  42.0663655  24.4921408  94.0418375  36.2024203  19.6063522  94.6070018
  35.8974338  19.9209672  95.4580161  37.1554645  19.6844942  94.6497351
  34.6470635  25.7653746  96.2562972  34.1191996  25.0306505  95.9436209
  34.1458137  26.5428422  96.0102940  39.6263481  23.9602766 101.3730018
  38.9687155  24.6502028 101.4610147  40.4303880  24.3499198 101.7164004
  38.4368940  22.3147139  99.4233960  38.9500821  22.9477131  99.9255670
  39.0870163  21.7148334  99.0577320  29.7058949  18.4577873  92.6365469
  28.8696262  18.7952560  92.9574743  29.5663719  18.3226853  91.6992606
  32.7923235  23.5833956  89.2597945  31.8850297  23.3523209  89.4589094
  33.2894267  22.7871575  89.4471926  35.6991314  32.2931463  92.1794631
  35.0253013  32.5963160  92.7879589  36.0857136  33.0960544  91.8300088
  35.6984818  21.1888010  96.7994981  36.4456637  21.7009407  96.4902103
  35.9676408  20.8672063  97.6599374  33.9711468  23.6846551  93.7821935
  33.0622688  23.4005584  93.8794405  34.0006552  24.1045629  92.9225242
  39.2030736  27.2953140  97.5513103  38.7493063  26.4544050  97.6078293
  38.5724703  27.9314539  97.8887883  38.1463655  18.2245126  98.7813770
  37.4086412  17.7122513  99.1124013  38.3990429  17.7845508  97.9697047
  37.6463675  29.1329637  98.4862921  37.9386649  29.6934694  97.7675286
  38.1562296  29.4258198  99.2416080  32.5196362  21.2975172  99.8831730
  32.5744972  20.3449008  99.8074207  31.7087564  21.4534611 100.3673029
  33.6687556  25.2255295  91.1210014  33.2306986  24.5091154  90.6615651
  34.4097997  25.4531409  90.5595105  30.4588722  19.9152231  97.6422109
  29.6456588  20.2146402  98.0487301  30.9547717  19.5207920  98.3596591
  32.6097300  29.9109988  99.5756374  32.5673479  30.1370834  98.6464906
  33.5259999  29.6773363  99.7242175  41.7860671  23.5012492  97.1786332
  41.6478570  23.6914088  96.2507521  41.4296890  24.2631874  97.6354383
  41.8130051  25.5689019 102.1897604  42.2466557  25.4764308 103.0380658
  42.5261631  25.5446519 101.5517620  30.7263101  26.7873017  99.3718337
  31.5203699  26.2923337  99.1700912  30.0154793  26.2590880  99.0086042
  35.5457945  29.1691113 103.7230704  35.5994968  29.7382049 104.4908420
  34.6772727  29.3392998 103.3584741  27.0345864  20.9316099  95.4478089
  26.1043453  20.8700554  95.6648051  27.1303336  20.4092052  94.6514731
  42.6745600  25.6112719 104.7230489  42.8681490  26.5158530 104.9689764
  42.5746218  25.1520138 105.5569074  33.3034377  27.3602039 103.0516174
  33.1645463  26.9920824 103.9242112  32.5148973  27.8749679 102.8800131
  33.8982529  32.4611136  94.3941710  34.0734285  31.9899179  95.2087333
  33.2115317  33.0876902  94.6222971  34.8539592  26.7383642 100.4405011
  34.5189425  26.6984412 101.3362661  34.3543538  26.0728358  99.9675422
  37.7898784  24.0839676  90.7142071  37.1727954  23.3586504  90.6175124
  37.3215272  24.8449037  90.3709145  28.4643614  35.6100498 101.1681570
  28.7040212  36.2419023 101.8460589  27.6212811  35.2588538 101.4546930
  29.5797330  18.3025101  89.8363375  28.7026796  18.1813901  89.4725622
  30.0555083  17.5111179  89.5842264  32.9771476  31.4179621 103.5723074
  32.9041648  32.2234592 104.0842379  32.5348869  31.6171587 102.7471096
  32.7661256  30.6551391  97.0825896  31.9828778  31.1973071  97.1764120
  33.4654001  31.1725371  97.4820137  43.9287663  22.1686386 101.3678393
  43.9177540  23.0511101 100.9972326  43.0605043  21.8157937 101.1732930
  35.4370160  31.3166455 105.7281233  36.1498132  31.9513920 105.6557134
  34.9460188  31.4130321 104.9121235  37.1587687  25.2217708  97.2998525
  36.2243965  25.3419170  97.1303229  37.3364355  24.3190174  97.0358535
  40.5460238  21.0635027  97.8348559  41.0120690  21.8963018  97.7608861
  40.9967738  20.5980008  98.5393817  38.6136469  27.4078848  94.8334711
  38.8896313  27.2935443  95.7428585  37.7440968  27.0096333  94.7946884
  35.2490533  31.6565199  98.4767524  35.4312928  30.8386855  98.9395277
  36.0723519  31.8732891  98.0392414  35.5832699  30.5833384  95.7382573
  36.1120465  30.0725839  95.1252735  35.8460918  30.2675914  96.6028106
  28.9388446  31.6348501  98.4980349  28.2698822  32.1194628  98.0144389
  28.8001316  31.8817721  99.4123727  33.0793715  33.6692244 105.0963007
  33.6312023  33.8323866 105.8612092  33.4199908  34.2596682 104.4243032
  24.3076024  19.8966956  95.2776281  24.6029465  18.9877634  95.2243335
  23.4064059  19.8754695  94.9557283  36.2162102  31.6174220 102.0826689
  36.0913242  30.8163960 101.5737635  36.8741193  32.1120413 101.5940659
  38.2797011  29.4183240 103.7106239  37.3327346  29.2988591 103.6384566
  38.6279784  28.5305738 103.7932501  35.2843444  29.2135956  99.9110592
  35.1368406  28.2852664 100.0918162  36.1096938  29.2356047  99.4267667
  29.1505688  17.8654023  95.7691084  29.4901761  18.3939944  95.0469692
  29.5977809  18.2034429  96.5449650  38.8877566  30.0364515 100.9975464
  39.8124113  29.8307376 100.8599916  38.7192869  29.7880916 101.9064806
  31.1373835  16.3628645  93.9684377  31.8582198  16.7409898  93.4648093
  30.5139140  17.0817522  94.0719355  35.2804958  17.0673794  94.9042709
  35.4968573  17.9498432  94.6031537  34.7999025  16.6760007  94.1748351
  38.6772882  30.5550182  96.3537556  38.8509760  29.9896605  95.6011408
  39.1701773  31.3551077  96.1717046  44.5312273  23.3186605  97.9727856
  44.9743419  22.5693930  97.5746979  43.6538784  23.3096742  97.5901588
  39.6648055  29.8716947  93.4534454  40.3598959  30.4923639  93.6721769
  40.0071205  29.0212298  93.7286832  41.5639478  27.3216652  94.9821785
  42.0890802  27.6603925  94.2571105  41.4761830  26.3863668  94.7984920
  33.2480138  33.3888636  99.3417038  32.8085129  32.8965014 100.0349895
  33.9988255  32.8461603  99.1009113  25.7272477  29.5800176  99.3441666
  26.5530497  29.2803948  98.9640310  25.3766529  28.8107799  99.7931455
  30.6954011  28.9326645 101.4139340  30.0734020  28.2697350 101.1141568
  31.3658877  28.9587777 100.7312988  30.2567517  27.4830568  94.8897800
  30.4055638  28.1666032  94.2364473  31.0633961  27.4635658  95.4047256
  44.0745138  24.7891844 100.3650303  44.9092029  25.2281648 100.5287864
  44.2104267  24.3130497  99.5458549  28.0120150  23.5095746  95.8958869
  27.7666192  22.6058076  96.0939079  28.1816065  23.5112896  94.9538347
  27.2815798  19.2424103  93.3945031  26.5885043  19.3168458  92.7385067
  27.0367550  18.4784447  93.9166548  33.7562923  29.9778698  92.3609548
  33.1836890  30.5968886  91.9080020  34.3295717  30.5278060  92.8949470
  36.9760183  30.2615849  93.4918130  37.9090856  30.1961410  93.6951006
  36.8883396  31.0972115  93.0332663  39.6048199  29.5781719  90.4522078
  39.5261831  29.2441582  91.3457836  40.4257866  30.0703487  90.4513550
  42.3026391  22.4443458 103.6598396  42.2702711  21.5059459 103.8458080
  42.9127014  22.5227495 102.9264221  34.1409721  21.3139511  89.7025600
  35.0868826  21.1845719  89.7714018  33.7623966  20.5754173  90.1795028
  48.1202940  23.5059465 102.8004433  48.8506329  23.2444753 103.3612136
  47.5109886  22.7688187 102.8406501  46.2018238  21.6467328 103.3978884
  45.4751401  21.5123293 102.7895376  45.7865524  21.9544156 104.2035602
  32.3252639  19.2389488  89.6380486  31.4184094  18.9422600  89.7143199
  32.6028620  18.9419306  88.7714772  33.9414704  13.7826377  95.7924727
  33.1315433  13.4373462  96.1679973  34.6299121  13.4733921  96.3812338
  31.0951423  16.0976423  89.7792465  31.9570587  16.4231321  90.0388282
  31.2801767  15.3107919  89.2665531  39.2484060  14.9704949  96.9227688
  38.6682729  15.6289753  96.5405740  38.9819992  14.1482294  96.5115105
  38.0308938  17.1305040  95.9784036  37.1434793  17.4154690  95.7604231
  38.4462927  16.9698803  95.1311313  41.3823474  17.1551561  99.6938375
  42.1583864  17.6448013  99.9662992  40.6571608  17.5809615 100.1510245
  43.8196033  17.8679180 100.7512316  44.4140523  17.6274916 100.0405624
  43.8922616  17.1486310 101.3785852  26.0393188  31.7112791 101.0655481
  25.9047656  30.9513192 100.4993479  25.6225250  32.4353691 100.5984270
  37.1752151  26.8949714  90.0732056  37.8788001  27.0999717  90.6889712
  36.4514800  27.4626476  90.3381139  38.0049962  22.6459576  96.1934326
  37.9485163  23.1028127  95.3541959  38.5578304  21.8850260  96.0157169
  41.8154767  18.4349307  97.0184446  41.5591702  18.0345943  97.8492653
  41.1907635  19.1493101  96.8934585  46.1267105  21.1745381  99.5255737
  45.5666663  21.2438570 100.2987299  45.5210609  20.9986365  98.8055233
  29.1962314  32.6082108 101.2773923  29.0794698  33.5527540 101.1752614
  28.3754760  32.3055669 101.6659723  39.0838849  27.3332243  92.1230516
  39.9184453  26.9013442  91.9407991  38.9223192  27.1614257  93.0507410
  38.7384741  23.8364357  93.4886855  38.6833545  23.6708628  92.5475299
  38.1130796  24.5440390  93.6449045  32.0480866  13.3372466  93.0672174
  32.0359536  14.2814306  93.2240445  32.9404288  13.1542611  92.7731635
  30.2216828  33.2610370 104.4929852  31.1244075  33.2933980 104.8096347
  29.9954198  32.3310821 104.5076188  31.9770430  32.0141356 101.1539930
  31.0266061  32.0143218 101.0404303  32.2802916  31.2674091 100.6375965
  47.7123124  37.8501895 102.2185693  48.3501534  37.7308642 101.5149033
  47.5943967  38.7982739 102.2773645  44.5212830  37.8029323 102.1547217
  44.1831342  37.6870387 101.2667752  45.3902598  37.4020488 102.1348224
  40.3799646  39.6564799  98.1444108  39.8164511  39.5654736  97.3760396
  40.2652041  38.8364704  98.6246601  45.0032613  38.9564174 108.1133423
  44.9921254  38.5616973 107.2413927  45.1653252  38.2230247 108.7067194
  37.9264078  41.1515991 100.9828329  38.7185370  40.8106815 100.5674628
  38.1660728  41.2610966 101.9030482  45.9599204  43.3235767  93.4558573
  45.3087184  43.9089847  93.0692587  46.7543567  43.8541962  93.5153611
  39.8854832  40.4124904  93.8545708  40.6585708  39.8653891  93.7158583
  40.2380230  41.2769153  94.0660169  41.7239874  41.7401286 107.0612607
  41.4329740  42.6446917 106.9459273  42.3596858  41.7817814 107.7756677
  42.6496081  39.1178135 103.6513967  43.2459653  38.8934157 102.9370930
  42.7071053  38.3762880 104.2539414  42.2221109  36.5717570  91.4864158
  42.4746630  36.0499091  90.7247621  41.2845668  36.4083716  91.5890841
  47.2664392  35.5753348  99.2938901  48.0527481  35.1572772  98.9429318
  47.5303097  36.4799441  99.4620549  47.4374470  41.0126199  93.9927558
  46.8020303  41.0860825  94.7048462  47.1071876  41.6019798  93.3146637
  52.6672819  35.5128582 100.1971879  53.3997991  34.9427798 100.4309709
  51.9112175  35.1250182 100.6378385  41.9417398  38.4745676  93.6888533
  41.8253656  37.7990579  94.3569617  42.0519658  37.9878050  92.8720686
  44.2848939  37.9355823  97.3935222  43.9207146  37.4086444  98.1048143
  45.1416055  37.5454292  97.2201707  50.1898240  29.2250156 104.6566488
  49.8581564  30.0945567 104.4327703  49.5943853  28.9086440 105.3360518
  43.9254426  32.9645723  92.3896570  44.0928828  33.8325959  92.7567041
  43.7351595  33.1273005  91.4657860  46.6829759  41.4262702 104.0562401
  46.3830482  42.3287741 103.9478208  46.3380819  41.1594885 104.9083554
  40.1342241  37.8776499 100.0899105  39.2092737  37.7452713 100.2976797
  40.3826654  38.6570718 100.5869047  50.0826903  33.9445242 101.7359838
  49.1743780  33.8760650 101.4418599  50.0314499  34.4217187 102.5641663
  43.9043647  35.4203380  93.3743237  43.7843272  35.8660431  94.2128717
  43.2096235  35.7688698  92.8156775  37.4951052  37.5209772 100.9242894
  37.6243433  37.7744251 101.8382306  36.8148503  38.1137480 100.6047549
  44.1567769  35.3634888 109.6794735  43.3801103  35.9228808 109.6697600
  44.7958332  35.8491671 110.2009605  51.9488549  32.1461680 103.5137712
  51.3062930  32.4394213 102.8677506  51.4443478  32.0314601 104.3190909
  49.6028713  35.8924854  94.2023571  50.5146569  36.1252240  94.0271269
  49.0938360  36.4761898  93.6398650  42.4114141  38.1720341 109.2412702
  43.1528825  38.7105385 108.9647526  41.7051127  38.7986630 109.3984254
  47.8869481  40.3149481 107.8384864  48.2952837  39.8731892 107.0939496
  47.1646742  39.7402109 108.0919057  44.2400551  35.2522088 105.2118421
  45.0861746  35.6761502 105.3553070  44.1799188  34.5955712 105.9056984
  48.2098295  40.8750672 101.5937153  47.5807158  41.0396386 100.8913220
  47.8223957  41.2892282 102.3648117  52.0887527  41.8105110  98.9481516
  51.4038565  42.1904011  98.3978550  52.1731377  42.4200436  99.6813464
  47.3899996  32.9126456 106.8699594  47.1460928  33.6668517 106.3333870
  47.6659927  33.2911804 107.7046841  49.3438459  39.4565069 105.5476860
  49.5555354  40.0996829 104.8711241  49.2968207  38.6227385 105.0798790
  46.9464688  32.0682889 102.4513432  46.0849167  32.3664143 102.7430170
  46.9727123  32.2853288 101.5194465  43.7626257  40.6125080  98.8587238
  44.2264603  40.8912783  98.0691860  43.4983055  39.7108525  98.6760328
  40.6550338  40.1596562 101.7967001  41.2251695  40.5883830 101.1584485
  41.2458450  39.8779146 102.4951187  42.6995143  36.7348232  95.6676803
  43.4019187  37.1869276  96.1350729  42.3675772  36.0932051  96.2956696
  41.1475505  35.3259989 110.0428012  40.5174165  36.0076270 110.2763409
  41.0411593  35.2143071 109.0981151  36.4420477  34.9931785 100.9693936
  35.6519531  35.2489314 100.4934047  36.9331725  35.8080123 101.0745977
  50.4584287  42.3337024 103.7199217  51.2801731  41.9317212 103.4381899
  50.4546690  42.2305258 104.6715333  38.3935223  35.3576364  97.9277413
  37.5966386  35.4695059  98.4460909  38.1660815  35.6963017  97.0618304
  44.2240890  41.8821068 105.8759928  44.2885323  42.3441475 106.7118100
  43.5151814  41.2518432 106.0042238  34.7258180  35.2462276 103.4008927
  34.9766219  36.1309285 103.6666503  35.2617729  35.0666877 102.6284019
  58.5490280  38.6775773 100.0684189  57.7953988  38.1083171  99.9128193
  58.6837821  38.6438437 101.0154823  43.9388908  43.5489175  95.7438908
  43.8034583  44.3940711  96.1723756  44.4798720  43.7508453  94.9804842
  37.3918305  41.0664613  96.3166833  37.9042826  41.8607863  96.4672398
  38.0441018  40.3690904  96.2500435  39.2013190  44.1830369  98.3989586
  39.3779818  45.1048334  98.2110570  39.9970024  43.8688789  98.8283966
  43.3424209  31.0438634 109.9973520  44.0833922  31.6445787 109.9177982
  43.5742131  30.3016272 109.4391562  38.4865547  36.2295001 108.2751750
  38.3719062  35.3280258 108.5758848  37.6310064  36.4758698 107.9236566
  45.5657384  44.1712742 109.8739250  45.1221239  43.3849120 109.5560155
  46.2274598  44.3591892 109.2083141  40.3244506  45.7008543 104.3999929
  40.8751931  45.5725607 103.6276923  39.4855981  46.0003432 104.0494821
  47.6638622  44.4515541 107.9020651  47.6457098  45.2724423 107.4100921
  48.5858542  44.3269617 108.1270793  44.1211677  41.9659671 108.7444160
  44.6540013  41.2047959 108.5143468  43.5925758  41.6733323 109.4868314
  47.2881372  27.0719737 104.2737802  46.9445641  27.9621379 104.1976912
  47.6560334  26.8821395 103.4107387  35.3567222  39.3953267  97.0926404
  36.1942444  39.8050276  96.8760111  35.5345490  38.4552710  97.0626598
  47.2531654  37.0628348  92.7810237  46.7378278  37.8332953  93.0198624
  46.9808963  36.3893484  93.4043298  44.8378765  31.9078049  97.8395475
  43.9820362  31.5184899  97.6601114  45.2505717  31.9870010  96.9795261
  46.3677912  29.4424392 102.2387035  45.8642707  29.4054527 101.4254840
  46.6608519  30.3517135 102.2983691  42.6120798  29.5263122 101.2453217
  43.4773795  29.3305930 100.8859106  42.6798307  29.2973474 102.1722573
  52.2265928  39.8160703  94.7163410  51.4495371  39.4771862  94.2718572
  52.9057409  39.8213326  94.0418375  47.0417957  34.9355440  94.6070018
  46.7368093  35.2501589  95.4580161  47.9948400  35.0136860  94.6497351
  45.4864389  41.0945663  96.2562972  44.9585751  40.3598423  95.9436209
  44.9851892  41.8720340  96.0102940  50.4657235  39.2894684 101.3730018
  49.8080910  39.9793945 101.4610147  51.2697634  39.6791116 101.7164004
  40.2183117  31.7565330  98.6169583  40.7926869  31.5340511  97.8842776
  40.8054099  31.8254024  99.3698185  49.2762694  37.6439057  99.4233960
  49.7894576  38.2769048  99.9255670  49.9263918  37.0440252  99.0577320
  40.5452704  33.7869791  92.6365469  39.7090016  34.1244477  92.9574743
  40.4057474  33.6518771  91.6992606  42.5205785  28.6306579  97.3444653
  41.8670197  28.3155596  96.7201268  42.4786259  28.0082319  98.0704476
  43.6316989  38.9125874  89.2597945  42.7244051  38.6815127  89.4589094
  44.1288021  38.1163493  89.4471926  45.7543525  35.1188512 101.6692300
  44.8366086  35.3403459 101.5113988  46.1703669  35.1934823 100.8104008
  46.5378573  36.5179928  96.7994981  47.2850392  37.0301325  96.4902103
  46.8070162  36.1963981  97.6599374  44.8105223  39.0138469  93.7821935
  43.9016442  38.7297501  93.8794405  44.8400307  39.4337547  92.9225242
  50.0424490  42.6245058  97.5513103  49.5886817  41.7835968  97.6078293
  49.4118457  43.2606456  97.8887883  48.9857410  33.5537044  98.7813770
  48.2480167  33.0414430  99.1124013  49.2384183  33.1137426  97.9697047
  48.4857430  44.4621555  98.4862921  48.7780404  45.0226612  97.7675286
  48.9956050  44.7550116  99.2416080  49.0869037  26.3313296  99.3755539
  49.3927914  25.4710660  99.0881454  49.8121642  26.9230916  99.1754533
  35.3793393  36.7343983  97.7637137  35.1817793  36.1413343  97.0388204
  34.8240057  36.4296193  98.4813076  43.3590117  36.6267089  99.8831730
  43.4138727  35.6740926  99.8074207  42.5481319  36.7826528 100.3673029
  44.5081311  40.5547212  91.1210014  44.0700741  39.8383071  90.6615651
  45.2491752  40.7823327  90.5595105  41.2982477  35.2444149  97.6422109
  40.4850342  35.5438319  98.0487301  41.7941471  34.8499838  98.3596591
  43.4491055  45.2401906  99.5756374  43.4067234  45.4662752  98.6464906
  44.3653754  45.0065280  99.7242175  46.8956689  35.7085973 106.4737003
  47.2506076  35.9357447 107.3331469  47.5428820  36.0404350 105.8514258
  52.6254425  38.8304409  97.1786332  52.4872324  39.0206005  96.2507521
  52.2690644  39.5923792  97.6354383  40.7896552  32.8162504 103.2583344
  41.4295931  32.6751264 102.5606307  39.9574082  32.5297018 102.8821946
  52.6523805  40.8980936 102.1897604  53.0860312  40.8056225 103.0380658
  53.3655386  40.8738437 101.5517620  41.5656855  42.1164935  99.3718337
  42.3597454  41.6215255  99.1700912  40.8548548  41.5882798  99.0086042
  46.3851700  44.4983030 103.7230704  46.4388722  45.0673967 104.4908420
  45.5166481  44.6684915 103.3584741  37.8739619  36.2608017  95.4478089
  36.9437207  36.1992472  95.6648051  37.9697091  35.7383969  94.6514731
  37.7925168  32.7862829  98.0356331  38.0531985  33.7008163  97.9265491
  38.6142340  32.3187272  98.1852944  39.2650093  34.2000587 105.2055155
  39.9373147  33.9917949 104.5567804  38.4379880  34.0022673 104.7660388
  53.5139355  40.9404637 104.7230489  53.7075245  41.8450447 104.9689764
  53.4139973  40.4812056 105.5569074  45.1675665  30.8262528 107.2220816
  44.5203580  31.5252477 107.1285293  45.9376681  31.2598671 107.5897065
  48.5754463  41.0911380 110.2971370  48.4239970  40.8621931 109.3801453
  48.5659143  42.0481981 110.3102715  45.3439800  38.6643292 105.2817636
  46.2731860  38.8154452 105.1086603  44.9230830  38.7527313 104.4266283
  44.1428131  42.6893957 103.0516174  44.0039217  42.3212741 103.9242112
  43.3542728  43.2041596 102.8800131  45.6933347  42.0675560 100.4405011
  45.3583179  42.0276330 101.3362661  45.1937292  41.4020275  99.9675422
  39.6677591  37.4743190 105.9657593  39.5297389  36.7423428 106.5669132
  40.5782514  37.3852090 105.6841780  48.6292538  39.4131594  90.7142071
  48.0121709  38.6878422  90.6175124  48.1609027  40.1740954  90.3709145
  42.2959891  37.1863149 105.4541272  43.0059510  36.5456341 105.4127891
  42.2529199  37.4376044 106.3767453  50.2846670  44.1230502 108.3747851
  50.2259216  43.4389722 107.7078434  50.6866188  44.8649492 107.9228477
  41.0088825  34.1728367 107.2736912  40.4726182  33.7219105 107.9258508
  40.4205534  34.3074276 106.5307376  39.3037369  50.9392416 101.1681570
  39.5433967  51.5710940 101.8460589  38.4606565  50.5880456 101.4546930
  40.4191084  33.6317018  89.8363375  39.5420551  33.5105819  89.4725622
  40.8948837  32.8403097  89.5842264  50.2864077  42.0870086 106.6061831
  49.3990856  41.7496008 106.7288230  50.8562628  41.3553117 106.8430597
  31.9393224  38.4194178  99.9304883  32.6264264  38.1055908  99.3425898
  31.7841353  39.3235543  99.6572134  36.7427946  33.3084374 104.3589906
  36.6586135  32.7010044 103.6240316  35.9210653  33.7993393 104.3599403
  43.8165231  46.7471539 103.5723074  43.7435402  47.5526510 104.0842379
  43.3742624  46.9463504 102.7471096  46.9151660  31.7937938  99.7260101
  47.4120360  31.0407900  99.4061172  46.1438642  31.8302255  99.1603311
  54.7681418  37.4978304 101.3678393  54.7571294  38.3803019 100.9972326
  53.8998797  37.1449854 101.1732930  46.2763914  46.6458373 105.7281233
  46.9891886  47.2805837 105.6557134  45.7853943  46.7422239 104.9121235
  47.9981441  40.5509625  97.2998525  47.0637720  40.6711088  97.1303229
  48.1758109  39.6482092  97.0358535  43.4986629  33.9355321  99.4531786
  43.1284417  33.3826361 100.1412691  43.9945722  33.3313454  98.9006786
  51.3853992  36.3926945  97.8348559  51.8514445  37.2254936  97.7608861
  51.8361493  35.9271926  98.5393817  41.3275828  44.3952816 106.5486804
  42.0285287  45.0289299 106.7016198  40.8570943  44.7367548 105.7882443
  49.4530223  42.7370766  94.8334711  49.7290067  42.6227360  95.7428585
  48.5834722  42.3388251  94.7946884  49.3570655  28.7607532 101.8739460
  48.4433735  28.9911758 102.0421667  49.7863757  28.8445976 102.7253493
  49.1277114  36.9497423 104.3739354  48.4748564  37.1973331 103.7191807
  49.5057494  36.1361562 104.0401831  46.0884288  46.9857117  98.4767524
  46.2706682  46.1678773  98.9395277  46.9117274  47.2024809  98.0392414
  46.4226453  45.9125302  95.7382573  46.9514219  45.4017756  95.1252735
  46.6854673  45.5967832  96.6028106  45.1764687  37.6917235 110.8605391
  44.5005324  37.5911364 111.5307766  45.9992321  37.5356448 111.3241388
  36.9243546  43.9289171 103.4817906  37.5096983  43.1832859 103.6145811
  36.7268384  44.2393128 104.3654570  39.7782201  46.9640418  98.4980349
  39.1092576  47.4486546  98.0144389  39.6395071  47.2109639  99.4123727
  31.5161200  36.4994771 102.2022350  31.5545300  35.9658362 102.9959468
  31.0101493  35.9729977 101.5833327  43.9187470  48.9984162 105.0963007
  44.4705778  49.1615783 105.8612092  44.2593663  49.5888600 104.4243032
  38.8951963  31.3459312 105.6984892  38.9593289  32.2074143 105.2862290
  38.8319083  30.7333313 104.9657250  48.7698344  43.8245420 110.9511662
  49.3138248  44.4375378 110.4566616  48.1885189  44.3824998 111.4678675
  35.1469778  35.2258873  95.2776281  35.4423219  34.3169552  95.2243335
  34.2457814  35.2046613  94.9557283  47.0555857  46.9466138 102.0826689
  46.9306996  46.1455877 101.5737635  47.7134948  47.4412331 101.5940659
  38.6764025  33.3014870 101.2603830  37.9550611  33.9150838 101.1211303
  39.4657281  33.8372635 101.1820476  49.1190765  44.7475158 103.7106239
  48.1721101  44.6280509 103.6384566  49.4673538  43.8597656 103.7932501
  41.4790339  30.6369297 107.5344481  42.0024740  30.8831593 108.2970791
  41.2602672  31.4689331 107.1147619  36.8757620  32.9072971  95.4015606
  36.5470326  32.0270350  95.2190712  37.2296990  32.8520640  96.2891995
  46.1237198  44.5427874  99.9110592  45.9762161  43.6144581 100.0918162
  46.9490692  44.5647965  99.4267667  39.9899443  33.1945941  95.7691084
  40.3295515  33.7231862  95.0469692  40.4371563  33.5326347  96.5449650
  49.7271320  45.3656433 100.9975464  50.6517868  45.1599294 100.8599916
  49.5586624  45.1172834 101.9064806  42.6842884  31.5782992 105.2194152
  42.3439704  30.7790805 105.6214832  41.9781890  31.8784702 104.6470985
  43.3359355  28.6632304 103.6721475  44.1585425  28.1892782 103.5500365
  43.5797419  29.4422788 104.1720161  41.9767590  31.6920562  93.9684377
  42.6975952  32.0701815  93.4648093  41.3532894  32.4109439  94.0719355
  46.1198713  32.3965711  94.9042709  46.3362327  33.2790349  94.6031537
  45.6392780  32.0051925  94.1748351  40.8597934  35.3551425 101.4813454
  40.7142515  35.6691728 102.3737735  40.3823138  35.9736325 100.9284352
  42.7194317  32.3453973 101.5294343  42.7055886  31.4495066 101.1926641
  43.4366745  32.3524636 102.1632629  44.5720448  32.7791313 103.5747471
  44.3138226  33.7008384 103.5731801  44.0405488  32.3821747 104.2647935
  49.5166637  45.8842100  96.3537556  49.6903514  45.3188522  95.6011408
  50.0095528  46.6842995  96.1717046  35.3343596  37.8956769 104.4201115
  34.7897064  38.6716577 104.5521389  36.2122946  38.2427574 104.2620236
  42.1231213  31.2268353  96.7981913  42.2447124  30.2984999  96.9972801
  41.8333255  31.2407039  95.8860229  44.9922403  28.9123263  99.9348633
  45.0144100  28.9762596  98.9800613  45.4090462  28.0727772 100.1289139
  55.3706028  38.6478523  97.9727856  55.8137174  37.8985848  97.5746979
  54.4932538  38.6388659  97.5901588  50.5041809  45.2008864  93.4534454
  51.1992714  45.8215557  93.6721769  50.8464959  44.3504216  93.7286832
  36.1209618  37.0226665 107.3131272  35.3791354  37.1709301 107.8995902
  35.8002362  37.2834931 106.4498021  52.4033232  42.6508570  94.9821785
  52.9284556  42.9895843  94.2571105  52.3155585  41.7155585  94.7984920
  44.0653281  46.5642644 107.1111662  44.3740407  46.3191790 107.9834361
  44.8628763  46.7689282 106.6230532  44.0873893  48.7180553  99.3417038
  43.6478883  48.2256932 100.0349895  44.8382010  48.1753521  99.1009113
  36.5666232  44.9092094  99.3441666  37.3924252  44.6095866  98.9640310
  36.2160284  44.1399717  99.7931455  41.5347765  44.2618562 101.4139340
  40.9127774  43.5989267 101.1141568  42.2052632  44.2879694 100.7312988
  34.7674837  42.8278421 100.3030600  33.9306745  42.4000595 100.1214601
  34.7398482  43.0210864 101.2401391  52.0927138  43.2841474 110.2872983
  51.3022682  43.2665612 109.7477482  51.8560493  43.8229767 111.0422020
  52.2125013  40.1333940 107.6005711  52.2623018  39.9683947 108.5421234
  52.1038937  39.2661199 107.2103592  41.0961272  42.8122486  94.8897800
  41.2449392  43.4957950  94.2364473  41.9027715  42.7927576  95.4047256
  49.5028776  36.1164868 108.9165018  50.4038638  35.9771333 108.6249016
  49.5776750  36.2819323 109.8563196  43.8371581  33.4931723 107.7618205
  42.9674890  33.7865289 107.4900793  44.0731061  34.0772168 108.4825468
  53.7143210  42.5530881 107.8447733  53.4228018  42.9160862 108.6811194
  53.1015341  41.8397890 107.6661065  54.9138892  40.1183761 100.3650303
  55.7485784  40.5573565 100.5287864  55.0498021  39.6422414  99.5458549
  51.9630398  37.6763496 106.3127791  52.4384520  37.8691142 105.5046642
  51.0395964  37.7322682 106.0671175  38.8513905  38.8387663  95.8958869
  38.6059947  37.9349993  96.0939079  39.0209819  38.8404814  94.9538347
  46.5410615  29.7111340 105.2783625  47.0592559  30.4472367 104.9530113
  46.1865748  30.0175333 106.1130384  38.1209552  34.5716021  93.3945031
  37.4278797  34.6460376  92.7385067  37.8761304  33.8076364  93.9166548
  46.7923209  26.1311622 100.7984521  47.0724963  25.4634811 101.4244948
  47.5773816  26.3240718 100.2859185  50.6632067  34.5529256 104.5456097
  51.6149490  34.6527354 104.5668321  50.4935518  33.7607525 105.0554181
  48.6846447  31.6384839 104.7315498  48.0896379  31.9189852 104.0361986
  48.3996144  32.1278740 105.5032239  50.4441954  44.9073637  90.4522078
  50.3655585  44.5733500  91.3457836  51.2651621  45.3995404  90.4513550
  53.1420145  37.7735376 103.6598396  53.1096465  36.8351377 103.8458080
  53.7520769  37.8519413 102.9264221  44.9803476  36.6431429  89.7025600
  45.9262581  36.5137637  89.7714018  44.6017721  35.9046091  90.1795028
  53.2914634  34.5646419 103.7056679  52.7753682  33.7804876 103.5186608
  54.1754582  34.2365136 103.8703199  50.9525361  28.3087435  99.6652492
  50.7550182  28.0002523 100.5495824  51.5625066  29.0349074  99.7950422
  58.9596695  38.8351383 102.8004433  59.6900083  38.5736671 103.3612136
  58.3503640  38.0980105 102.8406501  57.0411992  36.9759245 103.3978884
  56.3145156  36.8415210 102.7895376  56.6259279  37.2836074 104.2035602
  44.8642169  40.6949175 111.1626257  45.7845178  40.8727774 111.3566304
  44.8291752  39.7505220 111.0105957  43.1646393  34.5681405  89.6380486
  42.2577849  34.2714518  89.7143199  43.4422374  34.2711223  88.7714772
  34.0824334  35.8887769 100.0879532  33.7627118  35.0353077  99.7953906
  33.5357762  36.1036347 100.8437499  37.8604241  38.6050210 103.8049038
  38.0790251  39.5367317 103.8237072  38.2730015  38.2458184 104.5903842
  44.7808459  29.1118295  95.7924727  43.9709187  28.7665380  96.1679973
  45.4692876  28.8025839  96.3812338  46.7099007  28.1896342  97.4149023
  47.2630046  28.6091795  98.0739047  46.9469094  27.2632090  97.4571979
  41.9345178  31.4268340  89.7792465  42.7964342  31.7523239  90.0388282
  42.1195522  30.6399836  89.2665531  33.9512594  39.5090680 102.0572654
  33.2576065  39.0944633 101.5442608  34.6985585  39.5511217 101.4606072
  50.0877814  30.2996867  96.9227688  49.5076483  30.9581671  96.5405740
  49.8213747  29.4774212  96.5115105  48.5381381  29.7001925  99.1249008
  49.0381159  29.8118459  98.3163327  49.1816989  29.3962977  99.7649816
  42.5963376  37.6080554 112.0116849  42.1130458  38.4080914 112.2180738
  42.6824315  37.6188499 111.0584293  35.8649336  39.4408934  99.9338668
  35.8420024  39.5396621  98.9820551  36.1749973  40.2874085 100.2555835
  38.5236714  41.4985089 104.0485283  39.4779967  41.4669031 103.9815214
  38.3249238  41.0375713 104.8635509  39.1136096  40.0686205 106.6156080
  39.9328985  40.5630284 106.6390918  39.3872904  39.1518173 106.5873648
  48.8702692  32.4596957  95.9784036  47.9828547  32.7446608  95.7604231
  49.2856681  32.2990721  95.1311313  52.2217228  32.4843478  99.6938375
  52.9977619  32.9739931  99.9662992  51.4965363  32.9101532 100.1510245
  54.6589787  33.1971097 100.7512316  55.2534278  32.9566833 100.0405624
  54.7316371  32.4778228 101.3785852  36.8786943  47.0404708 101.0655481
  36.7441411  46.2805109 100.4993479  36.4619005  47.7645608 100.5984270
  48.0145906  42.2241632  90.0732056  48.7181756  42.4291634  90.6889712
  47.2908554  42.7918394  90.3381139  48.8443716  37.9751493  96.1934326
  48.7878917  38.4320045  95.3541959  49.3972058  37.2142178  96.0157169
  52.6548522  33.7641225  97.0184446  52.3985456  33.3637861  97.8492653
  52.0301390  34.4785019  96.8934585  56.9660860  36.5037298  99.5255737
  56.4060418  36.5730488 100.2987299  56.3604363  36.3278283  98.8055233
  40.0356069  47.9374025 101.2773923  39.9188453  48.8819458 101.1752614
  39.2148515  47.6347587 101.6659723  49.9232603  42.6624161  92.1230516
  50.7578207  42.2305360  91.9407991  49.7616946  42.4906175  93.0507410
  49.5778495  39.1656274  93.4886855  49.5227299  39.0000546  92.5475299
  48.9524551  39.8732307  93.6449045  34.3671010  34.4024339 107.3148278
  35.0129874  33.8923293 107.8035503  34.1588161  35.1393020 107.8891703
  46.8924402  41.4705186 112.8140418  47.7615562  41.6445839 112.4527053
  46.4131154  42.2899603 112.6916147  42.8874621  28.6664383  93.0672174
  42.8753291  29.6106223  93.2240445  43.7798043  28.4834529  92.7731635
  41.0610583  48.5902287 104.4929852  41.9637829  48.6225898 104.8096347
  40.8347953  47.6602738 104.5076188  42.8164185  47.3433274 101.1539930
  41.8659816  47.3435135 101.0404303  43.1196671  46.5966008 100.6375965
  46.7026740  25.2607160  97.3218111  45.9359136  24.7065647  97.4674793
  47.1137445  25.3329029  98.1832262  58.5516878  53.1793812 102.2185693
  59.1895288  53.0600560 101.5149033  58.4337721  54.1274656 102.2773645
  55.3606585  53.1321240 102.1547217  55.0225096  53.0162305 101.2667752
  56.2296353  52.7312405 102.1348224  55.8426367  54.2856092 108.1133423
  55.8315008  53.8908890 107.2413927  56.0047007  53.5522165 108.7067194
  56.7992959  58.6527684  93.4558573  56.1480939  59.2381765  93.0692587
  57.5937322  59.1833879  93.5153611  52.5633629  57.0693204 107.0612607
  52.2723495  57.9738835 106.9459273  53.1990613  57.1109732 107.7756677
  53.4889835  54.4470052 103.6513967  54.0853408  54.2226075 102.9370930
  53.5464807  53.7054798 104.2539414  53.0614864  51.9009488  91.4864158
  53.3140385  51.3791009  90.7247621  52.1239423  51.7375633  91.5890841
  58.1058147  50.9045266  99.2938901  58.8921236  50.4864689  98.9429318
  58.3696851  51.8091358  99.4620549  58.2768224  56.3418116  93.9927558
  57.6414057  56.4152743  94.7048462  57.9465630  56.9311715  93.3146637
  63.5066574  50.8420499 100.1971879  64.2391746  50.2719716 100.4309709
  62.7505930  50.4542100 100.6378385  52.7811153  53.8037594  93.6888533
  52.6647411  53.1282497  94.3569617  52.8913413  53.3169968  92.8720686
  55.1242694  53.2647741  97.3935222  54.7600901  52.7378362  98.1048143
  55.9809809  52.8746210  97.2201707  61.0291994  44.5542073 104.6566488
  60.6975319  45.4237484 104.4327703  60.4337608  44.2378357 105.3360518
  54.7648181  48.2937641  92.3896570  54.9322583  49.1617877  92.7567041
  54.5745350  48.4564922  91.4657860  57.5223514  56.7554619 104.0562401
  57.2224237  57.6579658 103.9478208  57.1774573  56.4886803 104.9083554
  50.9735995  53.2068416 100.0899105  50.0486492  53.0744630 100.2976797
  51.2220408  53.9862636 100.5869047  60.9220658  49.2737160 101.7359838
  60.0137535  49.2052568 101.4418599  60.8708253  49.7509105 102.5641663
  54.7437401  50.7495298  93.3743237  54.6237027  51.1952349  94.2128717
  54.0489990  51.0980616  92.8156775  52.5044294  63.5198940  97.0233368
  52.4268323  64.4706765  97.1021849  51.9005937  63.1744812  97.6808295
  54.9961523  50.6926805 109.6794735  54.2194857  51.2520725 109.6697600
  55.6352086  51.1783588 110.2009605  62.7882304  47.4753598 103.5137712
  62.1456684  47.7686131 102.8677506  62.2837232  47.3606518 104.3190909
  60.4422468  51.2216771  94.2023571  61.3540324  51.4544158  94.0271269
  59.9332115  51.8053815  93.6398650  53.2507896  53.5012259 109.2412702
  53.9922580  54.0397303 108.9647526  52.5444881  54.1278547 109.3984254
  58.7263235  55.6441399 107.8384864  59.1346591  55.2023810 107.0939496
  58.0040497  55.0694027 108.0919057  55.0794305  50.5814006 105.2118421
  55.9255500  51.0053419 105.3553070  55.0192943  49.9247630 105.9056984
  59.0492050  56.2042590 101.5937153  58.4200912  56.3688304 100.8913220
  58.6617712  56.6184199 102.3648117  62.9281282  57.1397028  98.9481516
  62.2432320  57.5195929  98.3978550  63.0125131  57.7492354  99.6813464
  58.2293751  48.2418374 106.8699594  57.9854682  48.9960435 106.3333870
  58.5053681  48.6203722 107.7046841  60.1832213  54.7856987 105.5476860
  60.3949109  55.4288746 104.8711241  60.1361962  53.9519303 105.0798790
  57.7858442  47.3974807 102.4513432  56.9242921  47.6956061 102.7430170
  57.8120877  47.6145206 101.5194465  54.6020012  55.9416998  98.8587238
  55.0658357  56.2204701  98.0691860  54.3376810  55.0400442  98.6760328
  51.4944093  55.4888479 101.7967001  52.0645450  55.9175748 101.1584485
  52.0852205  55.2071064 102.4951187  53.5388898  52.0640150  95.6676803
  54.2412941  52.5161194  96.1350729  53.2069526  51.4223969  96.2956696
  51.9869259  50.6551907 110.0428012  51.3567920  51.3368188 110.2763409
  51.8805347  50.5434988 109.0981151  61.2978041  57.6628942 103.7199217
  62.1195485  57.2609129 103.4381899  61.2940444  57.5597176 104.6715333
  55.0634645  57.2112985 105.8759928  55.1279077  57.6733392 106.7118100
  54.3545569  56.5810350 106.0042238  69.3884034  54.0067690 100.0684189
  68.6347743  53.4375089  99.9128193  69.5231576  53.9730355 101.0154823
  54.7782662  58.8781093  95.7438908  54.6428337  59.7232628  96.1723756
  55.3192475  59.0800370  94.9804842  51.2650002  44.9572673 112.4053263
  50.8716948  44.4038871 113.0800908  52.0816142  45.2683251 112.7959781
  54.1817963  46.3730552 109.9973520  54.9227676  46.9737705 109.9177982
  54.4135886  45.6308189 109.4391562  49.3259301  51.5586919 108.2751750
  49.2112816  50.6572176 108.5758848  48.4703819  51.8050616 107.9236566
  56.4051139  59.5004659 109.8739250  55.9614993  58.7141038 109.5560155
  57.0668352  59.6883810 109.2083141  58.5032377  59.7807459 107.9020651
  58.4850852  60.6016340 107.4100921  59.4252297  59.6561534 108.1270793
  54.9605431  57.2951589 108.7444160  55.4933768  56.5339877 108.5143468
  54.4319512  57.0025240 109.4868314  58.1275126  42.4011655 104.2737802
  57.7839395  43.2913296 104.1976912  58.4954089  42.2113312 103.4107387
  58.0925409  52.3920266  92.7810237  57.5772032  53.1624870  93.0198624
  57.8202717  51.7185402  93.4043298  55.6772520  47.2369967  97.8395475
  54.8214116  46.8476817  97.6601114  56.0899472  47.3161927  96.9795261
  57.2071666  44.7716310 102.2387035  56.7036462  44.7346445 101.4254840
  57.5002273  45.6809052 102.2983691  53.4514552  44.8555039 101.2453217
  54.3167549  44.6597848 100.8859106  53.5192061  44.6265391 102.1722573
  63.0659683  55.1452620  94.7163410  62.2889126  54.8063780  94.2718572
  63.7451164  55.1505244  94.0418375  57.8811712  50.2647358  94.6070018
  57.5761847  50.5793507  95.4580161  58.8342154  50.3428778  94.6497351
  56.3258144  56.4237581  96.2562972  55.7979505  55.6890341  95.9436209
  55.8245646  57.2012257  96.0102940  61.3050990  54.6186602 101.3730018
  60.6474664  55.3085863 101.4610147  62.1091389  55.0083034 101.7164004
  51.0576871  47.0857247  98.6169583  51.6320623  46.8632429  97.8842776
  51.6447854  47.1545942  99.3698185  60.1156449  52.9730974  99.4233960
  60.6288330  53.6060966  99.9255670  60.7657672  52.3732170  99.0577320
  51.3846458  49.1161708  92.6365469  50.5483771  49.4536395  92.9574743
  51.2451228  48.9810688  91.6992606  53.3599539  43.9598496  97.3444653
  52.7063951  43.6447513  96.7201268  53.3180013  43.3374237  98.0704476
  54.4710744  54.2417791  89.2597945  53.5637806  54.0107045  89.4589094
  54.9681776  53.4455411  89.4471926  57.3778823  62.9515299  92.1794631
  56.7040522  63.2546995  92.7879589  57.7644645  63.7544379  91.8300088
  56.5937279  50.4480430 101.6692300  55.6759841  50.6695377 101.5113988
  57.0097423  50.5226740 100.8104008  57.3772327  51.8471846  96.7994981
  58.1244146  52.3593243  96.4902103  57.6463917  51.5255898  97.6599374
  55.6498977  54.3430386  93.7821935  54.7410197  54.0589419  93.8794405
  55.6794061  54.7629465  92.9225242  60.8818245  57.9536976  97.5513103
  60.4280572  57.1127886  97.6078293  60.2512211  58.5898374  97.8887883
  59.8251164  48.8828962  98.7813770  59.0873921  48.3706348  99.1124013
  60.0777938  48.4429343  97.9697047  59.3251184  59.7913472  98.4862921
  59.6174158  60.3518530  97.7675286  59.8349805  60.0842033  99.2416080
  59.9262792  41.6605214  99.3755539  60.2321668  40.8002577  99.0881454
  60.6515396  42.2522834  99.1754533  54.1983871  51.9559007  99.8831730
  54.2532481  51.0032843  99.8074207  53.3875073  52.1118446 100.3673029
  55.3475065  55.8839130  91.1210014  54.9094495  55.1674989  90.6615651
  56.0885506  56.1115245  90.5595105  52.1376231  50.5736067  97.6422109
  51.3244097  50.8730237  98.0487301  52.6335226  50.1791755  98.3596591
  54.2884809  60.5693824  99.5756374  54.2460988  60.7954670  98.6464906
  55.2047508  60.3357198  99.7242175  57.7350443  51.0377891 106.4737003
  58.0899831  51.2649364 107.3331469  58.3822574  51.3696268 105.8514258
  63.4648180  54.1596327  97.1786332  63.3266079  54.3497923  96.2507521
  63.1084399  54.9215710  97.6354383  51.6290306  48.1454422 103.2583344
  52.2689685  48.0043181 102.5606307  50.7967837  47.8588936 102.8821946
  63.4917560  56.2272854 102.1897604  63.9254066  56.1348143 103.0380658
  64.2049140  56.2030354 101.5517620  52.4050610  57.4456853  99.3718337
  53.1991208  56.9507173  99.1700912  51.6942302  56.9174716  99.0086042
  57.2245454  59.8274948 103.7230704  57.2782477  60.3965884 104.4908420
  56.3560236  59.9976833 103.3584741  48.6318922  48.1154747  98.0356331
  48.8925740  49.0300080  97.9265491  49.4536095  47.6479190  98.1852944
  50.1043848  49.5292504 105.2055155  50.7766901  49.3209866 104.5567804
  49.2773634  49.3314590 104.7660388  64.3533109  56.2696555 104.7230489
  64.5468999  57.1742365 104.9689764  64.2533727  55.8103974 105.5569074
  56.0069420  46.1554445 107.2220816  55.3597335  46.8544395 107.1285293
  56.7770435  46.5890589 107.5897065  59.4148218  56.4203297 110.2971370
  59.2633724  56.1913849 109.3801453  59.4052897  57.3773899 110.3102715
  56.1833554  53.9935210 105.2817636  57.1125614  54.1446370 105.1086603
  55.7624584  54.0819231 104.4266283  54.9821886  58.0185875 103.0516174
  54.8432972  57.6504659 103.9242112  54.1936482  58.5333514 102.8800131
  55.5770038  63.1194971  94.3941710  55.7521794  62.6483014  95.2087333
  54.8902826  63.7460737  94.6222971  56.5327101  57.3967477 100.4405011
  56.1976934  57.3568247 101.3362661  56.0331047  56.7312193  99.9675422
  50.5071345  52.8035107 105.9657593  50.3691143  52.0715346 106.5669132
  51.4176269  52.7144007 105.6841780  59.4686293  54.7423512  90.7142071
  58.8515463  54.0170340  90.6175124  59.0002781  55.5032872  90.3709145
  53.1353646  52.5155067 105.4541272  53.8453264  51.8748259 105.4127891
  53.0922954  52.7667961 106.3767453  61.1240424  59.4522420 108.3747851
  61.0652971  58.7681640 107.7078434  61.5259943  60.1941410 107.9228477
  51.8482580  49.5020284 107.2736912  51.3119937  49.0511023 107.9258508
  51.2599288  49.6366193 106.5307376  50.1431123  66.2684334 101.1681570
  50.3827721  66.9002858 101.8460589  49.3000320  65.9172374 101.4546930
  51.2584839  48.9608936  89.8363375  50.3814305  48.8397737  89.4725622
  51.7342592  48.1695014  89.5842264  61.1257832  57.4162004 106.6061831
  60.2384610  57.0787926 106.7288230  61.6956383  56.6845035 106.8430597
  47.5821701  48.6376292 104.3589906  47.4979890  48.0301962 103.6240316
  46.7604407  49.1285310 104.3599403  54.6558985  62.0763456 103.5723074
  54.5829157  62.8818428 104.0842379  54.2136378  62.2755422 102.7471096
  54.4448765  61.3135226  97.0825896  53.6616287  61.8556906  97.1764120
  55.1441510  61.8309206  97.4820137  57.7545415  47.1229856  99.7260101
  58.2514114  46.3699818  99.4061172  56.9832396  47.1594172  99.1603311
  65.6075172  52.8270221 101.3678393  65.5965048  53.7094937 100.9972326
  64.7392552  52.4741772 101.1732930  57.1157669  61.9750290 105.7281233
  57.8285641  62.6097755 105.6557134  56.6247697  62.0714156 104.9121235
  58.8375196  55.8801543  97.2998525  57.9031474  56.0003005  97.1303229
  59.0151864  54.9774010  97.0358535  54.3380384  49.2647239  99.4531786
  53.9678171  48.7118279 100.1412691  54.8339476  48.6605372  98.9006786
  62.2247747  51.7218862  97.8348559  62.6908199  52.5546854  97.7608861
  62.6755247  51.2563844  98.5393817  60.2923978  58.0662683  94.8334711
  60.5683822  57.9519278  95.7428585  59.4228477  57.6680168  94.7946884
  60.1964410  44.0899449 101.8739460  59.2827489  44.3203676 102.0421667
  60.6257511  44.1737893 102.7253493  59.9670868  52.2789341 104.3739354
  59.3142318  52.5265249 103.7191807  60.3451248  51.4653479 104.0401831
  56.9278042  62.3149034  98.4767524  57.1100437  61.4970690  98.9395277
  57.7511028  62.5316727  98.0392414  57.2620207  61.2417219  95.7382573
  57.7907974  60.7309674  95.1252735  57.5248427  60.9259750  96.6028106
  56.0158441  53.0209152 110.8605391  55.3399078  52.9203282 111.5307766
  56.8386075  52.8648366 111.3241388  54.7581224  64.3276080 105.0963007
  55.3099532  64.4907701 105.8612092  55.0987417  64.9180517 104.4243032
  49.7345717  46.6751229 105.6984892  49.7987044  47.5366060 105.2862290
  49.6712837  46.0625231 104.9657250  49.2097990  48.7474362 109.3457926
  49.8370029  48.3651439 109.9595451  48.3525909  48.5288564 109.7113619
  59.6092098  59.1537337 110.9511662  60.1532002  59.7667295 110.4566616
  59.0278943  59.7116916 111.4678675  57.8949611  62.2758055 102.0826689
  57.7700751  61.4747795 101.5737635  58.5528702  62.7704249 101.5940659
  49.5157780  48.6306788 101.2603830  48.7944365  49.2442755 101.1211303
  50.3051035  49.1664553 101.1820476  59.9584520  60.0767075 103.7106239
  59.0114855  59.9572426 103.6384566  60.3067293  59.1889573 103.7932501
  52.3184093  45.9661214 107.5344481  52.8418495  46.2123511 108.2970791
  52.0996426  46.7981249 107.1147619  47.7151374  48.2364889  95.4015606
  47.3864080  47.3562268  95.2190712  48.0690745  48.1812557  96.2891995
  56.9630953  59.8719792  99.9110592  56.8155915  58.9436499 100.0918162
  57.7884446  59.8939882  99.4267667  50.8293197  48.5237859  95.7691084
  51.1689270  49.0523780  95.0469692  51.2765318  48.8618265  96.5449650
  60.5665075  60.6948350 100.9975464  61.4911622  60.4891212 100.8599916
  60.3980378  60.4464751 101.9064806  53.5236638  46.9074909 105.2194152
  53.1833458  46.1082722 105.6214832  52.8175644  47.2076620 104.6470985
  54.1753110  43.9924222 103.6721475  54.9979179  43.5184700 103.5500365
  54.4191173  44.7714705 104.1720161  52.8161344  47.0212480  93.9684377
  53.5369707  47.3993733  93.4648093  52.1926649  47.7401357  94.0719355
  56.9592467  47.7257629  94.9042709  57.1756082  48.6082267  94.6031537
  56.4786534  47.3343843  94.1748351  51.6991689  50.6843342 101.4813454
  51.5536269  50.9983645 102.3737735  51.2216892  51.3028243 100.9284352
  53.5588072  47.6745890 101.5294343  53.5449640  46.7786984 101.1926641
  54.2760500  47.6816554 102.1632629  55.4114202  48.1083231 103.5747471
  55.1531980  49.0300301 103.5731801  54.8799243  47.7113665 104.2647935
  60.3560391  61.2134018  96.3537556  60.5297269  60.6480440  95.6011408
  60.8489282  62.0134913  96.1717046  52.9624967  46.5560271  96.7981913
  53.0840879  45.6276917  96.9972801  52.6727010  46.5698957  95.8860229
  55.8316158  44.2415181  99.9348633  55.8537855  44.3054514  98.9800613
  56.2484217  43.4019690 100.1289139  66.2099782  53.9770441  97.9727856
  66.6530928  53.2277766  97.5746979  65.3326292  53.9680577  97.5901588
  61.3435564  60.5300782  93.4534454  62.0386468  61.1507475  93.6721769
  61.6858714  59.6796133  93.7286832  46.9603373  52.3518583 107.3131272
  46.2185109  52.5001218 107.8995902  46.6396117  52.6126849 106.4498021
  63.2426987  57.9800488  94.9821785  63.7678311  58.3187760  94.2571105
  63.1549339  57.0447503  94.7984920  54.9047035  61.8934561 107.1111662
  55.2134162  61.6483708 107.9834361  55.7022517  62.0981200 106.6230532
  54.9267647  64.0472471  99.3417038  54.4872638  63.5548850 100.0349895
  55.6775764  63.5045439  99.1009113  52.4466047  48.0692268 111.0071846
  52.4954203  48.9454391 110.6249615  52.9888561  47.5269661 110.4343489
  62.9320893  58.6133391 110.2872983  62.1416436  58.5957530 109.7477482
  62.6954247  59.1521685 111.0422020  63.0518768  55.4625858 107.6005711
  63.1016773  55.2975865 108.5421234  62.9432691  54.5953117 107.2103592
  51.9355026  58.1414403  94.8897800  52.0843147  58.8249868  94.2364473
  52.7421470  58.1219493  95.4047256  60.3422530  51.4456786 108.9165018
  61.2432393  51.3063251 108.6249016  60.4170505  51.6111240 109.8563196
  54.6765335  48.8223640 107.7618205  53.8068645  49.1157206 107.4900793
  54.9124816  49.4064085 108.4825468  64.5536965  57.8822799 107.8447733
  64.2621773  58.2452780 108.6811194  63.9409096  57.1689807 107.6661065
  65.7532647  55.4475679 100.3650303  66.5879538  55.8865483 100.5287864
  65.8891776  54.9714332  99.5458549  62.8024153  53.0055414 106.3127791
  63.2778274  53.1983060 105.5046642  61.8789718  53.0614600 106.0671175
  57.3804369  45.0403257 105.2783625  57.8986313  45.7764284 104.9530113
  57.0259502  45.3467251 106.1130384  48.9603307  49.9007939  93.3945031
  48.2672552  49.9752294  92.7385067  48.7155059  49.1368282  93.9166548
  57.6316963  41.4603540 100.7984521  57.9118717  40.7926729 101.4244948
  58.4167570  41.6532635 100.2859185  55.4350432  60.6362534  92.3609548
  54.8624399  61.2552721  91.9080020  56.0083226  61.1861895  92.8949470
  61.5025822  49.8821174 104.5456097  62.4543245  49.9819272 104.5668321
  61.3329272  49.0899442 105.0554181  59.5240201  46.9676757 104.7315498
  58.9290133  47.2481770 104.0361986  59.2389898  47.4570658 105.5032239
  58.6547692  60.9199684  93.4918130  59.5878365  60.8545246  93.6951006
  58.5670905  61.7555951  93.0332663  61.2835708  60.2365554  90.4522078
  61.2049340  59.9025418  91.3457836  62.1045375  60.7287322  90.4513550
  63.9813900  53.1027294 103.6598396  63.9490220  52.1643294 103.8458080
  64.5914523  53.1811330 102.9264221  55.8197230  51.9723347  89.7025600
  56.7656335  51.8429555  89.7714018  55.4411475  51.2338008  90.1795028
  64.1308388  49.8938337 103.7056679  63.6147437  49.1096794 103.5186608
  65.0148337  49.5657054 103.8703199  61.7919115  43.6379353  99.6652492
  61.5943936  43.3294441 100.5495824  62.4018821  44.3640991  99.7950422
  69.7990449  54.1643300 102.8004433  70.5293838  53.9028589 103.3612136
  69.1897395  53.4272022 102.8406501  67.8805747  52.3051163 103.3978884
  67.1538910  52.1707128 102.7895376  67.4653033  52.6127992 104.2035602
  55.7035923  56.0241093 111.1626257  56.6238932  56.2019692 111.3566304
  55.6685506  55.0797138 111.0105957  54.0040148  49.8973323  89.6380486
  53.0971603  49.6006436  89.7143199  54.2816129  49.6003141  88.7714772
  55.6202213  44.4410213  95.7924727  54.8102942  44.0957298  96.1679973
  56.3086630  44.1317756  96.3812338  57.5492762  43.5188259  97.4149023
  58.1023800  43.9383713  98.0739047  57.7862848  42.5924008  97.4571979
  53.5725861  49.5075333 113.1951787  53.4722588  50.4569690 113.1263878
  53.3547403  49.1793572 112.3227857  52.7738932  46.7560258  89.7792465
  53.6358096  47.0815156  90.0388282  52.9589276  45.9691754  89.2665531
  60.9271569  45.6288785  96.9227688  60.3470238  46.2873589  96.5405740
  60.6607501  44.8066129  96.5115105  59.3775135  45.0293842  99.1249008
  59.8774913  45.1410377  98.3163327  60.0210743  44.7254895  99.7649816
  53.4357131  52.9372472 112.0116849  52.9524213  53.7372832 112.2180738
  53.5218070  52.9480417 111.0584293  49.3630468  56.8277007 104.0485283
  50.3173722  56.7960949 103.9815214  49.1642992  56.3667630 104.8635509
  49.9529851  55.3978123 106.6156080  50.7722740  55.8922201 106.6390918
  50.2266658  54.4810091 106.5873648  59.7096447  47.7888875  95.9784036
  58.8222302  48.0738526  95.7604231  60.1250436  47.6282638  95.1311313
  63.0610983  47.8135396  99.6938375  63.8371373  48.3031848  99.9662992
  62.3359117  48.2393450 100.1510245  65.4983541  48.5263015 100.7512316
  66.0928032  48.2858751 100.0405624  65.5710125  47.8070146 101.3785852
  58.8539660  57.5533550  90.0732056  59.5575510  57.7583552  90.6889712
  58.1302309  58.1210312  90.3381139  59.6837470  53.3043411  96.1934326
  59.6272672  53.7611962  95.3541959  60.2365813  52.5434096  96.0157169
  63.4942276  49.0933143  97.0184446  63.2379211  48.6929778  97.8492653
  62.8695144  49.8076937  96.8934585  67.8054614  51.8329216  99.5255737
  67.2454172  51.9022405 100.2987299  67.1998118  51.6570201  98.8055233
  60.7626358  57.9916079  92.1230516  61.5971962  57.5597277  91.9407991
  60.6010701  57.8198093  93.0507410  60.4172250  54.4948192  93.4886855
  60.3621054  54.3292464  92.5475299  59.7918305  55.2024225  93.6449045
  45.2064765  49.7316257 107.3148278  45.8523628  49.2215211 107.8035503
  44.9981916  50.4684938 107.8891703  57.7318157  56.7997104 112.8140418
  58.6009317  56.9737756 112.4527053  57.2524908  57.6191521 112.6916147
  53.7268375  43.9956301  93.0672174  53.7147045  44.9398141  93.2240445
  54.6191797  43.8126447  92.7731635  57.5420495  40.5899078  97.3218111
  56.7752891  40.0357564  97.4674793  57.9531200  40.6620947  98.1832262
  49.5462256  46.8783874 111.4123292  50.4093717  46.5220678 111.6226616
  48.9727666  46.5397768 112.0998696  69.3910633  68.5085730 102.2185693
  70.0289043  68.3892477 101.5149033  69.2731476  69.4566574 102.2773645
  66.2000339  68.4613158 102.1547217  65.8618851  68.3454223 101.2667752
  67.0690107  68.0604323 102.1348224  62.0587155  70.3148634  98.1444108
  61.4952020  70.2238571  97.3760396  61.9439550  69.4948539  98.6246601
  66.6820122  69.6148010 108.1133423  66.6708763  69.2200808 107.2413927
  66.8440761  68.8814082 108.7067194  59.6051587  71.8099826 100.9828329
  60.3972879  71.4690651 100.5674628  59.8448237  71.9194801 101.9030482
  67.6386713  73.9819602  93.4558573  66.9874693  74.5673683  93.0692587
  68.4331076  74.5125797  93.5153611  61.5642341  71.0708739  93.8545708
  62.3373217  70.5237726  93.7158583  61.9167739  71.9352989  94.0660169
  63.4027383  72.3985122 107.0612607  63.1117249  73.3030752 106.9459273
  64.0384367  72.4401649 107.7756677  64.3283590  69.7761970 103.6513967
  64.9247162  69.5517993 102.9370930  64.3858562  69.0346716 104.2539414
  63.9008618  67.2301405  91.4864158  64.1534139  66.7082927  90.7247621
  62.9633177  67.0667551  91.5890841  68.9451901  66.2337184  99.2938901
  69.7314990  65.8156607  98.9429318  69.2090606  67.1383276  99.4620549
  69.1161979  71.6710034  93.9927558  68.4807812  71.7444661  94.7048462
  68.7859385  72.2603633  93.3146637  74.3460328  66.1712417 100.1971879
  75.0785500  65.6011634 100.4309709  73.5899684  65.7834017 100.6378385
  63.6204907  69.1329511  93.6888533  63.5041165  68.4574415  94.3569617
  63.7307167  68.6461885  92.8720686  65.9636448  68.5939659  97.3935222
  65.5994655  68.0670279  98.1048143  66.8203564  68.2038128  97.2201707
  71.8685749  59.8833991 104.6566488  71.5369073  60.7529402 104.4327703
  71.2731362  59.5670275 105.3360518  65.6041935  63.6229558  92.3896570
  65.7716337  64.4909795  92.7567041  65.4139104  63.7856840  91.4657860
  68.3617268  72.0846537 104.0562401  68.0617991  72.9871576 103.9478208
  68.0168328  71.8178720 104.9083554  61.8129750  68.5360334 100.0899105
  60.8880246  68.4036548 100.2976797  62.0614163  69.3154553 100.5869047
  71.7614412  64.6029077 101.7359838  70.8531289  64.5344486 101.4418599
  71.7102008  65.0801022 102.5641663  65.5831156  66.0787216  93.3743237
  65.4630781  66.5244266  94.2128717  64.8883744  66.4272533  92.8156775
  59.1738561  68.1793607 100.9242894  59.3030942  68.4328086 101.8382306
  58.4936012  68.7721315 100.6047549  63.3438048  78.8490857  97.0233368
  63.2662078  79.7998683  97.1021849  62.7399692  78.5036730  97.6808295
  65.8355278  66.0218723 109.6794735  65.0588612  66.5812643 109.6697600
  66.4745841  66.5075506 110.2009605  73.6276058  62.8045516 103.5137712
  72.9850439  63.0978049 102.8677506  73.1230987  62.6898436 104.3190909
  71.2816222  66.5508689  94.2023571  72.1934078  66.7836076  94.0271269
  70.7725869  67.1345733  93.6398650  64.0901650  68.8304176 109.2412702
  64.8316334  69.3689220 108.9647526  63.3838636  69.4570465 109.3984254
  69.5656990  70.9733317 107.8384864  69.9740346  70.5315727 107.0939496
  68.8434251  70.3985944 108.0919057  65.9188060  65.9105923 105.2118421
  66.7649255  66.3345337 105.3553070  65.8586697  65.2539548 105.9056984
  69.8885804  71.5334507 101.5937153  69.2594667  71.6980221 100.8913220
  69.5011466  71.9476117 102.3648117  73.7675036  72.4688945  98.9481516
  73.0826074  72.8487847  98.3978550  73.8518886  73.0784272  99.6813464
  69.0687505  63.5710292 106.8699594  68.8248437  64.3252352 106.3333870
  69.3447436  63.9495639 107.7046841  71.0225968  70.1148904 105.5476860
  71.2342863  70.7580664 104.8711241  70.9755716  69.2811221 105.0798790
  68.6252197  62.7266725 102.4513432  67.7636676  63.0247978 102.7430170
  68.6514631  62.9437124 101.5194465  65.4413766  71.2708915  98.8587238
  65.9052112  71.5496618  98.0691860  65.1770564  70.3692360  98.6760328
  62.3337847  70.8180397 101.7967001  62.9039204  71.2467665 101.1584485
  62.9245959  70.5362982 102.4951187  64.3782652  67.3932068  95.6676803
  65.0806696  67.8453111  96.1350729  64.0463281  66.7515887  96.2956696
  62.8263014  65.9843824 110.0428012  62.1961674  66.6660105 110.2763409
  62.7199102  65.8726906 109.0981151  58.1207986  65.6515620 100.9693936
  57.3307040  65.9073149 100.4934047  58.6119234  66.4663958 101.0745977
  72.1371796  72.9920860 103.7199217  72.9589240  72.5901047 103.4381899
  72.1334199  72.8889094 104.6715333  60.0722732  66.0160200  97.9277413
  59.2753895  66.1278894  98.4460909  59.8448324  66.3546852  97.0618304
  65.9028399  72.5404903 105.8759928  65.9672832  73.0025310 106.7118100
  65.1939323  71.9102268 106.0042238  56.4045689  65.9046111 103.4008927
  56.6553728  66.7893121 103.6666503  56.9405238  65.7250712 102.6284019
  80.2277789  69.3359608 100.0684189  79.4741497  68.7667006  99.9128193
  80.3625330  69.3022273 101.0154823  65.6176417  74.2073010  95.7438908
  65.4822092  75.0524546  96.1723756  66.1586229  74.4092288  94.9804842
  62.1043757  60.2864590 112.4053263  61.7110702  59.7330789 113.0800908
  62.9209897  60.5975169 112.7959781  59.0705814  71.7248448  96.3166833
  59.5830335  72.5191699  96.4672398  59.7228527  71.0274739  96.2500435
  60.8800699  74.8414205  98.3989586  61.0567327  75.7632169  98.2110570
  61.6757533  74.5272624  98.8283966  65.0211718  61.7022469 109.9973520
  65.7621431  62.3029622 109.9177982  65.2529640  60.9600107 109.4391562
  60.1653056  66.8878837 108.2751750  60.0506571  65.9864094 108.5758848
  59.3097573  67.1342533 107.9236566  67.2444893  74.8296577 109.8739250
  66.8008747  74.0432955 109.5560155  67.9062107  75.0175727 109.2083141
  62.0032014  76.3592379 104.3999929  62.5539440  76.2309442 103.6276923
  61.1643490  76.6587268 104.0494821  69.3426131  75.1099377 107.9020651
  69.3244607  75.9308258 107.4100921  70.2646051  74.9853452 108.1270793
  65.7999186  72.6243506 108.7444160  66.3327522  71.8631795 108.5143468
  65.2713267  72.3317158 109.4868314  68.9668880  57.7303572 104.2737802
  68.6233150  58.6205214 104.1976912  69.3347843  57.5405230 103.4107387
  57.0354731  70.0537103  97.0926404  57.8729953  70.4634111  96.8760111
  57.2132999  69.1136545  97.0626598  68.9319163  67.7212183  92.7810237
  68.4165787  68.4916788  93.0198624  68.6596472  67.0477320  93.4043298
  66.5166274  62.5661884  97.8395475  65.6607871  62.1768735  97.6601114
  66.9293226  62.6453845  96.9795261  68.0465421  60.1008227 102.2387035
  67.5430216  60.0638363 101.4254840  68.3396028  61.0100970 102.2983691
  64.2908307  60.1846957 101.2453217  65.1561304  59.9889766 100.8859106
  64.3585816  59.9557309 102.1722573  73.9053437  70.4744538  94.7163410
  73.1282880  70.1355698  94.2718572  74.5844918  70.4797161  94.0418375
  68.7205466  65.5939275  94.6070018  68.4155602  65.9085425  95.4580161
  69.6735909  65.6720695  94.6497351  67.1651898  71.7529499  96.2562972
  66.6373260  71.0182258  95.9436209  66.6639401  72.5304175  96.0102940
  72.1444744  69.9478519 101.3730018  71.4868419  70.6377781 101.4610147
  72.9485143  70.3374951 101.7164004  61.8970626  62.4149165  98.6169583
  62.4714378  62.1924347  97.8842776  62.4841608  62.4837860  99.3698185
  70.9550203  68.3022892  99.4233960  71.4682085  68.9352884  99.9255670
  71.6051427  67.7024087  99.0577320  62.2240213  64.4453626  92.6365469
  61.3877525  64.7828313  92.9574743  62.0844983  64.3102606  91.6992606
  64.1993294  59.2890414  97.3444653  63.5457706  58.9739431  96.7201268
  64.1573768  58.6666154  98.0704476  65.3104498  69.5709709  89.2597945
  64.4031560  69.3398963  89.4589094  65.8075530  68.7747328  89.4471926
  68.2172577  78.2807216  92.1794631  67.5434276  78.5838913  92.7879589
  68.6038399  79.0836297  91.8300088  67.4331034  65.7772348 101.6692300
  66.5153595  65.9987295 101.5113988  67.8491178  65.8518658 100.8104008
  68.2166082  67.1763763  96.7994981  68.9637901  67.6885160  96.4902103
  68.4857671  66.8547816  97.6599374  66.4892732  69.6722304  93.7821935
  65.5803951  69.3881337  93.8794405  66.5187816  70.0921383  92.9225242
  71.7211999  73.2828893  97.5513103  71.2674326  72.4419803  97.6078293
  71.0905966  73.9190292  97.8887883  70.6644919  64.2120879  98.7813770
  69.9267676  63.6998266  99.1124013  70.9171692  63.7721261  97.9697047
  70.1644939  75.1205390  98.4862921  70.4567913  75.6810447  97.7675286
  70.6743559  75.4133951  99.2416080  70.7656546  56.9897131  99.3755539
  71.0715423  56.1294495  99.0881454  71.4909151  57.5814752  99.1754533
  57.0580902  67.3927818  97.7637137  56.8605302  66.7997179  97.0388204
  56.5027566  67.0880028  98.4813076  65.0377626  67.2850925  99.8831730
  65.0926236  66.3324761  99.8074207  64.2268828  67.4410364 100.3673029
  66.1868820  71.2131048  91.1210014  65.7488250  70.4966907  90.6615651
  66.9279261  71.4407162  90.5595105  62.9769986  65.9027984  97.6422109
  62.1637851  66.2022155  98.0487301  63.4728980  65.5083673  98.3596591
  65.1278564  75.8985741  99.5756374  65.0854742  76.1246588  98.6464906
  66.0441263  75.6649116  99.7242175  68.5744197  66.3669809 106.4737003
  68.9293585  66.5941282 107.3331469  69.2216329  66.6988186 105.8514258
  74.3041934  69.4888245  97.1786332  74.1659833  69.6789841  96.2507521
  73.9478153  70.2507627  97.6354383  62.4684061  63.4746340 103.2583344
  63.1083440  63.3335099 102.5606307  61.6361591  63.1880853 102.8821946
  74.3311314  71.5564772 102.1897604  74.7647821  71.4640061 103.0380658
  75.0442895  71.5322272 101.5517620  63.2444364  72.7748770  99.3718337
  64.0384963  72.2799090  99.1700912  62.5336057  72.2466633  99.0086042
  68.0639209  75.1566866 103.7230704  68.1176231  75.7257802 104.4908420
  67.1953990  75.3268751 103.3584741  59.5527128  66.9191852  95.4478089
  58.6224716  66.8576307  95.6648051  59.6484600  66.3967805  94.6514731
  59.4712677  63.4446665  98.0356331  59.7319494  64.3591998  97.9265491
  60.2929849  62.9771107  98.1852944  60.9437602  64.8584422 105.2055155
  61.6160656  64.6501784 104.5567804  60.1167389  64.6606508 104.7660388
  75.1926864  71.5988472 104.7230489  75.3862754  72.5034283 104.9689764
  75.0927482  71.1395891 105.5569074  66.8463174  61.4846363 107.2220816
  66.1991089  62.1836313 107.1285293  67.6164190  61.9182507 107.5897065
  70.2541972  71.7495215 110.2971370  70.1027479  71.5205767 109.3801453
  70.2446652  72.7065816 110.3102715  67.0227309  69.3227128 105.2817636
  67.9519369  69.4738287 105.1086603  66.6018339  69.4111149 104.4266283
  65.8215640  73.3477792 103.0516174  65.6826726  72.9796577 103.9242112
  65.0330237  73.8625432 102.8800131  66.4163792  78.4486889  94.3941710
  66.5915548  77.9774932  95.2087333  65.7296580  79.0752655  94.6222971
  67.3720856  72.7259395 100.4405011  67.0370688  72.6860165 101.3362661
  66.8724801  72.0604111  99.9675422  61.3465100  68.1327025 105.9657593
  61.2084898  67.4007264 106.5669132  62.2570023  68.0435925 105.6841780
  70.3080047  70.0715429  90.7142071  69.6909218  69.3462257  90.6175124
  69.8396536  70.8324790  90.3709145  63.9747400  67.8446984 105.4541272
  64.6847019  67.2040176 105.4127891  63.9316708  68.0959879 106.3767453
  71.9634179  74.7814338 108.3747851  71.9046725  74.0973558 107.7078434
  72.3653697  75.5233328 107.9228477  62.6876334  64.8312202 107.2736912
  62.1513691  64.3802941 107.9258508  62.0993043  64.9658111 106.5307376
  60.9824878  81.5976251 101.1681570  61.2221476  82.2294776 101.8460589
  60.1394074  81.2464291 101.4546930  62.0978593  64.2900854  89.8363375
  61.2208059  64.1689654  89.4725622  62.5736346  63.4986932  89.5842264
  71.9651586  72.7453922 106.6061831  71.0778365  72.4079843 106.7288230
  72.5350137  72.0136953 106.8430597  53.6180733  69.0778013  99.9304883
  54.3051773  68.7639743  99.3425898  53.4628862  69.9819378  99.6572134
  58.4215455  63.9668210 104.3589906  58.3373644  63.3593879 103.6240316
  57.5998162  64.4577228 104.3599403  65.4952740  77.4055374 103.5723074
  65.4222911  78.2110345 104.0842379  65.0530133  77.6047340 102.7471096
  65.2842519  76.6427144  97.0825896  64.5010041  77.1848824  97.1764120
  65.9835264  77.1601124  97.4820137  68.5939169  62.4521773  99.7260101
  69.0907869  61.6991736  99.4061172  67.8226151  62.4886090  99.1603311
  76.4468927  68.1562139 101.3678393  76.4358803  69.0386854 100.9972326
  75.5786306  67.8033690 101.1732930  67.9551423  77.3042208 105.7281233
  68.6679395  77.9389673 105.6557134  67.4641452  77.4006074 104.9121235
  69.6768950  71.2093461  97.2998525  68.7425229  71.3294923  97.1303229
  69.8545618  70.3065927  97.0358535  65.1774138  64.5939156  99.4531786
  64.8071926  64.0410197 100.1412691  65.6733231  63.9897290  98.9006786
  73.0641501  67.0510780  97.8348559  73.5301954  67.8838771  97.7608861
  73.5149002  66.5855761  98.5393817  63.0063337  75.0536651 106.5486804
  63.7072796  75.6873134 106.7016198  62.5358452  75.3951383 105.7882443
  71.1317732  73.3954601  94.8334711  71.4077576  73.2811196  95.7428585
  70.2622231  72.9972086  94.7946884  71.0358164  59.4191367 101.8739460
  70.1221244  59.6495594 102.0421667  71.4651266  59.5029811 102.7253493
  70.8064623  67.6081259 104.3739354  70.1536073  67.8557166 103.7191807
  71.1845003  66.7945397 104.0401831  67.7671796  77.6440952  98.4767524
  67.9494191  76.8262608  98.9395277  68.5904782  77.8608644  98.0392414
  68.1013962  76.5709137  95.7382573  68.6301728  76.0601592  95.1252735
  68.3642182  76.2551667  96.6028106  66.8552196  68.3501070 110.8605391
  66.1792833  68.2495199 111.5307766  67.6779830  68.1940284 111.3241388
  58.6031055  74.5873006 103.4817906  59.1884492  73.8416694 103.6145811
  58.4055893  74.8976963 104.3654570  61.4569710  77.6224254  98.4980349
  60.7880085  78.1070381  98.0144389  61.3182580  77.8693474  99.4123727
  53.1948709  67.1578607 102.2022350  53.2332809  66.6242197 102.9959468
  52.6889002  66.6313812 101.5833327  65.5974979  79.6567997 105.0963007
  66.1493287  79.8199619 105.8612092  65.9381172  80.2472435 104.4243032
  60.5739472  62.0043147 105.6984892  60.6380798  62.8657978 105.2862290
  60.5106592  61.3917149 104.9657250  60.0491744  64.0766280 109.3457926
  60.6763783  63.6943357 109.9595451  59.1919663  63.8580482 109.7113619
  70.4485853  74.4829255 110.9511662  70.9925757  75.0959213 110.4566616
  69.8672698  75.0408833 111.4678675  56.8257287  65.8842709  95.2776281
  57.1210728  64.9753387  95.2243335  55.9245323  65.8630448  94.9557283
  68.7343366  77.6049973 102.0826689  68.6094505  76.8039713 101.5737635
  69.3922457  78.0996166 101.5940659  60.3551534  63.9598705 101.2603830
  59.6338120  64.5734673 101.1211303  61.1444790  64.4956470 101.1820476
  70.7978274  75.4058993 103.7106239  69.8508610  75.2864344 103.6384566
  71.1461047  74.5181491 103.7932501  63.1577848  61.2953132 107.5344481
  63.6812249  61.5415428 108.2970791  62.9390181  62.1273167 107.1147619
  58.5545129  63.5656806  95.4015606  58.2257835  62.6854185  95.2190712
  58.9084499  63.5104475  96.2891995  67.8024707  75.2011709  99.9110592
  67.6549670  74.2728417 100.0918162  68.6278201  75.2231800  99.4267667
  61.6686952  63.8529776  95.7691084  62.0083024  64.3815698  95.0469692
  62.1159072  64.1910182  96.5449650  71.4058829  76.0240268 100.9975464
  72.3305377  75.8183129 100.8599916  71.2374133  75.7756669 101.9064806
  64.3630393  62.2366827 105.2194152  64.0227213  61.4374640 105.6214832
  63.6569399  62.5368538 104.6470985  65.0146864  59.3216139 103.6721475
  65.8372934  58.8476618 103.5500365  65.2584928  60.1006623 104.1720161
  63.6555099  62.3504398  93.9684377  64.3763461  62.7285651  93.4648093
  63.0320403  63.0693275  94.0719355  67.7986222  63.0549547  94.9042709
  68.0149836  63.9374185  94.6031537  67.3180289  62.6635760  94.1748351
  62.5385443  66.0135260 101.4813454  62.3930024  66.3275563 102.3737735
  62.0610647  66.6320160 100.9284352  64.3981826  63.0037808 101.5294343
  64.3843395  62.1078901 101.1926641  65.1154254  63.0108472 102.1632629
  66.2507957  63.4375148 103.5747471  65.9925735  64.3592219 103.5731801
  65.7192997  63.0405583 104.2647935  71.1954146  76.5425935  96.3537556
  71.3691023  75.9772358  95.6011408  71.6883037  77.3426830  96.1717046
  57.0131105  68.5540604 104.4201115  56.4684573  69.3300412 104.5521389
  57.8910455  68.9011409 104.2620236  63.8018722  61.8852188  96.7981913
  63.9234633  60.9568834  96.9972801  63.5120764  61.8990874  95.8860229
  66.6709912  59.5707099  99.9348633  66.6931609  59.6346432  98.9800613
  67.0877971  58.7311607 100.1289139  77.0493537  69.3062358  97.9727856
  77.4924683  68.5569684  97.5746979  76.1720047  69.2972495  97.5901588
  72.1829318  75.8592700  93.4534454  72.8780223  76.4799392  93.6721769
  72.5252468  75.0088051  93.7286832  57.7997127  67.6810501 107.3131272
  57.0578863  67.8293136 107.8995902  57.4789871  67.9418766 106.4498021
  74.0820741  73.3092405  94.9821785  74.6072065  73.6479678  94.2571105
  73.9943094  72.3739421  94.7984920  65.7440790  77.2226479 107.1111662
  66.0527916  76.9775626 107.9834361  66.5416272  77.4273117 106.6230532
  65.7661402  79.3764389  99.3417038  65.3266392  78.8840767 100.0349895
  66.5169519  78.8337356  99.1009113  58.2453741  75.5675929  99.3441666
  59.0711761  75.2679701  98.9640310  57.8947793  74.7983552  99.7931455
  63.2135274  74.9202398 101.4139340  62.5915283  74.2573103 101.1141568
  63.8840141  74.9463530 100.7312988  56.4462346  73.4862256 100.3030600
  55.6094254  73.0584430 100.1214601  56.4185991  73.6794699 101.2401391
  63.2859802  63.3984186 111.0071846  63.3347957  64.2746308 110.6249615
  63.8282316  62.8561579 110.4343489  73.7714647  73.9425309 110.2872983
  72.9810191  73.9249448 109.7477482  73.5348002  74.4813603 111.0422020
  73.8912522  70.7917775 107.6005711  73.9410527  70.6267783 108.5421234
  73.7826446  69.9245034 107.2103592  62.7748781  73.4706321  94.8897800
  62.9236901  74.1541785  94.2364473  63.5815224  73.4511411  95.4047256
  71.1816285  66.7748703 108.9165018  72.0826147  66.6355168 108.6249016
  71.2564259  66.9403158 109.8563196  65.5159090  64.1515558 107.7618205
  64.6462399  64.4449124 107.4900793  65.7518570  64.7356003 108.4825468
  75.3930719  73.2114717 107.8447733  75.1015527  73.5744697 108.6811194
  74.7802850  72.4981725 107.6661065  76.5926401  70.7767597 100.3650303
  77.4273293  71.2157401 100.5287864  76.7285530  70.3006250  99.5458549
  73.6417907  68.3347331 106.3127791  74.1172029  68.5274978 105.5046642
  72.7183473  68.3906517 106.0671175  60.5301414  69.4971499  95.8958869
  60.2847456  68.5933829  96.0939079  60.6997328  69.4988649  94.9538347
  68.2198124  60.3695175 105.2783625  68.7380068  61.1056202 104.9530113
  67.8653257  60.6759168 106.1130384  59.7997061  65.2299856  93.3945031
  59.1066306  65.3044211  92.7385067  59.5548813  64.4660200  93.9166548
  68.4710718  56.7895458 100.7984521  68.7512472  56.1218647 101.4244948
  69.2561325  56.9824553 100.2859185  66.2744186  75.9654451  92.3609548
  65.7018154  76.5844639  91.9080020  66.8476980  76.5153813  92.8949470
  72.3419576  65.2113092 104.5456097  73.2936999  65.3111189 104.5668321
  72.1723027  64.4191360 105.0554181  70.3633956  62.2968675 104.7315498
  69.7683888  62.5773687 104.0361986  70.0783652  62.7862576 105.5032239
  69.4941446  76.2491602  93.4918130  70.4272119  76.1837163  93.6951006
  69.4064659  77.0847868  93.0332663  72.1229463  75.5657472  90.4522078
  72.0443094  75.2317336  91.3457836  72.9439130  76.0579240  90.4513550
  74.8207654  68.4319211 103.6598396  74.7883974  67.4935212 103.8458080
  75.4308278  68.5103248 102.9264221  66.6590985  67.3015264  89.7025600
  67.6050090  67.1721472  89.7714018  66.2805230  66.5629926  90.1795028
  74.9702143  65.2230255 103.7056679  74.4541191  64.4388711 103.5186608
  75.8542091  64.8948971 103.8703199  72.6312870  58.9671270  99.6652492
  72.4337691  58.6586358 100.5495824  73.2412575  59.6932909  99.7950422
  80.6384204  69.4935218 102.8004433  81.3687592  69.2320506 103.3612136
  80.0291149  68.7563940 102.8406501  78.7199501  67.6343081 103.3978884
  77.9932665  67.4999046 102.7895376  78.3046788  67.9419909 104.2035602
  66.5429677  71.3533010 111.1626257  67.4632687  71.5311609 111.3566304
  66.5079261  70.4089056 111.0105957  64.8433902  65.2265241  89.6380486
  63.9365358  64.9298353  89.7143199  65.1209883  64.9295059  88.7714772
  55.7611842  66.5471604 100.0879532  55.4414627  65.6936912  99.7953906
  55.2145271  66.7620182 100.8437499  59.5391750  69.2634045 103.8049038
  59.7577760  70.1951153 103.8237072  59.9517524  68.9042019 104.5903842
  66.4595968  59.7702130  95.7924727  65.6496696  59.4249215  96.1679973
  67.1480385  59.4609674  96.3812338  68.3886516  58.8480177  97.4149023
  68.9417555  59.2675631  98.0739047  68.6256602  57.9215925  97.4571979
  64.4119615  64.8367251 113.1951787  64.3116342  65.7861608 113.1263878
  64.1941157  64.5085490 112.3227857  63.6132687  62.0852176  89.7792465
  64.4751851  62.4107074  90.0388282  63.7983031  61.2983672  89.2665531
  55.6300102  70.1674515 102.0572654  54.9363574  69.7528468 101.5442608
  56.3773093  70.2095052 101.4606072  71.7665323  60.9580702  96.9227688
  71.1863992  61.6165506  96.5405740  71.5001256  60.1358047  96.5115105
  70.2168890  60.3585760  99.1249008  70.7168668  60.4702295  98.3163327
  70.8604498  60.0546813  99.7649816  64.2750885  68.2664390 112.0116849
  63.7917967  69.0664750 112.2180738  64.3611824  68.2772334 111.0584293
  57.5436845  70.0992769  99.9338668  57.5207533  70.1980457  98.9820551
  57.8537482  70.9457920 100.2555835  60.2024223  72.1568924 104.0485283
  61.1567476  72.1252867 103.9815214  60.0036746  71.6959548 104.8635509
  60.7923605  70.7270040 106.6156080  61.6116494  71.2214119 106.6390918
  61.0660413  69.8102008 106.5873648  70.5490201  63.1180793  95.9784036
  69.6616056  63.4030443  95.7604231  70.9644190  62.9574556  95.1311313
  73.9004737  63.1427314  99.6938375  74.6765127  63.6323766  99.9662992
  73.1752872  63.5685368 100.1510245  76.3377296  63.8554933 100.7512316
  76.9321787  63.6150669 100.0405624  76.4103880  63.1362063 101.3785852
  58.5574452  77.6988544 101.0655481  58.4228920  76.9388945 100.4993479
  58.1406514  78.4229444 100.5984270  69.6933415  72.8825467  90.0732056
  70.3969265  73.0875470  90.6889712  68.9696063  73.4502229  90.3381139
  70.5231225  68.6335329  96.1934326  70.4666426  69.0903880  95.3541959
  71.0759567  67.8726013  96.0157169  74.3336031  64.4225060  97.0184446
  74.0772965  64.0221696  97.8492653  73.7088899  65.1368854  96.8934585
  78.6448369  67.1621134  99.5255737  78.0847927  67.2314323 100.2987299
  78.0391872  66.9862118  98.8055233  61.7143578  78.5957861 101.2773923
  61.5975962  79.5403293 101.1752614  60.8936024  78.2931422 101.6659723
  71.6020112  73.3207997  92.1230516  72.4365716  72.8889195  91.9407991
  71.4404455  73.1490010  93.0507410  71.2566004  69.8240110  93.4886855
  71.2014808  69.6584381  92.5475299  70.6312060  70.5316143  93.6449045
  56.0458519  65.0608174 107.3148278  56.6917383  64.5507128 107.8035503
  55.8375670  65.7976856 107.8891703  68.5711911  72.1289022 112.8140418
  69.4403071  72.3029674 112.4527053  68.0918663  72.9483439 112.6916147
  64.5662130  59.3248219  93.0672174  64.5540800  60.2690059  93.2240445
  65.4585552  59.1418364  92.7731635  62.7398092  79.2486123 104.4929852
  63.6425338  79.2809733 104.8096347  62.5135462  78.3186574 104.5076188
  64.4951694  78.0017109 101.1539930  63.5447325  78.0018971 101.0404303
  64.7984180  77.2549844 100.6375965  68.3814249  55.9190995  97.3218111
  67.6146645  55.3649482  97.4674793  68.7924954  55.9912864  98.1832262
  60.3856010  62.2075791 111.4123292  61.2487472  61.8512596 111.6226616
  59.8121421  61.8689686 112.0998696  80.2304387  83.8377648 102.2185693
  80.8682797  83.7184395 101.5149033  80.1125230  84.7858492 102.2773645
  77.0394093  83.7905076 102.1547217  76.7012605  83.6746140 101.2667752
  77.9083862  83.3896241 102.1348224  72.8980909  85.6440552  98.1444108
  72.3345774  85.5530489  97.3760396  72.7833304  84.8240457  98.6246601
  77.5213876  84.9439927 108.1133423  77.5102517  84.5492726 107.2413927
  77.6834516  84.2106000 108.7067194  70.4445341  87.1391744 100.9828329
  71.2366633  86.7982568 100.5674628  70.6841991  87.2486719 101.9030482
  78.4780468  89.3111520  93.4558573  77.8268448  89.8965600  93.0692587
  79.2724831  89.8417715  93.5153611  72.4036095  86.4000657  93.8545708
  73.1766971  85.8529644  93.7158583  72.7561494  87.2644906  94.0660169
  74.2421138  87.7277039 107.0612607  73.9511004  88.6322670 106.9459273
  74.8778122  87.7693567 107.7756677  75.1677344  85.1053888 103.6513967
  75.7640917  84.8809910 102.9370930  75.2252316  84.3638633 104.2539414
  74.7402373  82.5593323  91.4864158  74.9927894  82.0374844  90.7247621
  73.8026932  82.3959469  91.5890841  79.7845656  81.5629101  99.2938901
  80.5708745  81.1448525  98.9429318  80.0484360  82.4675194  99.4620549
  79.9555733  87.0001952  93.9927558  79.3201566  87.0736578  94.7048462
  79.6253139  87.5895551  93.3146637  85.1854083  81.5004335 100.1971879
  85.9179255  80.9303551 100.4309709  84.4293439  81.1125935 100.6378385
  74.4598662  84.4621429  93.6888533  74.3434920  83.7866332  94.3569617
  74.5700922  83.9753803  92.8720686  76.8030203  83.9231576  97.3935222
  76.4388410  83.3962197  98.1048143  77.6597318  83.5330045  97.2201707
  82.7079503  75.2125909 104.6566488  82.3762828  76.0821320 104.4327703
  82.1125117  74.8962193 105.3360518  76.4435690  78.9521476  92.3896570
  76.6110092  79.8201712  92.7567041  76.2532859  79.1148758  91.4657860
  79.2011023  87.4138455 104.0562401  78.9011746  88.3163494 103.9478208
  78.8562082  87.1470638 104.9083554  72.6523504  83.8652252 100.0899105
  71.7274001  83.7328466 100.2976797  72.9007917  84.6446471 100.5869047
  82.6008166  79.9320995 101.7359838  81.6925044  79.8636403 101.4418599
  82.5495762  80.4092940 102.5641663  76.4224910  81.4079133  93.3743237
  76.3024536  81.8536184  94.2128717  75.7277499  81.7564451  92.8156775
  70.0132315  83.5085525 100.9242894  70.1424696  83.7620004 101.8382306
  69.3329767  84.1013233 100.6047549  74.1831803  94.1782775  97.0233368
  74.1055832  95.1290600  97.1021849  73.5793446  93.8328648  97.6808295
  76.6749032  81.3510641 109.6794735  75.8982366  81.9104561 109.6697600
  77.3139595  81.8367424 110.2009605  84.4669813  78.1337433 103.5137712
  83.8244193  78.4269967 102.8677506  83.9624741  78.0190354 104.3190909
  82.1209977  81.8800607  94.2023571  83.0327833  82.1127993  94.0271269
  81.6119624  82.4637651  93.6398650  74.9295405  84.1596094 109.2412702
  75.6710089  84.6981138 108.9647526  74.2232390  84.7862383 109.3984254
  80.4050744  86.3025234 107.8384864  80.8134100  85.8607645 107.0939496
  79.6828006  85.7277862 108.0919057  76.7581814  81.2397841 105.2118421
  77.6043009  81.6637255 105.3553070  76.6980452  80.5831465 105.9056984
  80.7279559  86.8626425 101.5937153  80.0988421  87.0272139 100.8913220
  80.3405221  87.2768035 102.3648117  84.6068791  87.7980863  98.9481516
  83.9219829  88.1779764  98.3978550  84.6912640  88.4076190  99.6813464
  79.9081260  78.9002210 106.8699594  79.6642191  79.6544270 106.3333870
  80.1841190  79.2787557 107.7046841  81.8619722  85.4440822 105.5476860
  82.0736618  86.0872582 104.8711241  81.8149471  84.6103138 105.0798790
  79.4645951  78.0558643 102.4513432  78.6030430  78.3539896 102.7430170
  79.4908386  78.2729041 101.5194465  76.2807521  86.6000833  98.8587238
  76.7445866  86.8788536  98.0691860  76.0164319  85.6984278  98.6760328
  73.1731602  86.1472315 101.7967001  73.7432959  86.5759583 101.1584485
  73.7639714  85.8654899 102.4951187  75.2176407  82.7223985  95.6676803
  75.9200450  83.1745029  96.1350729  74.8857035  82.0807804  96.2956696
  73.6656768  81.3135742 110.0428012  73.0355429  81.9952023 110.2763409
  73.5592856  81.2018824 109.0981151  68.9601741  80.9807538 100.9693936
  68.1700795  81.2365067 100.4934047  69.4512988  81.7955876 101.0745977
  82.9765550  88.3212777 103.7199217  83.7982994  87.9192965 103.4381899
  82.9727953  88.2181011 104.6715333  70.9116486  81.3452117  97.9277413
  70.1147649  81.4570812  98.4460909  70.6842078  81.6838770  97.0618304
  76.7422154  87.8696821 105.8759928  76.8066586  88.3317228 106.7118100
  76.0333078  87.2394186 106.0042238  67.2439444  81.2338029 103.4008927
  67.4947482  82.1185038 103.6666503  67.7798992  81.0542630 102.6284019
  91.0671543  84.6651526 100.0684189  90.3135252  84.0958924  99.9128193
  91.2019085  84.6314190 101.0154823  76.4570171  89.5364928  95.7438908
  76.3215846  90.3816464  96.1723756  76.9979984  89.7384206  94.9804842
  72.9437511  75.6156508 112.4053263  72.5504457  75.0622706 113.0800908
  73.7603651  75.9267086 112.7959781  69.9099569  87.0540366  96.3166833
  70.4224089  87.8483616  96.4672398  70.5622282  86.3566657  96.2500435
  71.7194454  90.1706122  98.3989586  71.8961082  91.0924087  98.2110570
  72.5151287  89.8564542  98.8283966  75.8605472  77.0314387 109.9973520
  76.6015185  77.6321540 109.9177982  76.0923395  76.2892025 109.4391562
  71.0046810  82.2170754 108.2751750  70.8900325  81.3156012 108.5758848
  70.1491328  82.4634451 107.9236566  78.0838648  90.1588495 109.8739250
  77.6402502  89.3724873 109.5560155  78.7455861  90.3467645 109.2083141
  72.8425769  91.6884296 104.3999929  73.3933194  91.5601360 103.6276923
  72.0037245  91.9879185 104.0494821  80.1819886  90.4391295 107.9020651
  80.1638361  91.2600176 107.4100921  81.1039806  90.3145370 108.1270793
  76.6392940  87.9535424 108.7444160  77.1721277  87.1923712 108.5143468
  76.1107021  87.6609076 109.4868314  79.8062635  73.0595490 104.2737802
  79.4626904  73.9497132 104.1976912  80.1741598  72.8697148 103.4107387
  67.8748486  85.3829020  97.0926404  68.7123708  85.7926029  96.8760111
  68.0526753  84.4428463  97.0626598  79.7712918  83.0504101  92.7810237
  79.2559541  83.8208706  93.0198624  79.4990226  82.3769237  93.4043298
  77.3560029  77.8953802  97.8395475  76.5001625  77.5060652  97.6601114
  77.7686981  77.9745763  96.9795261  78.8859175  75.4300145 102.2387035
  78.3823971  75.3930280 101.4254840  79.1789782  76.3392888 102.2983691
  75.1302061  75.5138875 101.2453217  75.9955058  75.3181684 100.8859106
  75.1979570  75.2849227 102.1722573  84.7447192  85.8036456  94.7163410
  83.9676635  85.4647615  94.2718572  85.4238673  85.8089079  94.0418375
  79.5599221  80.9231193  94.6070018  79.2549356  81.2377342  95.4580161
  80.5129663  81.0012613  94.6497351  78.0045653  87.0821416  96.2562972
  77.4767014  86.3474176  95.9436209  77.5033155  87.8596093  96.0102940
  82.9838499  85.2770437 101.3730018  82.3262173  85.9669698 101.4610147
  83.7878898  85.6666869 101.7164004  72.7364380  77.7441083  98.6169583
  73.3108132  77.5216264  97.8842776  73.3235363  77.8129777  99.3698185
  81.7943958  83.6314810  99.4233960  82.3075839  84.2644802  99.9255670
  82.4445181  83.0316005  99.0577320  73.0633967  79.7745544  92.6365469
  72.2271280  80.1120230  92.9574743  72.9238737  79.6394524  91.6992606
  75.0387048  74.6182332  97.3444653  74.3851460  74.3031349  96.7201268
  74.9967522  73.9958072  98.0704476  76.1498253  84.9001627  89.2597945
  75.2425315  84.6690880  89.4589094  76.6469285  84.1039246  89.4471926
  79.0566332  93.6099134  92.1794631  78.3828031  93.9130831  92.7879589
  79.4432154  94.4128214  91.8300088  78.2724788  81.1064265 101.6692300
  77.3547350  81.3279212 101.5113988  78.6884932  81.1810576 100.8104008
  79.0559836  82.5055681  96.7994981  79.8031655  83.0177078  96.4902103
  79.3251426  82.1839734  97.6599374  77.3286486  85.0014222  93.7821935
  76.4197706  84.7173254  93.8794405  77.3581570  85.4213300  92.9225242
  82.5605754  88.6120811  97.5513103  82.1068081  87.7711721  97.6078293
  81.9299720  89.2482209  97.8887883  81.5038673  79.5412797  98.7813770
  80.7661430  79.0290183  99.1124013  81.7565447  79.1013179  97.9697047
  81.0038693  90.4497308  98.4862921  81.2961667  91.0102365  97.7675286
  81.5137314  90.7425869  99.2416080  81.6050301  72.3189049  99.3755539
  81.9109177  71.4586413  99.0881454  82.3302905  72.9106669  99.1754533
  67.8974657  82.7219736  97.7637137  67.6999057  82.1289096  97.0388204
  67.3421321  82.4171946  98.4813076  75.8771380  82.6142842  99.8831730
  75.9319990  81.6616679  99.8074207  75.0662582  82.7702281 100.3673029
  77.0262574  86.5422965  91.1210014  76.5882004  85.8258824  90.6615651
  77.7673015  86.7699080  90.5595105  73.8163740  81.2319902  97.6422109
  73.0031606  81.5314073  98.0487301  74.3122734  80.8375591  98.3596591
  75.9672318  91.2277659  99.5756374  75.9248497  91.4538505  98.6464906
  76.8835017  90.9941033  99.7242175  79.4137952  81.6961726 106.4737003
  79.7687340  81.9233200 107.3331469  80.0610083  82.0280103 105.8514258
  85.1435689  84.8180162  97.1786332  85.0053588  85.0081758  96.2507521
  84.7871908  85.5799545  97.6354383  73.3077815  78.8038257 103.2583344
  73.9477194  78.6627017 102.5606307  72.4755346  78.5172771 102.8821946
  85.1705069  86.8856689 102.1897604  85.6041575  86.7931978 103.0380658
  85.8836649  86.8614190 101.5517620  74.0838119  88.1040688  99.3718337
  74.8778717  87.6091008  99.1700912  73.3729811  87.5758551  99.0086042
  78.9032963  90.4858783 103.7230704  78.9569986  91.0549720 104.4908420
  78.0347745  90.6560668 103.3584741  70.3920882  82.2483770  95.4478089
  69.4618471  82.1868225  95.6648051  70.4878354  81.7259722  94.6514731
  70.3106431  78.7738582  98.0356331  70.5713249  79.6883916  97.9265491
  71.1323604  78.3063025  98.1852944  71.7831357  80.1876340 105.2055155
  72.4554410  79.9793702 104.5567804  70.9561143  79.9898426 104.7660388
  86.0320618  86.9280390 104.7230489  86.2256508  87.8326200 104.9689764
  85.9321236  86.4687809 105.5569074  77.6856929  76.8138281 107.2220816
  77.0384844  77.5128230 107.1285293  78.4557944  77.2474424 107.5897065
  81.0935727  87.0787133 110.2971370  80.9421233  86.8497684 109.3801453
  81.0840406  88.0357734 110.3102715  77.8621063  84.6519045 105.2817636
  78.7913123  84.8030205 105.1086603  77.4412093  84.7403066 104.4266283
  76.6609395  88.6769710 103.0516174  76.5220481  88.3088494 103.9242112
  75.8723991  89.1917349 102.8800131  77.2557547  93.7778806  94.3941710
  77.4309303  93.3066850  95.2087333  76.5690335  94.4044573  94.6222971
  78.2114610  88.0551313 100.4405011  77.8764443  88.0152083 101.3362661
  77.7118556  87.3896029  99.9675422  72.1858854  83.4618943 105.9657593
  72.0478652  82.7299181 106.5669132  73.0963778  83.3727843 105.6841780
  81.1473802  85.4007347  90.7142071  80.5302972  84.6754175  90.6175124
  80.6790290  86.1616707  90.3709145  74.8141155  83.1738902 105.4541272
  75.5240773  82.5332094 105.4127891  74.7710463  83.4251797 106.3767453
  82.8027933  90.1106255 108.3747851  82.7440480  89.4265475 107.7078434
  83.2047452  90.8525245 107.9228477  73.5270089  80.1604120 107.2736912
  72.9907446  79.7094858 107.9258508  72.9386797  80.2950029 106.5307376
  71.8218632  96.9268169 101.1681570  72.0615230  97.5586693 101.8460589
  70.9787829  96.5756209 101.4546930  72.9372348  79.6192771  89.8363375
  72.0601814  79.4981572  89.4725622  73.4130101  78.8278850  89.5842264
  82.8045341  88.0745839 106.6061831  81.9172119  87.7371761 106.7288230
  83.3743892  87.3428870 106.8430597  64.4574488  84.4069931  99.9304883
  65.1445528  84.0931661  99.3425898  64.3022616  85.3111296  99.6572134
  69.2609210  79.2960128 104.3589906  69.1767399  78.6885797 103.6240316
  68.4391916  79.7869146 104.3599403  76.3346494  92.7347292 103.5723074
  76.2616666  93.5402263 104.0842379  75.8923887  92.9339257 102.7471096
  76.1236274  91.9719062  97.0825896  75.3403796  92.5140742  97.1764120
  76.8229019  92.4893041  97.4820137  79.4332924  77.7813691  99.7260101
  79.9301623  77.0283653  99.4061172  78.6619905  77.8178008  99.1603311
  87.2862681  83.4854057 101.3678393  87.2752557  84.3678772 100.9972326
  86.4180061  83.1325607 101.1732930  78.7945178  92.6334126 105.7281233
  79.5073150  93.2681590 105.6557134  78.3035206  92.7297992 104.9121235
  80.5162705  86.5385378  97.2998525  79.5818983  86.6586841  97.1303229
  80.6939373  85.6357845  97.0358535  76.0167893  79.9231074  99.4531786
  75.6465680  79.3702114 100.1412691  76.5126985  79.3189208  98.9006786
  83.9035256  82.3802698  97.8348559  84.3695708  83.2130689  97.7608861
  84.3542756  81.9147679  98.5393817  73.8457091  90.3828569 106.5486804
  74.5466551  91.0165052 106.7016198  73.3752206  90.7243301 105.7882443
  81.9711487  88.7246519  94.8334711  82.2471331  88.6103113  95.7428585
  81.1015986  88.3264004  94.7946884  81.8751919  74.7483285 101.8739460
  80.9614998  74.9787511 102.0421667  82.3045020  74.8321729 102.7253493
  81.6458377  82.9373177 104.3739354  80.9929827  83.1849084 103.7191807
  82.0238757  82.1237315 104.0401831  78.6065551  92.9732870  98.4767524
  78.7887946  92.1554526  98.9395277  79.4298537  93.1900562  98.0392414
  78.9407716  91.9001055  95.7382573  79.4695483  91.3893509  95.1252735
  79.2035936  91.5843585  96.6028106  77.6945950  83.6792988 110.8605391
  77.0186587  83.5787117 111.5307766  78.5173584  83.5232201 111.3241388
  69.4424809  89.9164924 103.4817906  70.0278246  89.1708612 103.6145811
  69.2449648  90.2268881 104.3654570  72.2963464  92.9516172  98.4980349
  71.6273840  93.4362299  98.0144389  72.1576334  93.1985392  99.4123727
  64.0342464  82.4870524 102.2022350  64.0726563  81.9534115 102.9959468
  63.5282757  81.9605730 101.5833327  76.4368733  94.9859915 105.0963007
  76.9887041  95.1491537 105.8612092  76.7774926  95.5764353 104.4243032
  71.4133226  77.3335065 105.6984892  71.4774553  78.1949896 105.2862290
  71.3500346  76.7209066 104.9657250  70.8885499  79.4058197 109.3457926
  71.5157538  79.0235275 109.9595451  70.0313418  79.1872399 109.7113619
  67.6651042  81.2134626  95.2776281  67.9604483  80.3045305  95.2243335
  66.7639077  81.1922366  94.9557283  79.5737120  92.9341891 102.0826689
  79.4488260  92.1331630 101.5737635  80.2316211  93.4288084 101.5940659
  71.1945289  79.2890623 101.2603830  70.4731874  79.9026591 101.1211303
  71.9838544  79.8248388 101.1820476  81.6372029  90.7350911 103.7106239
  80.6902364  90.6156262 103.6384566  81.9854802  89.8473409 103.7932501
  73.9971602  76.6245050 107.5344481  74.5206004  76.8707346 108.2970791
  73.7783935  77.4565084 107.1147619  69.3938883  78.8948724  95.4015606
  69.0651589  78.0146103  95.2190712  69.7478254  78.8396393  96.2891995
  78.6418462  90.5303627  99.9110592  78.4943424  89.6020334 100.0918162
  79.4671955  90.5523718  99.4267667  72.5080706  79.1821694  95.7691084
  72.8476779  79.7107615  95.0469692  72.9552827  79.5202100  96.5449650
  82.2452584  91.3532186 100.9975464  83.1699131  91.1475047 100.8599916
  82.0767887  91.1048587 101.9064806  75.2024147  77.5658745 105.2194152
  74.8620967  76.7666558 105.6214832  74.4963153  77.8660456 104.6470985
  75.8540619  74.6508057 103.6721475  76.6766688  74.1768535 103.5500365
  76.0978682  75.4298541 104.1720161  74.4948853  77.6796316  93.9684377
  75.2157216  78.0577568  93.4648093  73.8714158  78.3985192  94.0719355
  78.6379976  78.3841464  94.9042709  78.8543591  79.2666102  94.6031537
  78.1574043  77.9927678  94.1748351  73.3779198  81.3427178 101.4813454
  73.2323778  81.6567481 102.3737735  72.9004401  81.9612078 100.9284352
  75.2375581  78.3329726 101.5294343  75.2237149  77.4370819 101.1926641
  75.9548009  78.3400389 102.1632629  77.0901711  78.7667066 103.5747471
  76.8319489  79.6884137 103.5731801  76.5586752  78.3697500 104.2647935
  82.0347900  91.8717853  96.3537556  82.2084778  91.3064276  95.6011408
  82.5276791  92.6718748  96.1717046  67.8524860  83.8832522 104.4201115
  67.3078328  84.6592330 104.5521389  68.7304210  84.2303327 104.2620236
  74.6412476  77.2144106  96.7981913  74.7628388  76.2860752  96.9972801
  74.3514519  77.2282792  95.8860229  77.5103667  74.8999016  99.9348633
  77.5325364  74.9638350  98.9800613  77.9271726  74.0603525 100.1289139
  87.8887291  84.6354276  97.9727856  88.3318437  83.8861601  97.5746979
  87.0113801  84.6264412  97.5901588  83.0223073  91.1884617  93.4534454
  83.7173977  91.8091310  93.6721769  83.3646223  90.3379969  93.7286832
  68.6390882  83.0102418 107.3131272  67.8972618  83.1585054 107.8995902
  68.3183626  83.2710684 106.4498021  84.9214496  88.6384323  94.9821785
  85.4465820  88.9771596  94.2571105  84.8336848  87.7031338  94.7984920
  76.5834544  92.5518397 107.1111662  76.8921671  92.3067543 107.9834361
  77.3810026  92.7565035 106.6230532  76.6055156  94.7056306  99.3417038
  76.1660147  94.2132685 100.0349895  77.3563273  94.1629274  99.1009113
  69.0847495  90.8967847  99.3441666  69.9105515  90.5971619  98.9640310
  68.7341547  90.1275470  99.7931455  74.0529029  90.2494315 101.4139340
  73.4309038  89.5865020 101.1141568  74.7233895  90.2755447 100.7312988
  67.2856100  88.8154174 100.3030600  66.4488009  88.3876348 100.1214601
  67.2579746  89.0086617 101.2401391  74.1253556  78.7276103 111.0071846
  74.1741711  79.6038226 110.6249615  74.6676070  78.1853496 110.4343489
  84.7306277  86.1209693 107.6005711  84.7804282  85.9559700 108.5421234
  84.6220200  85.2536952 107.2103592  73.6142535  88.7998239  94.8897800
  73.7630656  89.4833703  94.2364473  74.4208979  88.7803329  95.4047256
  82.0210039  82.1040621 108.9165018  82.9219902  81.9647086 108.6249016
  82.0958014  82.2695076 109.8563196  76.3552844  79.4807476 107.7618205
  75.4856154  79.7741042 107.4900793  76.5912325  80.0647921 108.4825468
  86.2324474  88.5406634 107.8447733  85.9409282  88.9036615 108.6811194
  85.6196605  87.8273643 107.6661065  87.4320156  86.1059514 100.3650303
  88.2667047  86.5449318 100.5287864  87.5679285  85.6298167  99.5458549
  84.4811662  83.6639249 106.3127791  84.9565783  83.8566895 105.5046642
  83.5577227  83.7198435 106.0671175  71.3695168  84.8263416  95.8958869
  71.1241210  83.9225746  96.0939079  71.5391083  84.8280567  94.9538347
  79.0591878  75.6987093 105.2783625  79.5773822  76.4348120 104.9530113
  78.7047011  76.0051086 106.1130384  70.6390816  80.5591774  93.3945031
  69.9460061  80.6336129  92.7385067  70.3942568  79.7952118  93.9166548
  79.3104472  72.1187375 100.7984521  79.5906226  71.4510564 101.4244948
  80.0955079  72.3116471 100.2859185  77.1137941  91.2946369  92.3609548
  76.5411908  91.9136556  91.9080020  77.6870735  91.8445731  92.8949470
  83.1813331  80.5405009 104.5456097  84.1330754  80.6403107 104.5668321
  83.0116781  79.7483278 105.0554181  81.2027710  77.6260592 104.7315498
  80.6077642  77.9065605 104.0361986  80.9177407  78.1154493 105.5032239
  80.3335201  91.5783519  93.4918130  81.2665874  91.5129081  93.6951006
  80.2458414  92.4139786  93.0332663  82.9623217  90.8949390  90.4522078
  82.8836849  90.5609253  91.3457836  83.7832884  91.3871158  90.4513550
  85.6601409  83.7611129 103.6598396  85.6277729  82.8227130 103.8458080
  86.2702032  83.8395166 102.9264221  77.4984739  82.6307182  89.7025600
  78.4443844  82.5013390  89.7714018  77.1198984  81.8921844  90.1795028
  85.8095897  80.5522172 103.7056679  85.2934946  79.7680629 103.5186608
  86.6935846  80.2240889 103.8703199  83.4706624  74.2963188  99.6652492
  83.2731445  73.9878276 100.5495824  84.0806330  75.0224827  99.7950422
  91.4777958  84.8227136 102.8004433  92.2081347  84.5612424 103.3612136
  90.8684904  84.0855858 102.8406501  89.5593256  82.9634998 103.3978884
  88.8326419  82.8290963 102.7895376  89.1440542  83.2711827 104.2035602
  77.3823432  86.6824928 111.1626257  78.3026441  86.8603527 111.3566304
  77.3473015  85.7380973 111.0105957  75.6827657  80.5557158  89.6380486
  74.7759112  80.2590271  89.7143199  75.9603638  80.2586976  88.7714772
  66.6005597  81.8763522 100.0879532  66.2808381  81.0228830  99.7953906
  66.0539025  82.0912100 100.8437499  70.3785505  84.5925963 103.8049038
  70.5971514  85.5243070 103.8237072  70.7911278  84.2333937 104.5903842
  77.2989722  75.0994048  95.7924727  76.4890451  74.7541133  96.1679973
  77.9874139  74.7901592  96.3812338  79.2280271  74.1772095  97.4149023
  79.7811309  74.5967548  98.0739047  79.4650357  73.2507843  97.4571979
  75.2513370  80.1659168 113.1951787  75.1510097  81.1153525 113.1263878
  75.0334912  79.8377407 112.3227857  74.4526441  77.4144093  89.7792465
  75.3145605  77.7398992  90.0388282  74.6376785  76.6275589  89.2665531
  66.4693857  85.4966433 102.0572654  65.7757328  85.0820386 101.5442608
  67.2166848  85.5386970 101.4606072  82.6059078  76.2872620  96.9227688
  82.0257747  76.9457424  96.5405740  82.3395010  75.4649965  96.5115105
  81.0562644  75.6877678  99.1249008  81.5562422  75.7994212  98.3163327
  81.6998252  75.3838730  99.7649816  75.1144640  83.5956307 112.0116849
  74.6311722  84.3956667 112.2180738  75.2005579  83.6064252 111.0584293
  68.3830600  85.4284687  99.9338668  68.3601288  85.5272374  98.9820551
  68.6931236  86.2749838 100.2555835  71.0417977  87.4860842 104.0485283
  71.9961231  87.4544784 103.9815214  70.8430501  87.0251466 104.8635509
  71.6317360  86.0561958 106.6156080  72.4510249  86.5506037 106.6390918
  71.9054167  85.1393926 106.5873648  81.3883956  78.4472710  95.9784036
  80.5009811  78.7322361  95.7604231  81.8037945  78.2866474  95.1311313
  84.7398492  78.4719231  99.6938375  85.5158882  78.9615684  99.9662992
  84.0146626  78.8977285 100.1510245  87.1771050  79.1846851 100.7512316
  87.7715541  78.9442586 100.0405624  87.2497634  78.4653981 101.3785852
  69.3968206  93.0280461 101.0655481  69.2622674  92.2680862 100.4993479
  68.9800268  93.7521361 100.5984270  80.5327169  88.2117385  90.0732056
  81.2363019  88.4167387  90.6889712  79.8089818  88.7794147  90.3381139
  81.3624979  83.9627246  96.1934326  81.3060181  84.4195798  95.3541959
  81.9153322  83.2017931  96.0157169  85.1729785  79.7516978  97.0184446
  84.9166720  79.3513614  97.8492653  84.5482653  80.4660772  96.8934585
  89.4842123  82.4913051  99.5255737  88.9241681  82.5606241 100.2987299
  88.8785627  82.3154036  98.8055233  72.5537332  93.9249778 101.2773923
  72.4369716  94.8695211 101.1752614  71.7329778  93.6223340 101.6659723
  82.4413867  88.6499914  92.1230516  83.2759471  88.2181113  91.9407991
  82.2798210  88.4781928  93.0507410  82.0959759  85.1532028  93.4886855
  82.0408563  84.9876299  92.5475299  81.4705814  85.8608060  93.6449045
  66.8852274  80.3900092 107.3148278  67.5311137  79.8799046 107.8035503
  66.6769425  81.1268774 107.8891703  75.4055884  74.6540137  93.0672174
  75.3934554  75.5981976  93.2240445  76.2979306  74.4710282  92.7731635
  73.5791846  94.5778040 104.4929852  74.4819093  94.6101651 104.8096347
  73.3529216  93.6478491 104.5076188  75.3345448  93.3309027 101.1539930
  74.3841079  93.3310889 101.0404303  75.6377934  92.5841761 100.6375965
  79.2208004  71.2482913  97.3218111  78.4540400  70.6941400  97.4674793
  79.6318709  71.3204782  98.1832262  71.2249765  77.5367709 111.4123292
  72.0881226  77.1804514 111.6226616  70.6515175  77.1981604 112.0998696
  83.7374664 100.9732470  98.1444108  83.1739529 100.8822407  97.3760396
  83.6227059 100.1532374  98.6246601  81.2839096 102.4683661 100.9828329
  82.0760388 102.1274486 100.5674628  81.5235746 102.5778636 101.9030482
  89.3174222 104.6403438  93.4558573  88.6662202 105.2257518  93.0692587
  90.1118585 105.1709632  93.5153611  83.2429850 101.7292575  93.8545708
  84.0160726 101.1821562  93.7158583  83.5955248 102.5936824  94.0660169
  85.5796127  97.8885241  91.4864158  85.8321648  97.3666762  90.7247621
  84.6420686  97.7251386  91.5890841  90.6239410  96.8921019  99.2938901
  91.4102499  96.4740442  98.9429318  90.8878115  97.7967111  99.4620549
  90.7949488 102.3293869  93.9927558  90.1595321 102.4028496  94.7048462
  90.4646894 102.9187468  93.3146637  85.2992416  99.7913347  93.6888533
  85.1828674  99.1158250  94.3569617  85.4094676  99.3045721  92.8720686
  87.6423957  99.2523494  97.3935222  87.2782164  98.7254115  98.1048143
  88.4991073  98.8621963  97.2201707  87.2829444  94.2813394  92.3896570
  87.4503846  95.1493630  92.7567041  87.0926613  94.4440675  91.4657860
  83.4917259  99.1944169 100.0899105  82.5667755  99.0620383 100.2976797
  83.7401672  99.9738389 100.5869047  87.2618665  96.7371051  93.3743237
  87.1418290  97.1828102  94.2128717  86.5671253  97.0856369  92.8156775
  80.8526070  98.8377443 100.9242894  80.9818451  99.0911922 101.8382306
  80.1723521  99.4305151 100.6047549  92.9603731  97.2092524  94.2023571
  93.8721587  97.4419911  94.0271269  92.4513378  97.7929568  93.6398650
  90.3039706  93.3850560 102.4513432  89.4424185  93.6831814 102.7430170
  90.3302140  93.6020959 101.5194465  87.1201275 101.9292751  98.8587238
  87.5839621 102.2080454  98.0691860  86.8558073 101.0276195  98.6760328
  86.0570161  98.0515903  95.6676803  86.7594205  98.5036947  96.1350729
  85.7250790  97.4099722  96.2956696  79.7995495  96.3099456 100.9693936
  79.0094549  96.5656984 100.4934047  80.2906743  97.1247794 101.0745977
  81.7510241  96.6744035  97.9277413  80.9541404  96.7862729  98.4460909
  81.5235833  97.0130687  97.0618304  78.0833198  96.5629946 103.4008927
  78.3341237  97.4476956 103.6666503  78.6192747  96.3834548 102.6284019
  87.2963926 104.8656846  95.7438908  87.1609601 105.7108381  96.1723756
  87.8373738 105.0676123  94.9804842  80.7493323 102.3832284  96.3166833
  81.2617844 103.1775534  96.4672398  81.4016036 101.6858574  96.2500435
  82.5588208 105.4998040  98.3989586  82.7354836 106.4216005  98.2110570
  83.3545042 105.1856459  98.8283966  90.6456389  88.3887408 104.2737802
  90.3020659  89.2789049 104.1976912  91.0135352  88.1989065 103.4107387
  78.7142240 100.7120938  97.0926404  79.5517462 101.1217946  96.8760111
  78.8920508  99.7720380  97.0626598  90.6106672  98.3796019  92.7810237
  90.0953296  99.1500623  93.0198624  90.3383981  97.7061155  93.4043298
  88.1953783  93.2245720  97.8395475  87.3395380  92.8352570  97.6601114
  88.6080735  93.3037680  96.9795261  89.7252930  90.7592063 102.2387035
  89.2217725  90.7222198 101.4254840  90.0183537  91.6684806 102.2983691
  85.9695816  90.8430793 101.2453217  86.8348813  90.6473601 100.8859106
  86.0373325  90.6141144 102.1722573  95.5840946 101.1328373  94.7163410
  94.8070389 100.7939533  94.2718572  96.2632427 101.1380997  94.0418375
  90.3992975  96.2523111  94.6070018  90.0943111  96.5669260  95.4580161
  91.3523417  96.3304531  94.6497351  88.8439407 102.4113334  96.2562972
  88.3160769 101.6766094  95.9436209  88.3426910 103.1888011  96.0102940
  83.5758135  93.0733000  98.6169583  84.1501887  92.8508182  97.8842776
  84.1629117  93.1421695  99.3698185  83.9027722  95.1037461  92.6365469
  83.0665034  95.4412148  92.9574743  83.7632492  94.9686441  91.6992606
  85.8780803  89.9474249  97.3444653  85.2245215  89.6323267  96.7201268
  85.8361277  89.3249990  98.0704476  86.9892007 100.2293544  89.2597945
  86.0819069  99.9982798  89.4589094  87.4863039  99.4331164  89.4471926
  89.8960086 108.9391052  92.1794631  89.2221785 109.2422748  92.7879589
  90.2825908 109.7420132  91.8300088  89.1118543  96.4356183 101.6692300
  88.1941104  96.6571130 101.5113988  89.5278687  96.5102493 100.8104008
  89.8953591  97.8347599  96.7994981  90.6425410  98.3468996  96.4902103
  90.1645180  97.5131651  97.6599374  88.1680241 100.3306139  93.7821935
  87.2591460 100.0465172  93.8794405  88.1975325 100.7505218  92.9225242
  92.3432428  94.8704715  98.7813770  91.6055185  94.3582101  99.1124013
  92.5959201  94.4305096  97.9697047  92.4444055  87.6480967  99.3755539
  92.7502932  86.7878330  99.0881454  93.1696660  88.2398587  99.1754533
  78.7368411  98.0511653  97.7637137  78.5392811  97.4581014  97.0388204
  78.1815075  97.7463864  98.4813076  86.7165135  97.9434760  99.8831730
  86.7713745  96.9908596  99.8074207  85.9056337  98.0994199 100.3673029
  87.8656329 101.8714883  91.1210014  87.4275759 101.1550742  90.6615651
  88.6066769 102.0990998  90.5595105  84.6557495  96.5611820  97.6422109
  83.8425360  96.8605990  98.0487301  85.1516489  96.1667508  98.3596591
  95.9829443 100.1472080  97.1786332  95.8447342 100.3373676  96.2507521
  95.6265662 100.9091463  97.6354383  84.1471570  94.1330175 103.2583344
  84.7870949  93.9918934 102.5606307  83.3149100  93.8464689 102.8821946
  84.9231873 103.4332606  99.3718337  85.7172472 102.9382926  99.1700912
  84.2123566 102.9050469  99.0086042  81.2314637  97.5775687  95.4478089
  80.3012225  97.5160143  95.6648051  81.3272109  97.0551640  94.6514731
  81.1500186  94.1030500  98.0356331  81.4107003  95.0175833  97.9265491
  81.9717358  93.6354943  98.1852944  82.6225111  95.5168257 105.2055155
  83.2948165  95.3085619 104.5567804  81.7954898  95.3190343 104.7660388
  88.0951301 109.1070724  94.3941710  88.2703057 108.6358767  95.2087333
  87.4084089 109.7336490  94.6222971  91.9867556 100.7299265  90.7142071
  91.3696727 100.0046093  90.6175124  91.5184045 101.4908625  90.3709145
  83.7766102  94.9484689  89.8363375  82.8995568  94.8273490  89.4725622
  84.2523855  94.1570767  89.5842264  75.2968242  99.7361849  99.9304883
  75.9839282  99.4223579  99.3425898  75.1416371 100.6403213  99.6572134
  80.1002964  94.6252045 104.3589906  80.0161153  94.0177715 103.6240316
  79.2785671  95.1161064 104.3599403  90.2726678  93.1105609  99.7260101
  90.7695378  92.3575571  99.4061172  89.5013660  93.1469925  99.1603311
  91.3556459 101.8677296  97.2998525  90.4212738 101.9878758  97.1303229
  91.5333127 100.9649763  97.0358535  86.8561647  95.2522992  99.4531786
  86.4859435  94.6994032 100.1412691  87.3520740  94.6481125  98.9006786
  94.7429010  97.7094615  97.8348559  95.2089463  98.5422607  97.7608861
  95.1936511  97.2439597  98.5393817  92.8105241 104.0538437  94.8334711
  93.0865085 103.9395031  95.7428585  91.9409740 103.6555921  94.7946884
  92.7145673  90.0775202 101.8739460  91.8008753  90.3079429 102.0421667
  93.1438775  90.1613646 102.7253493  89.7801471 107.2292972  95.7382573
  90.3089237 106.7185427  95.1252735  90.0429691 106.9135503  96.6028106
  74.8736218  97.8162442 102.2022350  74.9120318  97.2826033 102.9959468
  74.3676511  97.2897648 101.5833327  82.2526981  92.6626983 105.6984892
  82.3168307  93.5241813 105.2862290  82.1894101  92.0500984 104.9657250
  78.5044796  96.5426544  95.2776281  78.7998237  95.6337223  95.2243335
  77.6032832  96.5214284  94.9557283  82.0339043  94.6182541 101.2603830
  81.3125629  95.2318508 101.1211303  82.8232299  95.1540306 101.1820476
  80.2332638  94.2240642  95.4015606  79.9045344  93.3438021  95.2190712
  80.5872008  94.1688311  96.2891995  83.3474461  94.5113612  95.7691084
  83.6870533  95.0399533  95.0469692  83.7946581  94.8494018  96.5449650
  86.0417902  92.8950662 105.2194152  85.7014722  92.0958475 105.6214832
  85.3356908  93.1952373 104.6470985  86.6934373  89.9799975 103.6721475
  87.5160443  89.5060453 103.5500365  86.9372437  90.7590459 104.1720161
  85.3342608  93.0088233  93.9684377  86.0550970  93.3869486  93.4648093
  84.7107912  93.7277110  94.0719355  89.4773731  93.7133382  94.9042709
  89.6937345  94.5958020  94.6031537  88.9967798  93.3219596  94.1748351
  84.2172952  96.6719095 101.4813454  84.0717533  96.9859398 102.3737735
  83.7398156  97.2903996 100.9284352  86.0769335  93.6621643 101.5294343
  86.0630904  92.7662737 101.1926641  86.7941763  93.6692307 102.1632629
  87.9295466  94.0958984 103.5747471  87.6713244  95.0176054 103.5731801
  87.3980506  93.6989418 104.2647935  78.6918614  99.2124440 104.4201115
  78.1472082  99.9884248 104.5521389  79.5697964  99.5595244 104.2620236
  85.4806231  92.5436024  96.7981913  85.6022142  91.6152670  96.9972801
  85.1908273  92.5574710  95.8860229  88.3497421  90.2290934  99.9348633
  88.3719118  90.2930267  98.9800613  88.7665480  89.3895443 100.1289139
  93.8616827 106.5176535  93.4534454  94.5567732 107.1383228  93.6721769
  94.2039977 105.6671886  93.7286832  95.7608250 103.9676241  94.9821785
  96.2859574 104.3063513  94.2571105  95.6730603 103.0323256  94.7984920
  79.9241250 106.2259765  99.3441666  80.7499270 105.9263537  98.9640310
  79.5735302 105.4567387  99.7931455  78.1249855 104.1446091 100.3030600
  77.2881763 103.7168266 100.1214601  78.0973500 104.3378535 101.2401391
  84.4536290 104.1290156  94.8897800  84.6024410 104.8125621  94.2364473
  85.2602733 104.1095246  95.4047256  82.2088923 100.1555334  95.8958869
  81.9634965  99.2517664  96.0939079  82.3784837 100.1572484  94.9538347
  81.4784570  95.8883692  93.3945031  80.7853815  95.9628047  92.7385067
  81.2336322  95.1244035  93.9166548  90.1498227  87.4479293 100.7984521
  90.4299981  86.7802482 101.4244948  90.9348834  87.6408389 100.2859185
  87.9531695 106.6238287  92.3609548  87.3805663 107.2428474  91.9080020
  88.5264489 107.1737648  92.8949470  91.1728955 106.9075437  93.4918130
  92.1059628 106.8420999  93.6951006  91.0852168 107.7431704  93.0332663
  93.8016972 106.2241307  90.4522078  93.7230603 105.8901171  91.3457836
  94.6226639 106.7163075  90.4513550  88.3378494  97.9599100  89.7025600
  89.2837599  97.8305308  89.7714018  87.9592739  97.2213761  90.1795028
  94.3100378  89.6255106  99.6652492  94.1125200  89.3170194 100.5495824
  94.9200084  90.3516744  99.7950422  86.5221411  95.8849076  89.6380486
  85.6152866  95.5882189  89.7143199  86.7997392  95.5878894  88.7714772
  77.4399351  97.2055439 100.0879532  77.1202136  96.3520748  99.7953906
  76.8932780  97.4204017 100.8437499  88.1383477  90.4285966  95.7924727
  87.3284205  90.0833051  96.1679973  88.8267894  90.1193509  96.3812338
  90.0674025  89.5064012  97.4149023  90.6205064  89.9259466  98.0739047
  90.3044111  88.5799761  97.4571979  85.2920196  92.7436011  89.7792465
  86.1539360  93.0690909  90.0388282  85.4770540  91.9567507  89.2665531
  77.3087611 100.8258351 102.0572654  76.6151083 100.4112304 101.5442608
  78.0560602 100.8678887 101.4606072  93.4452832  91.6164538  96.9227688
  92.8651501  92.2749342  96.5405740  93.1788765  90.7941882  96.5115105
  91.8956399  91.0169595  99.1249008  92.3956177  91.1286130  98.3163327
  92.5392006  90.7130648  99.7649816  79.2224354 100.7576605  99.9338668
  79.1995042 100.8564292  98.9820551  79.5324991 101.6041755 100.2555835
  92.2277710  93.7764628  95.9784036  91.3403565  94.0614279  95.7604231
  92.6431699  93.6158391  95.1311313  95.5792246  93.8011149  99.6938375
  96.3552636  94.2907601  99.9662992  94.8540381  94.2269203 100.1510245
  91.3720924 103.5409303  90.0732056  92.0756774 103.7459305  90.6889712
  90.6483572 104.1086065  90.3381139  92.2018734  99.2919164  96.1934326
  92.1453935  99.7487715  95.3541959  92.7547076  98.5309849  96.0157169
  96.0123540  95.0808896  97.0184446  95.7560474  94.6805531  97.8492653
  95.3876408  95.7952690  96.8934585  93.2807621 103.9791832  92.1230516
  94.1153225 103.5473030  91.9407991  93.1191964 103.8073846  93.0507410
  92.9353513 100.4823945  93.4886855  92.8802317 100.3168217  92.5475299
  92.3099569 101.1899978  93.6449045  77.7246028  95.7192010 107.3148278
  78.3704892  95.2090964 107.8035503  77.5163179  96.4560691 107.8891703
  86.2449639  89.9832054  93.0672174  86.2328309  90.9273894  93.2240445
  87.1373061  89.8002200  92.7731635  90.0601758  86.5774831  97.3218111
  89.2934154  86.0233318  97.4674793  90.4712463  86.6496700  98.1832262
  94.7421476 110.4329379  92.6365469  93.9058789 110.7704066  92.9574743
  94.6026246 110.2978359  91.6992606  94.6159857 110.2776607  89.8363375
  93.7389323 110.1565407  89.4725622  95.0917610 109.4862685  89.5842264
  92.3178325 111.2175609  93.3945031  91.6247570 111.2919964  92.7385067
  92.0730077 110.4535953  93.9166548  97.3615166 111.2140994  89.6380486
  96.4546621 110.9174106  89.7143199  97.6391147 110.9170812  88.7714772
  96.1313950 108.0727929  89.7792465  96.9933114 108.3982827  90.0388282
  96.3164294 107.2859425  89.2665531  97.0843393 105.3123972  93.0672174
  97.0722063 106.2565812  93.2240445  97.9766815 105.1294117  92.7731635
  36.8729370  -0.4727900  88.9430999  37.5107780  -0.5921153  88.2394339
  36.7550213   0.4752943  89.0018952  29.5405892   1.3335004  84.8689415
  28.9770758   1.2424941  84.1005703  29.4258288   0.5134908  85.3491908
  35.1205451   5.0005972  80.1803880  34.4693431   5.5860052  79.7937894
  35.9149814   5.5312167  80.2398917  29.0461078   2.0895109  80.5791014
  29.8191954   1.5424096  80.4403890  29.3986477   2.9539358  80.7905476
  31.3827356  -1.7512225  78.2109464  31.6352877  -2.2730704  77.4492927
  30.4451915  -1.9146080  78.3136148  36.4270639  -2.7476447  86.0184207
  37.2133728  -3.1657023  85.6674624  36.6909343  -1.8430354  86.1865856
  36.5980716   2.6896404  80.7172864  35.9626549   2.7631030  81.4293769
  36.2678123   3.2790003  80.0391944  41.8279066  -2.8101213  86.9217186
  42.5604238  -3.3801997  87.1555015  41.0718422  -3.1979613  87.3623692
  31.1023645   0.1515881  80.4133839  30.9859903  -0.5239216  81.0814923
  31.2125905  -0.3351745  79.5965992  33.4455186  -0.3873972  84.1180528
  33.0813393  -0.9143351  84.8293450  34.3022302  -0.7775503  83.9447014
  33.0649894  -2.9026415  80.0988544  32.9449519  -2.4569364  80.9374024
  32.3702482  -2.5541097  79.5402082  30.8256786   9.8677227  83.7478675
  30.7480815  10.8185052  83.8267156  30.2218429   9.5223100  84.4053601
  38.7634960  -2.4304942  80.9268878  39.6752816  -2.1977555  80.7516575
  38.2544607  -1.8467897  80.3643956  37.3704542   2.5520877  88.3182459
  36.7413405   2.7166591  87.6158527  36.9830204   2.9662486  89.0893423
  41.2493774   3.4875315  85.6726823  40.5644812   3.8674216  85.1223856
  41.3337623   4.0970641  86.4058771  32.9232504   2.2895285  85.5832544
  33.3870850   2.5682988  84.7937167  32.6589302   1.3878730  85.4005635
  31.8601390  -1.5881563  82.3922109  32.5625433  -1.1360519  82.8596036
  31.5282019  -2.2297744  83.0202003  39.6190534   4.0107229  90.4444524
  40.4407977   3.6087416  90.1627206  39.6152936   3.9075463  91.3960640
  47.7096527   0.3545978  86.7929495  46.9560235  -0.2146624  86.6373500
  47.8444068   0.3208642  87.7400130  33.0995155   5.2259380  82.4684215
  32.9640829   6.0710916  82.8969063  33.6404967   5.4278658  81.7050149
  26.5524552   2.7434818  83.0412140  27.0649073   3.5378068  83.1917704
  27.2047265   2.0461108  82.9745741  28.3619437   5.8600574  85.1234893
  28.5386065   6.7818539  84.9355877  29.1576270   5.5458994  85.5529273
  29.4850752   7.3778748  91.1245235  30.0358177   7.2495811  90.3522229
  28.6462228   7.6773637  90.7740128  36.4137901  -1.2601447  79.5055543
  35.8984524  -0.4896842  79.7443931  36.1415209  -1.9336311  80.1288605
  41.3872175   1.4930908  81.4408717  40.6101618   1.1542067  80.9963879
  42.0663656   1.4983531  80.7663682  36.2024204  -3.3874355  81.3315324
  35.8974340  -3.0728206  82.1825468  37.1554646  -3.3092935  81.3742657
  34.6470636   2.7715868  82.9808278  34.1191998   2.0368628  82.6681516
  34.1458139   3.5490545  82.7348247  39.6263482   0.9664889  88.0975325
  38.9687156   1.6564150  88.1855453  40.4303881   1.3561321  88.4409311
  38.4368941  -0.6790738  86.1479266  38.9500823  -0.0460747  86.6500976
  39.0870165  -1.2789543  85.7822627  32.7923236   0.5896079  75.9843251
  31.8850298   0.3585332  76.1834400  33.2894268  -0.2066302  76.1717233
  35.6991315   9.2993586  78.9039938  35.0253014   9.6025283  79.5124895
  36.0857137  10.1022666  78.5545395  35.6984819  -1.8049867  83.5240287
  36.4456638  -1.2928470  83.2147409  35.9676409  -2.1265814  84.3844681
  33.9711470   0.6908674  80.5067242  33.0622689   0.4067706  80.6039711
  34.0006553   1.1107752  79.6470548  39.2030737   4.3015263  84.2758409
  38.7493064   3.4606173  84.3323600  38.5724704   4.9376661  84.6133189
  38.1463657  -4.7692751  85.5059077  37.4086413  -5.2815365  85.8369319
  38.3990430  -5.2092369  84.6942353  37.6463676   6.1391760  85.2108227
  37.9386651   6.6996817  84.4920593  38.1562297   6.4320321  85.9661386
  32.5196364  -1.6962706  86.6077037  32.5744973  -2.6488869  86.5319514
  31.7087566  -1.5403267  87.0918335  33.6687557   2.2317417  77.8455320
  33.2306987   1.5153276  77.3860957  34.4097998   2.4593532  77.2840412
  32.6097301   6.9172111  86.3001680  32.5673480   7.1432957  85.3710213
  33.5260000   6.6835485  86.4487482  41.7860672   0.5074614  83.9031639
  41.6478571   0.6976210  82.9752828  41.4296891   1.2693997  84.3599690
  41.8130052   2.5751141  88.9142910  42.2466558   2.4826430  89.7625964
  42.5261633   2.5508642  88.2762926  30.7263102   3.7935140  86.0963643
  31.5203701   3.2985460  85.8946218  30.0154795   3.2653003  85.7331349
  35.5457947   6.1753235  90.4476011  35.5994969   6.7444172  91.2153727
  34.6772728   6.3455120  90.0830048  42.6745601   2.6174842  91.4475796
  42.8681491   3.5220652  91.6935071  42.5746220   2.1582261  92.2814381
  33.3034378   4.3664162  89.7761480  33.1645464   3.9982946  90.6487418
  32.5148974   4.8811801  89.6045438  33.8982530   9.4673258  81.1187017
  34.0734286   8.9961301  81.9332640  33.2115318  10.0939024  81.3468278
  34.8539593   3.7445764  87.1650318  34.5189426   3.7046534  88.0607968
  34.3543539   3.0790480  86.6920728  37.7898785   1.0901799  77.4387378
  37.1727956   0.3648627  77.3420430  37.3215274   1.8511159  77.0954452
  28.4643616  12.6162621  87.8926877  28.7040214  13.2481145  88.5705896
  27.6212812  12.2650661  88.1792236  32.9771477   8.4241743  90.2968381
  32.9041649   9.2296715  90.8087686  32.5348870   8.6233709  89.4716402
  32.7661257   7.6613513  83.8071203  31.9828779   8.2035194  83.9009427
  33.4654002   8.1787493  84.2065444  43.9287665  -0.8251492  88.0923699
  43.9177541   0.0573224  87.7217633  43.0605044  -1.1779941  87.8978236
  35.4370161   8.3228577  92.4526540  36.1498133   8.9576042  92.3802441
  34.9460190   8.4192443  91.6366541  37.1587688   2.2279830  84.0243831
  36.2243967   2.3481293  83.8548536  37.3364356   1.3252297  83.7603841
  40.5460239  -1.9302851  84.5593865  41.0120691  -1.0974859  84.4854168
  40.9967740  -2.3957869  85.2639124  38.6136470   4.4140971  81.5580017
  38.8896314   4.2997565  82.4673892  37.7440969   4.0158456  81.5192191
  35.2490534   8.6627322  85.2012831  35.4312929   7.8448978  85.6640583
  36.0723520   8.8795014  84.7637721  35.5832700   7.5895507  82.4627880
  36.1120466   7.0787961  81.8498042  35.8460919   7.2738037  83.3273413
  28.9388448   8.6410623  85.2225656  28.2698823   9.1256751  84.7389696
  28.8001317   8.8879844  86.1369034  33.0793716  10.6754367  91.8208314
  33.6312024  10.8385988  92.5857399  33.4199910  11.2658805  91.1488339
  36.2162104   8.6236342  88.8071996  36.0913243   7.8226082  88.2982942
  36.8741195   9.1182536  88.3185966  38.2797012   6.4245363  90.4351546
  37.3327347   6.3050714  90.3629873  38.6279785   5.5367861  90.5177808
  35.2843445   6.2198079  86.6355898  35.1368408   5.2914786  86.8163468
  36.1096939   6.2418169  86.1512974  38.8877567   7.0426637  87.7220771
  39.8124115   6.8369499  87.5845222  38.7192870   6.7943039  88.6310113
  38.6772883   7.5612305  83.0782863  38.8509761   6.9958727  82.3256715
  39.1701775   8.3613200  82.8962353  44.5312274   0.3248728  84.6973162
  44.9743421  -0.4243947  84.2992286  43.6538785   0.3158864  84.3146894
  39.6648056   6.8779069  80.1779761  40.3598960   7.4985762  80.3967075
  40.0071206   6.0274421  80.4532139  41.5639479   4.3278775  81.7067092
  42.0890803   4.6666048  80.9816412  41.4761831   3.3925790  81.5230226
  33.2480140  10.3950758  86.0662345  32.8085130   9.9027137  86.7595202
  33.9988257   9.8523726  85.8254420  25.7272479   6.5862299  86.0686973
  26.5530499   6.2866071  85.6885616  25.3766531   5.8169921  86.5176762
  30.6954012   5.9388767  88.1384646  30.0734021   5.2759472  87.8386874
  31.3658879   5.9649899  87.4558294  30.2567519   4.4892691  81.6143107
  30.4055639   5.1728155  80.9609780  31.0633962   4.4697781  82.1292563
  44.0745139   1.7953966  87.0895610  44.9092031   2.2343770  87.2533170
  44.2104268   1.3192619  86.2703856  28.0120152   0.5157868  82.6204176
  27.7666194  -0.3879802  82.8184386  28.1816066   0.5175019  81.6783654
  33.7562924   6.9840821  79.0854854  33.1836891   7.6031008  78.6325326
  34.3295718   7.5340183  79.6194776  36.9760184   7.2677971  80.2163437
  37.9090857   7.2023533  80.4196312  36.8883397   8.1034238  79.7577969
  39.6048201   6.5843841  77.1767384  39.5261832   6.2503705  78.0703142
  40.4257867   7.0765609  77.1758857  42.3026392  -0.5494419  90.3843703
  42.2702712  -1.4878418  90.5703387  42.9127016  -0.4710382  89.6509528
  34.1409723  -1.6798366  76.4270907  35.0868827  -1.8092158  76.4959325
  33.7623968  -2.4183704  76.9040335  48.1202942   0.5121588  89.5249740
  48.8506330   0.2506876  90.0857443  47.5109887  -0.2249690  89.5651808
  46.2018239  -1.3470550  90.1224191  45.4751402  -1.4814585  89.5140682
  45.7865526  -1.0393721  90.9280909  39.2484061  -8.0232928  83.6472994
  38.6682730  -7.3648124  83.2651047  38.9819994  -8.8455584  83.2360412
  38.0308939  -5.8632838  82.7029343  37.1434794  -5.5783187  82.4849537
  38.4462928  -6.0239074  81.8556620  41.3823475  -5.8386317  86.4183682
  42.1583865  -5.3489864  86.6908299  40.6571609  -5.4128263  86.8755551
  43.8196034  -5.1258698  87.4757622  44.4140525  -5.3662962  86.7650931
  43.8922617  -5.8451567  88.1031159  26.0393189   8.7174913  87.7900787
  25.9047657   7.9575314  87.2238785  25.6225252   9.4415813  87.3229576
  37.1752152   3.9011837  76.7977363  37.8788003   4.1061839  77.4135018
  36.4514801   4.4688599  77.0626446  38.0049963  -0.3478302  82.9179633
  37.9485164   0.1090250  82.0787265  38.5578305  -1.1087617  82.7402476
  41.8154769  -4.5588570  83.7429752  41.5591703  -4.9591934  84.5737960
  41.1907637  -3.8444776  83.6179891  46.1267107  -1.8192497  86.2501044
  45.5666665  -1.7499307  87.0232606  45.5210610  -1.9951512  85.5300540
  29.1962315   9.6144230  88.0019230  29.0794700  10.5589663  87.8997920
  28.3754762   9.3117792  88.3905029  39.0838850   4.3394366  78.8475823
  39.9184454   3.9075565  78.6653297  38.9223193   4.1676380  79.7752717
  38.7384742   0.8426479  80.2132162  38.6833546   0.6770751  79.2720606
  38.1130797   1.5502512  80.3694352  30.2216829  10.2672492  91.2175158
  31.1244076  10.2996103  91.5341653  29.9954200   9.3372943  91.2321494
  31.9770431   9.0203479  87.8785237  31.0266063   9.0205340  87.7649609
  32.2802918   8.2736213  87.3621272  47.7123125  14.8564017  88.9430999
  48.3501535  14.7370765  88.2394339  47.5943968  15.8044861  89.0018952
  44.5212831  14.8091445  88.8792524  44.1831343  14.6932510  87.9913059
  45.3902599  14.4082610  88.8593530  40.3799647  16.6626922  84.8689415
  39.8164512  16.5716859  84.1005703  40.2652042  15.8426826  85.3491908
  45.0032614  15.9626297  94.8378730  44.9921255  15.5679095  93.9659233
  45.1653254  15.2292370  95.4312501  37.9264079  18.1578113  87.7073636
  38.7185371  17.8168938  87.2919935  38.1660729  18.2673088  88.6275789
  45.9599206  20.3297889  80.1803880  45.3087185  20.9151970  79.7937894
  46.7543568  20.8604084  80.2398917  39.8854833  17.4187027  80.5791014
  40.6585709  16.8716014  80.4403890  40.2380232  18.2831276  80.7905476
  41.7239875  18.7463409  93.7857914  41.4329741  19.6509040  93.6704580
  42.3596860  18.7879936  94.5001983  42.6496082  16.1240257  90.3759273
  43.2459655  15.8996280  89.6616236  42.7071054  15.3825003  90.9784721
  42.2221111  13.5779693  78.2109464  42.4746631  13.0561214  77.4492927
  41.2845670  13.4145838  78.3136148  47.2664393  12.5815471  86.0184207
  48.0527483  12.1634894  85.6674624  47.5303098  13.4861563  86.1865856
  47.4374471  18.0188321  80.7172864  46.8020304  18.0922948  81.4293769
  47.1071877  18.6081920  80.0391944  52.6672821  12.5190704  86.9217186
  53.3997993  11.9489921  87.1555015  51.9112176  12.1312305  87.3623692
  41.9417399  15.4807799  80.4133839  41.8253657  14.8052702  81.0814923
  42.0519659  14.9940173  79.5965992  44.2848940  14.9417946  84.1180528
  43.9207148  14.4148567  84.8293450  45.1416056  14.5516415  83.9447014
  50.1898241   6.2312278  91.3811795  49.8581566   7.1007689  91.1573010
  49.5943854   5.9148562  92.0605825  43.9254427   9.9707845  79.1141877
  44.0928830  10.8388082  79.4812348  43.7351596  10.1335127  78.1903166
  46.6829760  18.4324824  90.7807707  46.3830484  19.3349863  90.6723515
  46.3380820  18.1657008  91.6328860  40.1342242  14.8838621  86.8144412
  39.2092738  14.7514835  87.0222103  40.3826655  15.6632840  87.3114354
  50.0826904  10.9507365  88.4605145  49.1743782  10.8822773  88.1663906
  50.0314500  11.4279309  89.2886970  43.9043648  12.4265503  80.0988544
  43.7843273  12.8722554  80.9374024  43.2096237  12.7750821  79.5402082
  37.4951053  14.5271895  87.6488201  37.6243434  14.7806374  88.5627613
  36.8148504  15.1199603  87.3292856  41.6650540  25.1969145  83.7478675
  41.5874570  26.1476970  83.8267156  41.0612184  24.8515017  84.4053601
  44.1567770  12.3697010  96.4040042  43.3801104  12.9290930  96.3942907
  44.7958333  12.8553793  96.9254912  51.9488551   9.1523803  90.2383019
  51.3062931   9.4456336  89.5922813  51.4443479   9.0376723  91.0436215
  49.6028714  12.8986976  80.9268878  50.5146570  13.1314363  80.7516575
  49.0938361  13.4824020  80.3643956  42.4114142  15.1782463  95.9658009
  43.1528827  15.7167507  95.6892833  41.7051128  15.8048752  96.1229561
  47.8869482  17.3211604  94.5630170  48.2952838  16.8794014  93.8184803
  47.1646744  16.7464231  94.8164363  44.2400552  12.2584211  91.9363727
  45.0861747  12.6823624  92.0798376  44.1799190  11.6017835  92.6302290
  48.2098297  17.8812795  88.3182459  47.5807159  18.0458509  87.6158527
  47.8223959  18.2954404  89.0893423  52.0887529  18.8167232  85.6726823
  51.4038567  19.1966134  85.1223856  52.1731378  19.4262559  86.4058771
  47.3899997   9.9188579  93.5944901  47.1460929  10.6730640  93.0579177
  47.6659928  10.2973927  94.4292148  49.3438460  16.4627191  92.2722167
  49.5555355  17.1058951  91.5956548  49.2968208  15.6289508  91.8044097
  46.9464689   9.0745012  89.1758739  46.0849168   9.3726266  89.4675476
  46.9727124   9.2915411  88.2439771  43.7626259  17.6187203  85.5832544
  44.2264604  17.8974906  84.7937167  43.4983057  16.7170647  85.4005635
  40.6550340  17.1658684  88.5212308  41.2251697  17.5945953  87.8829792
  41.2458451  16.8841269  89.2196493  42.6995145  13.7410355  82.3922109
  43.4019188  14.1931399  82.8596036  42.3675773  13.0994174  83.0202003
  41.1475506  12.3322112  96.7673319  40.5174167  13.0138393  97.0008716
  41.0411594  12.2205193  95.8226457  36.4420479  11.9993908  87.6939243
  35.6519533  12.2551436  87.2179354  36.9331726  12.8142246  87.7991284
  50.4584288  19.3399147  90.4444524  51.2801732  18.9379334  90.1627206
  50.4546691  19.2367381  91.3960640  38.3935224  12.3638487  84.6522720
  37.5966387  12.4757181  85.1706215  38.1660816  12.7025139  83.7863610
  44.2240892  18.8883190  92.6005234  44.2885324  19.3503597  93.4363406
  43.5151815  18.2580555  92.7287544  34.7258182  12.2524398  90.1254234
  34.9766220  13.1371408  90.3911810  35.2617730  12.0729000  89.3529326
  58.5490281  15.6837895  86.7929495  57.7953990  15.1145293  86.6373500
  58.6837822  15.6500560  87.7400130  43.9388909  20.5551298  82.4684215
  43.8034584  21.4002833  82.8969063  44.4798722  20.7570575  81.7050149
  37.3918307  18.0726736  83.0412140  37.9042827  18.8669986  83.1917704
  38.0441019  17.3753026  82.9745741  39.2013191  21.1892492  85.1234893
  39.3779820  22.1110457  84.9355877  39.9970025  20.8750911  85.5529273
  43.3424210   8.0500757  96.7218826  44.0833923   8.6507910  96.6423289
  43.5742133   7.3078394  96.1636869  38.4865548  13.2357124  94.9997056
  38.3719063  12.3342381  95.3004155  37.6310066  13.4820821  94.6481873
  45.5657386  21.1774864  96.5984557  45.1221240  20.3911243  96.2805461
  46.2274599  21.3654015  95.9328448  40.3244507  22.7070666  91.1245235
  40.8751932  22.5787729  90.3522229  39.4855983  23.0065555  90.7740128
  47.6638624  21.4577664  94.6265958  47.6457099  22.2786545  94.1346227
  48.5858544  21.3331739  94.8516099  44.1211678  18.9721794  95.4689466
  44.6540015  18.2110082  95.2388774  43.5925759  18.6795445  96.2113621
  47.2881373   4.0781860  90.9983108  46.9445642   4.9683501  90.9222219
  47.6560335   3.8883517  90.1352693  35.3567223  16.4015390  83.8171710
  36.1942445  16.8112398  83.6005418  35.5345491  15.4614832  83.7871904
  47.2531655  14.0690471  79.5055543  46.7378279  14.8395075  79.7443931
  46.9808964  13.3955607  80.1288605  44.8378767   8.9140171  84.5640782
  43.9820363   8.5247022  84.3846420  45.2505718   8.9932132  83.7040567
  46.3677913   6.4486515  88.9632341  45.8642709   6.4116650  88.1500147
  46.6608520   7.3579257  89.0228998  42.6120799   6.5325244  87.9698523
  43.4773796   6.3368053  87.6104413  42.6798308   6.3035596  88.8967880
  52.2265930  16.8222825  81.4408717  51.4495372  16.4833985  80.9963879
  52.9057411  16.8275448  80.7663682  47.0417959  11.9417563  81.3315324
  46.7368094  12.2563712  82.1825468  47.9948401  12.0198983  81.3742657
  45.4864391  18.1007786  82.9808278  44.9585752  17.3660546  82.6681516
  44.9851893  18.8782462  82.7348247  50.4657237  16.2956807  88.0975325
  49.8080911  16.9856068  88.1855453  51.2697636  16.6853238  88.4409311
  40.2183118   8.7627452  85.3414890  40.7926870   8.5402634  84.6088083
  40.8054101   8.8316147  86.0943491  49.2762695  14.6501179  86.1479266
  49.7894577  15.2831171  86.6500976  49.9263919  14.0502375  85.7822627
  40.5452705  10.7931913  79.3610775  39.7090017  11.1306600  79.6820050
  40.4057475  10.6580893  78.4237912  42.5205786   5.6368701  84.0689959
  41.8670198   5.3217718  83.4446574  42.4786260   5.0144442  84.7949782
  43.6316991  15.9187996  75.9843251  42.7244052  15.6877250  76.1834400
  44.1288023  15.1225616  76.1717233  46.5385070  24.6285504  78.9039938
  45.8646768  24.9317200  79.5124895  46.9250892  25.4314584  78.5545395
  45.7543526  12.1250635  88.3937607  44.8366088  12.3465582  88.2359295
  46.1703670  12.1996945  87.5349314  46.5378574  13.5242050  83.5240287
  47.2850393  14.0363448  83.2147409  46.8070163  13.2026103  84.3844681
  44.8105224  16.0200591  80.5067242  43.9016443  15.7359624  80.6039711
  44.8400308  16.4399670  79.6470548  50.0424492  19.6307181  84.2758409
  49.5886819  18.7898091  84.3323600  49.4118458  20.2668579  84.6133189
  48.9857411  10.5599167  85.5059077  48.2480168  10.0476553  85.8369319
  49.2384185  10.1199548  84.6942353  48.4857431  21.4683677  85.2108227
  48.7780405  22.0288734  84.4920593  48.9956051  21.7612238  85.9661386
  49.0869038   3.3375419  86.1000846  49.3927915   2.4772782  85.8126761
  49.8121643   3.9293039  85.8999840  35.3793395  13.7406105  84.4882444
  35.1817794  13.1475466  83.7633510  34.8240058  13.4358315  85.2058383
  43.3590118  13.6329212  86.6077037  43.4138728  12.6803048  86.5319514
  42.5481320  13.7888651  87.0918335  44.5081312  17.5609335  77.8455320
  44.0700742  16.8445194  77.3860957  45.2491753  17.7885450  77.2840412
  41.2982478  12.2506272  84.3667416  40.4850344  12.5500442  84.7732608
  41.7941472  11.8561960  85.0841898  43.4491056  22.2464028  86.3001680
  43.4067235  22.4724875  85.3710213  44.3653755  22.0127403  86.4487482
  46.8956690  12.7148096  93.1982310  47.2506077  12.9419569  94.0576775
  47.5428821  13.0466473  92.5759565  52.6254427  15.8366532  83.9031639
  52.4872325  16.0268128  82.9752828  52.2690646  16.5985915  84.3599690
  40.7896553   9.8224627  89.9828651  41.4295932   9.6813386  89.2851614
  39.9574083   9.5359140  89.6067253  52.6523806  17.9043059  88.9142910
  53.0860313  17.8118348  89.7625964  53.3655387  17.8800559  88.2762926
  41.5656857  19.1227057  86.0963643  42.3597455  18.6277378  85.8946218
  40.8548549  18.5944921  85.7331349  46.3851701  21.5045153  90.4476011
  46.4388723  22.0736089  91.2153727  45.5166483  21.6747038  90.0830048
  37.8739620  13.2670139  82.1723396  36.9437208  13.2054595  82.3893358
  37.9697092  12.7446092  81.3760037  37.7925169   9.7924952  84.7601638
  38.0531987  10.7070285  84.6510798  38.6142342   9.3249395  84.9098250
  39.2650095  11.2062709  91.9300462  39.9373148  10.9980071  91.2813111
  38.4379881  11.0084795  91.4905694  53.5139356  17.9466760  91.4475796
  53.7075246  18.8512570  91.6935071  53.4139974  17.4874179  92.2814381
  45.1675667   7.8324650  93.9466123  44.5203582   8.5314600  93.8530599
  45.9376682   8.2660794  94.3142371  48.5754465  18.0973502  97.0216676
  48.4239971  17.8684054  96.1046760  48.5659144  19.0544104  97.0348021
  45.3439801  15.6705415  92.0062943  46.2731861  15.8216575  91.8331910
  44.9230831  15.7589436  91.1511589  44.1428133  19.6956079  89.7761480
  44.0039218  19.3274864  90.6487418  43.3542729  20.2103719  89.6045438
  44.7376285  24.7965176  81.1187017  44.9128040  24.3253219  81.9332640
  44.0509073  25.4230942  81.3468278  45.6933348  19.0737682  87.1650318
  45.3583180  19.0338452  88.0607968  45.1937294  18.4082398  86.6920728
  39.6677592  14.4805312  92.6902899  39.5297390  13.7485551  93.2914438
  40.5782515  14.3914212  92.4087087  48.6292540  16.4193716  77.4387378
  48.0121710  15.6940545  77.3420430  48.1609028  17.1803077  77.0954452
  42.2959893  14.1925272  92.1786579  43.0059511  13.5518464  92.1373197
  42.2529201  14.4438166  93.1012760  50.2846671  21.1292625  95.0993158
  50.2259217  20.4451845  94.4323741  50.6866190  21.8711615  94.6473784
  41.0088826  11.1790489  93.9982218  40.4726184  10.7281228  94.6503815
  40.4205535  11.3136398  93.2552683  39.3037370  27.9454539  87.8926877
  39.5433968  28.5773063  88.5705896  38.4606566  27.5942579  88.1792236
  40.4191085  10.6379141  76.5608682  39.5420552  10.5167942  76.1970929
  40.8948839   9.8465219  76.3087571  50.2864078  19.0932209  93.3307138
  49.3990857  18.7558131  93.4533537  50.8562630  18.3615240  93.5675903
  31.9393226  15.4256301  86.6550189  32.6264265  15.1118031  86.0671204
  31.7841354  16.3297665  86.3817441  36.7427948  10.3146497  91.0835213
  36.6586136   9.7072167  90.3485623  35.9210654  10.8055515  91.0844709
  43.8165232  23.7533661  90.2968381  43.7435403  24.5588633  90.8087686
  43.3742625  23.9525627  89.4716402  43.6055011  22.9905431  83.8071203
  42.8222533  23.5327111  83.9009427  44.3047757  23.5079411  84.2065444
  46.9151662   8.8000061  86.4505408  47.4120361   8.0470023  86.1306478
  46.1438643   8.8364377  85.8848617  54.7681419  14.5040426  88.0923699
  54.7571295  15.3865142  87.7217633  53.8998798  14.1511977  87.8978236
  46.2763915  23.6520495  92.4526540  46.9891888  24.2867960  92.3802441
  45.7853944  23.7484361  91.6366541  47.9981442  17.5571748  84.0243831
  47.0637721  17.6773210  83.8548536  48.1758111  16.6544215  83.7603841
  43.4986630  10.9417444  86.1777093  43.1284418  10.3888484  86.8657998
  43.9945723  10.3375577  85.6252093  51.3853994  13.3989067  84.5593865
  51.8514446  14.2317059  84.4854168  51.8361494  12.9334049  85.2639124
  41.3275829  21.4014939  93.2732110  42.0285288  22.0351422  93.4261505
  40.8570944  21.7429670  92.5127750  49.4530225  19.7432888  81.5580017
  49.7290069  19.6289483  82.4673892  48.5834723  19.3450373  81.5192191
  49.3570656   5.7669654  88.5984767  48.4433736   5.9973881  88.7666974
  49.7863758   5.8508098  89.4498799  49.1277115  13.9559546  91.0984661
  48.4748565  14.2035454  90.4437114  49.5057495  13.1423684  90.7647138
  46.0884289  23.9919239  85.2012831  46.2706683  23.1740895  85.6640583
  46.9117275  24.2086932  84.7637721  46.4226454  22.9187424  82.4627880
  46.9514221  22.4079879  81.8498042  46.6854674  22.6029955  83.3273413
  45.1764688  14.6979357  97.5850698  44.5005325  14.5973486  98.2553073
  45.9992322  14.5418571  98.0486695  36.9243547  20.9351294  90.2063213
  37.5096984  20.1894982  90.3391117  36.7268385  21.2455250  91.0899877
  39.7782202  23.9702541  85.2225656  39.1092577  24.4548669  84.7389696
  39.6395072  24.2171762  86.1369034  31.5161202  13.5056894  88.9267656
  31.5545301  12.9720485  89.7204774  31.0101495  12.9792099  88.3078633
  43.9187471  26.0046285  91.8208314  44.4705779  26.1677906  92.5857399
  44.2593664  26.5950722  91.1488339  38.8951964   8.3521434  92.4230199
  38.9593290   9.2136265  92.0107596  38.8319084   7.7395436  91.6902557
  48.7698345  20.8307542  97.6756968  49.3138249  21.4437500  97.1811923
  48.1885190  21.3887121  98.1923981  35.1469779  12.2320996  82.0021588
  35.4423220  11.3231674  81.9488641  34.2457815  12.2108735  81.6802590
  47.0555858  23.9528260  88.8071996  46.9306998  23.1518000  88.2982942
  47.7134949  24.4474453  88.3185966  38.6764026  10.3076993  87.9849136
  37.9550612  10.9212960  87.8456610  39.4657282  10.8434757  87.9065782
  49.1190766  21.7537280  90.4351546  48.1721102  21.6342631  90.3629873
  49.4673540  20.8659778  90.5177808  41.4790340   7.6431419  94.2589788
  42.0024742   7.8893716  95.0216097  41.2602673   8.4751454  93.8392925
  36.8757621   9.9135094  82.1260913  36.5470327   9.0332473  81.9436019
  37.2296992   9.8582762  83.0137302  46.1237200  21.5489996  86.6355898
  45.9762162  20.6206704  86.8163468  46.9490693  21.5710087  86.1512974
  39.9899444  10.2008063  82.4936391  40.3295517  10.7293985  81.7714999
  40.4371565  10.5388470  83.2694957  49.7271322  22.3718555  87.7220771
  50.6517869  22.1661416  87.5845222  49.5586625  22.1234956  88.6310113
  42.6842885   8.5845114  91.9439459  42.3439705   7.7852927  92.3460138
  41.9781891   8.8846825  91.3716292  43.3359357   5.6694427  90.3966782
  44.1585426   5.1954905  90.2745672  43.5797420   6.4484910  90.8965468
  41.9767591   8.6982685  80.6929683  42.6975954   9.0763938  80.1893400
  41.3532895   9.4171562  80.7964661  46.1198714   9.4027834  81.6288016
  46.3362328  10.2852472  81.3276844  45.6392781   9.0114047  80.8993658
  40.8597935  12.3613547  88.2058760  40.7142516  12.6753850  89.0983042
  40.3823139  12.9798448  87.6529659  42.7194318   9.3516095  88.2539650
  42.7055887   8.4557189  87.9171948  43.4366746   9.3586759  88.8877936
  44.5720449   9.7853435  90.2992777  44.3138227  10.7070506  90.2977108
  44.0405489   9.3883870  90.9893241  49.5166638  22.8904223  83.0782863
  49.6903515  22.3250645  82.3256715  50.0095529  23.6905117  82.8962353
  35.3343598  14.9018892  91.1446421  34.7897066  15.6778700  91.2766696
  36.2122947  15.2489696  90.9865543  42.1231214   8.2330476  83.5227220
  42.2447125   7.3047122  83.7218107  41.8333257   8.2469162  82.6105535
  44.9922405   5.9185386  86.6593940  45.0144101   5.9824719  85.7045919
  45.4090464   5.0789895  86.8534446  55.3706029  15.6540646  84.6973162
  55.8137175  14.9047971  84.2992286  54.4932539  15.6450782  84.3146894
  50.5041810  22.2070987  80.1779761  51.1992715  22.8277680  80.3967075
  50.8464960  21.3566338  80.4532139  36.1209619  14.0288788  94.0376578
  35.3791355  14.1771423  94.6241209  35.8002364  14.2897054  93.1743328
  52.4033233  19.6570693  81.7067092  52.9284557  19.9957965  80.9816412
  52.3155586  18.7217708  81.5230226  44.0653282  23.5704766  93.8356968
  44.3740409  23.3253913  94.7079668  44.8628764  23.7751405  93.3475838
  44.0873894  25.7242676  86.0662345  43.6478884  25.2319055  86.7595202
  44.8382011  25.1815643  85.8254420  36.5666233  21.9154217  86.0686973
  37.3924253  21.6157989  85.6885616  36.2160285  21.1461839  86.5176762
  41.5347766  21.2680685  88.1384646  40.9127776  20.6051390  87.8386874
  42.2052633  21.2941817  87.4558294  34.7674838  19.8340543  87.0275906
  33.9306746  19.4062717  86.8459908  34.7398484  20.0272986  87.9646698
  52.0927139  20.2903596  97.0118290  51.3022683  20.2727735  96.4722789
  51.8560494  20.8291890  97.7667326  52.2125015  17.1396063  94.3251018
  52.2623019  16.9746070  95.2666541  52.1038938  16.2723322  93.9348899
  41.0961273  19.8184608  81.6143107  41.2449394  20.5020073  80.9609780
  41.9027717  19.7989698  82.1292563  49.5028777  13.1226991  95.6410325
  50.4038640  12.9833455  95.3494323  49.5776751  13.2881445  96.5808502
  43.8371582  10.4993845  94.4863511  42.9674892  10.7927411  94.2146100
  44.0731063  11.0834290  95.2070775  53.7143211  19.5593004  94.5693040
  53.4228020  19.9222985  95.4056501  53.1015343  18.8460012  94.3906372
  54.9138894  17.1245884  87.0895610  55.7485785  17.5635688  87.2533170
  55.0498022  16.6484537  86.2703856  51.9630400  14.6825619  93.0373098
  52.4384521  14.8753265  92.2291949  51.0395965  14.7384805  92.7916481
  38.8513906  15.8449786  82.6204176  38.6059948  14.9412116  82.8184386
  39.0209821  15.8466936  81.6783654  46.5410616   6.7173462  92.0028932
  47.0592560   7.4534489  91.6775420  46.1865749   7.0237456  92.8375691
  38.1209554  11.5778143  80.1190337  37.4278799  11.6522498  79.4630373
  37.8761306  10.8138487  80.6411854  46.7923210   3.1373745  87.5229828
  47.0724964   2.4696934  88.1490255  47.5773817   3.3302840  87.0104492
  44.5956679  22.3132739  79.0854854  44.0230646  22.9322926  78.6325326
  45.1689472  22.8632100  79.6194776  50.6632069  11.5591379  91.2701403
  51.6149491  11.6589476  91.2913627  50.4935519  10.7669647  91.7799488
  48.6846448   8.6446962  91.4560804  48.0896380   8.9251975  90.7607293
  48.3996145   9.1340863  92.2277545  47.8153939  22.5969889  80.2163437
  48.7484612  22.5315450  80.4196312  47.7277151  23.4326156  79.7577969
  50.4441955  21.9135759  77.1767384  50.3655587  21.5795623  78.0703142
  51.2651622  22.4057527  77.1758857  53.1420146  14.7797498  90.3843703
  53.1096466  13.8413499  90.5703387  53.7520770  14.8581535  89.6509528
  44.9803477  13.6493551  76.4270907  45.9262582  13.5199760  76.4959325
  44.6017722  12.9108213  76.9040335  53.2914635  11.5708542  90.4301986
  52.7753684  10.7866999  90.2431915  54.1754583  11.2427259  90.5948506
  50.9525362   5.3149557  86.3897799  50.7550183   5.0064646  87.2741131
  51.5625067   6.0411196  86.5195729  58.9596696  15.8413505  89.5249740
  59.6900085  15.5798793  90.0857443  58.3503642  15.1042227  89.5651808
  57.0411993  13.9821368  90.1224191  56.3145157  13.8477333  89.5140682
  56.6259280  14.2898197  90.9280909  44.8642170  17.7011298  97.8871564
  45.7845179  17.8789897  98.0811610  44.8291753  16.7567343  97.7351263
  43.1646394  11.5743528  76.3625792  42.2577850  11.2776641  76.4388506
  43.4422375  11.2773346  75.4960078  34.0824335  12.8949891  86.8124839
  33.7627119  12.0415199  86.5199213  33.5357763  13.1098469  87.5682806
  37.8604242  15.6112332  90.5294345  38.0790252  16.5429440  90.5482379
  38.2730016  15.2520307  91.3149149  44.7808460   6.1180418  82.5170033
  43.9709188   5.7727503  82.8925280  45.4692877   5.8087961  83.1057645
  46.7099008   5.1958464  84.1394330  47.2630047   5.6153918  84.7984353
  46.9469095   4.2694212  84.1817286  41.9345179   8.4330463  76.5037771
  42.7964343   8.7585361  76.7633589  42.1195523   7.6461959  75.9910837
  33.9512595  16.5152803  88.7817960  33.2576066  16.1006756  88.2687915
  34.6985586  16.5573339  88.1851379  50.0877815   7.3058990  83.6472994
  49.5076485   7.9643794  83.2651047  49.8213748   6.4836334  83.2360412
  48.5381382   6.7064047  85.8494315  49.0381160   6.8180582  85.0408634
  49.1816990   6.4025100  86.4895123  42.5963378  14.6142677  98.7362156
  42.1130459  15.4143037  98.9426045  42.6824317  14.6250622  97.7829600
  35.8649337  16.4471057  86.6583975  35.8420025  16.5458744  85.7065858
  36.1749974  17.2936207  86.9801141  38.5236715  18.5047212  90.7730589
  39.4779969  18.4731154  90.7060521  38.3249239  18.0437835  91.5880815
  39.1136097  17.0748328  93.3401387  39.9328986  17.5692406  93.3636224
  39.3872905  16.1580296  93.3118955  48.8702694   9.4659080  82.7029343
  47.9828549   9.7508731  82.4849537  49.2856683   9.3052843  81.8556620
  52.2217230   9.4905601  86.4183682  52.9977620   9.9802053  86.6908299
  51.4965364   9.9163655  86.8755551  54.6589788  10.2033220  87.4757622
  55.2534279   9.9628956  86.7650931  54.7316372   9.4840351  88.1031159
  36.8786944  24.0466831  87.7900787  36.7441412  23.2867232  87.2238785
  36.4619006  24.7707731  87.3229576  48.0145907  19.2303755  76.7977363
  48.7181757  19.4353757  77.4135018  47.2908556  19.7980516  77.0626446
  48.8443717  14.9813616  82.9179633  48.7878919  15.4382167  82.0787265
  49.3972060  14.2204300  82.7402476  52.6548523  10.7703348  83.7429752
  52.3985457  10.3699983  84.5737960  52.0301391  11.4847142  83.6179891
  56.9660861  13.5099421  86.2501044  56.4060419  13.5792610  87.0232606
  56.3604364  13.3340406  85.5300540  40.0356070  24.9436148  88.0019230
  39.9188454  25.8881581  87.8997920  39.2148516  24.6409710  88.3905029
  49.9232604  19.6686284  78.8475823  50.7578208  19.2367482  78.6653297
  49.7616947  19.4968297  79.7752717  49.5778497  16.1718397  80.2132162
  49.5227300  16.0062669  79.2720606  48.9524552  16.8794430  80.3694352
  34.3671012  11.4086461  94.0393584  35.0129875  10.8985415  94.5280809
  34.1588163  12.1455143  94.6137009  46.8924404  18.4767309  99.5385725
  47.7615563  18.6507961  99.1772360  46.4131155  19.2961726  99.4161454
  42.8874622   5.6726506  79.7917480  42.8753292   6.6168346  79.9485751
  43.7798044   5.4896651  79.4976942  41.0610584  25.5964410  91.2175158
  41.9637831  25.6288020  91.5341653  40.8347954  24.6664861  91.2321494
  42.8164186  24.3495396  87.8785237  41.8659817  24.3497258  87.7649609
  43.1196672  23.6028131  87.3621272  46.7026741   2.2669283  84.0463417
  45.9359137   1.7127769  84.1920100  47.1137446   2.3391151  84.9077569
  58.5516879  30.1855935  88.9430999  59.1895289  30.0662682  88.2394339
  58.4337722  31.1336779  89.0018952  55.3606586  30.1383363  88.8792524
  55.0225097  30.0224428  87.9913059  56.2296354  29.7374528  88.8593530
  51.2193401  31.9918839  84.8689415  50.6558267  31.9008776  84.1005703
  51.1045796  31.1718744  85.3491908  55.8426369  31.2918215  94.8378730
  55.8315010  30.8971013  93.9659233  56.0047008  30.5584287  95.4312501
  48.7657833  33.4870031  87.7073636  49.5579125  33.1460856  87.2919935
  49.0054484  33.5965006  88.6275789  56.7992960  35.6589807  80.1803880
  56.1480940  36.2443888  79.7937894  57.5937323  36.1896002  80.2398917
  50.7248587  32.7478944  80.5791014  51.4979463  32.2007931  80.4403890
  51.0773986  33.6123194  80.7905476  52.5633630  34.0755327  93.7857914
  52.2723496  34.9800957  93.6704580  53.1990614  34.1171854  94.5001983
  53.4889837  31.4532175  90.3759273  54.0853409  31.2288197  89.6616236
  53.5464808  30.7116921  90.9784721  53.0614865  28.9071610  78.2109464
  53.3140386  28.3853132  77.4492927  52.1239424  28.7437756  78.3136148
  58.1058148  27.9107389  86.0184207  58.8921237  27.4926812  85.6674624
  58.3696852  28.8153481  86.1865856  58.2768225  33.3480239  80.7172864
  57.6414058  33.4214866  81.4293769  57.9465632  33.9373838  80.0391944
  63.5066575  27.8482622  86.9217186  64.2391747  27.2781839  87.1555015
  62.7505931  27.4604222  87.3623692  52.7811154  30.8099716  80.4133839
  52.6647412  30.1344620  81.0814923  52.8913414  30.3232090  79.5965992
  55.1242695  30.2709863  84.1180528  54.7600902  29.7440484  84.8293450
  55.9809811  29.8808332  83.9447014  61.0291995  21.5604196  91.3811795
  60.6975320  22.4299607  91.1573010  60.4337609  21.2440480  92.0605825
  54.7648182  25.2999763  79.1141877  54.9322584  26.1680000  79.4812348
  54.5745351  25.4627045  78.1903166  57.5223515  33.7616742  90.7807707
  57.2224238  34.6641781  90.6723515  57.1774574  33.4948925  91.6328860
  50.9735996  30.2130539  86.8144412  50.0486493  30.0806753  87.0222103
  51.2220410  30.9924758  87.3114354  60.9220659  26.2799282  88.4605145
  60.0137536  26.2114691  88.1663906  60.8708255  26.7571227  89.2886970
  54.7437403  27.7557421  80.0988544  54.6237028  28.2014471  80.9374024
  54.0489991  28.1042738  79.5402082  48.3344807  29.8563812  87.6488201
  48.4637189  30.1098291  88.5627613  47.6542259  30.4491520  87.3292856
  52.5044295  40.5261062  83.7478675  52.4268324  41.4768887  83.8267156
  51.9005938  40.1806935  84.4053601  54.9961525  27.6988928  96.4040042
  54.2194859  28.2582848  96.3942907  55.6352088  28.1845711  96.9254912
  62.7882305  24.4815721  90.2383019  62.1456685  24.7748254  89.5922813
  62.2837234  24.3668641  91.0436215  60.4422469  28.2278894  80.9268878
  61.3540325  28.4606281  80.7516575  59.9332116  28.8115938  80.3643956
  53.2507897  30.5074381  95.9658009  53.9922581  31.0459425  95.6892833
  52.5444882  31.1340670  96.1229561  58.7263236  32.6503522  94.5630170
  59.1346593  32.2085932  93.8184803  58.0040498  32.0756149  94.8164363
  55.0794307  27.5876128  91.9363727  55.9255502  28.0115542  92.0798376
  55.0192944  26.9309753  92.6302290  59.0492051  33.2104712  88.3182459
  58.4200914  33.3750426  87.6158527  58.6617713  33.6246322  89.0893423
  62.9281283  34.1459150  85.6726823  62.2432321  34.5258051  85.1223856
  63.0125132  34.7554477  86.4058771  58.2293752  25.2480497  93.5944901
  57.9854684  26.0022557  93.0579177  58.5053682  25.6265844  94.4292148
  60.1832215  31.7919109  92.2722167  60.3949110  32.4350869  91.5956548
  60.1361963  30.9581426  91.8044097  57.7858444  24.4036930  89.1758739
  56.9242923  24.7018183  89.4675476  57.8120878  24.6207329  88.2439771
  54.6020013  32.9479120  85.5832544  55.0658359  33.2266823  84.7937167
  54.3376811  32.0462565  85.4005635  51.4944094  32.4950602  88.5212308
  52.0645451  32.9237870  87.8829792  52.0852206  32.2133187  89.2196493
  53.5388899  29.0702273  82.3922109  54.2412942  29.5223316  82.8596036
  53.2069528  28.4286092  83.0202003  51.9869261  27.6614029  96.7673319
  51.3567921  28.3430310  97.0008716  51.8805348  27.5497111  95.8226457
  47.2814233  27.3285825  87.6939243  46.4913287  27.5843354  87.2179354
  47.7725480  28.1434163  87.7991284  61.2978043  34.6691065  90.4444524
  62.1195486  34.2671252  90.1627206  61.2940445  34.5659299  91.3960640
  49.2328978  27.6930405  84.6522720  48.4360142  27.8049099  85.1706215
  49.0054571  28.0317057  83.7863610  55.0634646  34.2175108  92.6005234
  55.1279079  34.6795515  93.4363406  54.3545570  33.5872473  92.7287544
  45.5651936  27.5816316  90.1254234  45.8159974  28.4663326  90.3911810
  46.1011484  27.4020917  89.3529326  69.3884036  31.0129813  86.7929495
  68.6347744  30.4437211  86.6373500  69.5231577  30.9792478  87.7400130
  54.7782664  35.8843215  82.4684215  54.6428338  36.7294751  82.8969063
  55.3192476  36.0862493  81.7050149  51.2650003  21.9634795  99.1298570
  50.8716949  21.4100994  99.8046214  52.0816144  22.2745374  99.5205087
  48.2312061  33.4018653  83.0412140  48.7436582  34.1961904  83.1917704
  48.8834774  32.7044944  82.9745741  50.0406946  36.5184410  85.1234893
  50.2173574  37.4402374  84.9355877  50.8363779  36.2042829  85.5529273
  54.1817964  23.3792674  96.7218826  54.9227678  23.9799827  96.6423289
  54.4135887  22.6370312  96.1636869  49.3259302  28.5649042  94.9997056
  49.2112817  27.6634299  95.3004155  48.4703820  28.8112738  94.6481873
  56.4051140  36.5066782  96.5984557  55.9614994  35.7203160  96.2805461
  57.0668354  36.6945932  95.9328448  51.1638261  38.0362583  91.1245235
  51.7145686  37.9079647  90.3522229  50.3249737  38.3357472  90.7740128
  58.5032378  36.7869582  94.6265958  58.4850853  37.6078463  94.1346227
  59.4252298  36.6623657  94.8516099  54.9605432  34.3013711  95.4689466
  55.4933769  33.5401999  95.2388774  54.4319513  34.0087363  96.2113621
  58.1275127  19.4073777  90.9983108  57.7839397  20.2975419  90.9222219
  58.4954090  19.2175435  90.1352693  46.1960978  31.7307308  83.8171710
  47.0336200  32.1404316  83.6005418  46.3739246  30.7906750  83.7871904
  58.0925410  29.3982388  79.5055543  57.5772033  30.1686993  79.7443931
  57.8202718  28.7247524  80.1288605  55.6772521  24.2432089  84.5640782
  54.8214117  23.8538939  84.3846420  56.0899473  24.3224050  83.7040567
  57.2071668  21.7778432  88.9632341  56.7036463  21.7408568  88.1500147
  57.5002275  22.6871175  89.0228998  53.4514554  21.8617162  87.9698523
  54.3167550  21.6659971  87.6104413  53.5192062  21.6327514  88.8967880
  63.0659684  32.1514743  81.4408717  62.2889127  31.8125902  80.9963879
  63.7451165  32.1567366  80.7663682  57.8811713  27.2709480  81.3315324
  57.5761849  27.5855630  82.1825468  58.8342155  27.3490900  81.3742657
  56.3258145  33.4299704  82.9808278  55.7979507  32.6952463  82.6681516
  55.8245648  34.2074380  82.7348247  61.3050991  31.6248724  88.0975325
  60.6474665  32.3147986  88.1855453  62.1091390  32.0145156  88.4409311
  51.0576873  24.0919370  85.3414890  51.6320625  23.8694552  84.6088083
  51.6447855  24.1608065  86.0943491  60.1156450  29.9793097  86.1479266
  60.6288332  30.6123089  86.6500976  60.7657674  29.3794292  85.7822627
  51.3846460  26.1223831  79.3610775  50.5483772  26.4598518  79.6820050
  51.2451229  25.9872811  78.4237912  53.3599540  20.9660619  84.0689959
  52.7063953  20.6509636  83.4446574  53.3180014  20.3436359  84.7949782
  54.4710745  31.2479914  75.9843251  53.5637807  31.0169167  76.1834400
  54.9681777  30.4517533  76.1717233  57.3778824  39.9577421  78.9039938
  56.7040523  40.2609118  79.5124895  57.7644646  40.7606502  78.5545395
  56.5937281  27.4542552  88.3937607  55.6759842  27.6757499  88.2359295
  57.0097424  27.5288863  87.5349314  57.3772328  28.8533968  83.5240287
  58.1244147  29.3655365  83.2147409  57.6463918  28.5318021  84.3844681
  55.6498979  31.3492509  80.5067242  54.7410198  31.0651542  80.6039711
  55.6794062  31.7691587  79.6470548  60.8818246  34.9599098  84.2758409
  60.4280573  34.1190008  84.3323600  60.2512213  35.5960497  84.6133189
  59.8251166  25.8891084  85.5059077  59.0873922  25.3768471  85.8369319
  60.0777939  25.4491466  84.6942353  59.3251185  36.7975595  85.2108227
  59.6174160  37.3580652  84.4920593  59.8349806  37.0904156  85.9661386
  59.9262793  18.6667336  86.1000846  60.2321670  17.8064700  85.8126761
  60.6515398  19.2584957  85.8999840  46.2187149  29.0698023  84.4882444
  46.0211549  28.4767384  83.7633510  45.6633813  28.7650233  85.2058383
  54.1983873  28.9621129  86.6077037  54.2532482  28.0094966  86.5319514
  53.3875075  29.1180569  87.0918335  55.3475066  32.8901253  77.8455320
  54.9094496  32.1737111  77.3860957  56.0885507  33.1177367  77.2840412
  52.1376233  27.5798189  84.3667416  51.3244098  27.8792360  84.7732608
  52.6335227  27.1853878  85.0841898  54.2884810  37.5755946  86.3001680
  54.2460989  37.8016792  85.3710213  55.2047509  37.3419321  86.4487482
  57.7350444  28.0440014  93.1982310  58.0899832  28.2711487  94.0576775
  58.3822575  28.3758390  92.5759565  63.4648181  31.1658450  83.9031639
  63.3266080  31.3560046  82.9752828  63.1084400  31.9277832  84.3599690
  51.6290307  25.1516545  89.9828651  52.2689687  25.0105304  89.2851614
  50.7967838  24.8651058  89.6067253  63.4917561  33.2334977  88.9142910
  63.9254067  33.1410266  89.7625964  64.2049142  33.2092477  88.2762926
  52.4050611  34.4518975  86.0963643  53.1991210  33.9569295  85.8946218
  51.6942304  33.9236838  85.7331349  57.2245456  36.8337071  90.4476011
  57.2782478  37.4028007  91.2153727  56.3560237  37.0038956  90.0830048
  48.7133375  28.5962057  82.1723396  47.7830963  28.5346512  82.3893358
  48.8090847  28.0738010  81.3760037  48.6318924  25.1216870  84.7601638
  48.8925741  26.0362203  84.6510798  49.4536096  24.6541312  84.9098250
  50.1043849  26.5354627  91.9300462  50.7766903  26.3271989  91.2813111
  49.2773636  26.3376713  91.4905694  64.3533110  33.2758677  91.4475796
  64.5469000  34.1804488  91.6935071  64.2533729  32.8166096  92.2814381
  56.0069421  23.1616568  93.9466123  55.3597336  23.8606517  93.8530599
  56.7770437  23.5952712  94.3142371  59.4148219  33.4265420  97.0216676
  59.2633725  33.1975972  96.1046760  59.4052899  34.3836021  97.0348021
  56.1833555  30.9997333  92.0062943  57.1125615  31.1508492  91.8331910
  55.7624585  31.0881354  91.1511589  54.9821887  35.0247997  89.7761480
  54.8432973  34.6566782  90.6487418  54.1936483  35.5395637  89.6045438
  55.5770039  40.1257094  81.1187017  55.7521795  39.6545137  81.9332640
  54.8902827  40.7522860  81.3468278  56.5327102  34.4029600  87.1650318
  56.1976935  34.3630370  88.0607968  56.0331048  33.7374316  86.6920728
  50.5071346  29.8097230  92.6902899  50.3691144  29.0777469  93.2914438
  51.4176270  29.7206130  92.4087087  59.4686294  31.7485634  77.4387378
  58.8515465  31.0232462  77.3420430  59.0002782  32.5094994  77.0954452
  53.1353647  29.5217189  92.1786579  53.8453266  28.8810381  92.1373197
  53.0922955  29.7730084  93.1012760  61.1240426  36.4584543  95.0993158
  61.0652972  35.7743763  94.4323741  61.5259944  37.2003533  94.6473784
  51.8482581  26.5082407  93.9982218  51.3119938  26.0573146  94.6503815
  51.2599289  26.6428316  93.2552683  50.1431124  43.2746456  87.8926877
  50.3827723  43.9064981  88.5705896  49.3000321  42.9234496  88.1792236
  51.2584840  25.9671058  76.5608682  50.3814306  25.8459859  76.1970929
  51.7342593  25.1757137  76.3087571  61.1257833  34.4224126  93.3307138
  60.2384612  34.0850048  93.4533537  61.6956384  33.6907158  93.5675903
  42.7786980  30.7548218  86.6550189  43.4658020  30.4409948  86.0671204
  42.6235109  31.6589583  86.3817441  47.5821702  25.6438415  91.0835213
  47.4979891  25.0364084  90.3485623  46.7604409  26.1347433  91.0844709
  54.6558986  39.0825579  90.2968381  54.5829158  39.8880550  90.8087686
  54.2136379  39.2817545  89.4716402  54.4448766  38.3197349  83.8071203
  53.6616288  38.8619029  83.9009427  55.1441511  38.8371328  84.2065444
  57.7545416  24.1291978  86.4505408  58.2514116  23.3761941  86.1306478
  56.9832398  24.1656295  85.8848617  65.6075173  29.8332344  88.0923699
  65.5965050  30.7157059  87.7217633  64.7392553  29.4803895  87.8978236
  57.1157670  38.9812413  92.4526540  57.8285642  39.6159878  92.3802441
  56.6247699  39.0776279  91.6366541  58.8375197  32.8863666  84.0243831
  57.9031476  33.0065128  83.8548536  59.0151865  31.9836132  83.7603841
  54.3380385  26.2709361  86.1777093  53.9678172  25.7180402  86.8657998
  54.8339477  25.6667495  85.6252093  62.2247748  28.7280985  84.5593865
  62.6908200  29.5608976  84.4854168  62.6755249  28.2625966  85.2639124
  52.1669583  36.7306856  93.2732110  52.8679043  37.3643339  93.4261505
  51.6964698  37.0721588  92.5127750  60.2923979  35.0724806  81.5580017
  60.5683823  34.9581401  82.4673892  59.4228478  34.6742291  81.5192191
  60.1964411  21.0961572  88.5984767  59.2827491  21.3265799  88.7666974
  60.6257512  21.1800016  89.4498799  59.9670869  29.2851464  91.0984661
  59.3142320  29.5327371  90.4437114  60.3451249  28.4715602  90.7647138
  56.9278043  39.3211157  85.2012831  57.1100438  38.5032813  85.6640583
  57.7511029  39.5378849  84.7637721  57.2620209  38.2479342  82.4627880
  57.7907975  37.7371797  81.8498042  57.5248428  37.9321872  83.3273413
  56.0158442  30.0271275  97.5850698  55.3399079  29.9265404  98.2553073
  56.8386076  29.8710489  98.0486695  47.7637301  36.2643211  90.2063213
  48.3490738  35.5186899  90.3391117  47.5662140  36.5747168  91.0899877
  50.6175957  39.2994459  85.2225656  49.9486332  39.7840586  84.7389696
  50.4788826  39.5463679  86.1369034  42.3554956  28.8348812  88.9267656
  42.3939056  28.3012402  89.7204774  41.8495249  28.3084017  88.3078633
  54.7581225  41.3338202  91.8208314  55.3099533  41.4969824  92.5857399
  55.0987419  41.9242640  91.1488339  49.7345718  23.6813352  92.4230199
  49.7987045  24.5428183  92.0107596  49.6712839  23.0687354  91.6902557
  49.2097991  25.7536485  96.0703233  49.8370030  25.3713562  96.6840757
  48.3525910  25.5350687  96.4358925  59.6092100  36.1599460  97.6756968
  60.1532004  36.7729418  97.1811923  59.0278944  36.7179038  98.1923981
  45.9863534  27.5612914  82.0021588  46.2816975  26.6523592  81.9488641
  45.0851570  27.5400653  81.6802590  57.8949613  39.2820178  88.8071996
  57.7700752  38.4809918  88.2982942  58.5528704  39.7766371  88.3185966
  49.5157781  25.6368910  87.9849136  48.7944367  26.2504878  87.8456610
  50.3051037  26.1726675  87.9065782  59.9584521  37.0829198  90.4351546
  59.0114856  36.9634549  90.3629873  60.3067294  36.1951696  90.5177808
  52.3184094  22.9723337  94.2589788  52.8418496  23.2185633  95.0216097
  52.0996428  23.8043372  93.8392925  47.7151375  25.2427011  82.1260913
  47.3864082  24.3624390  81.9436019  48.0690746  25.1874680  83.0137302
  56.9630954  36.8781914  86.6355898  56.8155917  35.9498622  86.8163468
  57.7884448  36.9002005  86.1512974  50.8293199  25.5299981  82.4936391
  51.1689271  26.0585902  81.7714999  51.2765319  25.8680387  83.2694957
  60.5665076  37.7010473  87.7220771  61.4911624  37.4953334  87.5845222
  60.3980379  37.4526874  88.6310113  53.5236639  23.9137032  91.9439459
  53.1833460  23.1144845  92.3460138  52.8175646  24.2138743  91.3716292
  54.1753111  20.9986344  90.3966782  54.9979180  20.5246823  90.2745672
  54.4191175  21.7776828  90.8965468  52.8161346  24.0274603  80.6929683
  53.5369708  24.4055856  80.1893400  52.1926650  24.7463480  80.7964661
  56.9592469  24.7319752  81.6288016  57.1756083  25.6144390  81.3276844
  56.4786536  24.3405965  80.8993658  51.6991690  27.6905465  88.2058760
  51.5536271  28.0045768  89.0983042  51.2216894  28.3090365  87.6529659
  53.5588073  24.6808013  88.2539650  53.5449642  23.7849106  87.9171948
  54.2760501  24.6878677  88.8877936  55.4114204  25.1145353  90.2992777
  55.1531981  26.0362424  90.2977108  54.8799244  24.7175788  90.9893241
  60.3560392  38.2196140  83.0782863  60.5297270  37.6542563  82.3256715
  60.8489284  39.0197035  82.8962353  46.1737352  30.2310809  91.1446421
  45.6290820  31.0070617  91.2766696  47.0516702  30.5781614  90.9865543
  52.9624969  23.5622393  83.5227220  53.0840880  22.6339039  83.7218107
  52.6727011  23.5761079  82.6105535  55.8316159  21.2477304  86.6593940
  55.8537856  21.3116637  85.7045919  56.2484218  20.4081812  86.8534446
  66.2099783  30.9832563  84.6973162  66.6530929  30.2339888  84.2992286
  65.3326294  30.9742700  84.3146894  61.3435565  37.5362905  80.1779761
  62.0386469  38.1569597  80.3967075  61.6858715  36.6858256  80.4532139
  46.9603374  29.3580706  94.0376578  46.2185110  29.5063341  94.6241209
  46.6396118  29.6188971  93.1743328  63.2426988  34.9862610  81.7067092
  63.7678312  35.3249883  80.9816412  63.1549340  34.0509626  81.5230226
  54.9047037  38.8996684  93.8356968  55.2134163  38.6545831  94.7079668
  55.7022519  39.1043322  93.3475838  54.9267649  41.0534593  86.0662345
  54.4872639  40.5610972  86.7595202  55.6775766  40.5107561  85.8254420
  47.4059988  37.2446134  86.0686973  48.2318008  36.9449906  85.6885616
  47.0554040  36.4753757  86.5176762  52.3741521  36.5972603  88.1384646
  51.7521530  35.9343308  87.8386874  53.0446388  36.6233734  87.4558294
  45.6068593  35.1632461  87.0275906  44.7700501  34.7354635  86.8459908
  45.5792238  35.3564904  87.9646698  52.4466048  25.0754391  97.7317153
  52.4954204  25.9516513  97.3494922  52.9888562  24.5331784  97.1588796
  62.9320894  35.6195514  97.0118290  62.1416438  35.6019653  96.4722789
  62.6954249  36.1583808  97.7667326  63.0518769  32.4687980  94.3251018
  63.1016774  32.3037988  95.2666541  62.9432692  31.6015239  93.9348899
  51.9355028  35.1476526  81.6143107  52.0843148  35.8311990  80.9609780
  52.7421471  35.1281616  82.1292563  60.3422531  28.4518908  95.6410325
  61.2432394  28.3125373  95.3494323  60.4170506  28.6173363  96.5808502
  54.6765337  25.8285763  94.4863511  53.8068646  26.1219329  94.2146100
  54.9124817  26.4126208  95.2070775  64.5536966  34.8884922  94.5693040
  64.2621774  35.2514902  95.4056501  63.9409097  34.1751930  94.3906372
  65.7532648  32.4537802  87.0895610  66.5879540  32.8927606  87.2533170
  65.8891777  31.9776455  86.2703856  62.8024154  30.0117536  93.0373098
  63.2778276  30.2045183  92.2291949  61.8789719  30.0676722  92.7916481
  49.6907661  31.1741704  82.6204176  49.4453703  30.2704034  82.8184386
  49.8603575  31.1758854  81.6783654  57.3804371  22.0465380  92.0028932
  57.8986314  22.7826407  91.6775420  57.0259503  22.3529373  92.8375691
  48.9603308  26.9070061  80.1190337  48.2672553  26.9814416  79.4630373
  48.7155060  26.1430405  80.6411854  57.6316965  18.4665662  87.5229828
  57.9118719  17.7988852  88.1490255  58.4167572  18.6594758  87.0104492
  55.4350433  37.6424656  79.0854854  54.8624400  38.2614844  78.6325326
  56.0083227  38.1924018  79.6194776  61.5025823  26.8883296  91.2701403
  62.4543246  26.9881394  91.2913627  61.3329273  26.0961565  91.7799488
  59.5240203  23.9738880  91.4560804  58.9290135  24.2543892  90.7607293
  59.2389899  24.4632781  92.2277545  58.6547693  37.9261806  80.2163437
  59.5878366  37.8607368  80.4196312  58.5670906  38.7618073  79.7577969
  61.2835710  37.2427677  77.1767384  61.2049341  36.9087540  78.0703142
  62.1045376  37.7349445  77.1758857  63.9813901  30.1089416  90.3843703
  63.9490221  29.1705417  90.5703387  64.5914525  30.1873453  89.6509528
  55.8197232  28.9785469  76.4270907  56.7656336  28.8491677  76.4959325
  55.4411477  28.2400131  76.9040335  64.1308389  26.9000460  90.4301986
  63.6147438  26.1158916  90.2431915  65.0148338  26.5719176  90.5948506
  61.7919116  20.6441475  86.3897799  61.5943937  20.3356563  87.2741131
  62.4018822  21.3703114  86.5195729  69.7990451  31.1705423  89.5249740
  70.5293839  30.9090711  90.0857443  69.1897396  30.4334145  89.5651808
  67.8805748  29.3113286  90.1224191  67.1538911  29.1769251  89.5140682
  67.4653035  29.6190114  90.9280909  55.7035924  33.0303215  97.8871564
  56.6238934  33.2081814  98.0811610  55.6685507  32.0859261  97.7351263
  54.0040149  26.9035446  76.3625792  53.0971604  26.6068558  76.4388506
  54.2816130  26.6065264  75.4960078  44.9218089  28.2241809  86.8124839
  44.6020874  27.3707117  86.5199213  44.3751517  28.4390387  87.5682806
  48.6997997  30.9404250  90.5294345  48.9184007  31.8721358  90.5482379
  49.1123771  30.5812224  91.3149149  55.6202215  21.4472335  82.5170033
  54.8102943  21.1019420  82.8925280  56.3086632  21.1379879  83.1057645
  57.5492763  20.5250382  84.1394330  58.1023802  20.9445835  84.7984353
  57.7862849  19.5986130  84.1817286  53.5725862  26.5137456  99.9197094
  53.4722589  27.4631813  99.8509185  53.3547404  26.1855695  99.0473164
  52.7738934  23.7622381  76.5037771  53.6358098  24.0877279  76.7633589
  52.9589278  22.9753877  75.9910837  44.7906349  31.8444720  88.7817960
  44.0969821  31.4298673  88.2687915  45.5379340  31.8865257  88.1851379
  60.9271570  22.6350907  83.6472994  60.3470239  23.2935711  83.2651047
  60.6607503  21.8128252  83.2360412  59.3775136  22.0355965  85.8494315
  59.8774915  22.1472499  85.0408634  60.0210744  21.7317018  86.4895123
  53.4357132  29.9434595  98.7362156  52.9524214  30.7434955  98.9426045
  53.5218071  29.9542539  97.7829600  46.7043092  31.7762974  86.6583975
  46.6813780  31.8750661  85.7065858  47.0143728  32.6228125  86.9801141
  49.3630470  33.8339129  90.7730589  50.3173723  33.8023072  90.7060521
  49.1642993  33.3729753  91.5880815  49.9529852  32.4040245  93.3401387
  50.7722741  32.8984324  93.3636224  50.2266660  31.4872213  93.3118955
  59.7096448  24.7950998  82.7029343  58.8222303  25.0800648  82.4849537
  60.1250437  24.6344761  81.8556620  63.0610984  24.8197519  86.4183682
  63.8371374  25.3093971  86.6908299  62.3359118  25.2455573  86.8755551
  65.4983543  25.5325138  87.4757622  66.0928034  25.2920874  86.7650931
  65.5710126  24.8132268  88.1031159  47.7180698  39.3758749  87.7900787
  47.5835166  38.6159150  87.2238785  47.3012761  40.0999649  87.3229576
  58.8539661  34.5595672  76.7977363  59.5575512  34.7645675  77.4135018
  58.1302310  35.1272434  77.0626446  59.6837472  30.3105534  82.9179633
  59.6272673  30.7674085  82.0787265  60.2365814  29.5496218  82.7402476
  63.4942278  26.0995265  83.7429752  63.2379212  25.6991901  84.5737960
  62.8695146  26.8139059  83.6179891  67.8054616  28.8391339  86.2501044
  67.2454173  28.9084528  87.0232606  67.1998119  28.6632323  85.5300540
  50.8749824  40.2728066  88.0019230  50.7582208  41.2173498  87.8997920
  50.0542271  39.9701627  88.3905029  60.7626359  34.9978201  78.8475823
  61.5971963  34.5659400  78.6653297  60.6010702  34.8260215  79.7752717
  60.4172251  31.5010315  80.2132162  60.3621055  31.3354586  79.2720606
  59.7918306  32.2086348  80.3694352  45.2064766  26.7378379  94.0393584
  45.8523630  26.2277333  94.5280809  44.9981917  27.4747061  94.6137009
  57.7318158  33.8059227  99.5385725  58.6009318  33.9799879  99.1772360
  57.2524910  34.6253643  99.4161454  53.7268377  21.0018424  79.7917480
  53.7147046  21.9460264  79.9485751  54.6191798  20.8188569  79.4976942
  51.9004338  40.9256328  91.2175158  52.8031585  40.9579938  91.5341653
  51.6741709  39.9956779  91.2321494  53.6557940  39.6787314  87.8785237
  52.7053571  39.6789176  87.7649609  53.9590427  38.9320049  87.3621272
  57.5420496  17.5961200  84.0463417  56.7752892  17.0419687  84.1920100
  57.9531201  17.6683069  84.9077569  49.5462257  23.8845996  98.1368598
  50.4093719  23.5282801  98.3471923  48.9727668  23.5459891  98.8244003
  69.3910634  45.5147853  88.9430999  70.0289044  45.3954600  88.2394339
  69.2731477  46.4628697  89.0018952  66.2000340  45.4675281  88.8792524
  65.8618852  45.3516345  87.9913059  67.0690108  45.0666446  88.8593530
  62.0587156  47.3210757  84.8689415  61.4952021  47.2300694  84.1005703
  61.9439551  46.5010662  85.3491908  66.6820123  46.6210132  94.8378730
  66.6708764  46.2262931  93.9659233  66.8440763  45.8876205  95.4312501
  59.6051588  48.8161949  87.7073636  60.3972880  48.4752773  87.2919935
  59.8448238  48.9256924  88.6275789  67.6386715  50.9881725  80.1803880
  66.9874694  51.5735805  79.7937894  68.4331077  51.5187920  80.2398917
  61.5642342  48.0770862  80.5791014  62.3373218  47.5299849  80.4403890
  61.9167741  48.9415111  80.7905476  63.4027384  49.4047244  93.7857914
  63.1117250  50.3092875  93.6704580  64.0384369  49.4463772  94.5001983
  64.3283591  46.7824093  90.3759273  64.9247163  46.5580115  89.6616236
  64.3858563  46.0408838  90.9784721  63.9008620  44.2363528  78.2109464
  64.1534140  43.7145049  77.4492927  62.9633179  44.0729673  78.3136148
  68.9451902  43.2399306  86.0184207  69.7314992  42.8218730  85.6674624
  69.2090607  44.1445399  86.1865856  69.1161980  48.6772157  80.7172864
  68.4807813  48.7506783  81.4293769  68.7859386  49.2665756  80.0391944
  74.3460330  43.1774540  86.9217186  75.0785502  42.6073756  87.1555015
  73.5899685  42.7896140  87.3623692  63.6204908  46.1391634  80.4133839
  63.5041166  45.4636537  81.0814923  63.7307168  45.6524008  79.5965992
  65.9636449  45.6001781  84.1180528  65.5994657  45.0732402  84.8293450
  66.8203565  45.2100250  83.9447014  71.8685750  36.8896114  91.3811795
  71.5369075  37.7591525  91.1573010  71.2731363  36.5732398  92.0605825
  65.6041936  40.6291681  79.1141877  65.7716339  41.4971917  79.4812348
  65.4139105  40.7918962  78.1903166  68.3617269  49.0908660  90.7807707
  68.0617993  49.9933699  90.6723515  68.0168329  48.8240843  91.6328860
  61.8129751  45.5422457  86.8144412  60.8880247  45.4098671  87.0222103
  62.0614164  46.3216676  87.3114354  71.7614413  41.6091200  88.4605145
  70.8531291  41.5406608  88.1663906  71.7102009  42.0863145  89.2886970
  65.5831157  43.0849338  80.0988544  65.4630782  43.5306389  80.9374024
  64.8883746  43.4334656  79.5402082  59.1738562  45.1855730  87.6488201
  59.3030943  45.4390209  88.5627613  58.4936013  45.7783438  87.3292856
  63.3438049  55.8552980  83.7478675  63.2662079  56.8060805  83.8267156
  62.7399693  55.5098853  84.4053601  65.8355279  43.0280845  96.4040042
  65.0588613  43.5874766  96.3942907  66.4745842  43.5137628  96.9254912
  73.6276060  39.8107638  90.2383019  72.9850440  40.1040171  89.5922813
  73.1230988  39.6960559  91.0436215  71.2816223  43.5570811  80.9268878
  72.1934079  43.7898198  80.7516575  70.7725870  44.1407856  80.3643956
  64.0901651  45.8366299  95.9658009  64.8316336  46.3751343  95.6892833
  63.3838637  46.4632588  96.1229561  69.5656991  47.9795439  94.5630170
  69.9740347  47.5377850  93.8184803  68.8434252  47.4048067  94.8164363
  65.9188061  42.9168046  91.9363727  66.7649256  43.3407460  92.0798376
  65.8586699  42.2601670  92.6302290  69.8885806  48.5396630  88.3182459
  69.2594668  48.7042344  87.6158527  69.5011468  48.9538239  89.0893423
  73.7675038  49.4751068  85.6726823  73.0826076  49.8549969  85.1223856
  73.8518887  50.0846394  86.4058771  69.0687506  40.5772414  93.5944901
  68.8248438  41.3314475  93.0579177  69.3447437  40.9557762  94.4292148
  71.0225969  47.1211027  92.2722167  71.2342864  47.7642787  91.5956548
  70.9755717  46.2873343  91.8044097  68.6252198  39.7328847  89.1758739
  67.7636677  40.0310101  89.4675476  68.6514633  39.9499246  88.2439771
  65.4413768  48.2771038  85.5832544  65.9052113  48.5558741  84.7937167
  65.1770566  47.3754483  85.4005635  62.3337849  47.8242520  88.5212308
  62.9039206  48.2529788  87.8829792  62.9245960  47.5425104  89.2196493
  64.3782654  44.3994190  82.3922109  65.0806697  44.8515234  82.8596036
  64.0463282  43.7578009  83.0202003  62.8263015  42.9905947  96.7673319
  62.1961676  43.6722228  97.0008716  62.7199103  42.8789029  95.8226457
  58.1207988  42.6577743  87.6939243  57.3307042  42.9135272  87.2179354
  58.6119235  43.4726081  87.7991284  72.1371797  49.9982982  90.4444524
  72.9589241  49.5963169  90.1627206  72.1334200  49.8951216  91.3960640
  60.0722733  43.0222322  84.6522720  59.2753896  43.1341017  85.1706215
  59.8448325  43.3608975  83.7863610  65.9028401  49.5467026  92.6005234
  65.9672833  50.0087433  93.4363406  65.1939324  48.9164390  92.7287544
  56.4045691  42.9108233  90.1254234  56.6553729  43.7955243  90.3911810
  56.9405239  42.7312835  89.3529326  80.2277790  46.3421731  86.7929495
  79.4741499  45.7729129  86.6373500  80.3625331  46.3084395  87.7400130
  65.6176418  51.2135133  82.4684215  65.4822093  52.0586669  82.8969063
  66.1586231  51.4154411  81.7050149  62.1043758  37.2926713  99.1298570
  61.7110703  36.7392911  99.8046214  62.9209898  37.6037291  99.5205087
  59.0705816  48.7310571  83.0412140  59.5830336  49.5253821  83.1917704
  59.7228528  48.0336861  82.9745741  60.8800700  51.8476327  85.1234893
  61.0567329  52.7694292  84.9355877  61.6757534  51.5334747  85.5529273
  65.0211719  38.7084592  96.7218826  65.7621432  39.3091745  96.6423289
  65.2529642  37.9662230  96.1636869  60.1653057  43.8940959  94.9997056
  60.0506572  42.9926216  95.3004155  59.3097575  44.1404656  94.6481873
  67.2444895  51.8358700  96.5984557  66.8008749  51.0495078  96.2805461
  67.9062108  52.0237850  95.9328448  62.0032016  53.3654501  91.1245235
  62.5539441  53.2371564  90.3522229  61.1643492  53.6649390  90.7740128
  69.3426133  52.1161499  94.6265958  69.3244608  52.9370380  94.1346227
  70.2646053  51.9915575  94.8516099  65.7999187  49.6305629  95.4689466
  66.3327524  48.8693917  95.2388774  65.2713268  49.3379281  96.2113621
  68.9668882  34.7365695  90.9983108  68.6233151  35.6267337  90.9222219
  69.3347844  34.5467353  90.1352693  57.0354732  47.0599225  83.8171710
  57.8729954  47.4696234  83.6005418  57.2133000  46.1198668  83.7871904
  68.9319164  44.7274306  79.5055543  68.4165788  45.4978911  79.7443931
  68.6596473  44.0539442  80.1288605  66.5166276  39.5724007  84.5640782
  65.6607872  39.1830857  84.3846420  66.9293227  39.6515968  83.7040567
  68.0465422  37.1070350  88.9632341  67.5430218  37.0700485  88.1500147
  68.3396029  38.0163093  89.0228998  64.2908308  37.1909080  87.9698523
  65.1561305  36.9951888  87.6104413  64.3585817  36.9619432  88.8967880
  73.9053439  47.4806661  81.4408717  73.1282881  47.1417820  80.9963879
  74.5844920  47.4859284  80.7663682  68.7205468  42.6001398  81.3315324
  68.4155603  42.9147547  82.1825468  69.6735910  42.6782818  81.3742657
  67.1651899  48.7591621  82.9808278  66.6373261  48.0244381  82.6681516
  66.6639402  49.5366298  82.7348247  72.1444746  46.9540642  88.0975325
  71.4868420  47.6439903  88.1855453  72.9485145  47.3437074  88.4409311
  61.8970627  39.4211288  85.3414890  62.4714379  39.1986469  84.6088083
  62.4841610  39.4899982  86.0943491  70.9550204  45.3085015  86.1479266
  71.4682086  45.9415006  86.6500976  71.6051428  44.7086210  85.7822627
  62.2240214  41.4515749  79.3610775  61.3877526  41.7890435  79.6820050
  62.0844984  41.3164729  78.4237912  64.1993295  36.2952537  84.0689959
  63.5457707  35.9801554  83.4446574  64.1573769  35.6728277  84.7949782
  65.3104500  46.5771832  75.9843251  64.4031561  46.3461085  76.1834400
  65.8075532  45.7809451  76.1717233  68.2172579  55.2869339  78.9039938
  67.5434277  55.5901036  79.5124895  68.6038401  56.0898419  78.5545395
  67.4331035  42.7834470  88.3937607  66.5153597  43.0049417  88.2359295
  67.8491179  42.8580781  87.5349314  68.2166083  44.1825886  83.5240287
  68.9637902  44.6947283  83.2147409  68.4857672  43.8609939  84.3844681
  66.4892733  46.6784427  80.5067242  65.5803952  46.3943459  80.6039711
  66.5187817  47.0983505  79.6470548  71.7212001  50.2891016  84.2758409
  71.2674328  49.4481926  84.3323600  71.0905967  50.9252414  84.6133189
  70.6644920  41.2183002  85.5059077  69.9267677  40.7060388  85.8369319
  70.9171694  40.7783384  84.6942353  70.1644940  52.1267513  85.2108227
  70.4567914  52.6872570  84.4920593  70.6743560  52.4196074  85.9661386
  70.7656547  33.9959254  86.1000846  71.0715424  33.1356617  85.8126761
  71.4909152  34.5876874  85.8999840  57.0580903  44.3989941  84.4882444
  56.8605303  43.8059301  83.7633510  56.5027567  44.0942151  85.2058383
  65.0377627  44.2913047  86.6077037  65.0926237  43.3386884  86.5319514
  64.2268829  44.4472486  87.0918335  66.1868821  48.2193170  77.8455320
  65.7488251  47.5029029  77.3860957  66.9279262  48.4469285  77.2840412
  62.9769987  42.9090107  84.3667416  62.1637853  43.2084277  84.7732608
  63.4728981  42.5145796  85.0841898  65.1278565  52.9047864  86.3001680
  65.0854744  53.1308710  85.3710213  66.0441264  52.6711238  86.4487482
  68.5744199  43.3731931  93.1982310  68.9293586  43.6003404  94.0576775
  69.2216330  43.7050308  92.5759565  74.3041936  46.4950367  83.9031639
  74.1659834  46.6851963  82.9752828  73.9478155  47.2569750  84.3599690
  62.4684062  40.4808462  89.9828651  63.1083441  40.3397222  89.2851614
  61.6361592  40.1942976  89.6067253  74.3311315  48.5626894  88.9142910
  74.7647822  48.4702183  89.7625964  75.0442896  48.5384395  88.2762926
  63.2444366  49.7810893  86.0963643  64.0384964  49.2861213  85.8946218
  62.5336058  49.2528756  85.7331349  68.0639210  52.1628988  90.4476011
  68.1176232  52.7319925  91.2153727  67.1953992  52.3330873  90.0830048
  59.5527129  43.9253975  82.1723396  58.6224717  43.8638430  82.3893358
  59.6484601  43.4029927  81.3760037  59.4712678  40.4508787  84.7601638
  59.7319496  41.3654121  84.6510798  60.2929851  39.9833230  84.9098250
  60.9437604  41.8646545  91.9300462  61.6160657  41.6563907  91.2813111
  60.1167390  41.6668631  91.4905694  75.1926865  48.6050595  91.4475796
  75.3862755  49.5096405  91.6935071  75.0927483  48.1458014  92.2814381
  66.8463176  38.4908485  93.9466123  66.1991091  39.1898435  93.8530599
  67.6164191  38.9244629  94.3142371  70.2541974  48.7557338  97.0216676
  70.1027480  48.5267889  96.1046760  70.2446653  49.7127939  97.0348021
  67.0227310  46.3289250  92.0062943  67.9519370  46.4800410  91.8331910
  66.6018340  46.4173271  91.1511589  65.8215642  50.3539915  89.7761480
  65.6826727  49.9858699  90.6487418  65.0330238  50.8687554  89.6045438
  66.4163794  55.4549011  81.1187017  66.5915549  54.9837054  81.9332640
  65.7296582  56.0814777  81.3468278  67.3720857  49.7321518  87.1650318
  67.0370689  49.6922287  88.0607968  66.8724803  49.0666233  86.6920728
  61.3465101  45.1389148  92.6902899  61.2084899  44.4069386  93.2914438
  62.2570024  45.0498048  92.4087087  70.3080049  47.0777552  77.4387378
  69.6909219  46.3524380  77.3420430  69.8396537  47.8386912  77.0954452
  63.9747401  44.8509107  92.1786579  64.6847020  44.2102299  92.1373197
  63.9316710  45.1022002  93.1012760  71.9634180  51.7876460  95.0993158
  71.9046726  51.1035680  94.4323741  72.3653699  52.5295450  94.6473784
  62.6876335  41.8374325  93.9982218  62.1513692  41.3865063  94.6503815
  62.0993044  41.9720234  93.2552683  60.9824879  58.6038374  87.8926877
  61.2221477  59.2356898  88.5705896  60.1394075  58.2526414  88.1792236
  62.0978594  41.2962976  76.5608682  61.2208061  41.1751777  76.1970929
  62.5736347  40.5049054  76.3087571  71.9651587  49.7516044  93.3307138
  71.0778366  49.4141966  93.4533537  72.5350139  49.0199075  93.5675903
  53.6180735  46.0840136  86.6550189  54.3051774  45.7701866  86.0671204
  53.4628863  46.9881501  86.3817441  58.4215457  40.9730332  91.0835213
  58.3373645  40.3656002  90.3485623  57.5998163  41.4639351  91.0844709
  65.4952741  54.4117496  90.2968381  65.4222912  55.2172468  90.8087686
  65.0530134  54.6109462  89.4716402  65.2842520  53.6489267  83.8071203
  64.5010042  54.1910947  83.9009427  65.9835266  54.1663246  84.2065444
  68.5939171  39.4583896  86.4505408  69.0907870  38.7053858  86.1306478
  67.8226152  39.4948213  85.8848617  76.4468928  45.1624262  88.0923699
  76.4358804  46.0448977  87.7217633  75.5786307  44.8095812  87.8978236
  67.9551424  54.3104331  92.4526540  68.6679397  54.9451795  92.3802441
  67.4641453  54.4068197  91.6366541  69.6768951  48.2155583  84.0243831
  68.7425230  48.3357046  83.8548536  69.8545620  47.3128050  83.7603841
  65.1774139  41.6001279  86.1777093  64.8071927  41.0472319  86.8657998
  65.6733232  40.9959412  85.6252093  73.0641503  44.0572902  84.5593865
  73.5301955  44.8900894  84.4854168  73.5149003  43.5917884  85.2639124
  63.0063338  52.0598774  93.2732110  63.7072797  52.6935257  93.4261505
  62.5358453  52.4013506  92.5127750  71.1317734  50.4016724  81.5580017
  71.4077578  50.2873318  82.4673892  70.2622232  50.0034209  81.5192191
  71.0358165  36.4253489  88.5984767  70.1221245  36.6557716  88.7666974
  71.4651267  36.5091934  89.4498799  70.8064624  44.6143381  91.0984661
  70.1536074  44.8619289  90.4437114  71.1845004  43.8007520  90.7647138
  67.7671798  54.6503075  85.2012831  67.9494192  53.8324731  85.6640583
  68.5904784  54.8670767  84.7637721  68.1013963  53.5771260  82.4627880
  68.6301730  53.0663714  81.8498042  68.3642183  53.2613790  83.3273413
  66.8552197  45.3563192  97.5850698  66.1792834  45.2557322  98.2553073
  67.6779831  45.2002406  98.0486695  58.6031056  51.5935129  90.2063213
  59.1884493  50.8478817  90.3391117  58.4055894  51.9039086  91.0899877
  61.4569711  54.6286376  85.2225656  60.7880086  55.1132504  84.7389696
  61.3182581  54.8755597  86.1369034  53.1948711  44.1640729  88.9267656
  53.2332810  43.6304320  89.7204774  52.6889004  43.6375935  88.3078633
  65.5974980  56.6630120  91.8208314  66.1493288  56.8261741  92.5857399
  65.9381173  57.2534558  91.1488339  60.5739473  39.0105270  92.4230199
  60.6380799  39.8720101  92.0107596  60.5106593  38.3979271  91.6902557
  60.0491746  41.0828402  96.0703233  60.6763784  40.7005480  96.6840757
  59.1919664  40.8642604  96.4358925  70.4485854  51.4891377  97.6756968
  70.9925758  52.1021336  97.1811923  69.8672699  52.0470956  98.1923981
  56.8257288  42.8904831  82.0021588  57.1210729  41.9815510  81.9488641
  55.9245324  42.8692571  81.6802590  68.7343367  54.6112095  88.8071996
  68.6094506  53.8101835  88.2982942  69.3922458  55.1058289  88.3185966
  60.3551535  40.9660828  87.9849136  59.6338121  41.5796796  87.8456610
  61.1444791  41.5018593  87.9065782  70.7978275  52.4121116  90.4351546
  69.8508611  52.2926467  90.3629873  71.1461049  51.5243614  90.5177808
  63.1577849  38.3015254  94.2589788  63.6812251  38.5477551  95.0216097
  62.9390182  39.1335289  93.8392925  58.5545130  40.5718929  82.1260913
  58.2257836  39.6916308  81.9436019  58.9084501  40.5166598  83.0137302
  67.8024709  52.2073832  86.6355898  67.6549671  51.2790539  86.8163468
  68.6278202  52.2293922  86.1512974  61.6686953  40.8591899  82.4936391
  62.0083026  41.3877820  81.7714999  62.1159073  41.1972305  83.2694957
  71.4058831  53.0302390  87.7220771  72.3305378  52.8245252  87.5845222
  71.2374134  52.7818792  88.6310113  64.3630394  39.2428950  91.9439459
  64.0227214  38.4436763  92.3460138  63.6569400  39.5430660  91.3716292
  65.0146866  36.3278262  90.3966782  65.8372935  35.8538740  90.2745672
  65.2584929  37.1068746  90.8965468  63.6555100  39.3566520  80.6929683
  64.3763463  39.7347773  80.1893400  63.0320404  40.0755397  80.7964661
  67.7986223  40.0611669  81.6288016  68.0149837  40.9436307  81.3276844
  67.3180290  39.6697883  80.8993658  62.5385444  43.0197383  88.2058760
  62.3930025  43.3337686  89.0983042  62.0610648  43.6382283  87.6529659
  64.3981827  40.0099931  88.2539650  64.3843396  39.1141024  87.9171948
  65.1154255  40.0170594  88.8877936  66.2507958  40.4437271  90.2992777
  65.9925736  41.3654341  90.2977108  65.7192998  40.0467705  90.9893241
  57.0131107  45.5602727  91.1446421  56.4684575  46.3362535  91.2766696
  57.8910456  45.9073532  90.9865543  63.8018723  38.8914311  83.5227220
  63.9234634  37.9630957  83.7218107  63.5120766  38.9052997  82.6105535
  66.6709914  36.5769221  86.6593940  66.6931610  36.6408554  85.7045919
  67.0877973  35.7373730  86.8534446  77.0493538  46.3124481  84.6973162
  77.4924684  45.5631806  84.2992286  76.1720048  46.3034617  84.3146894
  72.1829319  52.8654822  80.1779761  72.8780224  53.4861515  80.3967075
  72.5252469  52.0150174  80.4532139  57.7997128  44.6872623  94.0376578
  57.0578864  44.8355259  94.6241209  57.4789873  44.9480889  93.1743328
  74.0820742  50.3154528  81.7067092  74.6072066  50.6541801  80.9816412
  73.9943095  49.3801543  81.5230226  65.7440791  54.2288602  93.8356968
  66.0527918  53.9837748  94.7079668  66.5416273  54.4335240  93.3475838
  65.7661403  56.3826511  86.0662345  65.3266393  55.8902890  86.7595202
  66.5169520  55.8399479  85.8254420  58.2453742  52.5738052  86.0686973
  59.0711762  52.2741824  85.6885616  57.8947794  51.8045674  86.5176762
  63.2135275  51.9264520  88.1384646  62.5915285  51.2635225  87.8386874
  63.8840142  51.9525652  87.4558294  56.4462347  50.4924378  87.0275906
  55.6094255  50.0646553  86.8459908  56.4185993  50.6856822  87.9646698
  63.2859803  40.4046308  97.7317153  63.3347958  41.2808431  97.3494922
  63.8282317  39.8623701  97.1588796  73.7714648  50.9487432  97.0118290
  72.9810192  50.9311570  96.4722789  73.5348003  51.4875725  97.7667326
  73.8912524  47.7979898  94.3251018  73.9410528  47.6329905  95.2666541
  73.7826447  46.9307157  93.9348899  62.7748782  50.4768444  81.6143107
  62.9236903  51.1603908  80.9609780  63.5815226  50.4573534  82.1292563
  71.1816286  43.7810826  95.6410325  72.0826149  43.6417291  95.3494323
  71.2564260  43.9465281  96.5808502  65.5159091  41.1577681  94.4863511
  64.6462401  41.4511247  94.2146100  65.7518572  41.7418126  95.2070775
  75.3930720  50.2176839  94.5693040  75.1015529  50.5806820  95.4056501
  74.7802852  49.5043848  94.3906372  76.5926403  47.7829719  87.0895610
  77.4273294  48.2219523  87.2533170  76.7285531  47.3068372  86.2703856
  73.6417909  45.3409454  93.0373098  74.1172030  45.5337100  92.2291949
  72.7183474  45.3968640  92.7916481  60.5301415  46.5033621  82.6204176
  60.2847457  45.5995951  82.8184386  60.6997330  46.5050772  81.6783654
  68.2198125  37.3757298  92.0028932  68.7380069  38.1118325  91.6775420
  67.8653258  37.6821291  92.8375691  59.7997063  42.2361979  80.1190337
  59.1066308  42.3106334  79.4630373  59.5548815  41.4722322  80.6411854
  68.4710719  33.7957580  87.5229828  68.7512473  33.1280769  88.1490255
  69.2561326  33.9886676  87.0104492  66.2744188  52.9716574  79.0854854
  65.7018155  53.5906761  78.6325326  66.8476981  53.5215936  79.6194776
  72.3419578  42.2175214  91.2701403  73.2937000  42.3173312  91.2913627
  72.1723028  41.4253483  91.7799488  70.3633957  39.3030797  91.4560804
  69.7683889  39.5835810  90.7607293  70.0783654  39.7924698  92.2277545
  69.4941448  53.2553724  80.2163437  70.4272121  53.1899286  80.4196312
  69.4064660  54.0909991  79.7577969  72.1229464  52.5719595  77.1767384
  72.0443096  52.2379458  78.0703142  72.9439131  53.0641362  77.1758857
  74.8207655  45.4381334  90.3843703  74.7883975  44.4997335  90.5703387
  75.4308279  45.5165371  89.6509528  66.6590986  44.3077387  76.4270907
  67.6050091  44.1783595  76.4959325  66.2805231  43.5692049  76.9040335
  74.9702144  42.2292377  90.4301986  74.4541192  41.4450834  90.2431915
  75.8542092  41.9011094  90.5948506  72.6312871  35.9733393  86.3897799
  72.4337692  35.6648481  87.2741131  73.2412576  36.6995032  86.5195729
  80.6384205  46.4997341  89.5249740  81.3687594  46.2382629  90.0857443
  80.0291151  45.7626063  89.5651808  78.7199502  44.6405203  90.1224191
  77.9932666  44.5061168  89.5140682  78.3046789  44.9482032  90.9280909
  66.5429679  48.3595133  97.8871564  67.4632688  48.5373732  98.0811610
  66.5079262  47.4151178  97.7351263  64.8433903  42.2327363  76.3625792
  63.9365359  41.9360476  76.4388506  65.1209884  41.9357181  75.4960078
  55.7611844  43.5533727  86.8124839  55.4414628  42.6999035  86.5199213
  55.2145272  43.7682305  87.5682806  59.5391751  46.2696168  90.5294345
  59.7577761  47.2013275  90.5482379  59.9517525  45.9104142  91.3149149
  66.4595969  36.7764253  82.5170033  65.6496697  36.4311338  82.8925280
  67.1480386  36.4671797  83.1057645  68.3886517  35.8542300  84.1394330
  68.9417556  36.2737753  84.7984353  68.6256604  34.9278048  84.1817286
  64.4119617  41.8429373  99.9197094  64.3116344  42.7923730  99.8509185
  64.1941159  41.5147612  99.0473164  63.6132688  39.0914298  76.5037771
  64.4751852  39.4169197  76.7633589  63.7983032  38.3045794  75.9910837
  55.6300104  47.1736638  88.7817960  54.9363575  46.7590591  88.2687915
  56.3773095  47.2157175  88.1851379  71.7665324  37.9642825  83.6472994
  71.1863994  38.6227629  83.2651047  71.5001257  37.1420169  83.2360412
  70.2168891  37.3647883  85.8494315  70.7168669  37.4764417  85.0408634
  70.8604499  37.0608935  86.4895123  64.2750887  45.2726512  98.7362156
  63.7917968  46.0726872  98.9426045  64.3611826  45.2834457  97.7829600
  57.5436846  47.1054892  86.6583975  57.5207534  47.2042579  85.7065858
  57.8537483  47.9520043  86.9801141  60.2024224  49.1631047  90.7730589
  61.1567478  49.1314989  90.7060521  60.0036748  48.7021671  91.5880815
  60.7923606  47.7332163  93.3401387  61.6116495  48.2276242  93.3636224
  61.0660414  46.8164131  93.3118955  70.5490202  40.1242915  82.7029343
  69.6616058  40.4092566  82.4849537  70.9644192  39.9636679  81.8556620
  73.9004739  40.1489436  86.4183682  74.6765129  40.6385889  86.6908299
  73.1752873  40.5747490  86.8755551  76.3377297  40.8617055  87.4757622
  76.9321788  40.6212791  86.7650931  76.4103881  40.1424186  88.1031159
  58.5574453  54.7050666  87.7900787  58.4228921  53.9451067  87.2238785
  58.1406515  55.4291566  87.3229576  69.6933416  49.8887590  76.7977363
  70.3969266  50.0937592  77.4135018  68.9696065  50.4564352  77.0626446
  70.5231226  45.6397451  82.9179633  70.4666428  46.0966003  82.0787265
  71.0759569  44.8788136  82.7402476  74.3336032  41.4287183  83.7429752
  74.0772966  41.0283819  84.5737960  73.7088900  42.1430977  83.6179891
  78.6448370  44.1683256  86.2501044  78.0847928  44.2376446  87.0232606
  78.0391873  43.9924241  85.5300540  61.7143579  55.6019983  88.0019230
  61.5975963  56.5465416  87.8997920  60.8936025  55.2993545  88.3905029
  71.6020113  50.3270119  78.8475823  72.4365717  49.8951318  78.6653297
  71.4404456  50.1552133  79.7752717  71.2566006  46.8302232  80.2132162
  71.2014809  46.6646504  79.2720606  70.6312061  47.5378265  80.3694352
  56.0458521  42.0670297  94.0393584  56.6917384  41.5569251  94.5280809
  55.8375672  42.8038978  94.6137009  68.5711913  49.1351144  99.5385725
  69.4403072  49.3091797  99.1772360  68.0918664  49.9545561  99.4161454
  64.5662131  36.3310341  79.7917480  64.5540801  37.2752181  79.9485751
  65.4585553  36.1480487  79.4976942  62.7398093  56.2548245  91.2175158
  63.6425340  56.2871856  91.5341653  62.5135463  55.3248696  91.2321494
  64.4951695  55.0079232  87.8785237  63.5447326  55.0081093  87.7649609
  64.7984181  54.2611966  87.3621272  68.3814250  32.9253118  84.0463417
  67.6146646  32.3711605  84.1920100  68.7924955  32.9974987  84.9077569
  60.3856012  39.2137914  98.1368598  61.2487473  38.8574719  98.3471923
  59.8121422  38.8751809  98.8244003  80.2304388  60.8439770  88.9430999
  80.8682798  60.7246518  88.2394339  80.1125231  61.7920614  89.0018952
  77.0394095  60.7967198  88.8792524  76.7012606  60.6808263  87.9913059
  77.9083863  60.3958363  88.8593530  72.8980910  62.6502675  84.8689415
  72.3345776  62.5592612  84.1005703  72.7833305  61.8302579  85.3491908
  77.5213878  61.9502050  94.8378730  77.5102518  61.5554848  93.9659233
  77.6834517  61.2168123  95.4312501  70.4445342  64.1453866  87.7073636
  71.2366634  63.8044691  87.2919935  70.6841993  64.2548841  88.6275789
  74.2421139  64.7339162  93.7857914  73.9511005  65.6384793  93.6704580
  74.8778123  64.7755689  94.5001983  75.1677346  62.1116010  90.3759273
  75.7640918  61.8872033  89.6616236  75.2252317  61.3700756  90.9784721
  79.7845657  58.5691224  86.0184207  80.5708746  58.1510647  85.6674624
  80.0484361  59.4737316  86.1865856  79.9555734  64.0064074  80.7172864
  79.3201567  64.0798701  81.4293769  79.6253141  64.5957673  80.0391944
  85.1854084  58.5066457  86.9217186  85.9179256  57.9365674  87.1555015
  84.4293440  58.1188058  87.3623692  76.8030204  60.9293699  84.1180528
  76.4388411  60.4024320  84.8293450  77.6597320  60.5392168  83.9447014
  82.7079504  52.2188031  91.3811795  82.3762829  53.0883442  91.1573010
  82.1125118  51.9024315  92.0605825  76.4435691  55.9583598  79.1141877
  76.6110093  56.8263835  79.4812348  76.2532860  56.1210880  78.1903166
  79.2011024  64.4200577  90.7807707  78.9011747  65.3225616  90.6723515
  78.8562083  64.1532761  91.6328860  72.6523505  60.8714374  86.8144412
  71.7274002  60.7390588  87.0222103  72.9007919  61.6508593  87.3114354
  82.6008168  56.9383118  88.4605145  81.6925045  56.8698526  88.1663906
  82.5495764  57.4155062  89.2886970  70.0132316  60.5147648  87.6488201
  70.1424698  60.7682127  88.5627613  69.3329768  61.1075356  87.3292856
  74.1831804  71.1844898  83.7478675  74.1055833  72.1352723  83.8267156
  73.5793447  70.8390770  84.4053601  76.6749034  58.3572763  96.4040042
  75.8982368  58.9166683  96.3942907  77.3139597  58.8429546  96.9254912
  84.4669814  55.1399556  90.2383019  83.8244194  55.4332089  89.5922813
  83.9624743  55.0252476  91.0436215  82.1209978  58.8862729  80.9268878
  83.0327834  59.1190116  80.7516575  81.6119625  59.4699773  80.3643956
  74.9295406  61.1658217  95.9658009  75.6710090  61.7043260  95.6892833
  74.2232391  61.7924505  96.1229561  80.4050745  63.3087357  94.5630170
  80.8134102  62.8669767  93.8184803  79.6828007  62.7339984  94.8164363
  76.7581816  58.2459964  91.9363727  77.6043011  58.6699377  92.0798376
  76.6980453  57.5893588  92.6302290  80.7279560  63.8688548  88.3182459
  80.0988423  64.0334262  87.6158527  80.3405222  64.2830157  89.0893423
  84.6068792  64.8042985  85.6726823  83.9219830  65.1841887  85.1223856
  84.6912641  65.4138312  86.4058771  79.9081261  55.9064332  93.5944901
  79.6642193  56.6606393  93.0579177  80.1841191  56.2849680  94.4292148
  81.8619724  62.4502944  92.2722167  82.0736619  63.0934704  91.5956548
  81.8149472  61.6165261  91.8044097  79.4645953  55.0620765  89.1758739
  78.6030432  55.3602019  89.4675476  79.4908387  55.2791164  88.2439771
  76.2807522  63.6062956  85.5832544  76.7445868  63.8850659  84.7937167
  76.0164320  62.7046400  85.4005635  73.1731603  63.1534437  88.5212308
  73.7432960  63.5821706  87.8829792  73.7639715  62.8717022  89.2196493
  75.2176408  59.7286108  82.3922109  75.9200451  60.1807152  82.8596036
  74.8857037  59.0869927  83.0202003  73.6656770  58.3197865  96.7673319
  73.0355430  59.0014146  97.0008716  73.5592857  58.2080946  95.8226457
  68.9601742  57.9869661  87.6939243  68.1700796  58.2427189  87.2179354
  69.4512989  58.8017999  87.7991284  82.9765552  65.3274900  90.4444524
  83.7982995  64.9255087  90.1627206  82.9727954  65.2243134  91.3960640
  76.7422155  64.8758943  92.6005234  76.8066588  65.3379350  93.4363406
  76.0333079  64.2456308  92.7287544  67.2439445  58.2400151  90.1254234
  67.4947483  59.1247161  90.3911810  67.7798993  58.0604753  89.3529326
  91.0671545  61.6713648  86.7929495  90.3135253  61.1021046  86.6373500
  91.2019086  61.6376313  87.7400130  72.9437512  52.6218631  99.1298570
  72.5504458  52.0684829  99.8046214  73.7603653  52.9329209  99.5205087
  71.7194455  67.1768245  85.1234893  71.8961083  68.0986210  84.9355877
  72.5151288  66.8626664  85.5529273  75.8605473  54.0376510  96.7218826
  76.6015187  54.6383663  96.6423289  76.0923396  53.2954147  96.1636869
  71.0046811  59.2232877  94.9997056  70.8900326  58.3218134  95.3004155
  70.1491329  59.4696574  94.6481873  78.0838649  67.1650617  96.5984557
  77.6402503  66.3786996  96.2805461  78.7455863  67.3529768  95.9328448
  72.8425770  68.6946419  91.1245235  73.3933195  68.5663482  90.3522229
  72.0037246  68.9941308  90.7740128  80.1819887  67.4453417  94.6265958
  80.1638362  68.2662298  94.1346227  81.1039807  67.3207492  94.8516099
  76.6392941  64.9597547  95.4689466  77.1721278  64.1985835  95.2388774
  76.1107022  64.6671198  96.2113621  79.8062636  50.0657613  90.9983108
  79.4626906  50.9559254  90.9222219  80.1741599  49.8759270  90.1352693
  67.8748487  62.3891143  83.8171710  68.7123709  62.7988151  83.6005418
  68.0526755  61.4490585  83.7871904  79.7712919  60.0566224  79.5055543
  79.2559542  60.8270828  79.7443931  79.4990227  59.3831360  80.1288605
  77.3560030  54.9015924  84.5640782  76.5001626  54.5122775  84.3846420
  77.7686982  54.9807885  83.7040567  78.8859177  52.4362268  88.9632341
  78.3823972  52.3992403  88.1500147  79.1789783  53.3455010  89.0228998
  75.1302063  52.5200997  87.9698523  75.9955059  52.3243806  87.6104413
  75.1979571  52.2911349  88.8967880  84.7447193  62.8098578  81.4408717
  83.9676636  62.4709738  80.9963879  85.4238674  62.8151201  80.7663682
  79.5599222  57.9293316  81.3315324  79.2549358  58.2439465  82.1825468
  80.5129664  58.0074736  81.3742657  78.0045654  64.0883539  82.9808278
  77.4767016  63.3536299  82.6681516  77.5033157  64.8658215  82.7348247
  82.9838500  62.2832560  88.0975325  82.3262174  62.9731821  88.1855453
  83.7878899  62.6728992  88.4409311  81.7943959  60.6376932  86.1479266
  82.3075841  61.2706924  86.6500976  82.4445183  60.0378128  85.7822627
  75.0387049  51.6244454  84.0689959  74.3851462  51.3093471  83.4446574
  74.9967523  51.0020195  84.7949782  79.0566333  70.6161257  78.9039938
  78.3828032  70.9192953  79.5124895  79.4432155  71.4190337  78.5545395
  78.2724790  58.1126388  88.3937607  77.3547351  58.3341335  88.2359295
  78.6884933  58.1872698  87.5349314  79.0559837  59.5117803  83.5240287
  79.8031656  60.0239201  83.2147409  79.3251427  59.1901856  84.3844681
  77.3286488  62.0076344  80.5067242  76.4197707  61.7235377  80.6039711
  77.3581571  62.4275423  79.6470548  82.5605755  65.6182934  84.2758409
  82.1068082  64.7773844  84.3323600  81.9299722  66.2544332  84.6133189
  81.5038675  56.5474920  85.5059077  80.7661431  56.0352306  85.8369319
  81.7565448  56.1075301  84.6942353  81.0038694  67.4559430  85.2108227
  81.2961669  68.0164488  84.4920593  81.5137315  67.7487991  85.9661386
  81.6050302  49.3251172  86.1000846  81.9109179  48.4648535  85.8126761
  82.3302907  49.9168792  85.8999840  67.8974658  59.7281858  84.4882444
  67.6999058  59.1351219  83.7633510  67.3421322  59.4234069  85.2058383
  75.8771382  59.6204965  86.6077037  75.9319991  58.6678801  86.5319514
  75.0662584  59.7764404  87.0918335  75.9672319  68.2339781  86.3001680
  75.9248498  68.4600628  85.3710213  76.8835018  68.0003156  86.4487482
  79.4137953  58.7023849  93.1982310  79.7687341  58.9295322  94.0576775
  80.0610084  59.0342226  92.5759565  85.1435690  61.8242285  83.9031639
  85.0053589  62.0143881  82.9752828  84.7871909  62.5861668  84.3599690
  73.3077816  55.8100380  89.9828651  73.9477196  55.6689139  89.2851614
  72.4755347  55.5234893  89.6067253  85.1705070  63.8918812  88.9142910
  85.6041576  63.7994101  89.7625964  85.8836650  63.8676312  88.2762926
  74.0838120  65.1102810  86.0963643  74.8778719  64.6153131  85.8946218
  73.3729813  64.5820674  85.7331349  78.9032965  67.4920906  90.4476011
  78.9569987  68.0611842  91.2153727  78.0347746  67.6622791  90.0830048
  71.7831358  57.1938462  91.9300462  72.4554411  56.9855824  91.2813111
  70.9561145  56.9960548  91.4905694  86.0320619  63.9342513  91.4475796
  86.2256509  64.8388323  91.6935071  85.9321238  63.4749932  92.2814381
  77.6856930  53.8200403  93.9466123  77.0384845  54.5190353  93.8530599
  78.4557945  54.2536547  94.3142371  81.0935728  64.0849255  97.0216676
  80.9421234  63.8559807  96.1046760  81.0840407  65.0419857  97.0348021
  77.8621064  61.6581168  92.0062943  78.7913124  61.8092328  91.8331910
  77.4412094  61.7465189  91.1511589  76.6609396  65.6831832  89.7761480
  76.5220482  65.3150617  90.6487418  75.8723992  66.1979472  89.6045438
  77.2557548  70.7840929  81.1187017  77.4309304  70.3128972  81.9332640
  76.5690336  71.4106695  81.3468278  78.2114611  65.0613435  87.1650318
  77.8764444  65.0214205  88.0607968  77.7118557  64.3958151  86.6920728
  72.1858855  60.4681065  92.6902899  72.0478653  59.7361304  93.2914438
  73.0963779  60.3789965  92.4087087  81.1473803  62.4069470  77.4387378
  80.5302974  61.6816298  77.3420430  80.6790291  63.1678830  77.0954452
  74.8141156  60.1801025  92.1786579  75.5240775  59.5394217  92.1373197
  74.7710464  60.4313919  93.1012760  82.8027935  67.1168378  95.0993158
  82.7440481  66.4327598  94.4323741  83.2047453  67.8587368  94.6473784
  73.5270090  57.1666242  93.9982218  72.9907447  56.7156981  94.6503815
  72.9386798  57.3012151  93.2552683  82.8045342  65.0807962  93.3307138
  81.9172121  64.7433884  93.4533537  83.3743893  64.3490993  93.5675903
  64.4574489  61.4132054  86.6550189  65.1445529  61.0993784  86.0671204
  64.3022618  62.3173418  86.3817441  69.2609211  56.3022250  91.0835213
  69.1767400  55.6947920  90.3485623  68.4391918  56.7931268  91.0844709
  76.3346495  69.7409414  90.2968381  76.2616667  70.5464386  90.8087686
  75.8923888  69.9401380  89.4716402  79.4332925  54.7875814  86.4505408
  79.9301625  54.0345776  86.1306478  78.6619907  54.8240130  85.8848617
  87.2862682  60.4916179  88.0923699  87.2752559  61.3740895  87.7217633
  86.4180062  60.1387730  87.8978236  78.7945179  69.6396248  92.4526540
  79.5073151  70.2743713  92.3802441  78.3035207  69.7360114  91.6366541
  80.5162706  63.5447501  84.0243831  79.5818984  63.6648963  83.8548536
  80.6939374  62.6419968  83.7603841  76.0167894  56.9293197  86.1777093
  75.6465681  56.3764237  86.8657998  76.5126986  56.3251330  85.6252093
  83.9035257  59.3864820  84.5593865  84.3695709  60.2192812  84.4854168
  84.3542758  58.9209802  85.2639124  73.8457092  67.3890692  93.2732110
  74.5466552  68.0227175  93.4261505  73.3752207  67.7305423  92.5127750
  81.9711488  65.7308641  81.5580017  82.2471332  65.6165236  82.4673892
  81.1015987  65.3326126  81.5192191  81.8751920  51.7545407  88.5984767
  80.9615000  51.9849634  88.7666974  82.3045021  51.8383851  89.4498799
  81.6458378  59.9435299  91.0984661  80.9929829  60.1911207  90.4437114
  82.0238758  59.1299437  90.7647138  78.6065552  69.9794992  85.2012831
  78.7887947  69.1616648  85.6640583  79.4298538  70.1962685  84.7637721
  78.9407718  68.9063177  82.4627880  79.4695484  68.3955632  81.8498042
  79.2035937  68.5905708  83.3273413  77.6945951  60.6855110  97.5850698
  77.0186588  60.5849239  98.2553073  78.5173585  60.5294324  98.0486695
  69.4424810  66.9227047  90.2063213  70.0278247  66.1770735  90.3391117
  69.2449649  67.2331003  91.0899877  72.2963466  69.9578294  85.2225656
  71.6273841  70.4424422  84.7389696  72.1576335  70.2047515  86.1369034
  64.0342465  59.4932647  88.9267656  64.0726565  58.9596238  89.7204774
  63.5282758  58.9667852  88.3078633  76.4368734  71.9922038  91.8208314
  76.9887042  72.1553659  92.5857399  76.7774928  72.5826475  91.1488339
  71.4133227  54.3397187  92.4230199  71.4774554  55.2012018  92.0107596
  71.3500348  53.7271189  91.6902557  70.8885500  56.4120320  96.0703233
  71.5157539  56.0297397  96.6840757  70.0313419  56.1934522  96.4358925
  81.2879609  66.8183295  97.6756968  81.8319513  67.4313253  97.1811923
  80.7066453  67.3762874  98.1923981  79.5737122  69.9404013  88.8071996
  79.4488261  69.1393753  88.2982942  80.2316213  70.4350207  88.3185966
  71.1945290  56.2952746  87.9849136  70.4731876  56.9088713  87.8456610
  71.9838546  56.8310510  87.9065782  81.6372030  67.7413033  90.4351546
  80.6902365  67.6218384  90.3629873  81.9854803  66.8535531  90.5177808
  73.9971603  53.6307172  94.2589788  74.5206005  53.8769469  95.0216097
  73.7783937  54.4627207  93.8392925  78.6418463  67.5365749  86.6355898
  78.4943426  66.6082457  86.8163468  79.4671957  67.5585840  86.1512974
  82.2452585  68.3594308  87.7220771  83.1699133  68.1537170  87.5845222
  82.0767888  68.1110709  88.6310113  75.2024148  54.5720867  91.9439459
  74.8620969  53.7728680  92.3460138  74.4963155  54.8722578  91.3716292
  75.8540620  51.6570180  90.3966782  76.6766689  51.1830658  90.2745672
  76.0978684  52.4360663  90.8965468  78.6379978  55.3903587  81.6288016
  78.8543592  56.2728225  81.3276844  78.1574045  54.9989801  80.8993658
  73.3779199  58.3489300  88.2058760  73.2323780  58.6629603  89.0983042
  72.9004403  58.9674201  87.6529659  75.2375582  55.3391848  88.2539650
  75.2237151  54.4432942  87.9171948  75.9548010  55.3462512  88.8877936
  77.0901713  55.7729189  90.2992777  76.8319490  56.6946259  90.2977108
  76.5586753  55.3759623  90.9893241  82.0347901  68.8779976  83.0782863
  82.2084779  68.3126398  82.3256715  82.5276793  69.6780871  82.8962353
  67.8524861  60.8894645  91.1446421  67.3078329  61.6654453  91.2766696
  68.7304211  61.2365449  90.9865543  74.6412478  54.2206229  83.5227220
  74.7628389  53.2922875  83.7218107  74.3514520  54.2344915  82.6105535
  77.5103668  51.9061139  86.6593940  77.5325365  51.9700472  85.7045919
  77.9271727  51.0665648  86.8534446  87.8887292  61.6416399  84.6973162
  88.3318438  60.8923724  84.2992286  87.0113803  61.6326535  84.3146894
  83.0223074  68.1946740  80.1779761  83.7173978  68.8153433  80.3967075
  83.3646224  67.3442091  80.4532139  68.6390883  60.0164541  94.0376578
  67.8972619  60.1647176  94.6241209  68.3183627  60.2772807  93.1743328
  84.9214497  65.6446446  81.7067092  85.4465821  65.9833718  80.9816412
  84.8336849  64.7093461  81.5230226  76.5834546  69.5580519  93.8356968
  76.8921672  69.3129666  94.7079668  77.3810028  69.7627158  93.3475838
  76.6055158  71.7118429  86.0662345  76.1660148  71.2194808  86.7595202
  77.3563275  71.1691397  85.8254420  69.0847497  67.9029970  86.0686973
  69.9105517  67.6033742  85.6885616  68.7341549  67.1337592  86.5176762
  74.0529030  67.2556438  88.1384646  73.4309039  66.5927143  87.8386874
  74.7233897  67.2817570  87.4558294  67.2856102  65.8216296  87.0275906
  66.4488010  65.3938471  86.8459908  67.2579747  66.0148740  87.9646698
  74.1253557  55.7338226  97.7317153  74.1741713  56.6100349  97.3494922
  74.6676071  55.1915619  97.1588796  84.6108403  66.2779349  97.0118290
  83.8203947  66.2603488  96.4722789  84.3741758  66.8167643  97.7667326
  84.7306278  63.1271816  94.3251018  84.7804283  62.9621823  95.2666541
  84.6220201  62.2599075  93.9348899  82.0210040  59.1102744  95.6410325
  82.9219903  58.9709208  95.3494323  82.0958015  59.2757198  96.5808502
  76.3552846  56.4869598  94.4863511  75.4856155  56.7803164  94.2146100
  76.5912326  57.0710043  95.2070775  86.2324475  65.5468757  94.5693040
  85.9409283  65.9098738  95.4056501  85.6196606  64.8335765  94.3906372
  87.4320157  63.1121637  87.0895610  88.2667049  63.5511441  87.2533170
  87.5679286  62.6360290  86.2703856  84.4811663  60.6701372  93.0373098
  84.9565785  60.8629018  92.2291949  83.5577228  60.7260558  92.7916481
  79.0591880  52.7049215  92.0028932  79.5773823  53.4410242  91.6775420
  78.7047012  53.0113209  92.8375691  79.3104474  49.1249498  87.5229828
  79.5906227  48.4572687  88.1490255  80.0955081  49.3178593  87.0104492
  83.1813332  57.5467132  91.2701403  84.1330755  57.6465229  91.2913627
  83.0116782  56.7545400  91.7799488  81.2027712  54.6322715  91.4560804
  80.6077644  54.9127728  90.7607293  80.9177408  55.1216616  92.2277545
  80.3335202  68.5845642  80.2163437  81.2665875  68.5191204  80.4196312
  80.2458415  69.4201909  79.7577969  82.9623219  67.9011512  77.1767384
  82.8836850  67.5671376  78.0703142  83.7832885  68.3933280  77.1758857
  85.6601410  60.7673252  90.3843703  85.6277730  59.8289252  90.5703387
  86.2702034  60.8457288  89.6509528  77.4984741  59.6369304  76.4270907
  78.4443845  59.5075513  76.4959325  77.1198986  58.8983966  76.9040335
  85.8095898  57.5584295  90.4301986  85.2934947  56.7742752  90.2431915
  86.6935847  57.2303012  90.5948506  83.4706625  51.3025311  86.3897799
  83.2731446  50.9940399  87.2741131  84.0806331  52.0286949  86.5195729
  91.4777960  61.8289258  89.5249740  92.2081348  61.5674546  90.0857443
  90.8684905  61.0917980  89.5651808  89.5593257  59.9697121  90.1224191
  88.8326420  59.8353086  89.5140682  89.1440544  60.2773950  90.9280909
  77.3823433  63.6887051  97.8871564  78.3026443  63.8665650  98.0811610
  77.3473016  62.7443096  97.7351263  66.6005598  58.8825644  86.8124839
  66.2808383  58.0290952  86.5199213  66.0539026  59.0974222  87.5682806
  70.3785506  61.5988085  90.5294345  70.5971516  62.5305193  90.5482379
  70.7911280  61.2396060  91.3149149  77.2989724  52.1056171  82.5170033
  76.4890452  51.7603256  82.8925280  77.9874141  51.7963714  83.1057645
  79.2280272  51.1834217  84.1394330  79.7811310  51.6029671  84.7984353
  79.4650358  50.2569965  84.1817286  75.2513371  57.1721291  99.9197094
  75.1510098  58.1215648  99.8509185  75.0334913  56.8439530  99.0473164
  74.4526442  54.4206216  76.5037771  75.3145606  54.7461114  76.7633589
  74.6376787  53.6337712  75.9910837  66.4693858  62.5028556  88.7817960
  65.7757330  62.0882509  88.2687915  67.2166849  62.5449092  88.1851379
  82.6059079  53.2934743  83.6472994  82.0257748  53.9519547  83.2651047
  82.3395012  52.4712087  83.2360412  81.0562645  52.6939800  85.8494315
  81.5562424  52.8056335  85.0408634  81.6998253  52.3900853  86.4895123
  75.1144641  60.6018430  98.7362156  74.6311723  61.4018790  98.9426045
  75.2005580  60.6126375  97.7829600  68.3830601  62.4346810  86.6583975
  68.3601289  62.5334497  85.7065858  68.6931237  63.2811960  86.9801141
  71.0417979  64.4922965  90.7730589  71.9961232  64.4606907  90.7060521
  70.8430502  64.0313588  91.5880815  71.6317361  63.0624081  93.3401387
  72.4510250  63.5568159  93.3636224  71.9054168  62.1456049  93.3118955
  81.3883957  55.4534833  82.7029343  80.5009812  55.7384484  82.4849537
  81.8037946  55.2928596  81.8556620  84.7398493  55.4781354  86.4183682
  85.5158883  55.9677806  86.6908299  84.0146627  55.9039408  86.8755551
  87.1771052  56.1908973  87.4757622  87.7715543  55.9504709  86.7650931
  87.2497635  55.4716104  88.1031159  69.3968207  70.0342584  87.7900787
  69.2622675  69.2742985  87.2238785  68.9800270  70.7583484  87.3229576
  80.5327170  65.2179508  76.7977363  81.2363021  65.4229510  77.4135018
  79.8089819  65.7856269  77.0626446  81.3624981  60.9689369  82.9179633
  81.3060182  61.4257920  82.0787265  81.9153323  60.2080053  82.7402476
  85.1729787  56.7579101  83.7429752  84.9166721  56.3575736  84.5737960
  84.5482655  57.4722895  83.6179891  89.4842124  59.4975174  86.2501044
  88.9241682  59.5668363  87.0232606  88.8785628  59.3216159  85.5300540
  72.5537333  70.9311901  88.0019230  72.4369717  71.8757334  87.8997920
  71.7329780  70.6285463  88.3905029  82.4413868  65.6562037  78.8475823
  83.2759472  65.2243235  78.6653297  82.2798211  65.4844050  79.7752717
  82.0959760  62.1594150  80.2132162  82.0408564  61.9938422  79.2720606
  81.4705815  62.8670183  80.3694352  66.8852275  57.3962214  94.0393584
  67.5311139  56.8861168  94.5280809  66.6769426  58.1330896  94.6137009
  79.4105667  64.4643062  99.5385725  80.2796827  64.6383714  99.1772360
  78.9312419  65.2837479  99.4161454  75.4055886  51.6602259  79.7917480
  75.3934555  52.6044099  79.9485751  76.2979307  51.4772405  79.4976942
  73.5791847  71.5840163  91.2175158  74.4819094  71.6163773  91.5341653
  73.3529218  70.6540614  91.2321494  75.3345449  70.3371150  87.8785237
  74.3841080  70.3373011  87.7649609  75.6377936  69.5903884  87.3621272
  79.2208005  48.2545036  84.0463417  78.4540401  47.7003522  84.1920100
  79.6318710  48.3266905  84.9077569  71.2249766  54.5429832  98.1368598
  72.0881228  54.1866636  98.3471923  70.6515177  54.2043726  98.8244003
  91.0698143  76.1731688  88.9430999  91.7076553  76.0538435  88.2394339
  90.9518986  77.1212532  89.0018952  87.8787849  76.1259116  88.8792524
  87.5406361  76.0100181  87.9913059  88.7477617  75.7250281  88.8593530
  83.7374665  77.9794592  84.8689415  83.1739530  77.8884529  84.1005703
  83.6227060  77.1594497  85.3491908  88.3607632  77.2793968  94.8378730
  88.3496273  76.8846766  93.9659233  88.5228272  76.5460040  95.4312501
  81.2839097  79.4745784  87.7073636  82.0760389  79.1336609  87.2919935
  81.5235747  79.5840759  88.6275789  89.3174224  81.6465560  80.1803880
  88.6662203  82.2319641  79.7937894  90.1118586  82.1771755  80.2398917
  83.2429851  78.7354697  80.5791014  84.0160727  78.1883684  80.4403890
  83.5955250  79.5998947  80.7905476  85.0814893  80.0631080  93.7857914
  84.7904759  80.9676710  93.6704580  85.7171878  80.1047607  94.5001983
  86.0071100  77.4407928  90.3759273  86.6034672  77.2163950  89.6616236
  86.0646072  76.6992674  90.9784721  85.5796129  74.8947363  78.2109464
  85.8321649  74.3728885  77.4492927  84.6420688  74.7313509  78.3136148
  90.7949489  79.3355992  80.7172864  90.1595322  79.4090619  81.4293769
  90.4646895  79.9249591  80.0391944  96.0247839  73.8358375  86.9217186
  96.7573011  73.2657592  87.1555015  95.2687194  73.4479975  87.3623692
  85.2992417  76.7975469  80.4133839  85.1828675  76.1220373  81.0814923
  85.4094677  76.3107843  79.5965992  87.6423958  76.2585616  84.1180528
  87.2782166  75.7316237  84.8293450  88.4991074  75.8684086  83.9447014
  93.5473259  67.5479949  91.3811795  93.2156584  68.4175360  91.1573010
  92.9518872  67.2316233  92.0605825  87.2829445  71.2875516  79.1141877
  87.4503848  72.1555753  79.4812348  87.0926614  71.4502798  78.1903166
  90.0404778  79.7492495  90.7807707  89.7405502  80.6517534  90.6723515
  89.6955838  79.4824678  91.6328860  83.4917260  76.2006292  86.8144412
  82.5667756  76.0682506  87.0222103  83.7401673  76.9800511  87.3114354
  93.4401922  72.2675035  88.4605145  92.5318800  72.1990444  88.1663906
  93.3889518  72.7446980  89.2886970  87.2618666  73.7433174  80.0988544
  87.1418291  74.1890224  80.9374024  86.5671255  74.0918491  79.5402082
  80.8526071  75.8439565  87.6488201  80.9818452  76.0974044  88.5627613
  80.1723522  76.4367273  87.3292856  85.0225558  86.5136815  83.7478675
  84.9449588  87.4644640  83.8267156  84.4187202  86.1682688  84.4053601
  87.5142788  73.6864681  96.4040042  86.7376122  74.2458601  96.3942907
  88.1533351  74.1721464  96.9254912  95.3063569  70.4691474  90.2383019
  94.6637949  70.7624007  89.5922813  94.8018497  70.3544394  91.0436215
  85.7689160  76.4950134  95.9658009  86.5103845  77.0335178  95.6892833
  85.0626146  77.1216423  96.1229561  91.2444500  78.6379275  94.5630170
  91.6527856  78.1961685  93.8184803  90.5221761  78.0631902  94.8164363
  87.5975570  73.5751881  91.9363727  88.4436765  73.9991295  92.0798376
  87.5374208  72.9185506  92.6302290  91.5673315  79.1980465  88.3182459
  90.9382177  79.3626179  87.6158527  91.1798977  79.6122075  89.0893423
  95.4462547  80.1334903  85.6726823  94.7613585  80.5133804  85.1223856
  95.5306396  80.7430230  86.4058771  90.7475015  71.2356250  93.5944901
  90.5035947  71.9898310  93.0579177  91.0234946  71.6141597  94.4292148
  92.7013478  77.7794862  92.2722167  92.9130373  78.4226622  91.5956548
  92.6543226  76.9457179  91.8044097  90.3039707  70.3912683  89.1758739
  89.4424186  70.6893936  89.4675476  90.3302142  70.6083082  88.2439771
  87.1201276  78.9354873  85.5832544  87.5839622  79.2142576  84.7937167
  86.8558075  78.0338318  85.4005635  84.0125358  78.4826355  88.5212308
  84.5826715  78.9113623  87.8829792  84.6033469  78.2008940  89.2196493
  86.0570163  75.0578026  82.3922109  86.7594206  75.5099069  82.8596036
  85.7250791  74.4161845  83.0202003  84.5050524  73.6489782  96.7673319
  83.8749185  74.3306063  97.0008716  84.3986612  73.5372864  95.8226457
  79.7995496  73.3161578  87.6939243  79.0094550  73.5719107  87.2179354
  80.2906744  74.1309916  87.7991284  93.8159306  80.6566818  90.4444524
  94.6376750  80.2547005  90.1627206  93.8121709  80.5535052  91.3960640
  81.7510242  73.6806158  84.6522720  80.9541405  73.7924852  85.1706215
  81.5235834  74.0192810  83.7863610  87.5815910  80.2050861  92.6005234
  87.6460342  80.6671268  93.4363406  86.8726833  79.5748226  92.7287544
  78.0833199  73.5692069  90.1254234  78.3341238  74.4539079  90.3911810
  78.6192748  73.3896670  89.3529326 101.9065299  77.0005566  86.7929495
 101.1529007  76.4312964  86.6373500 102.0412840  76.9668231  87.7400130
  87.2963927  81.8718968  82.4684215  87.1609602  82.7170504  82.8969063
  87.8373740  82.0738246  81.7050149  83.7831267  67.9510548  99.1298570
  83.3898212  67.3976747  99.8046214  84.5997407  68.2621127  99.5205087
  80.7493325  79.3894406  83.0412140  81.2617845  80.1837657  83.1917704
  81.4016037  78.6920697  82.9745741  82.5588209  82.5060163  85.1234893
  82.7354838  83.4278127  84.9355877  83.3545043  82.1918582  85.5529273
  86.6999228  69.3668427  96.7218826  87.4408941  69.9675580  96.6423289
  86.9317151  68.6246065  96.1636869  81.8440566  74.5524795  94.9997056
  81.7294081  73.6510052  95.3004155  80.9885084  74.7988491  94.6481873
  88.9232404  82.4942535  96.5984557  88.4796258  81.7078913  96.2805461
  89.5849617  82.6821685  95.9328448  83.6819525  84.0238336  91.1245235
  84.2326950  83.8955400  90.3522229  82.8431001  84.3233225  90.7740128
  91.0213642  82.7745335  94.6265958  91.0032117  83.5954216  94.1346227
  91.9433562  82.6499410  94.8516099  87.4786696  80.2889464  95.4689466
  88.0115033  79.5277752  95.2388774  86.9500777  79.9963116  96.2113621
  90.6456391  65.3949530  90.9983108  90.3020660  66.2851172  90.9222219
  91.0135353  65.2051188  90.1352693  78.7142241  77.7183061  83.8171710
  79.5517463  78.1280069  83.6005418  78.8920509  76.7782503  83.7871904
  90.6106673  75.3858141  79.5055543  90.0953297  76.1562746  79.7443931
  90.3383982  74.7123278  80.1288605  88.1953784  70.2307842  84.5640782
  87.3395381  69.8414693  84.3846420  88.6080736  70.3099803  83.7040567
  89.7252931  67.7654185  88.9632341  89.2217727  67.7284321  88.1500147
  90.0183538  68.6746928  89.0228998  85.9695817  67.8492915  87.9698523
  86.8348814  67.6535724  87.6104413  86.0373326  67.6203267  88.8967880
  95.5840948  78.1390496  81.4408717  94.8070390  77.8001655  80.9963879
  96.2632429  78.1443119  80.7663682  90.3992977  73.2585233  81.3315324
  90.0943112  73.5731383  82.1825468  91.3523419  73.3366653  81.3742657
  88.8439408  79.4175457  82.9808278  88.3160770  78.6828216  82.6681516
  88.3426911  80.1950133  82.7348247  93.8232254  77.6124477  88.0975325
  93.1655929  78.3023739  88.1855453  94.6272654  78.0020909  88.4409311
  83.5758136  70.0795123  85.3414890  84.1501888  69.8570305  84.6088083
  84.1629119  70.1483818  86.0943491  92.6337713  75.9668850  86.1479266
  93.1469595  76.5998842  86.6500976  93.2838937  75.3670045  85.7822627
  83.9027723  72.1099584  79.3610775  83.0665035  72.4474271  79.6820050
  83.7632493  71.9748564  78.4237912  85.8780804  66.9536372  84.0689959
  85.2245216  66.6385389  83.4446574  85.8361278  66.3312112  84.7949782
  86.9892009  77.2355667  75.9843251  86.0819070  77.0044920  76.1834400
  87.4863041  76.4393286  76.1717233  89.8960088  85.9453174  78.9039938
  89.2221786  86.2484871  79.5124895  90.2825909  86.7482255  78.5545395
  89.1118544  73.4418305  88.3937607  88.1941106  73.6633252  88.2359295
  89.5278688  73.5164616  87.5349314  89.8953592  74.8409721  83.5240287
  90.6425411  75.3531118  83.2147409  90.1645181  74.5193774  84.3844681
  88.1680242  77.3368262  80.5067242  87.2591461  77.0527295  80.6039711
  88.1975326  77.7567340  79.6470548  93.3999510  80.9474851  84.2758409
  92.9461837  80.1065761  84.3323600  92.7693476  81.5836250  84.6133189
  92.3432429  71.8766837  85.5059077  91.6055186  71.3644224  85.8369319
  92.5959203  71.4367219  84.6942353  91.8432449  82.7851348  85.2108227
  92.1355423  83.3456405  84.4920593  92.3531069  83.0779909  85.9661386
  78.7368412  75.0573776  84.4882444  78.5392812  74.4643137  83.7633510
  78.1815076  74.7525986  85.2058383  86.7165136  74.9496882  86.6077037
  86.7713746  73.9970719  86.5319514  85.9056338  75.1056322  87.0918335
  87.8656330  78.8777006  77.8455320  87.4275760  78.1612864  77.3860957
  88.6066771  79.1053120  77.2840412  84.6557496  73.5673942  84.3667416
  83.8425362  73.8668113  84.7732608  85.1516490  73.1729631  85.0841898
  86.8066074  83.5631699  86.3001680  86.7642253  83.7892545  85.3710213
  87.7228773  83.3295074  86.4487482  90.2531708  74.0315767  93.1982310
  90.6081095  74.2587240  94.0576775  90.9003839  74.3634143  92.5759565
  95.9829445  77.1534203  83.9031639  95.8447343  77.3435799  82.9752828
  95.6265663  77.9153585  84.3599690  84.1471571  71.1392298  89.9828651
  84.7870950  70.9981057  89.2851614  83.3149101  70.8526811  89.6067253
  96.0098824  79.2210730  88.9142910  96.4435331  79.1286019  89.7625964
  96.7230405  79.1968230  88.2762926  84.9231875  80.4394728  86.0963643
  85.7172473  79.9445048  85.8946218  84.2123567  79.9112591  85.7331349
  89.7426719  82.8212824  90.4476011  89.7963741  83.3903760  91.2153727
  88.8741501  82.9914709  90.0830048  81.2314638  74.5837810  82.1723396
  80.3012226  74.5222265  82.3893358  81.3272110  74.0613763  81.3760037
  81.1500187  71.1092623  84.7601638  81.4107005  72.0237956  84.6510798
  81.9717360  70.6417065  84.9098250  82.6225113  72.5230380  91.9300462
  83.2948166  72.3147742  91.2813111  81.7954899  72.3252466  91.4905694
  96.8714374  79.2634430  91.4475796  97.0650264  80.1680241  91.6935071
  96.7714992  78.8041849  92.2814381  88.5250685  69.1492321  93.9466123
  87.8778600  69.8482270  93.8530599  89.2951700  69.5828465  94.3142371
  91.9329483  79.4141173  97.0216676  91.7814989  79.1851725  96.1046760
  91.9234162  80.3711774  97.0348021  88.7014819  76.9873086  92.0062943
  89.6306879  77.1384245  91.8331910  88.2805849  77.0757107  91.1511589
  87.5003151  81.0123750  89.7761480  87.3614236  80.6442535  90.6487418
  86.7117747  81.5271390  89.6045438  88.0951303  86.1132847  81.1187017
  88.2703058  85.6420890  81.9332640  87.4084091  86.7398613  81.3468278
  89.0508366  80.3905353  87.1650318  88.7158198  80.3506123  88.0607968
  88.5512312  79.7250069  86.6920728  83.0252610  75.7972983  92.6902899
  82.8872408  75.0653222  93.2914438  83.9357533  75.7081883  92.4087087
  91.9867557  77.7361387  77.4387378  91.3696728  77.0108215  77.3420430
  91.5184046  78.4970747  77.0954452  85.6534910  75.5092942  92.1786579
  86.3634529  74.8686134  92.1373197  85.6104219  75.7605837  93.1012760
  93.6421689  82.4460296  95.0993158  93.5834235  81.7619516  94.4323741
  94.0441208  83.1879286  94.6473784  84.3663844  72.4958160  93.9982218
  83.8301201  72.0448899  94.6503815  83.7780553  72.6304069  93.2552683
  82.6612388  89.2622209  87.8926877  82.9008986  89.8940734  88.5705896
  81.8181584  88.9110249  88.1792236  83.7766103  71.9546812  76.5608682
  82.8995570  71.8335612  76.1970929  84.2523856  71.1632890  76.3087571
  93.6439096  80.4099879  93.3307138  92.7565875  80.0725801  93.4533537
  94.2137647  79.6782911  93.5675903  75.2968244  76.7423971  86.6550189
  75.9839283  76.4285701  86.0671204  75.1416372  77.6465336  86.3817441
  80.1002966  71.6314168  91.0835213  80.0161154  71.0239837  90.3485623
  79.2785672  72.1223186  91.0844709  87.1740250  85.0701332  90.2968381
  87.1010421  85.8756303  90.8087686  86.7317643  85.2693298  89.4716402
  86.9630029  84.3073102  83.8071203  86.1797551  84.8494782  83.9009427
  87.6622775  84.8247082  84.2065444  90.2726680  70.1167731  86.4505408
  90.7695379  69.3637694  86.1306478  89.5013661  70.1532048  85.8848617
  98.1256437  75.8208097  88.0923699  98.1146313  76.7032812  87.7217633
  97.2573816  75.4679648  87.8978236  89.6338933  84.9688166  92.4526540
  90.3466906  85.6035631  92.3802441  89.1428962  85.0652032  91.6366541
  91.3556460  78.8739419  84.0243831  90.4212739  78.9940881  83.8548536
  91.5333129  77.9711885  83.7603841  86.8561648  72.2585114  86.1777093
  86.4859436  71.7056155  86.8657998  87.3520741  71.6543248  85.6252093
  94.7429012  74.7156738  84.5593865  95.2089464  75.5484729  84.4854168
  95.1936512  74.2501719  85.2639124  84.6850847  82.7182609  93.2732110
  85.3860306  83.3519092  93.4261505  84.2145962  83.0597341  92.5127750
  92.7145674  67.0837325  88.5984767  91.8008754  67.3141552  88.7666974
  93.1438776  67.1675769  89.4498799  92.4852133  75.2727217  91.0984661
  91.8323583  75.5203124  90.4437114  92.8632513  74.4591355  90.7647138
  89.4459307  85.3086910  85.2012831  89.6281701  84.4908566  85.6640583
  90.2692293  85.5254602  84.7637721  89.7801472  84.2355095  82.4627880
  90.3089239  83.7247550  81.8498042  90.0429692  83.9197625  83.3273413
  88.5339706  76.0147028  97.5850698  87.8580343  75.9141157  98.2553073
  89.3567340  75.8586242  98.0486695  80.2818565  82.2518964  90.2063213
  80.8672002  81.5062652  90.3391117  80.0843403  82.5622921  91.0899877
  83.1357220  85.2870212  85.2225656  82.4667595  85.7716339  84.7389696
  82.9970090  85.5339432  86.1369034  74.8736220  74.8224565  88.9267656
  74.9120319  74.2888155  89.7204774  74.3676512  74.2959770  88.3078633
  87.2762489  87.3213955  91.8208314  87.8280797  87.4845577  92.5857399
  87.6168682  87.9118393  91.1488339  82.2526982  69.6689105  92.4230199
  82.3168308  70.5303936  92.0107596  82.1894102  69.0563107  91.6902557
  81.7279255  71.7412238  96.0703233  82.3551293  71.3589315  96.6840757
  80.8707173  71.5226440  96.4358925  92.1273363  82.1475213  97.6756968
  92.6713267  82.7605171  97.1811923  91.5460208  82.7054791  98.1923981
  78.5044797  73.5488667  82.0021588  78.7998238  72.6399345  81.9488641
  77.6032833  73.5276406  81.6802590  90.4130876  85.2695931  88.8071996
  90.2882015  84.4685671  88.2982942  91.0709967  85.7642124  88.3185966
  82.0339044  71.6244663  87.9849136  81.3125630  72.2380631  87.8456610
  82.8232300  72.1602428  87.9065782  92.4765784  83.0704951  90.4351546
  91.5296120  82.9510302  90.3629873  92.8248558  82.1827449  90.5177808
  84.8365358  68.9599090  94.2589788  85.3599760  69.2061386  95.0216097
  84.6177691  69.7919125  93.8392925  80.2332639  71.2302764  82.1260913
  79.9045345  70.3500143  81.9436019  80.5872010  71.1750433  83.0137302
  89.4812218  82.8657667  86.6355898  89.3337180  81.9374375  86.8163468
  90.3065711  82.8877758  86.1512974  83.3474462  71.5175734  82.4936391
  83.6870535  72.0461655  81.7714999  83.7946582  71.8556140  83.2694957
  93.0846340  83.6886226  87.7220771  94.0092887  83.4829087  87.5845222
  92.9161643  83.4402627  88.6310113  86.0417903  69.9012785  91.9439459
  85.7014723  69.1020598  92.3460138  85.3356909  70.2014496  91.3716292
  86.6934375  66.9862097  90.3966782  87.5160444  66.5122576  90.2745672
  86.9372438  67.7652581  90.8965468  85.3342609  70.0150356  80.6929683
  86.0550972  70.3931609  80.1893400  84.7107913  70.7339233  80.7964661
  89.4773732  70.7195505  81.6288016  89.6937346  71.6020143  81.3276844
  88.9967799  70.3281718  80.8993658  84.2172953  73.6781218  88.2058760
  84.0717534  73.9921521  89.0983042  83.7398157  74.2966118  87.6529659
  86.0769336  70.6683766  88.2539650  86.0630905  69.7724859  87.9171948
  86.7941764  70.6754430  88.8877936  87.9295467  71.1021106  90.2992777
  87.6713245  72.0238177  90.2977108  87.3980507  70.7051541  90.9893241
  92.8741656  84.2071893  83.0782863  93.0478533  83.6418316  82.3256715
  93.3670547  85.0072788  82.8962353  78.6918616  76.2186562  91.1446421
  78.1472084  76.9946370  91.2766696  79.5697965  76.5657367  90.9865543
  85.4806232  69.5498146  83.5227220  85.6022143  68.6214792  83.7218107
  85.1908275  69.5636832  82.6105535  88.3497423  67.2353057  86.6593940
  88.3719119  67.2992390  85.7045919  88.7665482  66.3957565  86.8534446
  98.7281047  76.9708316  84.6973162  99.1712193  76.2215641  84.2992286
  97.8507557  76.9618453  84.3146894  93.8616828  83.5238658  80.1779761
  94.5567733  84.1445350  80.3967075  94.2039978  82.6734009  80.4532139
  79.4784637  75.3456459  94.0376578  78.7366373  75.4939094  94.6241209
  79.1577382  75.6064724  93.1743328  95.7608251  80.9738363  81.7067092
  96.2859575  81.3125636  80.9816412  95.6730604  80.0385379  81.5230226
  87.4228300  84.8872437  93.8356968  87.7315427  84.6421584  94.7079668
  88.2203782  85.0919075  93.3475838  87.4448912  87.0410347  86.0662345
  87.0053902  86.5486725  86.7595202  88.1957029  86.4983314  85.8254420
  79.9241251  83.2321887  86.0686973  80.7499271  82.9325659  85.6885616
  79.5735303  82.4629510  86.5176762  84.8922784  82.5848356  88.1384646
  84.2702794  81.9219061  87.8386874  85.5627651  82.6109487  87.4558294
  78.1249856  81.1508214  87.0275906  77.2881764  80.7230388  86.8459908
  78.0973502  81.3440657  87.9646698  84.9647312  71.0630144  97.7317153
  85.0135467  71.9392266  97.3494922  85.5069826  70.5207537  97.1588796
  95.4502157  81.6071267  97.0118290  94.6597701  81.5895406  96.4722789
  95.2135512  82.1459561  97.7667326  95.5700032  78.4563733  94.3251018
  95.6198037  78.2913741  95.2666541  95.4613956  77.5890992  93.9348899
  84.4536291  81.1352279  81.6143107  84.6024412  81.8187743  80.9609780
  85.2602735  81.1157369  82.1292563  92.8603795  74.4394661  95.6410325
  93.7613658  74.3001126  95.3494323  92.9351769  74.6049116  96.5808502
  87.1946600  71.8161516  94.4863511  86.3249910  72.1095082  94.2146100
  87.4306081  72.4001961  95.2070775  97.0718229  80.8760675  94.5693040
  96.7803038  81.2390655  95.4056501  96.4590361  80.1627683  94.3906372
  98.2713912  78.4413555  87.0895610  99.1060803  78.8803359  87.2533170
  98.4073040  77.9652208  86.2703856  95.3205418  75.9993289  93.0373098
  95.7959539  76.1920936  92.2291949  94.3970983  76.0552475  92.7916481
  82.2088924  77.1617457  82.6204176  81.9634966  76.2579787  82.8184386
  82.3784839  77.1634607  81.6783654  89.8985634  68.0341133  92.0028932
  90.4167578  68.7702160  91.6775420  89.5440767  68.3405126  92.8375691
  81.4784572  72.8945814  80.1190337  80.7853817  72.9690169  79.4630373
  81.2336324  72.1306158  80.6411854  90.1498228  64.4541415  87.5229828
  90.4299982  63.7864605  88.1490255  90.9348835  64.6470511  87.0104492
  87.9531697  83.6300409  79.0854854  87.3805664  84.2490597  78.6325326
  88.5264490  84.1799771  79.6194776  94.0207087  72.8759049  91.2701403
  94.9724509  72.9757147  91.2913627  93.8510537  72.0837318  91.7799488
  92.0421466  69.9614633  91.4560804  91.4471398  70.2419645  90.7607293
  91.7571163  70.4508534  92.2277545  91.1728956  83.9137560  80.2163437
  92.1059630  83.8483121  80.4196312  91.0852169  84.7493826  79.7577969
  93.8016973  83.2303430  77.1767384  93.7230605  82.8963293  78.0703142
  94.6226640  83.7225198  77.1758857  96.4995164  76.0965169  90.3843703
  96.4671484  75.1581170  90.5703387  97.1095788  76.1749206  89.6509528
  88.3378495  74.9661222  76.4270907  89.2837600  74.8367430  76.4959325
  87.9592740  74.2275884  76.9040335  96.6489653  72.8876213  90.4301986
  96.1328701  72.1034669  90.2431915  97.5329601  72.5594929  90.5948506
  94.3100380  66.6317228  86.3897799  94.1125201  66.3232316  87.2741131
  94.9200085  67.3578867  86.5195729 102.3171714  77.1581176  89.5249740
 103.0475103  76.8966464  90.0857443 101.7078660  76.4209898  89.5651808
 100.3987011  75.2989039  90.1224191  99.6720175  75.1645004  89.5140682
  99.9834298  75.6065867  90.9280909  88.2217188  79.0178968  97.8871564
  89.1420197  79.1957567  98.0811610  88.1866771  78.0735014  97.7351263
  86.5221412  72.8911199  76.3625792  85.6152868  72.5944311  76.4388506
  86.7997393  72.5941017  75.4960078  77.4399353  74.2117562  86.8124839
  77.1202137  73.3582870  86.5199213  76.8932781  74.4266140  87.5682806
  81.2179260  76.9280003  90.5294345  81.4365270  77.8597111  90.5482379
  81.6305034  76.5687977  91.3149149  88.1383478  67.4348088  82.5170033
  87.3284206  67.0895173  82.8925280  88.8267895  67.1255632  83.1057645
  90.0674026  66.5126135  84.1394330  90.6205065  66.9321588  84.7984353
  90.3044113  65.5861883  84.1817286  86.0907126  72.5013209  99.9197094
  85.9903852  73.4507566  99.8509185  85.8728668  72.1731448  99.0473164
  85.2920197  69.7498134  76.5037771  86.1539361  70.0753032  76.7633589
  85.4770541  68.9629630  75.9910837  77.3087613  77.8320473  88.7817960
  76.6151084  77.4174426  88.2687915  78.0560604  77.8741010  88.1851379
  93.4452833  68.6226660  83.6472994  92.8651503  69.2811464  83.2651047
  93.1788766  67.8004005  83.2360412  91.8956400  68.0231718  85.8494315
  92.3956178  68.1348252  85.0408634  92.5392008  67.7192771  86.4895123
  85.9538396  75.9310348  98.7362156  85.4705477  76.7310708  98.9426045
  86.0399335  75.9418292  97.7829600  79.2224355  77.7638727  86.6583975
  79.1995043  77.8626414  85.7065858  79.5324992  78.6103878  86.9801141
  81.8811733  79.8214882  90.7730589  82.8354987  79.7898825  90.7060521
  81.6824257  79.3605506  91.5880815  82.4711115  78.3915998  93.3401387
  83.2904004  78.8860077  93.3636224  82.7447923  77.4747966  93.3118955
  95.5792248  70.8073272  86.4183682  96.3552638  71.2969724  86.6908299
  94.8540382  71.2331326  86.8755551  98.0164806  71.5200891  87.4757622
  98.6109297  71.2796627  86.7650931  98.0891390  70.8008021  88.1031159
  80.2361962  85.3634502  87.7900787  80.1016430  84.6034903  87.2238785
  79.8194024  86.0875402  87.3229576  91.3720925  80.5471425  76.7977363
  92.0756775  80.7521428  77.4135018  90.6483574  81.1148187  77.0626446
  96.0123541  72.0871018  83.7429752  95.7560475  71.6867654  84.5737960
  95.3876409  72.8014812  83.6179891 100.3235879  74.8267092  86.2501044
  99.7635437  74.8960281  87.0232606  99.7179382  74.6508076  85.5300540
  83.3931088  86.2603819  88.0019230  83.2763472  87.2049251  87.8997920
  82.5723534  85.9577380  88.3905029  93.2807622  80.9853954  78.8475823
  94.1153226  80.5535153  78.6653297  93.1191965  80.8135968  79.7752717
  92.9353515  77.4886068  80.2132162  92.8802318  77.3230339  79.2720606
  92.3099570  78.1962101  80.3694352  77.7246030  72.7254132  94.0393584
  78.3704893  72.2153086  94.5280809  77.5163181  73.4622814  94.6137009
  90.2499422  79.7934980  99.5385725  91.1190581  79.9675632  99.1772360
  89.7706173  80.6129396  99.4161454  86.2449640  66.9894177  79.7917480
  86.2328310  67.9336017  79.9485751  87.1373062  66.8064322  79.4976942
  84.4185602  86.9132081  91.2175158  85.3212849  86.9455691  91.5341653
  84.1922972  85.9832532  91.2321494  86.1739204  85.6663067  87.8785237
  85.2234835  85.6664929  87.7649609  86.4771690  84.9195802  87.3621272
  90.0601759  63.5836953  84.0463417  89.2934155  63.0295440  84.1920100
  90.4712464  63.6558822  84.9077569  82.0643521  69.8721749  98.1368598
  82.9274982  69.5158554  98.3471923  81.4908931  69.5335644  98.8244003
 101.9091897  91.5023606  88.9430999 102.5470307  91.3830353  88.2394339
 101.7912740  92.4504450  89.0018952  98.7181604  91.4551034  88.8792524
  98.3800115  91.3392098  87.9913059  99.5871372  91.0542199  88.8593530
  94.5768419  93.3086510  84.8689415  94.0133285  93.2176447  84.1005703
  94.4620814  92.4886415  85.3491908  99.2001387  92.6085885  94.8378730
  99.1890027  92.2138684  93.9659233  99.3622026  91.8751958  95.4312501
  92.1232851  94.8037702  87.7073636  92.9154143  94.4628526  87.2919935
  92.3629502  94.9132677  88.6275789 100.1567978  96.9757478  80.1803880
  99.5055958  97.5611558  79.7937894 100.9512341  97.5063673  80.2398917
  94.0823605  94.0646615  80.5791014  94.8554481  93.5175602  80.4403890
  94.4349004  94.9290864  80.7905476  95.9208648  95.3922997  93.7857914
  95.6298514  96.2968628  93.6704580  96.5565632  95.4339525  94.5001983
  96.8464855  92.7699846  90.3759273  97.4428427  92.5455868  89.6616236
  96.9039826  92.0284591  90.9784721  96.4189883  90.2239281  78.2109464
  96.6715404  89.7020802  77.4492927  95.4814442  90.0605427  78.3136148
 101.4633166  89.2275059  86.0184207 102.2496255  88.8094483  85.6674624
 101.7271870  90.1321152  86.1865856 101.6343243  94.6647910  80.7172864
 100.9989076  94.7382536  81.4293769 101.3040650  95.2541509  80.0391944
 106.8641593  89.1650293  86.9217186 107.5966765  88.5949509  87.1555015
 106.1080949  88.7771893  87.3623692  96.1386172  92.1267387  80.4133839
  96.0222430  91.4512290  81.0814923  96.2488432  91.6399761  79.5965992
  98.4817713  91.5877534  84.1180528  98.1175920  91.0608155  84.8293450
  99.3384829  91.1976003  83.9447014 104.3867013  82.8771867  91.3811795
 104.0550338  83.7467278  91.1573010 103.7912627  82.5608151  92.0605825
  98.1223200  86.6167434  79.1141877  98.2897602  87.4847670  79.4812348
  97.9320369  86.7794716  78.1903166 100.8798533  95.0784413  90.7807707
 100.5799256  95.9809452  90.6723515 100.5349592  94.8116596  91.6328860
  94.3311014  91.5298210  86.8144412  93.4061511  91.3974424  87.0222103
  94.5795428  92.3092429  87.3114354 104.2795677  87.5966953  88.4605145
 103.3712554  87.5282361  88.1663906 104.2283273  88.0738898  89.2886970
  98.1012421  89.0725091  80.0988544  97.9812046  89.5182142  80.9374024
  97.4065009  89.4210409  79.5402082  91.6919825  91.1731483  87.6488201
  91.8212207  91.4265962  88.5627613  91.0117277  91.7659191  87.3292856
  95.8619313 101.8428733  83.7478675  95.7843342 102.7936558  83.8267156
  95.2580956 101.4974606  84.4053601  98.3536543  89.0156599  96.4040042
  97.5769877  89.5750519  96.3942907  98.9927106  89.5013381  96.9254912
 106.1457323  85.7983391  90.2383019 105.5031703  86.0915924  89.5922813
 105.6412252  85.6836312  91.0436215 103.7997487  89.5446565  80.9268878
 104.7115343  89.7773951  80.7516575 103.2907134  90.1283609  80.3643956
  96.6082915  91.8242052  95.9658009  97.3497599  92.3627096  95.6892833
  95.9019900  92.4508341  96.1229561 102.0838254  93.9671192  94.5630170
 102.4921610  93.5253603  93.8184803 101.3615516  93.3923820  94.8164363
  98.4369324  88.9043799  91.9363727  99.2830520  89.3283213  92.0798376
  98.3767962  88.2477423  92.6302290 102.4067069  94.5272383  88.3182459
 101.7775932  94.6918097  87.6158527 102.0192731  94.9413993  89.0893423
 106.2856301  95.4626821  85.6726823 105.6007339  95.8425722  85.1223856
 106.3700150  96.0722147  86.4058771 101.5868770  86.5648167  93.5944901
 101.3429702  87.3190228  93.0579177 101.8628700  86.9433515  94.4292148
 103.5407233  93.1086780  92.2722167 103.7524128  93.7518540  91.5956548
 103.4936981  92.2749096  91.8044097 101.1433462  85.7204600  89.1758739
 100.2817941  86.0185854  89.4675476 101.1695896  85.9374999  88.2439771
  97.9595031  94.2646791  85.5832544  98.4233377  94.5434494  84.7937167
  97.6951829  93.3630236  85.4005635  94.8519112  93.8118273  88.5212308
  95.4220469  94.2405541  87.8829792  95.4427224  93.5300857  89.2196493
  96.8963917  90.3869943  82.3922109  97.5987960  90.8390987  82.8596036
  96.5644546  89.7453762  83.0202003  95.3444279  88.9781700  96.7673319
  94.7142939  89.6597981  97.0008716  95.2380366  88.8664782  95.8226457
  90.6389251  88.6453496  87.6939243  89.8488305  88.9011025  87.2179354
  91.1300498  89.4601834  87.7991284 104.6553061  95.9858735  90.4444524
 105.4770504  95.5838923  90.1627206 104.6515463  95.8826969  91.3960640
  92.5903996  89.0098075  84.6522720  91.7935160  89.1216770  85.1706215
  92.3629589  89.3484728  83.7863610  98.4209664  95.5342779  92.6005234
  98.4854097  95.9963186  93.4363406  97.7120588  94.9040143  92.7287544
  88.9226954  88.8983987  90.1254234  89.1734992  89.7830996  90.3911810
  89.4586502  88.7188588  89.3529326 112.7459054  92.3297484  86.7929495
 111.9922762  91.7604882  86.6373500 112.8806595  92.2960148  87.7400130
  98.1357682  97.2010886  82.4684215  98.0003356  98.0462422  82.8969063
  98.6767494  97.4030164  81.7050149  94.6225021  83.2802466  99.1298570
  94.2291967  82.7268664  99.8046214  95.4391162  83.5913044  99.5205087
  91.5887079  94.7186324  83.0412140  92.1011600  95.5129574  83.1917704
  92.2409792  94.0212615  82.9745741  93.3981964  97.8352080  85.1234893
  93.5748592  98.7570045  84.9355877  94.1938797  97.5210500  85.5529273
  97.5392982  84.6960345  96.7218826  98.2802696  85.2967498  96.6423289
  97.7710905  83.9537983  96.1636869  92.6834320  89.8816712  94.9997056
  92.5687835  88.9801969  95.3004155  91.8278838  90.1280409  94.6481873
  99.7626158  97.8234453  96.5984557  99.3190012  97.0370831  96.2805461
 100.4243372  98.0113603  95.9328448  94.5213279  99.3530254  91.1245235
  95.0720704  99.2247317  90.3522229  93.6824755  99.6525143  90.7740128
 101.8607396  98.1037252  94.6265958 101.8425871  98.9246134  94.1346227
 102.7827316  97.9791328  94.8516099  98.3180450  95.6181382  95.4689466
  98.8508787  94.8569670  95.2388774  97.7894531  95.3255034  96.2113621
 101.4850145  80.7241448  90.9983108 101.1414415  81.6143090  90.9222219
 101.8529108  80.5343106  90.1352693  89.5535996  93.0474978  83.8171710
  90.3911218  93.4571987  83.6005418  89.7314264  92.1074421  83.7871904
 101.4500428  90.7150059  79.5055543 100.9347051  91.4854664  79.7443931
 101.1777736  90.0415195  80.1288605  99.0347539  85.5599760  84.5640782
  98.1789135  85.1706610  84.3846420  99.4474491  85.6391721  83.7040567
 100.5646686  83.0946103  88.9632341 100.0611481  83.0576238  88.1500147
 100.8577292  84.0038846  89.0228998  96.8089571  83.1784833  87.9698523
  97.6742568  82.9827641  87.6104413  96.8767080  82.9495185  88.8967880
 106.4234702  93.4682414  81.4408717 105.6464145  93.1293573  80.9963879
 107.1026183  93.4735037  80.7663682 101.2386731  88.5877151  81.3315324
 100.9336867  88.9023300  82.1825468 102.1917173  88.6658571  81.3742657
  99.6833163  94.7467374  82.9808278  99.1554525  94.0120134  82.6681516
  99.1820666  95.5242051  82.7348247 104.6626009  92.9416395  88.0975325
 104.0049683  93.6315656  88.1855453 105.4666408  93.3312827  88.4409311
  94.4151891  85.4087041  85.3414890  94.9895642  85.1862222  84.6088083
  95.0022873  85.4775735  86.0943491 103.4731468  91.2960768  86.1479266
 103.9863350  91.9290759  86.6500976 104.1232692  90.6961963  85.7822627
  94.7421478  87.4391502  79.3610775  93.9058790  87.7766188  79.6820050
  94.6026247  87.3040482  78.4237912  96.7174558  82.2828290  84.0689959
  96.0638971  81.9677307  83.4446574  96.6755032  81.6604030  84.7949782
  97.8285763  92.5647585  75.9843251  96.9212825  92.3336838  76.1834400
  98.3256795  91.7685204  76.1717233 100.7353842 101.2745092  78.9039938
 100.0615541 101.5776789  79.5124895 101.1219664 102.0774172  78.5545395
  99.9512299  88.7710223  88.3937607  99.0334860  88.9925170  88.2359295
 100.3672442  88.8456534  87.5349314 100.7347346  90.1701639  83.5240287
 101.4819165  90.6823036  83.2147409 101.0038936  89.8485692  84.3844681
  99.0073997  92.6660180  80.5067242  98.0985216  92.3819212  80.6039711
  99.0369080  93.0859258  79.6470548 104.2393264  96.2766769  84.2758409
 103.7855591  95.4357679  84.3323600 103.6087231  96.9128167  84.6133189
 103.1826184  87.2058755  85.5059077 102.4448940  86.6936141  85.8369319
 103.4352957  86.7659137  84.6942353 102.6826203  98.1143266  85.2108227
 102.9749178  98.6748323  84.4920593 103.1924824  98.4071827  85.9661386
 103.2837811  79.9835007  86.1000846 103.5896688  79.1232371  85.8126761
 104.0090416  80.5752627  85.8999840  89.5762167  90.3865694  84.4882444
  89.3786567  89.7935054  83.7633510  89.0208831  90.0817904  85.2058383
  97.5558891  90.2788800  86.6077037  97.6107500  89.3262637  86.5319514
  96.7450093  90.4348239  87.0918335  98.7050084  94.2068923  77.8455320
  98.2669514  93.4904782  77.3860957  99.4460525  94.4345038  77.2840412
  95.4951251  88.8965860  84.3667416  94.6819116  89.1960030  84.7732608
  95.9910245  88.5021549  85.0841898  97.6459828  98.8923617  86.3001680
  97.6036007  99.1184463  85.3710213  98.5622527  98.6586991  86.4487482
 101.0925462  89.3607684  93.1982310 101.4474850  89.5879158  94.0576775
 101.7397593  89.6926061  92.5759565 106.8223199  92.4826120  83.9031639
 106.6841098  92.6727716  82.9752828 106.4659418  93.2445503  84.3599690
  94.9865325  86.4684215  89.9828651  95.6264705  86.3272975  89.2851614
  94.1542856  86.1818729  89.6067253 106.8492579  94.5502647  88.9142910
 107.2829085  94.4577936  89.7625964 107.5624159  94.5260148  88.2762926
  95.7625629  95.7686646  86.0963643  96.5566228  95.2736966  85.8946218
  95.0517322  95.2404509  85.7331349 100.5820474  98.1504741  90.4476011
 100.6357496  98.7195678  91.2153727  99.7135255  98.3206626  90.0830048
  92.0708393  89.9129728  82.1723396  91.1405981  89.8514183  82.3893358
  92.1665865  89.3905680  81.3760037  91.9893942  86.4384540  84.7601638
  92.2500759  87.3529874  84.6510798  92.8111114  85.9708983  84.9098250
  93.4618867  87.8522298  91.9300462  94.1341920  87.6439660  91.2813111
  92.6348654  87.6544384  91.4905694 107.7108128  94.5926348  91.4475796
 107.9044018  95.4972158  91.6935071 107.6108746  94.1333767  92.2814381
  99.3644439  84.4784239  93.9466123  98.7172354  85.1774188  93.8530599
 100.1345454  84.9120382  94.3142371 102.7723237  94.7433091  97.0216676
 102.6208743  94.5143642  96.1046760 102.7627916  95.7003692  97.0348021
  99.5408573  92.3165003  92.0062943 100.4700633  92.4676163  91.8331910
  99.1199603  92.4049024  91.1511589  98.3396905  96.3415668  89.7761480
  98.2007991  95.9734452  90.6487418  97.5511501  96.8563307  89.6045438
  98.9345057 101.4424764  81.1187017  99.1096813 100.9712808  81.9332640
  98.2477845 102.0690531  81.3468278  99.8902120  95.7197271  87.1650318
  99.5551953  95.6798041  88.0607968  99.3906066  95.0541986  86.6920728
  93.8646364  91.1264901  92.6902899  93.7266162  90.3945139  93.2914438
  94.7751288  91.0373801  92.4087087 102.8261312  93.0653305  77.4387378
 102.2090483  92.3400133  77.3420430 102.3577800  93.8262665  77.0954452
  96.4928665  90.8384860  92.1786579  97.2028283  90.1978052  92.1373197
  96.4497973  91.0897755  93.1012760 104.4815444  97.7752213  95.0993158
 104.4227990  97.0911433  94.4323741 104.8834962  98.5171203  94.6473784
  95.2057599  87.8250078  93.9982218  94.6694956  87.3740816  94.6503815
  94.6174307  87.9595987  93.2552683  93.5006142 104.5914127  87.8926877
  93.7402741 105.2232651  88.5705896  92.6575339 104.2402167  88.1792236
  94.6159858  87.2838729  76.5608682  93.7389324  87.1627530  76.1970929
  95.0917611  86.4924807  76.3087571 104.4832851  95.7391797  93.3307138
 103.5959630  95.4017719  93.4533537 105.0531402  95.0074828  93.5675903
  86.1361998  92.0715889  86.6550189  86.8233038  91.7577619  86.0671204
  85.9810127  92.9757254  86.3817441  90.9396720  86.9606085  91.0835213
  90.8554909  86.3531755  90.3485623  90.1179427  87.4515104  91.0844709
  98.0134004 100.3993250  90.2968381  97.9404176 101.2048221  90.8087686
  97.5711397 100.5985215  89.4716402  97.8023784  99.6365020  83.8071203
  97.0191306 100.1786700  83.9009427  98.5016529 100.1538999  84.2065444
 101.1120434  85.4459649  86.4505408 101.6089134  84.6929611  86.1306478
 100.3407416  85.4823966  85.8848617 108.9650191  91.1500015  88.0923699
 108.9540068  92.0324730  87.7217633 108.0967571  90.7971565  87.8978236
 100.4732688 100.2980084  92.4526540 101.1860660 100.9327548  92.3802441
  99.9822716 100.3943950  91.6366541 102.1950215  94.2031336  84.0243831
 101.2606493  94.3232799  83.8548536 102.3726883  93.3003803  83.7603841
  97.6955403  87.5877032  86.1777093  97.3253190  87.0348072  86.8657998
  98.1914495  86.9835165  85.6252093 105.5822766  90.0448656  84.5593865
 106.0483218  90.8776647  84.4854168 106.0330267  89.5793637  85.2639124
  95.5244601  98.0474527  93.2732110  96.2254061  98.6811010  93.4261505
  95.0539716  98.3889259  92.5127750 103.6498997  96.3892477  81.5580017
 103.9258841  96.2749071  82.4673892 102.7803496  95.9909962  81.5192191
 103.5539429  82.4129242  88.5984767 102.6402509  82.6433469  88.7666974
 103.9832530  82.4967687  89.4498799 103.3245887  90.6019134  91.0984661
 102.6717338  90.8495042  90.4437114 103.7026267  89.7883273  90.7647138
 100.2853061 100.6378828  85.2012831 100.4675456  99.8200484  85.6640583
 101.1086047 100.8546520  84.7637721 100.6195227  99.5647013  82.4627880
 101.1482993  99.0539467  81.8498042 100.8823446  99.2489543  83.3273413
  99.3733460  91.3438946  97.5850698  98.6974097  91.2433075  98.2553073
 100.1961094  91.1878159  98.0486695  91.1212319  97.5810882  90.2063213
  91.7065756  96.8354570  90.3391117  90.9237158  97.8914839  91.0899877
  93.9750975 100.6162129  85.2225656  93.3061350 101.1008257  84.7389696
  93.8363844 100.8631350  86.1369034  85.7129974  90.1516482  88.9267656
  85.7514074  89.6180073  89.7204774  85.2070267  89.6251688  88.3078633
  98.1156243 102.6505873  91.8208314  98.6674551 102.8137494  92.5857399
  98.4562437 103.2410311  91.1488339  93.0920736  84.9981023  92.4230199
  93.1562063  85.8595854  92.0107596  93.0287857  84.3855024  91.6902557
  92.5673009  87.0704155  96.0703233  93.1945048  86.6881233  96.6840757
  91.7100928  86.8518357  96.4358925  89.3438552  88.8780584  82.0021588
  89.6391993  87.9691263  81.9488641  88.4426588  88.8568324  81.6802590
 101.2524631 100.5987848  88.8071996 101.1275770  99.7977588  88.2982942
 101.9103722 101.0934042  88.3185966  92.8732799  86.9536581  87.9849136
  92.1519385  87.5672549  87.8456610  93.6626055  87.4894346  87.9065782
 103.3159539  98.3996869  90.4351546 102.3689874  98.2802220  90.3629873
 103.6642312  97.5119367  90.5177808  95.6759112  84.2891007  94.2589788
  96.1993514  84.5353304  95.0216097  95.4571446  85.1211042  93.8392925
  91.0726393  86.5594682  82.1260913  90.7439099  85.6792061  81.9436019
  91.4265764  86.5042351  83.0137302 100.3205972  98.1949585  86.6355898
 100.1730935  97.2666292  86.8163468 101.1459466  98.2169676  86.1512974
  94.1868216  86.8467652  82.4936391  94.5264289  87.3753573  81.7714999
  94.6340337  87.1848058  83.2694957 103.9240094  99.0178144  87.7220771
 104.8486642  98.8121005  87.5845222 103.7555397  98.7694545  88.6310113
  96.8811657  85.2304703  91.9439459  96.5408478  84.4312516  92.3460138
  96.1750664  85.5306413  91.3716292  97.5328129  82.3154015  90.3966782
  98.3554198  81.8414493  90.2745672  97.7766193  83.0944499  90.8965468
  96.1736364  85.3442273  80.6929683  96.8944726  85.7223526  80.1893400
  95.5501668  86.0631150  80.7964661 100.3167487  86.0487422  81.6288016
 100.5331101  86.9312060  81.3276844  99.8361554  85.6573636  80.8993658
  95.0566708  89.0073136  88.2058760  94.9111289  89.3213439  89.0983042
  94.5791912  89.6258036  87.6529659  96.9163091  85.9975684  88.2539650
  96.9024660  85.1016777  87.9171948  97.6335519  86.0046347  88.8877936
  98.7689221  86.4313024  90.2992777  98.5106999  87.3530095  90.2977108
  98.2374262  86.0343458  90.9893241 103.7135410  99.5363811  83.0782863
 103.8872288  98.9710233  82.3256715 104.2064301 100.3364706  82.8962353
  89.5312370  91.5478480  91.1446421  88.9865838  92.3238288  91.2766696
  90.4091720  91.8949285  90.9865543  96.3199987  84.8790064  83.5227220
  96.4415898  83.9506710  83.7218107  96.0302029  84.8928750  82.6105535
  99.1891177  82.5644974  86.6593940  99.2112874  82.6284307  85.7045919
  99.6059236  81.7249483  86.8534446 109.5674801  92.3000234  84.6973162
 110.0105947  91.5507559  84.2992286 108.6901312  92.2910370  84.3146894
 104.7010583  98.8530575  80.1779761 105.3961487  99.4737268  80.3967075
 105.0433733  98.0025927  80.4532139  90.3178392  90.6748376  94.0376578
  89.5760128  90.8231012  94.6241209  89.9971136  90.9356642  93.1743328
 106.6002006  96.3030281  81.7067092 107.1253330  96.6417554  80.9816412
 106.5124358  95.3677296  81.5230226  98.2622055 100.2164355  93.8356968
  98.5709181  99.9713501  94.7079668  99.0597537 100.4210993  93.3475838
  98.2842667 102.3702264  86.0662345  97.8447657 101.8778643  86.7595202
  99.0350784 101.8275232  85.8254420  90.7635006  98.5613805  86.0686973
  91.5893026  98.2617577  85.6885616  90.4129058  97.7921427  86.5176762
  95.7316539  97.9140273  88.1384646  95.1096548  97.2510978  87.8386874
  96.4021406  97.9401405  87.4558294  88.9643611  96.4800132  87.0275906
  88.1275519  96.0522306  86.8459908  88.9367256  96.6732575  87.9646698
  95.8041066  86.3922061  97.7317153  95.8529222  87.2684184  97.3494922
  96.3463580  85.8499454  97.1588796 106.4093787  93.7855651  94.3251018
 106.4591792  93.6205658  95.2666541 106.3007710  92.9182910  93.9348899
  95.2930046  96.4644197  81.6143107  95.4418166  97.1479661  80.9609780
  96.0996489  96.4449287  82.1292563 103.6997549  89.7686579  95.6410325
 104.6007412  89.6293044  95.3494323 103.7745524  89.9341034  96.5808502
  98.0340355  87.1453434  94.4863511  97.1643664  87.4387000  94.2146100
  98.2699835  87.7293879  95.2070775 107.9111984  96.2052592  94.5693040
 107.6196792  96.5682573  95.4056501 107.2984115  95.4919601  94.3906372
 109.1107666  93.7705472  87.0895610 109.9454558  94.2095276  87.2533170
 109.2466795  93.2944125  86.2703856 106.1599172  91.3285207  93.0373098
 106.6353294  91.5212853  92.2291949 105.2364737  91.3844393  92.7916481
  93.0482679  92.4909374  82.6204176  92.8028721  91.5871704  82.8184386
  93.2178593  92.4926525  81.6783654 100.7379389  83.3633051  92.0028932
 101.2561332  84.0994078  91.6775420 100.3834521  83.6697044  92.8375691
  92.3178326  88.2237732  80.1190337  91.6247571  88.2982087  79.4630373
  92.0730078  87.4598075  80.6411854 100.9891983  79.7833333  87.5229828
 101.2693736  79.1156522  88.1490255 101.7742590  79.9762429  87.0104492
  98.7925451  98.9592327  79.0854854  98.2199418  99.5782514  78.6325326
  99.3658245  99.5091689  79.6194776 104.8600841  88.2050967  91.2701403
 105.8118264  88.3049065  91.2913627 104.6904291  87.4129236  91.7799488
 102.8815221  85.2906550  91.4560804 102.2865153  85.5711563  90.7607293
 102.5964917  85.7800451  92.2277545 102.0122711  99.2429477  80.2163437
 102.9453384  99.1775039  80.4196312 101.9245924 100.0785744  79.7577969
 104.6410728  98.5595348  77.1767384 104.5624359  98.2255211  78.0703142
 105.4620394  99.0517115  77.1758857 107.3388919  91.4257087  90.3843703
 107.3065239  90.4873088  90.5703387 107.9489542  91.5041124  89.6509528
  99.1772250  90.2953140  76.4270907 100.1231354  90.1659348  76.4959325
  98.7986495  89.5567802  76.9040335 107.4883407  88.2168130  90.4301986
 106.9722456  87.4326587  90.2431915 108.3723356  87.8886847  90.5948506
 105.1494134  81.9609146  86.3897799 104.9518955  81.6524234  87.2741131
 105.7593840  82.6870785  86.5195729 113.1565469  92.4873094  89.5249740
 113.8868857  92.2258382  90.0857443 112.5472414  91.7501816  89.5651808
 111.2380766  90.6280956  90.1224191 110.5113929  90.4936921  89.5140682
 110.8228053  90.9357785  90.9280909  99.0610942  94.3470886  97.8871564
  99.9813952  94.5249485  98.0811610  99.0260525  93.4026931  97.7351263
  97.3615167  88.2203116  76.3625792  96.4546622  87.9236229  76.4388506
  97.6391148  87.9232934  75.4960078  88.2793107  89.5409480  86.8124839
  87.9595892  88.6874788  86.5199213  87.7326535  89.7558058  87.5682806
  92.0573015  92.2571921  90.5294345  92.2759025  93.1889028  90.5482379
  92.4698789  91.8979895  91.3149149  98.9777233  82.7640006  82.5170033
  98.1677961  82.4187091  82.8925280  99.6661650  82.4547550  83.1057645
 100.9067781  81.8418053  84.1394330 101.4598819  82.2613506  84.7984353
 101.1437867  80.9153801  84.1817286  96.9300880  87.8305126  99.9197094
  96.8297607  88.7799483  99.8509185  96.7122422  87.5023365  99.0473164
  96.1313951  85.0790051  76.5037771  96.9933115  85.4044950  76.7633589
  96.3164296  84.2921547  75.9910837  88.1481367  93.1612391  88.7817960
  87.4544839  92.7466344  88.2687915  88.8954358  93.2032928  88.1851379
 104.2846588  83.9518578  83.6472994 103.7045257  84.6103382  83.2651047
 104.0182521  83.1295922  83.2360412 102.7350154  83.3523636  85.8494315
 103.2349933  83.4640170  85.0408634 103.3785762  83.0484688  86.4895123
  96.7932150  91.2602265  98.7362156  96.3099232  92.0602625  98.9426045
  96.8793089  91.2710210  97.7829600  90.0618110  93.0930645  86.6583975
  90.0388798  93.1918332  85.7065858  90.3718746  93.9395796  86.9801141
  92.7205488  95.1506800  90.7730589  93.6748741  95.1190742  90.7060521
  92.5218011  94.6897424  91.5880815  93.3104870  93.7207916  93.3401387
  94.1297759  94.2151995  93.3636224  93.5841677  92.8039884  93.3118955
 103.0671466  86.1118668  82.7029343 102.1797321  86.3968319  82.4849537
 103.4825455  85.9512432  81.8556620 106.4186002  86.1365189  86.4183682
 107.1946392  86.6261642  86.6908299 105.6934136  86.5623243  86.8755551
 108.8558561  86.8492808  87.4757622 109.4503052  86.6088544  86.7650931
 108.9285144  86.1299939  88.1031159  91.0755716 100.6926419  87.7900787
  90.9410184  99.9326820  87.2238785  90.6587779 101.4167319  87.3229576
 102.2114679  95.8763343  76.7977363 102.9150530  96.0813345  77.4135018
 101.4877328  96.4440105  77.0626446 103.0412490  91.6273204  82.9179633
 102.9847691  92.0841756  82.0787265 103.5940832  90.8663889  82.7402476
 106.8517296  87.4162936  83.7429752 106.5954230  87.0159572  84.5737960
 106.2270164  88.1306730  83.6179891 111.1629633  90.1559009  86.2501044
 110.6029191  90.2252199  87.0232606 110.5573137  89.9799994  85.5300540
  94.2324842 101.5895736  88.0019230  94.1157226 102.5341169  87.8997920
  93.4117289 101.2869298  88.3905029 104.1201377  96.3145872  78.8475823
 104.9546981  95.8827071  78.6653297 103.9585720  96.1427886  79.7752717
 103.7747269  92.8177985  80.2132162 103.7196073  92.6522257  79.2720606
 103.1493324  93.5254018  80.3694352  88.5639784  88.0546050  94.0393584
  89.2098648  87.5445004  94.5280809  88.3556935  88.7914731  94.6137009
  97.0843394  82.3186094  79.7917480  97.0722064  83.2627934  79.9485751
  97.9766816  82.1356240  79.4976942  95.2579356 102.2423998  91.2175158
  96.1606603 102.2747609  91.5341653  95.0316726 101.3124449  91.2321494
  97.0132958 100.9954985  87.8785237  96.0628589 100.9956846  87.7649609
  97.3165445 100.2487719  87.3621272 100.8995514  78.9128871  84.0463417
 100.1327910  78.3587358  84.1920100 101.3106219  78.9850740  84.9077569
  92.9037275  85.2013667  98.1368598  93.7668737  84.8450472  98.3471923
  92.3302686  84.8627562  98.8244003 105.4162174 108.6378428  84.8689415
 104.8527039 108.5468365  84.1005703 105.3014569 107.8178332  85.3491908
 102.9626606 110.1329619  87.7073636 103.7547898 109.7920444  87.2919935
 103.2023256 110.2424594  88.6275789 104.9217360 109.3938533  80.5791014
 105.6948236 108.8467520  80.4403890 105.2742759 110.2582782  80.7905476
 107.2583638 105.5531199  78.2109464 107.5109158 105.0312720  77.4492927
 106.3208197 105.3897344  78.3136148 112.3026920 104.5566977  86.0184207
 113.0890010 104.1386400  85.6674624 112.5665625 105.4613069  86.1865856
 106.9779926 107.4559305  80.4133839 106.8616184 106.7804208  81.0814923
 107.0882186 106.9691679  79.5965992 109.3211467 106.9169452  84.1180528
 108.9569674 106.3900073  84.8293450 110.1778583 106.5267921  83.9447014
 108.9616954 101.9459351  79.1141877 109.1291357 102.8139588  79.4812348
 108.7714123 102.1086633  78.1903166 105.1704769 106.8590127  86.8144412
 104.2455265 106.7266341  87.0222103 105.4189182 107.6384346  87.3114354
 108.9406175 104.4017009  80.0988544 108.8205800 104.8474060  80.9374024
 108.2458763 104.7502327  79.5402082 102.5313580 106.5023401  87.6488201
 102.6605961 106.7557880  88.5627613 101.8511031 107.0951109  87.3292856
 114.6391241 104.8738482  80.9268878 115.5509097 105.1065869  80.7516575
 114.1300888 105.4575526  80.3643956 111.9827216 101.0496518  89.1758739
 111.1211695 101.3477772  89.4675476 112.0089651 101.2666917  88.2439771
 108.7988785 109.5938709  85.5832544 109.2627131 109.8726412  84.7937167
 108.5345584 108.6922153  85.4005635 107.7357672 105.7161861  82.3922109
 108.4381715 106.1682905  82.8596036 107.4038300 105.0745680  83.0202003
 101.4783005 103.9745414  87.6939243 100.6882059 104.2302942  87.2179354
 101.9694253 104.7893752  87.7991284 103.4297751 104.3389993  84.6522720
 102.6328914 104.4508687  85.1706215 103.2023343 104.6776645  83.7863610
  99.7620708 104.2275904  90.1254234 100.0128747 105.1122914  90.3911810
 100.2980257 104.0480506  89.3529326 102.4280834 110.0478242  83.0412140
 102.9405354 110.8421492  83.1917704 103.0803546 109.3504532  82.9745741
 104.2375718 113.1643998  85.1234893 104.4142347 114.0861963  84.9355877
 105.0332552 112.8502417  85.5529273 112.3243900  96.0533366  90.9983108
 111.9808169  96.9435007  90.9222219 112.6922862  95.8635023  90.1352693
 100.3929750 108.3766896  83.8171710 101.2304972 108.7863904  83.6005418
 100.5708018 107.4366338  83.7871904 112.2894182 106.0441977  79.5055543
 111.7740806 106.8146581  79.7443931 112.0171491 105.3707113  80.1288605
 109.8741293 100.8891677  84.5640782 109.0182890 100.4998528  84.3846420
 110.2868245 100.9683638  83.7040567 111.4040440  98.4238021  88.9632341
 110.9005236  98.3868156  88.1500147 111.6971047  99.3330763  89.0228998
 107.6483326  98.5076750  87.9698523 108.5136323  98.3119559  87.6104413
 107.7160835  98.2787102  88.8967880 112.0780486 103.9169069  81.3315324
 111.7730621 104.2315218  82.1825468 113.0310928 103.9950489  81.3742657
 110.5226917 110.0759292  82.9808278 109.9948279 109.3412052  82.6681516
 110.0214420 110.8533968  82.7348247 105.2545645 100.7378958  85.3414890
 105.8289397 100.5154140  84.6088083 105.8416627 100.8067653  86.0943491
 105.5815232 102.7683419  79.3610775 104.7452544 103.1058106  79.6820050
 105.4420002 102.6332399  78.4237912 107.5568313  97.6120207  84.0689959
 106.9032725  97.2969224  83.4446574 107.5148787  96.9895948  84.7949782
 108.6679518 107.8939502  75.9843251 107.7606579 107.6628756  76.1834400
 109.1650550 107.0977122  76.1717233 110.7906053 104.1002141  88.3937607
 109.8728615 104.3217088  88.2359295 111.2066197 104.1748451  87.5349314
 111.5741101 105.4993557  83.5240287 112.3212920 106.0114954  83.2147409
 111.8432690 105.1777609  84.3844681 109.8467751 107.9952097  80.5067242
 108.9378970 107.7111130  80.6039711 109.8762835 108.4151176  79.6470548
 114.0219938 102.5350673  85.5059077 113.2842695 102.0228059  85.8369319
 114.2746712 102.0951054  84.6942353 114.1231565  95.3126925  86.1000846
 114.4290442  94.4524288  85.8126761 114.8484170  95.9044545  85.8999840
 100.4155921 105.7157611  84.4882444 100.2180321 105.1226972  83.7633510
  99.8602585 105.4109822  85.2058383 108.3952645 105.6080718  86.6077037
 108.4501255 104.6554554  86.5319514 107.5843847 105.7640157  87.0918335
 109.5443839 109.5360841  77.8455320 109.1063269 108.8196700  77.3860957
 110.2854280 109.7636956  77.2840412 106.3345005 104.2257778  84.3667416
 105.5212871 104.5251948  84.7732608 106.8303999 103.8313466  85.0841898
 105.8259080 101.7976133  89.9828651 106.4658459 101.6564892  89.2851614
 104.9936610 101.5110646  89.6067253 106.6019384 111.0978564  86.0963643
 107.3959982 110.6028884  85.8946218 105.8911076 110.5696427  85.7331349
 102.9102147 105.2421645  82.1723396 101.9799735 105.1806101  82.3893358
 103.0059619 104.7197598  81.3760037 102.8287696 101.7676458  84.7601638
 103.0894514 102.6821791  84.6510798 103.6504869 101.3000901  84.9098250
 104.3012622 103.1814215  91.9300462 104.9735675 102.9731577  91.2813111
 103.4742408 102.9836301  91.4905694 113.6655066 108.3945223  77.4387378
 113.0484237 107.6692051  77.3420430 113.1971555 109.1554583  77.0954452
 105.4553612 102.6130647  76.5608682 104.5783079 102.4919448  76.1970929
 105.9311365 101.8216725  76.3087571  96.9755753 107.4007807  86.6550189
  97.6626792 107.0869537  86.0671204  96.8203881 108.3049171  86.3817441
 101.7790475 102.2898003  91.0835213 101.6948663 101.6823673  90.3485623
 100.9573181 102.7807021  91.0844709 111.9514189 100.7751567  86.4505408
 112.4482888 100.0221529  86.1306478 111.1801170 100.8115883  85.8848617
 113.0343969 109.5323254  84.0243831 112.1000248 109.6524716  83.8548536
 113.2120638 108.6295721  83.7603841 108.5349157 102.9168950  86.1777093
 108.1646945 102.3639990  86.8657998 109.0308250 102.3127083  85.6252093
 116.4216521 105.3740573  84.5593865 116.8876973 106.2068565  84.4854168
 116.8724021 104.9085555  85.2639124 114.3933183  97.7421160  88.5984767
 113.4796263  97.9725387  88.7666974 114.8226285  97.8259604  89.4498799
  96.5523729 105.4808400  88.9267656  96.5907828 104.9471991  89.7204774
  96.0464021 104.9543605  88.3078633 103.9314491 100.3272940  92.4230199
 103.9955817 101.1887771  92.0107596 103.8681611  99.7146942  91.6902557
 100.1832306 104.2072502  82.0021588 100.4785747 103.2983181  81.9488641
  99.2820342 104.1860242  81.6802590 103.7126553 102.2828499  87.9849136
 102.9913139 102.8964466  87.8456610 104.5019809 102.8186263  87.9065782
 101.9120148 101.8886600  82.1260913 101.5832854 101.0083979  81.9436019
 102.2659519 101.8334268  83.0137302 105.0261971 102.1759570  82.4936391
 105.3658043 102.7045491  81.7714999 105.4734091 102.5139976  83.2694957
 107.7205412 100.5596620  91.9439459 107.3802232  99.7604433  92.3460138
 107.0144418 100.8598331  91.3716292 108.3721884  97.6445933  90.3966782
 109.1947953  97.1706411  90.2745672 108.6159947  98.4236416  90.8965468
 107.0130118 100.6734191  80.6929683 107.7338481 101.0515444  80.1893400
 106.3895422 101.3923068  80.7964661 111.1561241 101.3779340  81.6288016
 111.3724855 102.2603978  81.3276844 110.6755308 100.9865554  80.8993658
 105.8960462 104.3365053  88.2058760 105.7505043 104.6505356  89.0983042
 105.4185666 104.9549954  87.6529659 107.7556845 101.3267601  88.2539650
 107.7418414 100.4308695  87.9171948 108.4729273 101.3338265  88.8877936
 109.6082976 101.7604942  90.2992777 109.3500754 102.6822012  90.2977108
 109.0768016 101.3635376  90.9893241 100.3706125 106.8770398  91.1446421
  99.8259593 107.6530206  91.2766696 101.2485474 107.2241202  90.9865543
 107.1593741 100.2081982  83.5227220 107.2809652  99.2798628  83.7218107
 106.8695784 100.2220668  82.6105535 110.0284932  97.8936892  86.6593940
 110.0506628  97.9576225  85.7045919 110.4452991  97.0541401  86.8534446
 101.6028760 113.8905723  86.0686973 102.4286780 113.5909495  85.6885616
 101.2522812 113.1213345  86.5176762  99.8037365 111.8092049  87.0275906
  98.9669273 111.3814224  86.8459908  99.7761011 112.0024493  87.9646698
 106.1323800 111.7936114  81.6143107 106.2811921 112.4771579  80.9609780
 106.9390244 111.7741204  82.1292563 103.8876433 107.8201292  82.6204176
 103.6422475 106.9163622  82.8184386 104.0572348 107.8218442  81.6783654
 103.1572081 103.5529650  80.1190337 102.4641326 103.6274004  79.4630373
 102.9123833 102.7889993  80.6411854 111.8285737  95.1125251  87.5229828
 112.1087491  94.4448440  88.1490255 112.6136344  95.3054346  87.0104492
 110.0166004 105.6245058  76.4270907 110.9625109 105.4951266  76.4959325
 109.6380249 104.8859719  76.9040335 115.9887889  97.2901064  86.3897799
 115.7912710  96.9816152  87.2741131 116.5987594  98.0162702  86.5195729
 108.2008921 103.5495034  76.3625792 107.2940377 103.2528147  76.4388506
 108.4784902 103.2524852  75.4960078  99.1186862 104.8701397  86.8124839
  98.7989646 104.0166705  86.5199213  98.5720290 105.0849975  87.5682806
 109.8170987  98.0931924  82.5170033 109.0071715  97.7479009  82.8925280
 110.5055404  97.7839467  83.1057645 111.7461535  97.1709970  84.1394330
 112.2992574  97.5905424  84.7984353 111.9831622  96.2445719  84.1817286
 106.9707706 100.4081969  76.5037771 107.8326870 100.7336867  76.7633589
 107.1558050  99.6213465  75.9910837  98.9875122 108.4904309  88.7817960
  98.2938593 108.0758262  88.2687915  99.7348113 108.5324845  88.1851379
 115.1240342  99.2810496  83.6472994 114.5439011  99.9395300  83.2651047
 114.8576275  98.4587840  83.2360412 113.5743909  98.6815553  85.8494315
 114.0743687  98.7932088  85.0408634 114.2179517  98.3776606  86.4895123
 100.9011864 108.4222563  86.6583975 100.8782552 108.5210250  85.7065858
 101.2112501 109.2687713  86.9801141 113.9065220 101.4410586  82.7029343
 113.0191075 101.7260237  82.4849537 114.3219210 101.2804349  81.8556620
 117.2579757 101.4657107  86.4183682 118.0340147 101.9553559  86.6908299
 116.5327891 101.8915161  86.8755551 113.8806244 106.9565122  82.9179633
 113.8241446 107.4133673  82.0787265 114.4334587 106.1955806  82.7402476
 117.6911050 102.7454854  83.7429752 117.4347984 102.3451489  84.5737960
 117.0663918 103.4598648  83.6179891 114.6141024 108.1469903  80.2132162
 114.5589827 107.9814175  79.2720606 113.9887079 108.8545936  80.3694352
  99.4033538 103.3837968  94.0393584 100.0492402 102.8736921  94.5280809
  99.1950690 104.1206649  94.6137009 107.9237149  97.6478012  79.7917480
 107.9115819  98.5919852  79.9485751 108.8160571  97.4648158  79.4976942
 111.7389268  94.2420789  84.0463417 110.9721664  93.6879275  84.1920100
 112.1499973  94.3142658  84.9077569  44.5212833  -8.1846432  75.6037831
  44.1831344  -8.3005367  74.7158366  45.3902601  -8.5855267  75.5838837
  40.3799648  -6.3310956  71.5934722  39.8164513  -6.4221019  70.8251009
  40.2652043  -7.1511051  72.0737214  45.0032616  -7.0311580  81.5624036
  44.9921256  -7.4258782  80.6904540  45.1653255  -7.7645508  82.1557808
  37.9264080  -4.8359764  74.4318942  38.7185372  -5.1768939  74.0165241
  38.1660730  -4.7264789  75.3521095  45.9599207  -2.6639988  66.9049187
  45.3087187  -2.0785908  66.5183200  46.7543570  -2.1333793  66.9644224
  39.8854834  -5.5750851  67.3036321  40.6585710  -6.1221864  67.1649197
  40.2380233  -4.7106602  67.5150782  41.7239877  -4.2474469  80.5103220
  41.4329743  -3.3428838  80.3949887  42.3596861  -4.2057941  81.2247290
  42.6496084  -6.8697620  77.1004580  43.2459656  -7.0941598  76.3861543
  42.7071055  -7.6112875  77.7030028  47.4374472  -4.9749556  67.4418171
  46.8020305  -4.9014930  68.1539076  47.1071878  -4.3855957  66.7637250
  41.9417401  -7.5130079  67.1379146  41.8253659  -8.1885175  67.8060230
  42.0519661  -7.9997705  66.3211299  44.2848942  -8.0519932  70.8425835
  43.9207149  -8.5789311  71.5538757  45.1416057  -8.4421463  70.6692320
  46.6829762  -4.5613053  77.5053014  46.3830485  -3.6588014  77.3968821
  46.3380821  -4.8280870  78.3574167  40.1342243  -8.1099256  73.5389718
  39.2092740  -8.2423042  73.7467410  40.3826656  -7.3305037  74.0359661
  41.6650542   2.2031267  70.4723982  41.5874571   3.1539092  70.5512462
  41.0612185   1.8577140  71.1298908  42.4114144  -7.8155414  82.6903316
  43.1528828  -7.2770370  82.4138139  41.7051129  -7.1889125  82.8474867
  47.8869483  -5.6726273  81.2875477  48.2952839  -6.1143863  80.5430109
  47.1646745  -6.2473646  81.5409670  48.2098298  -5.1125083  75.0427766
  47.5807160  -4.9479369  74.3403834  47.8223960  -4.6983473  75.8138730
  52.0887530  -4.1770645  72.3972130  51.4038568  -3.7971744  71.8469163
  52.1731379  -3.5675318  73.1304077  49.3438461  -6.5310686  78.9967473
  49.5555357  -5.8878926  78.3201854  49.2968210  -7.3648369  78.5289403
  43.7626260  -5.3750675  72.3077851  44.2264605  -5.0962972  71.5182473
  43.4983058  -6.2767230  72.1250942  40.6550341  -5.8279193  75.2457614
  41.2251698  -5.3991925  74.6075099  41.2458453  -6.1096609  75.9441800
  50.4584289  -3.6538731  77.1689831  51.2801733  -4.0558543  76.8872512
  50.4546692  -3.7570496  78.1205946  44.2240893  -4.1054687  79.3250541
  44.2885325  -3.6434280  80.1608713  43.5151817  -4.7357322  79.4532851
  43.9388910  -2.4386580  69.1929521  43.8034585  -1.5935044  69.6214369
  44.4798723  -2.2367302  68.4295455  37.3918308  -4.9211142  69.7657446
  37.9042828  -4.1267891  69.9163011  38.0441021  -5.6184851  69.6991048
  39.2013193  -1.8045385  71.8480200  39.3779821  -0.8827421  71.6601184
  39.9970026  -2.1186966  72.2774579  45.5657387  -1.8163013  83.3229863
  45.1221241  -2.6026635  83.0050768  46.2274600  -1.6283863  82.6573754
  40.3244508  -0.2867212  77.8490542  40.8751933  -0.4150148  77.0767536
  39.4855984   0.0127677  77.4985435  47.6638625  -1.5360213  81.3511265
  47.6457100  -0.7151332  80.8591534  48.5858545  -1.6606138  81.5761406
  44.1211679  -4.0216084  82.1934773  44.6540016  -4.7827796  81.9634081
  43.5925760  -4.3142432  82.9358928  45.4864392  -4.8930091  69.7053585
  44.9585753  -5.6277332  69.3926823  44.9851894  -4.1155415  69.4593553
  50.4657238  -6.6981071  74.8220631  49.8080912  -6.0081809  74.9100760
  51.2697637  -6.3084639  75.1654618  43.6316992  -7.0749881  62.7088558
  42.7244054  -7.3060628  62.9079707  44.1288024  -7.8712262  62.8962540
  46.5385071   1.6347626  65.6285244  45.8646770   1.9379323  66.2370202
  46.9250893   2.4376706  65.2790701  44.8105225  -6.9737286  67.2312548
  43.9016445  -7.2578253  67.3285018  44.8400309  -6.5538208  66.3715855
  50.0424493  -3.3630697  71.0003716  49.5886820  -4.2039787  71.0568906
  49.4118460  -2.7269298  71.3378496  48.4857432  -1.5254200  71.9353534
  48.7780406  -0.9649143  71.2165900  48.9956053  -1.2325639  72.6906693
  44.5081313  -5.4328543  64.5700627  44.0700743  -6.1492684  64.1106264
  45.2491754  -5.2052428  64.0085718  43.4491057  -0.7473849  73.0246987
  43.4067236  -0.5213003  72.0955519  44.3653756  -0.9810474  73.1732788
  52.6523808  -5.0894819  75.6388217  53.0860314  -5.1819529  76.4871271
  53.3655388  -5.1137318  75.0008233  41.5656858  -3.8710820  72.8208950
  42.3597456  -4.3660500  72.6191525  40.8548550  -4.3992957  72.4576655
  46.3851702  -1.4892724  77.1721317  46.4388725  -0.9201788  77.9399033
  45.5166484  -1.3190839  76.8075355  53.5139357  -5.0471118  78.1721102
  53.7075247  -4.1425307  78.4180377  53.4139975  -5.5063699  79.0059687
  48.5754466  -4.8964375  83.7461983  48.4239972  -5.1253823  82.8292067
  48.5659145  -3.9393774  83.7593328  45.3439802  -7.3232462  78.7308249
  46.2731862  -7.1721303  78.5577217  44.9230832  -7.2348442  77.8756896
  44.1428134  -3.2981798  76.5006787  44.0039220  -3.6663014  77.3732725
  43.3542730  -2.7834159  76.3290745  44.7376286   1.8027299  67.8432323
  44.9128042   1.3315342  68.6577946  44.0509074   2.4293065  68.0713584
  45.6933349  -3.9200195  73.8895625  45.3583182  -3.9599425  74.7853275
  45.1937295  -4.5855479  73.4166035  39.6677593  -8.5132565  79.4148206
  39.5297391  -9.2452326  80.0159745  40.5782517  -8.6023665  79.1332394
  48.6292541  -6.5744161  64.1632684  48.0121711  -7.2997333  64.0665737
  48.1609029  -5.8134801  63.8199759  42.2959894  -8.8012606  78.9031886
  43.0059512  -9.4419414  78.8618504  42.2529202  -8.5499711  79.8258066
  50.2846672  -1.8645253  81.8238465  50.2259219  -2.5486032  81.1569048
  50.6866191  -1.1226263  81.3719091  39.3037371   4.9516661  74.6172184
  39.5433969   5.5835185  75.2951202  38.4606568   4.6004701  74.9037543
  50.2864080  -3.9005669  80.0552444  49.3990858  -4.2379747  80.1778843
  50.8562631  -4.6322637  80.2921210  43.8165233   0.7595784  77.0213688
  43.7435405   1.5650755  77.5332992  43.3742626   0.9587750  76.1961709
  43.6055013  -0.0032446  70.5316509  42.8222535   0.5389234  70.6254734
  44.3047758   0.5141533  70.9310750  46.2763917   0.6582618  79.1771846
  46.9891889   1.2930083  79.1047748  45.7853945   0.7546484  78.3611848
  47.9981444  -5.4366130  70.7489138  47.0637722  -5.3164667  70.5793842
  48.1758112  -6.3393663  70.4849148  41.3275830  -1.5922939  79.9977417
  42.0285290  -0.9586456  80.1506811  40.8570945  -1.2508207  79.2373056
  49.4530226  -3.2504989  68.2825324  49.7290070  -3.3648394  69.1919198
  48.5834725  -3.6487504  68.2437497  46.0884290   0.9981362  71.9258138
  46.2706685   0.1803018  72.3885890  46.9117276   1.2149054  71.4883028
  46.4226456  -0.0750453  69.1873186  46.9514222  -0.5857998  68.5743348
  46.6854675  -0.3907923  70.0518719  45.1764689  -8.2958520  84.3096005
  44.5005326  -8.3964391  84.9798380  45.9992323  -8.4519307  84.7732002
  36.9243548  -2.0586584  76.9308520  37.5096985  -2.8042896  77.0636424
  36.7268387  -1.7482627  77.8145184  39.7782203   0.9764664  71.9470962
  39.1092579   1.4610791  71.4635002  39.6395073   1.2233884  72.8614341
  43.9187472   3.0108407  78.5453621  44.4705780   3.1740029  79.3102706
  44.2593665   3.6012845  77.8733645  48.7698346  -2.1630335  84.4002275
  49.3138250  -1.5500377  83.9057230  48.1885191  -1.6050757  84.9169288
  47.0555859   0.9590383  75.5317303  46.9306999   0.1580123  75.0228248
  47.7134950   1.4536576  75.0431273  49.1190768  -1.2400597  77.1596853
  48.1721103  -1.3595246  77.0875180  49.4673541  -2.1278099  77.2423114
  46.1237201  -1.4447881  73.3601205  45.9762163  -2.3731174  73.5408775
  46.9490695  -1.4227790  72.8758280  49.7271323  -0.6219322  74.4466078
  50.6517870  -0.8276461  74.3090529  49.5586626  -0.8702921  75.3555419
  49.5166639  -0.1033655  69.8028169  49.6903517  -0.6687232  69.0502022
  50.0095530   0.6967240  69.6207659  50.5041812  -0.7866890  66.9025067
  51.1992716  -0.1660198  67.1212382  50.8464962  -1.6371539  67.1777445
  52.4033235  -3.3367185  68.4312398  52.9284559  -2.9979912  67.7061718
  52.3155587  -4.2720170  68.2475533  44.0653283   0.5766889  80.5602275
  44.3740410   0.3316036  81.4324974  44.8628765   0.7813527  80.0721145
  44.0873895   2.7304798  72.7907651  43.6478886   2.2381177  73.4840508
  44.8382012   2.1877766  72.5499727  36.5666234  -1.0783661  72.7932280
  37.3924254  -1.3779889  72.4130923  36.2160286  -1.8476038  73.2422068
  41.5347768  -1.7257193  74.8629953  40.9127777  -2.3886487  74.5632181
  42.2052634  -1.6996061  74.1803601  34.7674839  -3.1597334  73.7521213
  33.9306748  -3.5875160  73.5705214  34.7398485  -2.9664891  74.6892004
  52.0927141  -2.7034281  83.7363596  51.3022684  -2.7210142  83.1968096
  51.8560495  -2.1645988  84.4912633  41.0961274  -3.1753269  68.3388414
  41.2449395  -2.4917805  67.6855086  41.9027718  -3.1948179  68.8537869
  53.7143213  -3.4344873  81.2938346  53.4228021  -3.0714893  82.1301807
  53.1015344  -4.1477865  81.1151678  38.8513907  -7.1488092  69.3449483
  38.6059949  -8.0525762  69.5429693  39.0209822  -7.1470941  68.4028961
  44.5956680  -0.6805139  65.8100161  44.0230647  -0.0614952  65.3570633
  45.1689474  -0.1305777  66.3440083  47.8153940  -0.3967989  66.9408743
  48.7484613  -0.4622427  67.1441619  47.7277153   0.4388278  66.4823276
  50.4441956  -1.0802118  63.9012691  50.3655588  -1.4142255  64.7948449
  51.2651623  -0.5880350  63.9004163  44.8642171  -5.2926580  84.6116871
  45.7845180  -5.1147981  84.8056917  44.8291754  -6.2370534  84.4596570
  37.8604244  -7.3825545  77.2539652  38.0790253  -6.4508437  77.2727686
  38.2730017  -7.7417571  78.0394456  42.5963379  -8.3795201  85.4607462
  42.1130461  -7.5794840  85.6671351  42.6824318  -8.3687256  84.5074906
  35.8649339  -6.5466821  73.3829282  35.8420027  -6.4479134  72.4311165
  36.1749975  -5.7001670  73.7046448  38.5236716  -4.4890666  77.4975896
  39.4779970  -4.5206724  77.4305828  38.3249240  -4.9500042  78.3126122
  39.1136099  -5.9189550  80.0646694  39.9328988  -5.4245471  80.0881531
  39.3872906  -6.8357582  80.0364261  36.8786945   1.0528954  74.5146094
  36.7441413   0.2929355  73.9484092  36.4619007   1.7769853  74.0474883
  48.0145908  -3.7634123  63.5222669  48.7181758  -3.5584120  64.1380325
  47.2908557  -3.1957361  63.7871753  40.0356071   1.9498271  74.7264537
  39.9188455   2.8943703  74.6243227  39.2148517   1.6471832  75.1150336
  49.9232606  -3.3251594  65.5721129  50.7578210  -3.7570395  65.3898604
  49.7616949  -3.4969580  66.4998024  49.5778498  -6.8219480  66.9377469
  49.5227302  -6.9875209  65.9965913  48.9524553  -6.1143447  67.0939658
  46.8924405  -4.5170568  86.2631031  47.7615565  -4.3429916  85.9017666
  46.4131156  -3.6976152  86.1406761  41.0610585   2.6026533  77.9420465
  41.9637832   2.6350143  78.2586960  40.8347955   1.6726983  77.9566801
  42.8164187   1.3557519  74.6030544  41.8659818   1.3559381  74.4894916
  43.1196673   0.6090254  74.0866578  58.5516881   7.1918057  75.6676306
  59.1895291   7.0724805  74.9639646  58.4337724   8.1398901  75.7264258
  55.3606587   7.1445486  75.6037831  55.0225099   7.0286550  74.7158366
  56.2296355   6.7436651  75.5838837  51.2193403   8.9980962  71.5934722
  50.6558268   8.9070899  70.8251009  51.1045798   8.1780866  72.0737214
  55.8426370   8.2980337  81.5624036  55.8315011   7.9033136  80.6904540
  56.0047009   7.5646410  82.1557808  48.7657835  10.4932154  74.4318942
  49.5579127  10.1522978  74.0165241  49.0054485  10.6027129  75.3521095
  56.7992961  12.6651930  66.9049187  56.1480941  13.2506010  66.5183200
  57.5937324  13.1958125  66.9644224  50.7248589   9.7541067  67.3036321
  51.4979465   9.2070054  67.1649197  51.0773987  10.6185316  67.5150782
  52.5633631  11.0817449  80.5103220  52.2723497  11.9863080  80.3949887
  53.1990616  11.1233977  81.2247290  53.4889838   8.4594298  77.1004580
  54.0853410   8.2350320  76.3861543  53.5464810   7.7179043  77.7030028
  53.0614866   5.9133733  64.9354771  53.3140387   5.3915254  64.1738234
  52.1239425   5.7499878  65.0381454  58.1058149   4.9169511  72.7429514
  58.8921238   4.4988934  72.3919931  58.3696854   5.8215604  72.9111162
  58.2768227  10.3542362  67.4418171  57.6414060  10.4276988  68.1539076
  57.9465633  10.9435960  66.7637250  63.5066576   4.8544745  73.6462493
  64.2391748   4.2843961  73.8800322  62.7505932   4.4666345  74.0868998
  52.7811155   7.8161839  67.1379146  52.6647413   7.1406742  67.8060230
  52.8913415   7.3294213  66.3211299  55.1242696   7.2771986  70.8425835
  54.7600903   6.7502607  71.5538757  55.9809812   6.8870455  70.6692320
  61.0291997  -1.4333681  78.1057101  60.6975321  -0.5638270  77.8818316
  60.4337610  -1.7497397  78.7851132  54.7648183   2.3061886  65.8387184
  54.9322585   3.1742122  66.2057655  54.5745352   2.4689167  64.9148473
  57.5223516  10.7678865  77.5053014  57.2224239  11.6703903  77.3968821
  57.1774576  10.5011048  78.3574167  50.9735998   7.2192661  73.5389718
  50.0486494   7.0868876  73.7467410  51.2220411   7.9986881  74.0359661
  60.9220660   3.2861405  75.1850451  60.0137537   3.2176813  74.8909212
  60.8708256   3.7633350  76.0132277  54.7437404   4.7619543  66.8233850
  54.6237029   5.2076594  67.6619331  54.0489992   5.1104861  66.2647389
  48.3344809   6.8625935  74.3733507  48.4637190   7.1160414  75.2872919
  47.6542260   7.4553643  74.0538162  52.5044296  17.5323185  70.4723982
  52.4268326  18.4831010  70.5512462  51.9005940  17.1869057  71.1298908
  54.9961526   4.7051050  83.1285349  54.2194860   5.2644971  83.1188213
  55.6352089   5.1907833  83.6500219  62.7882306   1.4877843  76.9628325
  62.1456687   1.7810376  76.3168120  62.2837235   1.3730764  77.7681522
  60.4422470   5.2341016  67.6514184  61.3540326   5.4668403  67.4761882
  59.9332117   5.8178061  67.0889263  53.2507898   7.5136504  82.6903316
  53.9922582   8.0521548  82.4138139  52.5444884   8.1402793  82.8474867
  58.7263238   9.6565644  81.2875477  59.1346594   9.2148055  80.5430109
  58.0040499   9.0818272  81.5409670  55.0794308   4.5938251  78.6609034
  55.9255503   5.0177665  78.8043683  55.0192945   3.9371875  79.3547597
  59.0492052  10.2166835  75.0427766  58.4200915  10.3812549  74.3403834
  58.6617714  10.6308444  75.8138730  62.9281284  11.1521273  72.3972130
  62.2432322  11.5320174  71.8469163  63.0125134  11.7616599  73.1304077
  58.2293753   2.2542619  80.3190208  57.9854685   3.0084680  79.7824483
  58.5053684   2.6327967  81.1537455  60.1832216   8.7981232  78.9967473
  60.3949111   9.4412992  78.3201854  60.1361964   7.9643548  78.5289403
  57.7858445   1.4099052  75.9004045  56.9242924   1.7080306  76.1920783
  57.8120880   1.6269451  74.9685078  54.6020014   9.9541243  72.3077851
  55.0658360  10.2328946  71.5182473  54.3376812   9.0524688  72.1250942
  51.4944095   9.5012724  75.2457614  52.0645452   9.9299993  74.6075099
  52.0852207   9.2195309  75.9441800  53.5388900   6.0764395  69.1167416
  54.2412944   6.5285439  69.5841342  53.2069529   5.4348214  69.7447309
  51.9869262   4.6676152  83.4918626  51.3567922   5.3492433  83.7254022
  51.8805350   4.5559234  82.5471764  47.2814234   4.3347948  74.4184550
  46.4913288   4.5905476  73.9424660  47.7725482   5.1496286  74.5236590
  61.2978044  11.6753187  77.1689831  62.1195488  11.2733374  76.8872512
  61.2940447  11.5721421  78.1205946  49.2328980   4.6992527  71.3768026
  48.4360143   4.8111221  71.8951522  49.0054572   5.0379179  70.5108917
  55.0634647  11.2237230  79.3250541  55.1279080  11.6857638  80.1608713
  54.3545571  10.5934595  79.4532851  45.5651937   4.5878438  76.8499540
  45.8159976   5.4725448  77.1157116  46.1011486   4.4083040  76.0774632
  69.3884037   8.0191936  73.5174802  68.6347745   7.4499334  73.3618806
  69.5231578   7.9854600  74.4645437  54.7782665  12.8905338  69.1929521
  54.6428340  13.7356874  69.6214369  55.3192477  13.0924616  68.4295455
  51.2650005  -1.0303082  85.8543877  50.8716950  -1.5836884  86.5291521
  52.0816145  -0.7192504  86.2450394  48.2312062  10.4080776  69.7657446
  48.7436583  11.2024026  69.9163011  48.8834775   9.7107066  69.6991048
  50.0406947  13.5246532  71.8480200  50.2173575  14.4464497  71.6601184
  50.8363781  13.2104951  72.2774579  54.1817966   0.3854797  83.4464133
  54.9227679   0.9861950  83.3668596  54.4135888  -0.3567565  82.8882176
  49.3259304   5.5711164  81.7242363  49.2112819   4.6696421  82.0249462
  48.4703821   5.8174861  81.3727179  56.4051141  13.5128904  83.3229863
  55.9614996  12.7265283  83.0050768  57.0668355  13.7008055  82.6573754
  51.1638263  15.0424706  77.8490542  51.7145688  14.9141769  77.0767536
  50.3249738  15.3419595  77.4985435  58.5032379  13.7931704  81.3511265
  58.4850855  14.6140585  80.8591534  59.4252299  13.6685780  81.5761406
  54.9605434  11.3075834  82.1934773  55.4933770  10.5464122  81.9634081
  54.4319515  11.0149486  82.9358928  58.1275129  -3.5864100  77.7228415
  57.7839398  -2.6962459  77.6467525  58.4954091  -3.7762443  76.8598000
  46.1960979   8.7369430  70.5417017  47.0336201   9.1466439  70.3250725
  46.3739247   7.7968872  70.5117211  58.0925411   6.4044511  66.2300850
  57.5772035   7.1749116  66.4689237  57.8202720   5.7309647  66.8533911
  55.6772522   1.2494212  71.2886088  54.8214119   0.8601062  71.1091727
  56.0899474   1.3286172  70.4285874  57.2071669  -1.2159445  75.6877648
  56.7036464  -1.2529310  74.8745453  57.5002276  -0.3066702  75.7474305
  53.4514555  -1.1320715  74.6943830  54.3167552  -1.3277907  74.3349719
  53.5192064  -1.3610364  75.6213187  63.0659685   9.1576866  68.1654023
  62.2889128   8.8188025  67.7209185  63.7451166   9.1629489  67.4908988
  57.8811714   4.2771603  68.0560631  57.5761850   4.5917752  68.9070774
  58.8342157   4.3553023  68.0987964  56.3258146  10.4361826  69.7053585
  55.7979508   9.7014586  69.3926823  55.8245649  11.2136503  69.4593553
  61.3050992   8.6310847  74.8220631  60.6474667   9.3210108  74.9100760
  62.1091391   9.0207279  75.1654618  51.0576874   1.0981493  72.0660197
  51.6320626   0.8756674  71.3333390  51.6447856   1.1670187  72.8188798
  60.1156451   6.9855219  72.8724573  60.6288333   7.6185211  73.3746283
  60.7657675   6.3856415  72.5067933  51.3846461   3.1285954  66.0856082
  50.5483773   3.4660640  66.4065357  51.2451231   2.9934933  65.1483219
  53.3599542  -2.0277258  70.7935266  52.7063954  -2.3428241  70.1691881
  53.3180016  -2.6501518  71.5195089  54.4710746   8.2542037  62.7088558
  53.5637808   8.0231290  62.9079707  54.9681778   7.4579656  62.8962540
  57.3778825  16.9639544  65.6285244  56.7040524  17.2671241  66.2370202
  57.7644647  17.7668624  65.2790701  56.5937282   4.4604675  75.1182914
  55.6759843   4.6819622  74.9604602  57.0097426   4.5350986  74.2594621
  57.3772330   5.8596091  70.2485594  58.1244149   6.3717488  69.9392716
  57.6463919   5.5380143  71.1089987  55.6498980   8.3554631  67.2312548
  54.7410199   8.0713664  67.3285018  55.6794064   8.7753710  66.3715855
  60.8818247  11.9661221  71.0003716  60.4280574  11.1252131  71.0568906
  60.2512214  12.6022619  71.3378496  59.8251167   2.8953207  72.2304383
  59.0873924   2.3830593  72.5614626  60.0777940   2.4553589  71.4187660
  59.3251187  13.8037718  71.9353534  59.6174161  14.3642775  71.2165900
  59.8349807  14.0966279  72.6906693  46.2187150   6.0760146  71.2127750
  46.0211550   5.4829506  70.4878817  45.6633814   5.7712356  71.9303689
  54.1983874   5.9683252  73.3322344  54.2532484   5.0157088  73.2564820
  53.3875076   6.1242691  73.8163642  55.3475068   9.8963375  64.5700627
  54.9094498   9.1799234  64.1106264  56.0885509  10.1239490  64.0085718
  52.1376234   4.5860312  71.0912722  51.3244099   4.8854482  71.4977915
  52.6335228   4.1916001  71.8087205  54.2884812  14.5818069  73.0246987
  54.2460991  14.8078915  72.0955519  55.2047511  14.3481443  73.1732788
  57.7350446   5.0502136  79.9227616  58.0899833   5.2773609  80.7822082
  58.3822577   5.3820513  79.3004872  63.4648182   8.1720572  70.6276945
  63.3266081   8.3622168  69.6998135  63.1084401   8.9339955  71.0844996
  51.6290309   2.1578667  76.7073957  52.2689688   2.0167426  76.0096921
  50.7967839   1.8713181  76.3312559  63.4917562  10.2397099  75.6388217
  63.9254069  10.1472388  76.4871271  64.2049143  10.2154600  75.0008233
  52.4050612  11.4581098  72.8208950  53.1991211  10.9631418  72.6191525
  51.6942305  10.9298961  72.4576655  57.2245457  13.8399193  77.1721317
  57.2782479  14.4090130  77.9399033  56.3560238  14.0101078  76.8075355
  48.7133376   5.6024179  68.8968703  47.7830964   5.5408635  69.1138665
  48.8090848   5.0800132  68.1005344  48.6318925   2.1278992  71.4846944
  48.8925742   3.0424326  71.3756105  49.4536097   1.6603435  71.6343557
  50.1043850   3.5416749  78.6545769  50.7766904   3.3334112  78.0058418
  49.2773637   3.3438835  78.2151001  64.3533112  10.2820800  78.1721102
  64.5469002  11.1866610  78.4180377  64.2533730   9.8228219  79.0059687
  56.0069422   0.1678690  80.6711430  55.3597337   0.8668640  80.5775906
  56.7770438   0.6014834  81.0387678  59.4148220  10.4327543  83.7461983
  59.2633727  10.2038094  82.8292067  59.4052900  11.3898144  83.7593328
  56.1833557   8.0059455  78.7308249  57.1125617   8.1570615  78.5577217
  55.7624587   8.0943476  77.8756896  54.9821888  12.0310120  76.5006787
  54.8432974  11.6628904  77.3732725  54.1936485  12.5457759  76.3290745
  55.5770040  17.1319216  67.8432323  55.7521796  16.6607259  68.6577946
  54.8902828  17.7584982  68.0713584  56.5327104  11.4091722  73.8895625
  56.1976936  11.3692492  74.7853275  56.0331049  10.7436438  73.4166035
  50.5071348   6.8159352  79.4148206  50.3691146   6.0839591  80.0159745
  51.4176271   6.7268253  79.1332394  59.4686295   8.7547757  64.1632684
  58.8515466   8.0294585  64.0665737  59.0002784   9.5157117  63.8199759
  53.1353648   6.5279312  78.9031886  53.8453267   5.8872504  78.8618504
  53.0922956   6.7792207  79.8258066  61.1240427  13.4646665  81.8238465
  61.0652973  12.7805885  81.1569048  61.5259945  14.2065655  81.3719091
  51.8482582   3.5144530  80.7227525  51.3119939   3.0635268  81.3749121
  51.2599291   3.6490438  79.9797989  50.1431126  20.2808579  74.6172184
  50.3827724  20.9127103  75.2951202  49.3000322  19.9296619  74.9037543
  51.2584841   2.9733181  63.2853989  50.3814308   2.8521982  62.9216235
  51.7342594   2.1819259  63.0332877  61.1257834  11.4286249  80.0552444
  60.2384613  11.0912171  80.1778843  61.6956385  10.6969280  80.2921210
  42.7786981   7.7610341  73.3795496  43.4658021   7.4472071  72.7916511
  42.6235110   8.6651705  73.1062747  47.5821703   2.6500537  77.8080519
  47.4979892   2.0426207  77.0730929  46.7604410   3.1409556  77.8090016
  54.6558988  16.0887701  77.0213688  54.5829159  16.8942673  77.5332992
  54.2136381  16.2879667  76.1961709  54.4448767  15.3259471  70.5316509
  53.6616289  15.8681152  70.6254734  55.1441512  15.8433451  70.9310750
  57.7545417   1.1354101  73.1750715  58.2514117   0.3824063  72.8551785
  56.9832399   1.1718418  72.6093924  65.6075175   6.8394466  74.8169006
  65.5965051   7.7219182  74.4462939  64.7392554   6.4866017  74.6223543
  57.1157671  15.9874535  79.1771846  57.8285643  16.6222000  79.1047748
  56.6247700  16.0838401  78.3611848  58.8375198   9.8925788  70.7489138
  57.9031477  10.0127251  70.5793842  59.0151867   8.9898255  70.4849148
  54.3380386   3.2771484  72.9022399  53.9678174   2.7242524  73.5903305
  54.8339479   2.6729617  72.3497399  62.2247749   5.7343107  71.2839172
  62.6908202   6.5671099  71.2099475  62.6755250   5.2688089  71.9884431
  52.1669585  13.7368979  79.9977417  52.8679044  14.3705462  80.1506811
  51.6964700  14.0783710  79.2373056  60.2923980  12.0786929  68.2825324
  60.5683824  11.9643523  69.1919198  59.4228479  11.6804414  68.2437497
  60.1964412  -1.8976306  75.3230073  59.2827492  -1.6672079  75.4912280
  60.6257514  -1.8137862  76.1744106  59.9670871   6.2913586  77.8229967
  59.3142321   6.5389494  77.1682420  60.3451251   5.4777725  77.4892445
  56.9278045  16.3273280  71.9258138  57.1100439  15.5094935  72.3885890
  57.7511031  16.5440972  71.4883028  57.2620210  15.2541465  69.1873186
  57.7907976  14.7433919  68.5743348  57.5248430  14.9383995  70.0518719
  56.0158444   7.0333397  84.3096005  55.3399081   6.9327527  84.9798380
  56.8386078   6.8772611  84.7732002  47.7637303  13.2705334  76.9308520
  48.3490740  12.5249022  77.0636424  47.5662141  13.5809291  77.8145184
  50.6175958  16.3056581  71.9470962  49.9486333  16.7902709  71.4635002
  50.4788828  16.5525802  72.8614341  42.3554957   5.8410934  75.6512963
  42.3939057   5.3074525  76.4450081  41.8495250   5.3146140  75.0323940
  54.7581227  18.3400325  78.5453621  55.3099535  18.5031946  79.3102706
  55.0987420  18.9304763  77.8733645  49.7345720   0.6875475  79.1475505
  49.7987046   1.5490306  78.7352903  49.6712840   0.0749476  78.4147864
  49.2097992   2.7598607  82.7948539  49.8370031   2.3775685  83.4086064
  48.3525911   2.5412809  83.1604232  59.6092101  13.1661582  84.4002275
  60.1532005  13.7791541  83.9057230  59.0278946  13.7241161  84.9169288
  45.9863535   4.5675036  68.7266894  46.2816976   3.6585715  68.6733948
  45.0851571   4.5462776  68.4047897  57.8949614  16.2882300  75.5317303
  57.7700753  15.4872040  75.0228248  58.5528705  16.7828494  75.0431273
  49.5157782   2.6431033  74.7094443  48.7944368   3.2567001  74.5701916
  50.3051038   3.1788798  74.6311089  59.9584522  14.0891320  77.1596853
  59.0114858  13.9696672  77.0875180  60.3067295  13.2013819  77.2423114
  52.3184096  -0.0214541  80.9835095  52.8418497   0.2247756  81.7461404
  52.0996429   0.8105494  80.5638232  47.7151377   2.2489134  68.8506219
  47.3864083   1.3686513  68.6681325  48.0690747   2.1936803  69.7382609
  56.9630956  13.8844037  73.3601205  56.8155918  12.9560744  73.5408775
  57.7884449  13.9064127  72.8758280  50.8293200   2.5362104  69.2181697
  51.1689272   3.0648025  68.4960306  51.2765320   2.8742510  69.9940264
  60.5665077  14.7072595  74.4466078  61.4911625  14.5015457  74.3090529
  60.3980381  14.4588997  75.3555419  53.5236641   0.9199155  78.6684765
  53.1833461   0.1206968  79.0705445  52.8175647   1.2200865  78.0961598
  54.1753112  -1.9951533  77.1212088  54.9979182  -2.4691055  76.9990979
  54.4191176  -1.2161049  77.6210775  52.8161347   1.0336725  67.4174990
  53.5369709   1.4117978  66.9138707  52.1926651   1.7525602  67.5209968
  56.9592470   1.7381874  68.3533322  57.1756084   2.6206512  68.0522150
  56.4786537   1.3468088  67.6238964  51.6991691   4.6967588  74.9304067
  51.5536272   5.0107891  75.8228348  51.2216895   5.3152488  74.3774965
  53.5588074   1.6870136  74.9784956  53.5449643   0.7911229  74.6417254
  54.2760502   1.6940799  75.6123242  55.4114205   2.1207476  77.0238084
  55.1531983   3.0424546  77.0222414  54.8799245   1.7237910  77.7138548
  60.3560394  15.2258263  69.8028169  60.5297271  14.6604685  69.0502022
  60.8489285  16.0259158  69.6207659  46.1737353   7.2372932  77.8691728
  45.6290821   8.0132740  78.0012002  47.0516703   7.5843736  77.7110849
  52.9624970   0.5684516  70.2472527  53.0840881  -0.3598838  70.4463414
  52.6727012   0.5823202  69.3350842  55.8316160  -1.7460574  73.3839246
  55.8537857  -1.6821241  72.4291226  56.2484219  -2.5856065  73.5779753
  66.2099785   7.9894686  71.4218469  66.6530931   7.2402011  71.0237592
  65.3326295   7.9804822  71.0392201  61.3435566  14.5425027  66.9025067
  62.0386471  15.1631720  67.1212382  61.6858716  13.6920378  67.1777445
  46.9603375   6.3642828  80.7621885  46.2185111   6.5125464  81.3486515
  46.6396119   6.6251094  79.8988634  63.2426989  11.9924733  68.4312398
  63.7678313  12.3312006  67.7061718  63.1549342  11.0571748  68.2475533
  54.9047038  15.9058806  80.5602275  55.2134164  15.6607953  81.4324974
  55.7022520  16.1105445  80.0721145  54.9267650  18.0596716  72.7907651
  54.4872640  17.5673095  73.4840508  55.6775767  17.5169684  72.5499727
  47.4059989  14.2508257  72.7932280  48.2318009  13.9512029  72.4130923
  47.0554041  13.4815879  73.2422068  52.3741522  13.6034725  74.8629953
  51.7521531  12.9405430  74.5632181  53.0446389  13.6295857  74.1803601
  45.6068594  12.1694583  73.7521213  44.7700502  11.7416758  73.5705214
  45.5792239  12.3627027  74.6892004  52.4466050   2.0816513  84.4562459
  52.4954205   2.9578636  84.0740229  52.9888564   1.5393906  83.8834102
  62.9320895  12.6257636  83.7363596  62.1416439  12.6081775  83.1968096
  62.6954250  13.1645930  84.4912633  63.0518770   9.4750103  81.0496325
  63.1016775   9.3100110  81.9911848  62.9432694   8.6077362  80.6594206
  51.9355029  12.1538649  68.3388414  52.0843149  12.8374113  67.6855086
  52.7421472  12.1343739  68.8537869  60.3422533   5.4581031  82.3655631
  61.2432395   5.3187496  82.0739629  60.4170507   5.6235486  83.3053809
  54.6765338   2.8347886  81.2108818  53.8068647   3.1281452  80.9391406
  54.9124818   3.4188331  81.9316081  64.5536967  11.8947044  81.2938346
  64.2621775  12.2577025  82.1301807  63.9409098  11.1814053  81.1151678
  65.7532649   9.4599924  73.8140917  66.5879541   9.8989728  73.9778477
  65.8891778   8.9838577  72.9949162  62.8024155   7.0179659  79.7618404
  63.2778277   7.2107305  78.9537256  61.8789721   7.0738845  79.5161788
  49.6907662   8.1803826  69.3449483  49.4453704   7.2766156  69.5429693
  49.8603576   8.1820977  68.4028961  57.3804372  -0.9472497  78.7274238
  57.8986316  -0.2111471  78.4020727  57.0259505  -0.6408504  79.5620997
  48.9603309   3.9132184  66.8435644  48.2672554   3.9876539  66.1875680
  48.7155061   3.1492527  67.3657161  55.4350434  14.6486779  65.8100161
  54.8624402  15.2676966  65.3570633  56.0083228  15.1986141  66.3440083
  61.5025824   3.8945419  77.9946710  62.4543247   3.9943517  78.0158934
  61.3329275   3.1023688  78.5044794  59.5240204   0.9801002  78.1806111
  58.9290136   1.2606015  77.4852599  59.2389901   1.4694903  78.9522852
  58.6547694  14.9323929  66.9408743  59.5878367  14.8669491  67.1441619
  58.5670907  15.7680196  66.4823276  61.2835711  14.2489799  63.9012691
  61.2049342  13.9149663  64.7948449  62.1045378  14.7411567  63.9004163
  63.9813902   7.1151539  77.1089010  63.9490222   6.1767539  77.2948693
  64.5914526   7.1935575  76.3754834  55.8197233   5.9847592  63.1516214
  56.7656338   5.8553800  63.2204632  55.4411478   5.2462254  63.6285642
  64.1308391   3.9062582  77.1547293  63.6147439   3.1221039  76.9677222
  65.0148339   3.5781299  77.3193812  61.7919118  -2.3496402  73.1143105
  61.5943939  -2.6581314  73.9986437  62.4018823  -1.6234763  73.2441035
  69.7990452   8.1767546  76.2495046  70.5293840   7.9152834  76.8102750
  69.1897397   7.4396268  76.2897114  67.8805749   6.3175408  76.8469498
  67.1538913   6.1831373  76.2385989  67.4653036   6.6252237  77.6526216
  55.7035926  10.0365338  84.6116871  56.6238935  10.2143937  84.8056917
  55.6685509   9.0921383  84.4596570  54.0040150   3.9097568  63.0871099
  53.0971606   3.6130681  63.1633812  54.2816131   3.6127386  62.2205385
  44.9218091   5.2303932  73.5370145  44.6020875   4.3769240  73.2444519
  44.3751519   5.4452510  74.2928113  48.6997998   7.9466373  77.2539652
  48.9184008   8.8783480  77.2727686  49.1123772   7.5874347  78.0394456
  55.6202216  -1.5465542  69.2415340  54.8102944  -1.8918457  69.6170586
  56.3086633  -1.8557998  69.8302952  57.5492764  -2.4687495  70.8639637
  58.1023803  -2.0492042  71.5229660  57.7862851  -3.3951747  70.9062593
  53.5725863   3.5199578  86.6442401  53.4722590   4.4693935  86.5754492
  53.3547405   3.1917817  85.7718471  52.7738935   0.7684503  63.2283078
  53.6358099   1.0939402  63.4878895  52.9589279  -0.0184001  62.7156144
  44.7906351   8.8506843  75.5063267  44.0969822   8.4360796  74.9933221
  45.5379342   8.8927380  74.9096686  60.9271571  -0.3586970  70.3718301
  60.3470240   0.2997834  69.9896353  60.6607504  -1.1809626  69.9605718
  59.3775138  -0.9581913  72.5739621  59.8774916  -0.8465378  71.7653940
  60.0210746  -1.2620860  73.2140430  53.4357133   6.9496717  85.4607462
  52.9524215   7.7497077  85.6671351  53.5218072   6.9604662  84.5074906
  46.7043093   8.7825097  73.3829282  46.6813781   8.8812784  72.4311165
  47.0143730   9.6290248  73.7046448  49.3630471  10.8401252  77.4975896
  50.3173724  10.8085194  77.4305828  49.1642995  10.3791876  78.3126122
  49.9529853   9.4102368  80.0646694  50.7722742   9.9046447  80.0881531
  50.2266661   8.4934336  80.0364261  59.7096449   1.8013120  69.4274649
  58.8222304   2.0862771  69.2094844  60.1250438   1.6406884  68.5801926
  63.0610985   1.8259641  73.1428988  63.8371376   2.3156094  73.4153605
  62.3359120   2.2517695  73.6000858  65.4983544   2.5387260  74.2002929
  66.0928035   2.2982996  73.4896237  65.5710128   1.8194391  74.8276465
  47.7180700  16.3820871  74.5146094  47.5835168  15.6221272  73.9484092
  47.3012762  17.1061771  74.0474883  58.8539663  11.5657795  63.5222669
  59.5575513  11.7707797  64.1380325  58.1302311  12.1334557  63.7871753
  59.6837473   7.3167656  69.6424939  59.6272674   7.7736208  68.8032572
  60.2365815   6.5558341  69.4647782  63.4942279   3.1057388  70.4675059
  63.2379213   2.7054024  71.2983267  62.8695147   3.8201182  70.3425198
  67.8054617   5.8453461  72.9746350  67.2454175   5.9146651  73.7477912
  67.1998120   5.6694446  72.2545847  50.8749826  17.2790188  74.7264537
  50.7582210  18.2235621  74.6243227  50.0542272  16.9763750  75.1150336
  60.7626360  12.0040324  65.5721129  61.5971964  11.5721523  65.3898604
  60.6010703  11.8322338  66.4998024  60.4172252   8.5072437  66.9377469
  60.3621056   8.3416709  65.9965913  59.7918308   9.2148470  67.0939658
  45.2064767   3.7440502  80.7638891  45.8523631   3.2339456  81.2526116
  44.9981918   4.4809183  81.3382316  57.7318159  10.8121349  86.2631031
  58.6009319  10.9862001  85.9017666  57.2524911  11.6315766  86.1406761
  53.7268378  -1.9919454  66.5162787  53.7147048  -1.0477614  66.6731058
  54.6191800  -2.1749308  66.2222248  51.9004340  17.9318450  77.9420465
  52.8031586  17.9642060  78.2586960  51.6741710  17.0018901  77.9566801
  53.6557942  16.6849437  74.6030544  52.7053573  16.6851298  74.4894916
  53.9590428  15.9382171  74.0866578  49.5462258   0.8908119  84.8613905
  50.4093720   0.5344924  85.0717230  48.9727669   0.5522014  85.5489309
  69.3910635  22.5209975  75.6676306  70.0289045  22.4016723  74.9639646
  69.2731478  23.4690819  75.7264258  66.2000342  22.4737403  75.6037831
  65.8618853  22.3578468  74.7158366  67.0690110  22.0728568  75.5838837
  62.0587157  24.3272880  71.5934722  61.4952022  24.2362817  70.8251009
  61.9439552  23.5072784  72.0737214  66.6820125  23.6272255  81.5624036
  66.6708765  23.2325053  80.6904540  66.8440764  22.8938328  82.1557808
  59.6051589  25.8224071  74.4318942  60.3972881  25.4814896  74.0165241
  59.8448239  25.9319046  75.3521095  67.6386716  27.9943847  66.9049187
  66.9874696  28.5797928  66.5183200  68.4331079  28.5250042  66.9644224
  61.5642343  25.0832985  67.3036321  62.3373219  24.5361972  67.1649197
  61.9167742  25.9477234  67.5150782  63.4027386  26.4109367  80.5103220
  63.1117252  27.3154998  80.3949887  64.0384370  26.4525894  81.2247290
  64.3283592  23.7886215  77.1004580  64.9247165  23.5642238  76.3861543
  64.3858564  23.0470961  77.7030028  63.9008621  21.2425651  64.9354771
  64.1534142  20.7207172  64.1738234  62.9633180  21.0791796  65.0381454
  68.9451904  20.2461429  72.7429514  69.7314993  19.8280852  72.3919931
  69.2090608  21.1507521  72.9111162  69.1161981  25.6834279  67.4418171
  68.4807814  25.7568906  68.1539076  68.7859387  26.2727878  66.7637250
  74.3460331  20.1836662  73.6462493  75.0785503  19.6135879  73.8800322
  73.5899687  19.7958263  74.0868998  63.6204910  23.1453757  67.1379146
  63.5041168  22.4698660  67.8060230  63.7307170  22.6586131  66.3211299
  65.9636451  22.6063904  70.8425835  65.5994658  22.0794525  71.5538757
  66.8203566  22.2162373  70.6692320  71.8685751  13.8958236  78.1057101
  71.5369076  14.7653647  77.8818316  71.2731365  13.5794520  78.7851132
  65.6041938  17.6353803  65.8387184  65.7716340  18.5034040  66.2057655
  65.4139107  17.7981085  64.9148473  68.3617271  26.0970782  77.5053014
  68.0617994  26.9995821  77.3968821  68.0168330  25.8302966  78.3574167
  61.8129752  22.5484579  73.5389718  60.8880249  22.4160793  73.7467410
  62.0614165  23.3278798  74.0359661  71.7614415  18.6153322  75.1850451
  70.8531292  18.5468731  74.8909212  71.7102010  19.0925267  76.0132277
  65.5831158  20.0911461  66.8233850  65.4630784  20.5368512  67.6619331
  64.8883747  20.4396779  66.2647389  59.1738563  22.1917853  74.3733507
  59.3030944  22.4452332  75.2872919  58.4936015  22.7845561  74.0538162
  63.3438051  32.8615103  70.4723982  63.2662080  33.8122928  70.5512462
  62.7399694  32.5160975  71.1298908  65.8355280  20.0342968  83.1285349
  65.0588614  20.5936888  83.1188213  66.4745843  20.5199751  83.6500219
  73.6276061  16.8169761  76.9628325  72.9850441  17.1102294  76.3168120
  73.1230989  16.7022681  77.7681522  71.2816225  20.5632934  67.6514184
  72.1934081  20.7960321  67.4761882  70.7725872  21.1469978  67.0889263
  64.0901653  22.8428421  82.6903316  64.8316337  23.3813465  82.4138139
  63.3838638  23.4694710  82.8474867  69.5656992  24.9857562  81.2875477
  69.9740348  24.5439972  80.5430109  68.8434254  24.4110189  81.5409670
  65.9188062  19.9230169  78.6609034  66.7649257  20.3469582  78.8043683
  65.8586700  19.2663793  79.3547597  69.8885807  25.5458753  75.0427766
  69.2594669  25.7104467  74.3403834  69.5011469  25.9600362  75.8138730
  73.7675039  26.4813190  72.3972130  73.0826077  26.8612092  71.8469163
  73.8518888  27.0908517  73.1304077  69.0687508  17.5834537  80.3190208
  68.8248439  18.3376598  79.7824483  69.3447438  17.9619885  81.1537455
  71.0225970  24.1273149  78.9967473  71.2342866  24.7704909  78.3201854
  70.9755719  23.2935466  78.5289403  68.6252199  16.7390970  75.9004045
  67.7636678  17.0372224  76.1920783  68.6514634  16.9561369  74.9685078
  65.4413769  25.2833161  72.3077851  65.9052114  25.5620864  71.5182473
  65.1770567  24.3816605  72.1250942  62.3337850  24.8304642  75.2457614
  62.9039207  25.2591911  74.6075099  62.9245962  24.5487227  75.9441800
  64.3782655  21.4056313  69.1167416  65.0806698  21.8577357  69.5841342
  64.0463283  20.7640132  69.7447309  62.8263016  19.9968070  83.4918626
  62.1961677  20.6784350  83.7254022  62.7199104  19.8851151  82.5471764
  58.1207989  19.6639866  74.4184550  57.3307043  19.9197394  73.9424660
  58.6119236  20.4788203  74.5236590  72.1371798  27.0045105  77.1689831
  72.9589242  26.6025292  76.8872512  72.1334201  26.9013339  78.1205946
  60.0722734  20.0284445  71.3768026  59.2753897  20.1403139  71.8951522
  59.8448326  20.3671097  70.5108917  65.9028402  26.5529148  79.3250541
  65.9672834  27.0149555  80.1608713  65.1939326  25.9226513  79.4532851
  56.4045692  19.9170356  76.8499540  56.6553730  20.8017366  77.1157116
  56.9405240  19.7374958  76.0774632  80.2277791  23.3483853  73.5174802
  79.4741500  22.7791251  73.3618806  80.3625333  23.3146518  74.4645437
  65.6176419  28.2197256  69.1929521  65.4822094  29.0648791  69.6214369
  66.1586232  28.4216533  68.4295455  62.1043759  14.2988835  85.8543877
  61.7110705  13.7455034  86.5291521  62.9209899  14.6099414  86.2450394
  59.0705817  25.7372694  69.7657446  59.5830337  26.5315944  69.9163011
  59.7228530  25.0398984  69.6991048  60.8800702  28.8538450  71.8480200
  61.0567330  29.7756415  71.6601184  61.6757535  28.5396869  72.2774579
  65.0211720  15.7146715  83.4464133  65.7621433  16.3153868  83.3668596
  65.2529643  14.9724352  82.8882176  60.1653058  20.9003082  81.7242363
  60.0506573  19.9988339  82.0249462  59.3097576  21.1466779  81.3727179
  67.2444896  28.8420822  83.3229863  66.8008750  28.0557201  83.0050768
  67.9062109  29.0299973  82.6573754  62.0032017  30.3716624  77.8490542
  62.5539442  30.2433687  77.0767536  61.1643493  30.6711513  77.4985435
  69.3426134  29.1223622  81.3511265  69.3244609  29.9432503  80.8591534
  70.2646054  28.9977697  81.5761406  65.7999188  26.6367752  82.1934773
  66.3327525  25.8756040  81.9634081  65.2713269  26.3441403  82.9358928
  68.9668883  11.7427817  77.7228415  68.6233152  12.6329459  77.6467525
  69.3347846  11.5529475  76.8598000  57.0354734  24.0661348  70.5417017
  57.8729956  24.4758356  70.3250725  57.2133001  23.1260790  70.5117211
  68.9319166  21.7336429  66.2300850  68.4165789  22.5041033  66.4689237
  68.6596474  21.0601565  66.8533911  66.5166277  16.5786129  71.2886088
  65.6607873  16.1892980  71.1091727  66.9293229  16.6578090  70.4285874
  68.0465423  14.1132473  75.6877648  67.5430219  14.0762608  74.8745453
  68.3396030  15.0225215  75.7474305  64.2908309  14.1971202  74.6943830
  65.1561306  14.0014011  74.3349719  64.3585818  13.9681554  75.6213187
  73.9053440  24.4868783  68.1654023  73.1282883  24.1479943  67.7209185
  74.5844921  24.4921406  67.4908988  68.7205469  19.6063521  68.0560631
  68.4155604  19.9209670  68.9070774  69.6735911  19.6844941  68.0987964
  67.1651901  25.7653744  69.7053585  66.6373262  25.0306504  69.3926823
  66.6639403  26.5428420  69.4593553  72.1444747  23.9602764  74.8220631
  71.4868421  24.6502026  74.9100760  72.9485146  24.3499196  75.1654618
  61.8970628  16.4273410  72.0660197  62.4714380  16.2048592  71.3333390
  62.4841611  16.4962105  72.8188798  70.9550206  22.3147137  72.8724573
  71.4682087  22.9477129  73.3746283  71.6051429  21.7148333  72.5067933
  62.2240215  18.4577871  66.0856082  61.3877528  18.7952558  66.4065357
  62.0844985  18.3226851  65.1483219  64.1993296  13.3014659  70.7935266
  63.5457708  12.9863676  70.1691881  64.1573770  12.6790400  71.5195089
  65.3104501  23.5833954  62.7088558  64.4031563  23.3523208  62.9079707
  65.8075533  22.7871574  62.8962540  68.2172580  32.2931461  65.6285244
  67.5434279  32.5963158  66.2370202  68.6038402  33.0960542  65.2790701
  67.4331036  19.7896593  75.1182914  66.5153598  20.0111540  74.9604602
  67.8491180  19.8642903  74.2594621  68.2166084  21.1888008  70.2485594
  68.9637903  21.7009406  69.9392716  68.4857674  20.8672061  71.1089987
  66.4892734  23.6846549  67.2312548  65.5803954  23.4005582  67.3285018
  66.5187818  24.1045628  66.3715855  71.7212002  27.2953139  71.0003716
  71.2674329  26.4544049  71.0568906  71.0905968  27.9314537  71.3378496
  70.6644921  18.2245125  72.2304383  69.9267678  17.7122511  72.5614626
  70.9171695  17.7845506  71.4187660  70.1644941  29.1329635  71.9353534
  70.4567915  29.6934692  71.2165900  70.6743562  29.4258196  72.6906693
  70.7656549  11.0021377  72.8246152  71.0715425  10.1418740  72.5372068
  71.4909153  11.5938997  72.6245146  57.0580905  21.4052063  71.2127750
  56.8605305  20.8121424  70.4878817  56.5027569  21.1004273  71.9303689
  65.0377628  21.2975170  73.3322344  65.0926238  20.3449006  73.2564820
  64.2268830  21.4534609  73.8163642  66.1868822  25.2255293  64.5700627
  65.7488252  24.5091152  64.1106264  66.9279263  25.4531408  64.0085718
  62.9769988  19.9152229  71.0912722  62.1637854  20.2146400  71.4977915
  63.4728983  19.5207918  71.8087205  65.1278566  29.9109986  73.0246987
  65.0854745  30.1370833  72.0955519  66.0441265  29.6773361  73.1732788
  68.5744200  20.3794054  79.9227616  68.9293588  20.6065527  80.7822082
  69.2216331  20.7112431  79.3004872  74.3041937  23.5012490  70.6276945
  74.1659836  23.6914086  69.6998135  73.9478156  24.2631873  71.0844996
  62.4684063  17.4870585  76.7073957  63.1083442  17.3459344  76.0096921
  61.6361594  17.2005098  76.3312559  74.3311317  25.5689017  75.6388217
  74.7647823  25.4764306  76.4871271  75.0442897  25.5446517  75.0008233
  63.2444367  26.7873015  72.8208950  64.0384965  26.2923336  72.6191525
  62.5336059  26.2590879  72.4576655  68.0639211  29.1691111  77.1721317
  68.1176234  29.7382047  77.9399033  67.1953993  29.3392996  76.8075355
  59.5527130  20.9316097  68.8968703  58.6224719  20.8700553  69.1138665
  59.6484602  20.4092050  68.1005344  59.4712680  17.4570910  71.4846944
  59.7319497  18.3716243  71.3756105  60.2929852  16.9895353  71.6343557
  60.9437605  18.8708667  78.6545769  61.6160658  18.6626029  78.0058418
  60.1167391  18.6730753  78.2151001  75.1926866  25.6112718  78.1721102
  75.3862756  26.5158528  78.4180377  75.0927484  25.1520137  79.0059687
  66.8463177  15.4970608  80.6711430  66.1991092  16.1960558  80.5775906
  67.6164192  15.9306752  81.0387678  70.2541975  25.7619460  83.7461983
  70.1027481  25.5330012  82.8292067  70.2446654  26.7190062  83.7593328
  67.0227311  23.3351373  78.7308249  67.9519371  23.4862533  78.5577217
  66.6018341  23.4235394  77.8756896  65.8215643  27.3602037  76.5006787
  65.6826729  26.9920822  77.3732725  65.0330239  27.8749677  76.3290745
  66.4163795  32.4611134  67.8432323  66.5915551  31.9899177  68.6577946
  65.7296583  33.0876900  68.0713584  67.3720858  26.7383640  73.8895625
  67.0370691  26.6984410  74.7853275  66.8724804  26.0728356  73.4166035
  61.3465102  22.1451270  79.4148206  61.2084900  21.4131509  80.0159745
  62.2570026  22.0560170  79.1332394  70.3080050  24.0839674  64.1632684
  69.6909220  23.3586503  64.0665737  69.8396538  24.8449035  63.8199759
  63.9747403  21.8571229  78.9031886  64.6847021  21.2164422  78.8618504
  63.9316711  22.1084124  79.8258066  71.9634181  28.7938583  81.8238465
  71.9046728  28.1097803  81.1569048  72.3653700  29.5357573  81.3719091
  62.6876337  18.8436447  80.7227525  62.1513694  18.3927186  81.3749121
  62.0993045  18.9782356  79.9797989  60.9824880  35.6100497  74.6172184
  61.2221478  36.2419021  75.2951202  60.1394077  35.2588537  74.9037543
  62.0978596  18.3025099  63.2853989  61.2208062  18.1813900  62.9216235
  62.5736349  17.5111177  63.0332877  71.9651589  26.7578167  80.0552444
  71.0778367  26.4204089  80.1778843  72.5350140  26.0261198  80.2921210
  53.6180736  23.0902258  73.3795496  54.3051776  22.7763989  72.7916511
  53.4628865  23.9943623  73.1062747  58.4215458  17.9792455  77.8080519
  58.3373647  17.3718125  77.0730929  57.5998164  18.4701473  77.8090016
  65.4952742  31.4179619  77.0213688  65.4222914  32.2234591  77.5332992
  65.0530135  31.6171585  76.1961709  65.2842522  30.6551389  70.5316509
  64.5010044  31.1973069  70.6254734  65.9835267  31.1725369  70.9310750
  68.5939172  16.4646019  73.1750715  69.0907871  15.7115981  72.8551785
  67.8226153  16.5010335  72.6093924  76.4468929  22.1686384  74.8169006
  76.4358805  23.0511100  74.4462939  75.5786309  21.8157935  74.6223543
  67.9551426  31.3166453  79.1771846  68.6679398  31.9513918  79.1047748
  67.4641454  31.4130319  78.3611848  69.6768953  25.2217706  70.7489138
  68.7425231  25.3419168  70.5793842  69.8545621  24.3190173  70.4849148
  65.1774141  18.6063402  72.9022399  64.8071928  18.0534442  73.5903305
  65.6733233  18.0021535  72.3497399  73.0641504  21.0635025  71.2839172
  73.5301956  21.8963017  71.2099475  73.5149004  20.5980007  71.9884431
  63.0063339  29.0660897  79.9977417  63.7072799  29.6997380  80.1506811
  62.5358454  29.4075628  79.2373056  71.1317735  27.4078846  68.2825324
  71.4077579  27.2935441  69.1919198  70.2622234  27.0096331  68.2437497
  71.0358167  13.4315612  75.3230073  70.1221246  13.6619839  75.4912280
  71.4651268  13.5154056  76.1744106  70.8064625  21.6205504  77.8229967
  70.1536075  21.8681411  77.1682420  71.1845005  20.8069642  77.4892445
  67.7671799  31.6565197  71.9258138  67.9494194  30.8386853  72.3885890
  68.5904785  31.8732889  71.4883028  68.1013964  30.5833382  69.1873186
  68.6301731  30.0725837  68.5743348  68.3642184  30.2675913  70.0518719
  66.8552198  22.3625315  84.3096005  66.1792835  22.2619444  84.9798380
  67.6779832  22.2064529  84.7732002  58.6031057  28.5997252  76.9308520
  59.1884494  27.8540940  77.0636424  58.4055896  28.9101208  77.8145184
  61.4569712  31.6348499  71.9470962  60.7880088  32.1194627  71.4635002
  61.3182582  31.8817719  72.8614341  53.1948712  21.1702852  75.6512963
  53.2332811  20.6366443  76.4450081  52.6889005  20.6438057  75.0323940
  65.5974981  33.6692243  78.5453621  66.1493289  33.8323864  79.3102706
  65.9381174  34.2596680  77.8733645  60.5739474  16.0167392  79.1475505
  60.6380801  16.8782223  78.7352903  60.5106594  15.4041394  78.4147864
  60.0491747  18.0890525  82.7948539  60.6763786  17.7067602  83.4086064
  59.1919666  17.8704727  83.1604232  70.4485855  28.4953500  84.4002275
  70.9925759  29.1083458  83.9057230  69.8672700  29.0533078  84.9169288
  56.8257290  19.8966954  68.7266894  57.1210731  18.9877632  68.6733948
  55.9245325  19.8754693  68.4047897  68.7343368  31.6174218  75.5317303
  68.6094508  30.8163958  75.0228248  69.3922459  32.1120411  75.0431273
  60.3551537  17.9722951  74.7094443  59.6338122  18.5858918  74.5701916
  61.1444792  18.5080715  74.6311089  70.7978277  29.4183238  77.1596853
  69.8508612  29.2988589  77.0875180  71.1461050  28.5305736  77.2423114
  63.1577850  15.3077377  80.9835095  63.6812252  15.5539674  81.7461404
  62.9390183  16.1397412  80.5638232  58.5545131  17.5781052  68.8506219
  58.2257837  16.6978431  68.6681325  58.9084502  17.5228720  69.7382609
  67.8024710  29.2135954  73.3601205  67.6549672  28.2852662  73.5408775
  68.6278203  29.2356045  72.8758280  61.6686954  17.8654021  69.2181697
  62.0083027  18.3939943  68.4960306  62.1159075  18.2034428  69.9940264
  71.4058832  30.0364513  74.4466078  72.3305379  29.8307374  74.3090529
  71.2374135  29.7880914  75.3555419  64.3630395  16.2491072  78.6684765
  64.0227215  15.4498885  79.0705445  63.6569401  16.5492783  78.0961598
  65.0146867  13.3340385  77.1212088  65.8372936  12.8600863  76.9990979
  65.2584930  14.1130868  77.6210775  63.6555101  16.3628643  67.4174990
  64.3763464  16.7409896  66.9138707  63.0320406  17.0817520  67.5209968
  67.7986224  17.0673792  68.3533322  68.0149839  17.9498430  68.0522150
  67.3180291  16.6760005  67.6238964  62.5385446  20.0259505  74.9304067
  62.3930026  20.3399808  75.8228348  62.0610649  20.6444406  74.3774965
  64.3981829  17.0162053  74.9784956  64.3843397  16.1203147  74.6417254
  65.1154257  17.0232717  75.6123242  66.2507959  17.4499393  77.0238084
  65.9925737  18.3716464  77.0222414  65.7193000  17.0529828  77.7138548
  71.1954148  30.5550181  69.8028169  71.3691026  29.9896603  69.0502022
  71.6883039  31.3551075  69.6207659  57.0131108  22.5664850  77.8691728
  56.4684576  23.3424658  78.0012002  57.8910458  22.9135654  77.7110849
  63.8018724  15.8976434  70.2472527  63.9234636  14.9693080  70.4463414
  63.5120767  15.9115119  69.3350842  66.6709915  13.5831344  73.3839246
  66.6931612  13.6470677  72.4291226  67.0877974  12.7435853  73.5779753
  77.0493539  23.3186603  71.4218469  77.4924685  22.5693929  71.0237592
  76.1720049  23.3096740  71.0392201  72.1829321  29.8716945  66.9025067
  72.8780225  30.4923638  67.1212382  72.5252471  29.0212296  67.1777445
  57.7997130  21.6934746  80.7621885  57.0578866  21.8417381  81.3486515
  57.4789874  21.9543012  79.8988634  74.0820744  27.3216650  68.4312398
  74.6072068  27.6603923  67.7061718  73.9943096  26.3863666  68.2475533
  65.7440792  31.2350724  80.5602275  66.0527919  30.9899871  81.4324974
  66.5416274  31.4397363  80.0721145  65.7661404  33.3888634  72.7907651
  65.3266395  32.8965012  73.4840508  66.5169521  32.8461601  72.5499727
  58.2453743  29.5800175  72.7932280  59.0711763  29.2803946  72.4130923
  57.8947795  28.8107797  73.2422068  63.2135277  28.9326643  74.8629953
  62.5915286  28.2697348  74.5632181  63.8840143  28.9587775  74.1803601
  56.4462348  27.4986501  73.7521213  55.6094257  27.0708675  73.5705214
  56.4185994  27.6918944  74.6892004  63.2859804  17.4108431  84.4562459
  63.3347960  18.2870554  84.0740229  63.8282318  16.8685824  83.8834102
  73.7714650  27.9549554  83.7363596  72.9810193  27.9373693  83.1968096
  73.5348004  28.4937848  84.4912633  73.8912525  24.8042020  81.0496325
  73.9410530  24.6392028  81.9911848  73.7826448  23.9369280  80.6594206
  62.7748783  27.4830566  68.3388414  62.9236904  28.1666031  67.6855086
  63.5815227  27.4635656  68.8537869  71.1816287  20.7872949  82.3655631
  72.0826150  20.6479413  82.0739629  71.2564262  20.9527403  83.3053809
  65.5159092  18.1639803  81.2108818  64.6462402  18.4573369  80.9391406
  65.7518573  18.7480248  81.9316081  75.3930722  27.2238962  81.2938346
  75.1015530  27.5868943  82.1301807  74.7802853  26.5105970  81.1151678
  76.5926404  24.7891842  73.8140917  77.4273295  25.2281646  73.9778477
  76.7285533  24.3130495  72.9949162  73.6417910  22.3471577  79.7618404
  74.1172031  22.5399223  78.9537256  72.7183475  22.4030762  79.5161788
  60.5301416  23.5095744  69.3449483  60.2847458  22.6058074  69.5429693
  60.6997331  23.5112894  68.4028961  68.2198126  14.3819420  78.7274238
  68.7380070  15.1180447  78.4020727  67.8653259  14.6883413  79.5620997
  59.7997064  19.2424101  66.8435644  59.1066309  19.3168456  66.1875680
  59.5548816  18.4784445  67.3657161  68.4710720  10.8019703  74.2475135
  68.7512474  10.1342892  74.8735561  69.2561327  10.9948798  73.7349799
  66.2744189  29.9778697  65.8100161  65.7018156  30.5968884  65.3570633
  66.8476983  30.5278058  66.3440083  72.3419579  19.2237337  77.9946710
  73.2937002  19.3235434  78.0158934  72.1723029  18.4315605  78.5044794
  70.3633958  16.3092920  78.1806111  69.7683890  16.5897933  77.4852599
  70.0783655  16.7986821  78.9522852  69.4941449  30.2615847  66.9408743
  70.4272122  30.1961408  67.1441619  69.4064662  31.0972114  66.4823276
  72.1229465  29.5781717  63.9012691  72.0443097  29.2441581  64.7948449
  72.9439132  30.0703485  63.9004163  74.8207657  22.4443456  77.1089010
  74.7883977  21.5059457  77.2948693  75.4308280  22.5227493  76.3754834
  66.6590987  21.3139509  63.1516214  67.6050092  21.1845717  63.2204632
  66.2805232  20.5754171  63.6285642  74.9702145  19.2354500  77.1547293
  74.4541194  18.4512956  76.9677222  75.8542094  18.9073216  77.3193812
  72.6312872  12.9795515  73.1143105  72.4337693  12.6710604  73.9986437
  73.2412578  13.7057154  73.2441035  80.6384206  23.5059463  76.2495046
  81.3687595  23.2444751  76.8102750  80.0291152  22.7688185  76.2897114
  78.7199504  21.6467326  76.8469498  77.9932667  21.5123291  76.2385989
  78.3046790  21.9544154  77.6526216  66.5429680  25.3657256  84.6116871
  67.4632689  25.5435855  84.8056917  66.5079263  24.4213301  84.4596570
  64.8433905  19.2389486  63.0871099  63.9365360  18.9422598  63.1633812
  65.1209886  18.9419304  62.2205385  55.7611845  20.5595849  73.5370145
  55.4414629  19.7061157  73.2444519  55.2145273  20.7744427  74.2928113
  59.5391753  23.2758290  77.2539652  59.7577762  24.2075398  77.2727686
  59.9517526  22.9166265  78.0394456  66.4595970  13.7826375  69.2415340
  65.6496699  13.4373460  69.6170586  67.1480387  13.4733919  69.8302952
  68.3886519  12.8604422  70.8639637  68.9417557  13.2799876  71.5229660
  68.6256605  11.9340170  70.9062593  64.4119618  18.8491496  86.6442401
  64.3116345  19.7985853  86.5754492  64.1941160  18.5209735  85.7718471
  63.6132689  16.0976421  63.2283078  64.4751853  16.4231319  63.4878895
  63.7983033  15.3107917  62.7156144  55.6300105  24.1798761  75.5063267
  54.9363576  23.7652713  74.9933221  56.3773096  24.2219297  74.9096686
  71.7665326  14.9704947  70.3718301  71.1863995  15.6289751  69.9896353
  71.5001258  14.1482292  69.9605718  70.2168892  14.3710005  72.5739621
  70.7168670  14.4826540  71.7653940  70.8604500  14.0671058  73.2140430
  64.2750888  22.2788635  85.4607462  63.7917970  23.0788995  85.6671351
  64.3611827  22.2896580  84.5074906  57.5436848  24.1117014  73.3829282
  57.5207536  24.2104702  72.4311165  57.8537484  24.9582165  73.7046448
  60.2024225  26.1693169  77.4975896  61.1567479  26.1377112  77.4305828
  60.0036749  25.7083793  78.3126122  60.7923608  24.7394286  80.0646694
  61.6116497  25.2338364  80.0881531  61.0660415  23.8226254  80.0364261
  70.5490204  17.1305038  69.4274649  69.6616059  17.4154688  69.2094844
  70.9644193  16.9698801  68.5801926  73.9004740  17.1551559  73.1428988
  74.6765130  17.6448011  73.4153605  73.1752874  17.5809613  73.6000858
  76.3377299  17.8679178  74.2002929  76.9321789  17.6274914  73.4896237
  76.4103882  17.1486309  74.8276465  58.5574454  31.7112789  74.5146094
  58.4228922  30.9513190  73.9484092  58.1406516  32.4353689  74.0474883
  69.6933417  26.8949713  63.5222669  70.3969267  27.0999715  64.1380325
  68.9696066  27.4626474  63.7871753  70.5231227  22.6459574  69.6424939
  70.4666429  23.1028125  68.8032572  71.0759570  21.8850258  69.4647782
  74.3336033  18.4349306  70.4675059  74.0772968  18.0345941  71.2983267
  73.7088901  19.1493100  70.3425198  78.6448371  21.1745379  72.9746350
  78.0847929  21.2438568  73.7477912  78.0391875  20.9986364  72.2545847
  61.7143580  32.6082106  74.7264537  61.5975964  33.5527538  74.6243227
  60.8936026  32.3055668  75.1150336  71.6020115  27.3332242  65.5721129
  72.4365719  26.9013440  65.3898604  71.4404458  27.1614255  66.4998024
  71.2566007  23.8364355  66.9377469  71.2014811  23.6708626  65.9965913
  70.6312062  24.5440388  67.0939658  56.0458522  19.0732419  80.7638891
  56.6917385  18.5631373  81.2526116  55.8375673  19.8101101  81.3382316
  68.5711914  26.1413267  86.2631031  69.4403074  26.3153919  85.9017666
  68.0918665  26.9607684  86.1406761  64.5662132  13.3372464  66.5162787
  64.5540802  14.2814304  66.6731058  65.4585554  13.1542609  66.2222248
  62.7398094  33.2610368  77.9420465  63.6425341  33.2933978  78.2586960
  62.5135464  32.3310819  77.9566801  64.4951696  32.0141354  74.6030544
  63.5447327  32.0143216  74.4894916  64.7984182  31.2674089  74.0866578
  68.3814252   9.9315241  70.7708724  67.6146648   9.3773727  70.9165406
  68.7924957  10.0037109  71.6322875  60.3856013  16.2200036  84.8613905
  61.2487474  15.8636841  85.0717230  59.8121423  15.8813931  85.5489309
  80.2304390  37.8501893  75.6676306  80.8682800  37.7308640  74.9639646
  80.1125233  38.7982737  75.7264258  77.0394096  37.8029321  75.6037831
  76.7012608  37.6870386  74.7158366  77.9083864  37.4020486  75.5838837
  72.8980912  39.6564797  71.5934722  72.3345777  39.5654734  70.8251009
  72.7833307  38.8364702  72.0737214  77.5213879  38.9564173  81.5624036
  77.5102520  38.5616971  80.6904540  77.6834518  38.2230245  82.1557808
  70.4445344  41.1515989  74.4318942  71.2366636  40.8106814  74.0165241
  70.6841994  41.2610964  75.3521095  78.4780470  43.3235765  66.9049187
  77.8268450  43.9089845  66.5183200  79.2724833  43.8541960  66.9644224
  72.4036098  40.4124902  67.3036321  73.1766974  39.8653889  67.1649197
  72.7561496  41.2769152  67.5150782  74.2421140  41.7401284  80.5103220
  73.9511006  42.6446915  80.3949887  74.8778124  41.7817812  81.2247290
  75.1677347  39.1178133  77.1004580  75.7640919  38.8934155  76.3861543
  75.2252319  38.3762878  77.7030028  74.7402375  36.5717568  64.9354771
  74.9927896  36.0499090  64.1738234  73.8026934  36.4083714  65.0381454
  79.7845658  35.5753347  72.7429514  80.5708747  35.1572770  72.3919931
  80.0484363  36.4799439  72.9111162  79.9555736  41.0126197  67.4418171
  79.3201569  41.0860823  68.1539076  79.6253142  41.6019796  66.7637250
  85.1854085  35.5128580  73.6462493  85.9179257  34.9427797  73.8800322
  84.4293441  35.1250180  74.0868998  74.4598664  38.4745674  67.1379146
  74.3434922  37.7990578  67.8060230  74.5700924  37.9878048  66.3211299
  76.8030205  37.9355821  70.8425835  76.4388412  37.4086442  71.5538757
  77.6597321  37.5454290  70.6692320  82.7079506  29.2250154  78.1057101
  82.3762830  30.0945565  77.8818316  82.1125119  28.9086438  78.7851132
  76.4435692  32.9645721  65.8387184  76.6110094  33.8325957  66.2057655
  76.2532861  33.1273003  64.9148473  79.2011025  41.4262700  77.5053014
  78.9011748  42.3287739  77.3968821  78.8562085  41.1594883  78.3574167
  72.6523507  37.8776497  73.5389718  71.7274003  37.7452711  73.7467410
  72.9007920  38.6570716  74.0359661  82.6008169  33.9445240  75.1850451
  81.6925046  33.8760649  74.8909212  82.5495765  34.4217185  76.0132277
  76.4224913  35.4203379  66.8233850  76.3024538  35.8660429  67.6619331
  75.7277501  35.7688696  66.2647389  70.0132318  37.5209770  74.3733507
  70.1424699  37.7744249  75.2872919  69.3329769  38.1137478  74.0538162
  76.6749035  35.3634886  83.1285349  75.8982369  35.9228806  83.1188213
  77.3139598  35.8491669  83.6500219  84.4669815  32.1461679  76.9628325
  83.8244196  32.4394212  76.3168120  83.9624744  32.0314599  77.7681522
  82.1209979  35.8924852  67.6514184  83.0327835  36.1252238  67.4761882
  81.6119626  36.4761896  67.0889263  74.9295407  38.1720339  82.6903316
  75.6710091  38.7105383  82.4138139  74.2232393  38.7986628  82.8474867
  80.4050747  40.3149480  81.2875477  80.8134103  39.8731890  80.5430109
  79.6828008  39.7402107  81.5409670  76.7581817  35.2522086  78.6609034
  77.6043012  35.6761500  78.8043683  76.6980454  34.5955711  79.3547597
  80.7279561  40.8750670  75.0427766  80.0988424  41.0396384  74.3403834
  80.3405223  41.2892280  75.8138730  84.6068793  41.8105108  72.3972130
  83.9219831  42.1904009  71.8469163  84.6912643  42.4200435  73.1304077
  79.9081262  32.9126455  80.3190208  79.6642194  33.6668515  79.7824483
  80.1841193  33.2911802  81.1537455  81.8619725  39.4565067  78.9967473
  82.0736620  40.0996827  78.3201854  81.8149473  38.6227384  78.5289403
  79.4645954  32.0682888  75.9004045  78.6030433  32.3664141  76.1920783
  79.4908388  32.2853287  74.9685078  76.2807523  40.6125078  72.3077851
  76.7445869  40.8912781  71.5182473  76.0164321  39.7108523  72.1250942
  73.1731604  40.1596560  75.2457614  73.7432961  40.5883828  74.6075099
  73.7639716  39.8779145  75.9441800  75.2176409  36.7348231  69.1167416
  75.9200453  37.1869274  69.5841342  74.8857038  36.0932050  69.7447309
  73.6656771  35.3259987  83.4918626  73.0355431  36.0076268  83.7254022
  73.5592859  35.2143069  82.5471764  68.9601743  34.9931783  74.4184550
  68.1700797  35.2489312  73.9424660  69.4512991  35.8080121  74.5236590
  82.9765553  42.3337022  77.1689831  83.7982997  41.9317210  76.8872512
  82.9727956  42.2305257  78.1205946  70.9116489  35.3576363  71.3768026
  70.1147652  35.4695057  71.8951522  70.6842081  35.6963015  70.5108917
  76.7422156  41.8821066  79.3250541  76.8066589  42.3441473  80.1608713
  76.0333080  41.2518431  79.4532851  67.2439446  35.2462274  76.8499540
  67.4947485  36.1309284  77.1157116  67.7798995  35.0666875  76.0774632
  91.0671546  38.6775771  73.5174802  90.3135254  38.1083169  73.3618806
  91.2019087  38.6438435  74.4645437  76.4570174  43.5489173  69.1929521
  76.3215849  44.3940709  69.6214369  76.9979986  43.7508451  68.4295455
  72.9437514  29.6280753  85.8543877  72.5504459  29.0746952  86.5291521
  73.7603654  29.9391332  86.2450394  69.9099571  41.0664611  69.7657446
  70.4224092  41.8607862  69.9163011  70.5622284  40.3690902  69.6991048
  71.7194456  44.1830368  71.8480200  71.8961084  45.1048332  71.6601184
  72.5151290  43.8688787  72.2774579  75.8605475  31.0438632  83.4464133
  76.6015188  31.6445785  83.3668596  76.0923397  30.3016270  82.8882176
  71.0046813  36.2294999  81.7242363  70.8900328  35.3280257  82.0249462
  70.1491330  36.4758696  81.3727179  78.0838650  44.1712740  83.3229863
  77.6402504  43.3849118  83.0050768  78.7455864  44.3591890  82.6573754
  72.8425771  45.7008541  77.8490542  73.3933197  45.5725605  77.0767536
  72.0037247  46.0003430  77.4985435  80.1819888  44.4515540  81.3511265
  80.1638364  45.2724421  80.8591534  81.1039808  44.3269615  81.5761406
  76.6392943  41.9659669  82.1934773  77.1721279  41.2047957  81.9634081
  76.1107024  41.6733321  82.9358928  79.8062638  27.0719735  77.7228415
  79.4626907  27.9621377  77.6467525  80.1741600  26.8821393  76.8598000
  67.8748488  39.3953266  70.5417017  68.7123710  39.8050274  70.3250725
  68.0526756  38.4552708  70.5117211  79.7712920  37.0628346  66.2300850
  79.2559544  37.8332951  66.4689237  79.4990229  36.3893482  66.8533911
  77.3560031  31.9078047  71.2886088  76.5001628  31.5184897  71.1091727
  77.7686983  31.9870008  70.4285874  78.8859178  29.4424390  75.6877648
  78.3823973  29.4054525  74.8745453  79.1789785  30.3517133  75.7474305
  75.1302064  29.5263120  74.6943830  75.9955061  29.3305929  74.3349719
  75.1979573  29.2973472  75.6213187  84.7447194  39.8160701  68.1654023
  83.9676637  39.4771860  67.7209185  85.4238675  39.8213324  67.4908988
  79.5599223  34.9355438  68.0560631  79.2549359  35.2501588  68.9070774
  80.5129666  35.0136858  68.0987964  78.0045655  41.0945662  69.7053585
  77.4767017  40.3598421  69.3926823  77.5033158  41.8720338  69.4593553
  82.9838501  39.2894682  74.8220631  82.3262176  39.9793944  74.9100760
  83.7878900  39.6791114  75.1654618  72.7364383  31.7565328  72.0660197
  73.3108135  31.5340509  71.3333390  73.3235365  31.8254022  72.8188798
  81.7943960  37.6439055  72.8724573  82.3075842  38.2769047  73.3746283
  82.4445184  37.0440250  72.5067933  73.0633970  33.7869789  66.0856082
  72.2271282  34.1244476  66.4065357  72.9238740  33.6518769  65.1483219
  75.0387051  28.6306577  70.7935266  74.3851463  28.3155594  70.1691881
  74.9967525  28.0082317  71.5195089  76.1498255  38.9125872  62.7088558
  75.2425317  38.6815125  62.9079707  76.6469287  38.1163491  62.8962540
  79.0566334  47.6223379  65.6285244  78.3828033  47.9255076  66.2370202
  79.4432156  48.4252459  65.2790701  78.2724791  35.1188510  75.1182914
  77.3547352  35.3403457  74.9604602  78.6884935  35.1934821  74.2594621
  79.0559839  36.5179926  70.2485594  79.8031658  37.0301323  69.9392716
  79.3251428  36.1963979  71.1089987  77.3286489  39.0138467  67.2312548
  76.4197708  38.7297500  67.3285018  77.3581573  39.4337545  66.3715855
  82.5605756  42.6245056  71.0003716  82.1068083  41.7835966  71.0568906
  81.9299723  43.2606455  71.3378496  81.5038676  33.5537042  72.2304383
  80.7661433  33.0414429  72.5614626  81.7565449  33.1137424  71.4187660
  81.0038696  44.4621553  71.9353534  81.2961670  45.0226610  71.2165900
  81.5137316  44.7550114  72.6906693  81.6050303  26.3313294  72.8246152
  81.9109180  25.4710658  72.5372068  82.3302908  26.9230915  72.6245146
  67.8974659  36.7343981  71.2127750  67.6999059  36.1413342  70.4878817
  67.3421323  36.4296191  71.9303689  75.8771383  36.6267087  73.3322344
  75.9319993  35.6740924  73.2564820  75.0662585  36.7826527  73.8163642
  77.0262577  40.5547210  64.5700627  76.5882007  39.8383069  64.1106264
  77.7673018  40.7823325  64.0085718  73.8163743  35.2444147  71.0912722
  73.0031608  35.5438318  71.4977915  74.3122737  34.8499836  71.8087205
  75.9672321  45.2401904  73.0246987  75.9248499  45.4662750  72.0955519
  76.8835020  45.0065279  73.1732788  79.4137955  35.7085972  79.9227616
  79.7687342  35.9357445  80.7822082  80.0610086  36.0404348  79.3004872
  85.1435691  38.8304408  70.6276945  85.0053590  39.0206003  69.6998135
  84.7871910  39.5923790  71.0844996  73.3077818  32.8162503  76.7073957
  73.9477197  32.6751262  76.0096921  72.4755348  32.5297016  76.3312559
  85.1705071  40.8980935  75.6388217  85.6041578  40.8056224  76.4871271
  85.8836652  40.8738435  75.0008233  74.0838121  42.1164933  72.8208950
  74.8778720  41.6215253  72.6191525  73.3729814  41.5882796  72.4576655
  78.9032966  44.4983029  77.1721317  78.9569988  45.0673965  77.9399033
  78.0347747  44.6684914  76.8075355  70.3920885  36.2608015  68.8968703
  69.4618473  36.1992470  69.1138665  70.4878357  35.7383968  68.1005344
  70.3106434  32.7862828  71.4846944  70.5713251  33.7008161  71.3756105
  71.1323606  32.3187270  71.6343557  71.7831359  34.2000585  78.6545769
  72.4554413  33.9917947  78.0058418  70.9561146  34.0022671  78.2151001
  86.0320621  40.9404635  78.1721102  86.2256511  41.8450446  78.4180377
  85.9321239  40.4812054  79.0059687  77.6856931  30.8262526  80.6711430
  77.0384846  31.5252475  80.5775906  78.4557947  31.2598670  81.0387678
  81.0935729  41.0911378  83.7461983  80.9421236  40.8621930  82.8292067
  81.0840409  42.0481979  83.7593328  77.8621066  38.6643291  78.7308249
  78.7913126  38.8154450  78.5577217  77.4412096  38.7527311  77.8756896
  76.6609397  42.6893955  76.5006787  76.5220483  42.3212739  77.3732725
  75.8723994  43.2041595  76.3290745  77.2557549  47.7903052  67.8432323
  77.4309305  47.3191095  68.6577946  76.5690337  48.4168818  68.0713584
  78.2114613  42.0675558  73.8895625  77.8764445  42.0276328  74.7853275
  77.7118558  41.4020274  73.4166035  72.1858857  37.4743188  79.4148206
  72.0478655  36.7423427  80.0159745  73.0963780  37.3852088  79.1332394
  81.1473804  39.4131592  64.1632684  80.5302975  38.6878420  64.0665737
  80.6790293  40.1740952  63.8199759  74.8141157  37.1863147  78.9031886
  75.5240776  36.5456339  78.8618504  74.7710465  37.4376042  79.8258066
  82.8027936  44.1230500  81.8238465  82.7440482  43.4389721  81.1569048
  83.2047454  44.8649490  81.3719091  73.5270091  34.1728365  80.7227525
  72.9907448  33.7219103  81.3749121  72.9386800  34.3074274  79.9797989
  71.8218635  50.9392414  74.6172184  72.0615233  51.5710938  75.2951202
  70.9787831  50.5880454  74.9037543  72.9372350  33.6317016  63.2853989
  72.0601817  33.5105817  62.9216235  73.4130103  32.8403095  63.0332877
  82.8045343  42.0870084  80.0552444  81.9172122  41.7496006  80.1778843
  83.3743894  41.3553116  80.2921210  64.4574490  38.4194176  73.3795496
  65.1445530  38.1055906  72.7916511  64.3022619  39.3235541  73.1062747
  69.2609212  33.3084373  77.8080519  69.1767401  32.7010042  77.0730929
  68.4391919  33.7993391  77.8090016  76.3346497  46.7471537  77.0213688
  76.2616668  47.5526508  77.5332992  75.8923890  46.9463503  76.1961709
  76.1236276  45.9843307  70.5316509  75.3403798  46.5264987  70.6254734
  76.8229021  46.5017286  70.9310750  79.4332926  31.7937936  73.1750715
  79.9301626  31.0407899  72.8551785  78.6619908  31.8302253  72.6093924
  87.2862684  37.4978302  74.8169006  87.2752560  38.3803017  74.4462939
  86.4180063  37.1449853  74.6223543  78.7945180  46.6458371  79.1771846
  79.5073152  47.2805836  79.1047748  78.3035209  46.7422237  78.3611848
  80.5162707  40.5509623  70.7489138  79.5818986  40.6711086  70.5793842
  80.6939375  39.6482090  70.4849148  76.0167895  33.9355319  72.9022399
  75.6465683  33.3826360  73.5903305  76.5126988  33.3313453  72.3497399
  83.9035258  36.3926943  71.2839172  84.3695711  37.2254934  71.2099475
  84.3542759  35.9271924  71.9884431  73.8457094  44.3952814  79.9977417
  74.5466553  45.0289297  80.1506811  73.3752209  44.7367546  79.2373056
  81.9711489  42.7370764  68.2825324  82.2471333  42.6227359  69.1919198
  81.1015988  42.3388249  68.2437497  81.8751921  28.7607530  75.3230073
  80.9615001  28.9911757  75.4912280  82.3045023  28.8445974  76.1744106
  81.6458380  36.9497422  77.8229967  80.9929830  37.1973329  77.1682420
  82.0238760  36.1361560  77.4892445  78.6065553  46.9857115  71.9258138
  78.7887948  46.1678771  72.3885890  79.4298540  47.2024807  71.4883028
  78.9407719  45.9125300  69.1873186  79.4695485  45.4017755  68.5743348
  79.2035939  45.5967830  70.0518719  77.6945953  37.6917233  84.3096005
  77.0186590  37.5911362  84.9798380  78.5173587  37.5356447  84.7732002
  69.4424812  43.9289169  76.9308520  70.0278249  43.1832857  77.0636424
  69.2449650  44.2393126  77.8145184  72.2963467  46.9640417  71.9470962
  71.6273842  47.4486544  71.4635002  72.1576337  47.2109637  72.8614341
  64.0342466  36.4994770  75.6512963  64.0726566  35.9658360  76.4450081
  63.5282759  35.9729975  75.0323940  76.4368736  48.9984160  78.5453621
  76.9887044  49.1615782  79.3102706  76.7774929  49.5888598  77.8733645
  71.4133229  31.3459310  79.1475505  71.4774555  32.2074141  78.7352903
  71.3500349  30.7333312  78.4147864  70.8885501  33.4182443  82.7948539
  71.5157540  33.0359520  83.4086064  70.0313420  33.1996644  83.1604232
  81.2879610  43.8245418  84.4002275  81.8319514  44.4375376  83.9057230
  80.7066455  44.3824996  84.9169288  67.6651044  35.2258872  68.7266894
  67.9604485  34.3169550  68.6733948  66.7639080  35.2046611  68.4047897
  79.5737123  46.9466136  75.5317303  79.4488262  46.1455876  75.0228248
  80.2316214  47.4412329  75.0431273  71.1945291  33.3014868  74.7094443
  70.4731877  33.9150836  74.5701916  71.9838547  33.8372633  74.6311089
  81.6372031  44.7475156  77.1596853  80.6902367  44.6280507  77.0875180
  81.9854804  43.8597654  77.2423114  73.9971605  30.6369295  80.9835095
  74.5206006  30.8831591  81.7461404  73.7783938  31.4689330  80.5638232
  69.3938886  32.9072969  68.8506219  69.0651592  32.0270348  68.6681325
  69.7478256  32.8520638  69.7382609  78.6418464  44.5427872  73.3601205
  78.4943427  43.6144579  73.5408775  79.4671958  44.5647963  72.8758280
  72.5080709  33.1945939  69.2181697  72.8476781  33.7231860  68.4960306
  72.9552829  33.5326345  69.9940264  82.2452586  45.3656431  74.4466078
  83.1699134  45.1599292  74.3090529  82.0767890  45.1172832  75.3555419
  75.2024150  31.5782990  78.6684765  74.8620970  30.7790803  79.0705445
  74.4963156  31.8784701  78.0961598  75.8540621  28.6632302  77.1212088
  76.6766691  28.1892780  76.9990979  76.0978685  29.4422786  77.6210775
  74.4948856  31.6920561  67.4174990  75.2157218  32.0701814  66.9138707
  73.8714160  32.4109438  67.5209968  78.6379979  32.3965710  68.3533322
  78.8543593  33.2790348  68.0522150  78.1574046  32.0051923  67.6238964
  73.3779200  35.3551423  74.9304067  73.2323781  35.6691726  75.8228348
  72.9004404  35.9736323  74.3774965  75.2375583  32.3453971  74.9784956
  75.2237152  31.4495064  74.6417254  75.9548011  32.3524635  75.6123242
  77.0901714  32.7791311  77.0238084  76.8319492  33.7008382  77.0222414
  76.5586754  32.3821746  77.7138548  82.0347903  45.8842098  69.8028169
  82.2084780  45.3188521  69.0502022  82.5276794  46.6842993  69.6207659
  67.8524862  37.8956767  77.8691728  67.3078330  38.6716575  78.0012002
  68.7304212  38.2427572  77.7110849  74.6412479  31.2268351  70.2472527
  74.7628390  30.2984997  70.4463414  74.3514521  31.2407037  69.3350842
  77.5103669  28.9123262  73.3839246  77.5325366  28.9762595  72.4291226
  77.9271728  28.0727770  73.5779753  87.8887294  38.6478521  71.4218469
  88.3318440  37.8985846  71.0237592  87.0113804  38.6388658  71.0392201
  83.0223075  45.2008863  66.9025067  83.7173980  45.8215555  67.1212382
  83.3646225  44.3504214  67.1777445  68.6390884  37.0226664  80.7621885
  67.8972620  37.1709299  81.3486515  68.3183628  37.2834929  79.8988634
  84.9214498  42.6508568  68.4312398  85.4465822  42.9895841  67.7061718
  84.8336851  41.7155583  68.2475533  76.5834547  46.5642642  80.5602275
  76.8921673  46.3191789  81.4324974  77.3810029  46.7689280  80.0721145
  76.6055159  48.7180551  72.7907651  76.1660149  48.2256930  73.4840508
  77.3563276  48.1753519  72.5499727  69.0847498  44.9092092  72.7932280
  69.9105518  44.6095864  72.4130923  68.7341550  44.1399715  73.2422068
  74.0529031  44.2618561  74.8629953  73.4309040  43.5989266  74.5632181
  74.7233898  44.2879692  74.1803601  67.2856103  42.8278419  73.7521213
  66.4488011  42.4000593  73.5705214  67.2579748  43.0210862  74.6892004
  74.1253559  32.7400349  84.4562459  74.1741714  33.6162471  84.0740229
  74.6676073  32.1977742  83.8834102  84.6108404  43.2841472  83.7363596
  83.8203948  43.2665611  83.1968096  84.3741759  43.8229765  84.4912633
  84.7306279  40.1333938  81.0496325  84.7804284  39.9683946  81.9911848
  84.6220203  39.2661197  80.6594206  73.6142538  42.8122484  68.3388414
  73.7630658  43.4957948  67.6855086  74.4208981  42.7927574  68.8537869
  82.0210042  36.1164866  82.3655631  82.9219904  35.9771331  82.0739629
  82.0958016  36.2819321  83.3053809  76.3552847  33.4931721  81.2108818
  75.4856156  33.7865287  80.9391406  76.5912327  34.0772166  81.9316081
  86.2324476  42.5530880  81.2938346  85.9409284  42.9160860  82.1301807
  85.6196607  41.8397888  81.1151678  87.4320158  40.1183759  73.8140917
  88.2667050  40.5573564  73.9778477  87.5679287  39.6422413  72.9949162
  84.4811664  37.6763494  79.7618404  84.9565786  37.8691141  78.9537256
  83.5577230  37.7322680  79.5161788  71.3695171  38.8387661  69.3449483
  71.1241213  37.9349991  69.5429693  71.5391085  38.8404812  68.4028961
  79.0591881  29.7111338  78.7274238  79.5773825  30.4472365  78.4020727
  78.7047014  30.0175331  79.5620997  70.6390818  34.5716019  66.8435644
  69.9460063  34.6460374  66.1875680  70.3942570  33.8076363  67.3657161
  79.3104475  26.1311620  74.2475135  79.5906229  25.4634809  74.8735561
  80.0955082  26.3240716  73.7349799  77.1137943  45.3070614  65.8100161
  76.5411911  45.9260801  65.3570633  77.6870737  45.8569976  66.3440083
  83.1813333  34.5529254  77.9946710  84.1330756  34.6527352  78.0158934
  83.0116784  33.7607523  78.5044794  81.2027713  31.6384838  78.1806111
  80.6077645  31.9189850  77.4852599  80.9177409  32.1278739  78.9522852
  80.3335203  45.5907764  66.9408743  81.2665876  45.5253326  67.1441619
  80.2458416  46.4264031  66.4823276  82.9623220  44.9073635  63.9012691
  82.8836851  44.5733498  64.7948449  83.7832887  45.3995403  63.9004163
  85.6601411  37.7735374  77.1089010  85.6277731  36.8351375  77.2948693
  86.2702035  37.8519411  76.3754834  77.4984742  36.6431427  63.1516214
  78.4443847  36.5137635  63.2204632  77.1198987  35.9046089  63.6285642
  85.8095900  34.5646418  77.1547293  85.2934948  33.7804874  76.9677222
  86.6935848  34.2365134  77.3193812  83.4706627  28.3087433  73.1143105
  83.2731448  28.0002521  73.9986437  84.0806332  29.0349072  73.2441035
  91.4777961  38.8351381  76.2495046  92.2081349  38.5736669  76.8102750
  90.8684906  38.0980103  76.2897114  89.5593258  36.9759244  76.8469498
  88.8326422  36.8415208  76.2385989  89.1440545  37.2836072  77.6526216
  77.3823435  40.6949173  84.6116871  78.3026444  40.8727772  84.8056917
  77.3473018  39.7505219  84.4596570  75.6827659  34.5681403  63.0871099
  74.7759115  34.2714516  63.1633812  75.9603640  34.2711222  62.2205385
  66.6005600  35.8887767  73.5370145  66.2808384  35.0353075  73.2444519
  66.0539028  36.1036345  74.2928113  70.3785507  38.6050208  77.2539652
  70.5971517  39.5367316  77.2727686  70.7911281  38.2458182  78.0394456
  77.2989725  29.1118293  69.2415340  76.4890453  28.7665378  69.6170586
  77.9874142  28.8025837  69.8302952  79.2280273  28.1896340  70.8639637
  79.7811312  28.6091793  71.5229660  79.4650359  27.2632088  70.9062593
  75.2513372  34.1783414  86.6442401  75.1510099  35.1277771  86.5754492
  75.0334914  33.8501653  85.7718471  74.4526444  31.4268339  63.2283078
  75.3145608  31.7523237  63.4878895  74.6376788  30.6399835  62.7156144
  66.4693860  39.5090678  75.5063267  65.7757331  39.0944631  74.9933221
  67.2166851  39.5511215  74.9096686  82.6059080  30.2996865  70.3718301
  82.0257749  30.9581669  69.9896353  82.3395013  29.4774210  69.9605718
  81.0562647  29.7001923  72.5739621  81.5562425  29.8118457  71.7653940
  81.6998255  29.3962976  73.2140430  75.1144642  37.6080552  85.4607462
  74.6311724  38.4080913  85.6671351  75.2005581  37.6188497  84.5074906
  68.3830602  39.4408932  73.3829282  68.3601290  39.5396619  72.4311165
  68.6931239  40.2874083  73.7046448  71.0417980  41.4985087  77.4975896
  71.9961233  41.4669029  77.4305828  70.8430503  41.0375711  78.3126122
  71.6317362  40.0686203  80.0646694  72.4510251  40.5630282  80.0881531
  71.9054170  39.1518171  80.0364261  81.3883958  32.4596956  69.4274649
  80.5009813  32.7446606  69.2094844  81.8037947  32.2990719  68.5801926
  84.7398494  32.4843476  73.1428988  85.5158884  32.9739929  73.4153605
  84.0146629  32.9101531  73.6000858  87.1771053  33.1971096  74.2002929
  87.7715544  32.9566832  73.4896237  87.2497637  32.4778226  74.8276465
  69.3968209  47.0404707  74.5146094  69.2622677  46.2805108  73.9484092
  68.9800271  47.7645607  74.0474883  80.5327172  42.2241630  63.5222669
  81.2363022  42.4291633  64.1380325  79.8089820  42.7918392  63.7871753
  81.3624982  37.9751491  69.6424939  81.3060183  38.4320043  68.8032572
  81.9153324  37.2142176  69.4647782  85.1729788  33.7641223  70.4675059
  84.9166722  33.3637859  71.2983267  84.5482656  34.4785017  70.3425198
  89.4842126  36.5037297  72.9746350  88.9241684  36.5730486  73.7477912
  88.8785629  36.3278281  72.2545847  72.5537335  47.9374024  74.7264537
  72.4369719  48.8819456  74.6243227  71.7329781  47.6347585  75.1150336
  82.4413869  42.6624159  65.5721129  83.2759473  42.2305358  65.3898604
  82.2798212  42.4906173  66.4998024  82.0959761  39.1656273  66.9377469
  82.0408565  39.0000544  65.9965913  81.4705817  39.8732306  67.0939658
  66.8852276  34.4024337  80.7638891  67.5311140  33.8923291  81.2526116
  66.6769427  35.1393019  81.3382316  79.4105668  41.4705185  86.2631031
  80.2796828  41.6445837  85.9017666  78.9312420  42.2899601  86.1406761
  75.4055887  28.6664382  66.5162787  75.3934557  29.6106222  66.6731058
  76.2979309  28.4834527  66.2222248  73.5791849  48.5902286  77.9420465
  74.4819095  48.6225896  78.2586960  73.3529219  47.6602737  77.9566801
  75.3345451  47.3433272  74.6030544  74.3841082  47.3435134  74.4894916
  75.6377937  46.5966007  74.0866578  79.2208006  25.2607158  70.7708724
  78.4540402  24.7065645  70.9165406  79.6318711  25.3329027  71.6322875
  71.2249767  31.5491954  84.8613905  72.0881229  31.1928759  85.0717230
  70.6515178  31.2105849  85.5489309  87.8787850  53.1321239  75.6037831
  87.5406362  53.0162303  74.7158366  88.7477619  52.7312404  75.5838837
  83.7374666  54.9856715  71.5934722  83.1739531  54.8946652  70.8251009
  83.6227061  54.1656619  72.0737214  88.3607633  54.2856090  81.5624036
  88.3496274  53.8908889  80.6904540  88.5228273  53.5522163  82.1557808
  81.2839098  56.4807907  74.4318942  82.0760390  56.1398731  74.0165241
  81.5235748  56.5902882  75.3521095  89.3174225  58.6527683  66.9049187
  88.6662205  59.2381763  66.5183200  90.1118588  59.1833878  66.9644224
  83.2429852  55.7416820  67.3036321  84.0160728  55.1945807  67.1649197
  83.5955251  56.6061069  67.5150782  85.0814895  57.0693202  80.5103220
  84.7904761  57.9738833  80.3949887  85.7171879  57.1109730  81.2247290
  86.0071101  54.4470051  77.1004580  86.6034674  54.2226073  76.3861543
  86.0646073  53.7054796  77.7030028  85.5796130  51.9009486  64.9354771
  85.8321651  51.3791007  64.1738234  84.6420689  51.7375631  65.0381454
  90.7949490  56.3418115  67.4418171  90.1595323  56.4152741  68.1539076
  90.4646896  56.9311713  66.7637250  96.0247840  50.8420498  73.6462493
  96.7573012  50.2719714  73.8800322  95.2687196  50.4542098  74.0868998
  85.2992419  53.8037592  67.1379146  85.1828677  53.1282495  67.8060230
  85.4094679  53.3169966  66.3211299  87.6423960  53.2647739  70.8425835
  87.2782167  52.7378360  71.5538757  88.4991075  52.8746208  70.6692320
  93.5473260  44.5542072  78.1057101  93.2156585  45.4237483  77.8818316
  92.9518874  44.2378356  78.7851132  87.2829447  48.2937639  65.8387184
  87.4503849  49.1617875  66.2057655  87.0926616  48.4564920  64.9148473
  83.4917261  53.2068414  73.5389718  82.5667758  53.0744629  73.7467410
  83.7401674  53.9862634  74.0359661  87.2618667  50.7495296  66.8233850
  87.1418293  51.1952347  67.6619331  86.5671256  51.0980614  66.2647389
  80.8526072  52.8501688  74.3733507  80.9818453  53.1036167  75.2872919
  80.1723524  53.4429396  74.0538162  85.0225560  63.5198938  70.4723982
  84.9449589  64.4706763  70.5512462  84.4187203  63.1744810  71.1298908
  87.5142789  50.6926803  83.1285349  86.7376123  51.2520724  83.1188213
  88.1533352  51.1783586  83.6500219  95.3063570  47.4753596  76.9628325
  94.6637950  47.7686129  76.3168120  94.8018498  47.3606517  77.7681522
  92.9603734  51.2216769  67.6514184  93.8721590  51.4544156  67.4761882
  92.4513381  51.8053814  67.0889263  85.7689162  53.5012257  82.6903316
  86.5103846  54.0397301  82.4138139  85.0626147  54.1278546  82.8474867
  91.2444501  55.6441397  81.2875477  91.6527857  55.2023808  80.5430109
  90.5221763  55.0694025  81.5409670  87.5975571  50.5814004  78.6609034
  88.4436766  51.0053418  78.8043683  87.5374209  49.9247628  79.3547597
  91.5673316  56.2042588  75.0427766  90.9382178  56.3688302  74.3403834
  91.1798978  56.6184197  75.8138730  90.7475017  48.2418372  80.3190208
  90.5035948  48.9960433  79.7824483  91.0234947  48.6203720  81.1537455
  92.7013479  54.7856985  78.9967473  92.9130375  55.4288745  78.3201854
  92.6543228  53.9519301  78.5289403  90.3039708  47.3974805  75.9004045
  89.4424187  47.6956059  76.1920783  90.3302143  47.6145204  74.9685078
  87.1201278  55.9416996  72.3077851  87.5839623  56.2204699  71.5182473
  86.8558076  55.0400441  72.1250942  84.0125359  55.4888478  75.2457614
  84.5826716  55.9175746  74.6075099  84.6033471  55.2071062  75.9441800
  86.0570164  52.0640148  69.1167416  86.7594207  52.5161192  69.5841342
  85.7250792  51.4223967  69.7447309  84.5050525  50.6551905  83.4918626
  83.8749186  51.3368186  83.7254022  84.3986613  50.5434987  82.5471764
  79.7995498  50.3223701  74.4184550  79.0094552  50.5781230  73.9424660
  80.2906745  51.1372039  74.5236590  81.7510243  50.6868280  71.3768026
  80.9541406  50.7986974  71.8951522  81.5235835  51.0254932  70.5108917
  78.0833201  50.5754191  76.8499540  78.3341239  51.4601201  77.1157116
  78.6192749  50.3958793  76.0774632 101.9065300  54.0067689  73.5174802
 101.1529009  53.4375087  73.3618806 102.0412842  53.9730353  74.4645437
  87.2963928  58.8781091  69.1929521  87.1609603  59.7232627  69.6214369
  87.8373741  59.0800369  68.4295455  83.7831268  44.9572671  85.8543877
  83.3898214  44.4038869  86.5291521  84.5997408  45.2683249  86.2450394
  82.5588211  59.5122285  71.8480200  82.7354839  60.4340250  71.6601184
  83.3545044  59.1980704  72.2774579  86.6999229  46.3730550  83.4464133
  87.4408942  46.9737703  83.3668596  86.9317152  45.6308188  82.8882176
  81.8440567  51.5586917  81.7242363  81.7294082  50.6572174  82.0249462
  80.9885085  51.8050614  81.3727179  88.9232405  59.5004657  83.3229863
  88.4796259  58.7141036  83.0050768  89.5849618  59.6883808  82.6573754
  83.6819526  61.0300459  77.8490542  84.2326951  60.9017522  77.0767536
  82.8431002  61.3295348  77.4985435  87.4786697  57.2951587  82.1934773
  88.0115034  56.5339875  81.9634081  86.9500778  57.0025239  82.9358928
  90.6456392  42.4011653  77.7228415  90.3020661  43.2913295  77.6467525
  91.0135355  42.2113310  76.8598000  90.6106675  52.3920264  66.2300850
  90.0953298  53.1624869  66.4689237  90.3383983  51.7185400  66.8533911
  88.1953786  47.2369965  71.2886088  87.3395382  46.8476815  71.1091727
  88.6080738  47.3161926  70.4285874  89.7252932  44.7716308  75.6877648
  89.2217728  44.7346443  74.8745453  90.0183539  45.6809051  75.7474305
  85.9695818  44.8555038  74.6943830  86.8348815  44.6597846  74.3349719
  86.0373327  44.6265389  75.6213187  88.8439410  56.4237579  69.7053585
  88.3160771  55.6890339  69.3926823  88.3426912  57.2012256  69.4593553
  83.5758137  47.0857246  72.0660197  84.1501889  46.8632427  71.3333390
  84.1629120  47.1545940  72.8188798  92.6337715  52.9730973  72.8724573
  93.1469596  53.6060964  73.3746283  93.2838938  52.3732168  72.5067933
  83.9027724  49.1161707  66.0856082  83.0665037  49.4536393  66.4065357
  83.7632494  48.9810686  65.1483219  85.8780805  43.9598495  70.7935266
  85.2245217  43.6447512  70.1691881  85.8361279  43.3374235  71.5195089
  86.9892010  54.2417790  62.7088558  86.0819072  54.0107043  62.9079707
  87.4863042  53.4455409  62.8962540  89.8960089  62.9515297  65.6285244
  89.2221788  63.2546994  66.2370202  90.2825911  63.7544377  65.2790701
  89.1118545  50.4480428  75.1182914  88.1941107  50.6695375  74.9604602
  89.5278689  50.5226739  74.2594621  89.8953593  51.8471844  70.2485594
  90.6425412  52.3593241  69.9392716  90.1645183  51.5255896  71.1089987
  88.1680243  54.3430384  67.2312548  87.2591463  54.0589417  67.3285018
  88.1975327  54.7629463  66.3715855  93.3999511  57.9536974  71.0003716
  92.9461838  57.1127884  71.0568906  92.7693477  58.5898372  71.3378496
  92.3432430  48.8828960  72.2304383  91.6055187  48.3706346  72.5614626
  92.5959204  48.4429342  71.4187660  91.8432450  59.7913471  71.9353534
  92.1355424  60.3518528  71.2165900  92.3531071  60.0842032  72.6906693
  92.4444058  41.6605212  72.8246152  92.7502934  40.8002575  72.5372068
  93.1696662  42.2522832  72.6245146  78.7368414  52.0635899  71.2127750
  78.5392814  51.4705259  70.4878817  78.1815078  51.7588109  71.9303689
  86.7165137  51.9559005  73.3322344  86.7713747  51.0032841  73.2564820
  85.9056339  52.1118444  73.8163642  87.8656331  55.8839128  64.5700627
  87.4275761  55.1674987  64.1106264  88.6066772  56.1115243  64.0085718
  84.6557497  50.5736065  71.0912722  83.8425363  50.8730235  71.4977915
  85.1516491  50.1791754  71.8087205  86.8066075  60.5693822  73.0246987
  86.7642254  60.7954668  72.0955519  87.7228774  60.3357196  73.1732788
  95.9829446  54.1596325  70.6276945  95.8447345  54.3497921  69.6998135
  95.6265665  54.9215708  71.0844996  84.1471572  48.1454420  76.7073957
  84.7870951  48.0043179  76.0096921  83.3149103  47.8588934  76.3312559
  96.0098826  56.2272852  75.6388217  96.4435332  56.1348141  76.4871271
  96.7230406  56.2030353  75.0008233  84.9231876  57.4456851  72.8208950
  85.7172474  56.9507171  72.6191525  84.2123568  56.9174714  72.4576655
  81.2314639  51.5899933  68.8968703  80.3012228  51.5284388  69.1138665
  81.3272111  51.0675885  68.1005344  81.1500188  48.1154745  71.4846944
  81.4107006  49.0300079  71.3756105  81.9717361  47.6479188  71.6343557
  82.6225114  49.5292503  78.6545769  83.2948167  49.3209865  78.0058418
  81.7954900  49.3314589  78.2151001  96.8714375  56.2696553  78.1721102
  97.0650265  57.1742363  78.4180377  96.7714993  55.8103972  79.0059687
  88.5250686  46.1554443  80.6711430  87.8778601  46.8544393  80.5775906
  89.2951701  46.5890587  81.0387678  91.9329484  56.4203296  83.7461983
  91.7814990  56.1913847  82.8292067  91.9234163  57.3773897  83.7593328
  88.7014820  53.9935208  78.7308249  89.6306880  54.1446368  78.5577217
  88.2805850  54.0819229  77.8756896  87.5003152  58.0185873  76.5006787
  87.3614238  57.6504657  77.3732725  86.7117748  58.5333512  76.3290745
  88.0951304  63.1194969  67.8432323  88.2703060  62.6483012  68.6577946
  87.4084092  63.7460735  68.0713584  89.0508367  57.3967475  73.8895625
  88.7158200  57.3568245  74.7853275  88.5512313  56.7312191  73.4166035
  83.0252611  52.8035105  79.4148206  82.8872409  52.0715344  80.0159745
  83.9357535  52.7144006  79.1332394  91.9867559  54.7423510  64.1632684
  91.3696729  54.0170338  64.0665737  91.5184047  55.5032870  63.8199759
  85.6534912  52.5155065  78.9031886  86.3634530  51.8748257  78.8618504
  85.6104220  52.7667960  79.8258066  93.6421690  59.4522418  81.8238465
  93.5834237  58.7681638  81.1569048  94.0441209  60.1941408  81.3719091
  84.3663846  49.5020283  80.7227525  83.8301203  49.0511021  81.3749121
  83.7780554  49.6366192  79.9797989  83.7766105  48.9608934  63.2853989
  82.8995571  48.8397735  62.9216235  84.2523858  48.1695012  63.0332877
  93.6439098  57.4162002  80.0552444  92.7565876  57.0787924  80.1778843
  94.2137649  56.6845033  80.2921210  80.1002967  48.6376290  77.8080519
  80.0161156  48.0301960  77.0730929  79.2785673  49.1285309  77.8090016
  87.1740251  62.0763454  77.0213688  87.1010423  62.8818426  77.5332992
  86.7317644  62.2755420  76.1961709  86.9630031  61.3135224  70.5316509
  86.1797553  61.8556905  70.6254734  87.6622776  61.8309204  70.9310750
  90.2726681  47.1229854  73.1750715  90.7695380  46.3699816  72.8551785
  89.5013662  47.1594171  72.6093924  98.1256438  52.8270219  74.8169006
  98.1146314  53.7094935  74.4462939  97.2573818  52.4741770  74.6223543
  89.6338935  61.9750288  79.1771846  90.3466907  62.6097753  79.1047748
  89.1428963  62.0714154  78.3611848  86.8561650  49.2647237  72.9022399
  86.4859437  48.7118277  73.5903305  87.3520742  48.6605370  72.3497399
  84.6850848  59.7244732  79.9977417  85.3860308  60.3581215  80.1506811
  84.2145963  60.0659463  79.2373056  92.8105244  58.0662682  68.2825324
  93.0865088  57.9519276  69.1919198  91.9409743  57.6680167  68.2437497
  92.7145676  44.0899447  75.3230073  91.8008755  44.3203674  75.4912280
  93.1438777  44.1737891  76.1744106  92.4852134  52.2789339  77.8229967
  91.8323584  52.5265247  77.1682420  92.8632514  51.4653478  77.4892445
  89.4459308  62.3149033  71.9258138  89.6281703  61.4970688  72.3885890
  90.2692294  62.5316725  71.4883028  89.7801473  61.2417218  69.1873186
  90.3089240  60.7309672  68.5743348  90.0429693  60.9259748  70.0518719
  88.5339707  53.0209150  84.3096005  87.8580344  52.9203280  84.9798380
  89.3567341  52.8648364  84.7732002  80.2818566  59.2581087  76.9308520
  80.8672003  58.5124775  77.0636424  80.0843405  59.5685044  77.8145184
  83.1357221  62.2932334  71.9470962  82.4667597  62.7778462  71.4635002
  82.9970091  62.5401555  72.8614341  74.8736221  51.8286687  75.6512963
  74.9120320  51.2950278  76.4450081  74.3676514  51.3021893  75.0323940
  87.2762490  64.3276078  78.5453621  87.8280798  64.4907699  79.3102706
  87.6168683  64.9180516  77.8733645  82.2526983  46.6751228  79.1475505
  82.3168310  47.5366059  78.7352903  82.1894103  46.0625229  78.4147864
  81.7279256  48.7474360  82.7948539  82.3551295  48.3651438  83.4086064
  80.8707175  48.5288562  83.1604232  92.1273364  59.1537335  84.4002275
  92.6713268  59.7667294  83.9057230  91.5460209  59.7116914  84.9169288
  78.5044799  50.5550789  68.7266894  78.7998240  49.6461468  68.6733948
  77.6032834  50.5338529  68.4047897  90.4130877  62.2758053  75.5317303
  90.2882017  61.4747793  75.0228248  91.0709968  62.7704247  75.0431273
  82.0339046  48.6306786  74.7094443  81.3125631  49.2442754  74.5701916
  82.8232301  49.1664551  74.6311089  92.4765786  60.0767074  77.1596853
  91.5296121  59.9572425  77.0875180  92.8248559  59.1889572  77.2423114
  84.8365359  45.9661212  80.9835095  85.3599761  46.2123509  81.7461404
  84.6177692  46.7981247  80.5638232  80.2332640  48.2364887  68.8506219
  79.9045346  47.3562266  68.6681325  80.5872011  48.1812556  69.7382609
  89.4812219  59.8719790  73.3601205  89.3337181  58.9436497  73.5408775
  90.3065712  59.8939880  72.8758280  83.3474463  48.5237857  69.2181697
  83.6870536  49.0523778  68.4960306  83.7946584  48.8618263  69.9940264
  86.0417904  46.9074908  78.6684765  85.7014724  46.1082721  79.0705445
  85.3356910  47.2076618  78.0961598  86.6934376  43.9924220  77.1212088
  87.5160445  43.5184698  76.9990979  86.9372439  44.7714704  77.6210775
  85.3342610  47.0212478  67.4174990  86.0550973  47.3993731  66.9138707
  84.7107915  47.7401355  67.5209968  84.2172955  50.6843341  74.9304067
  84.0717535  50.9983644  75.8228348  83.7398158  51.3028241  74.3774965
  86.0769338  47.6745889  74.9784956  86.0630906  46.7786982  74.6417254
  86.7941766  47.6816552  75.6123242  87.9295468  48.1083229  77.0238084
  87.6713246  49.0300299  77.0222414  87.3980509  47.7113663  77.7138548
  92.8741657  61.2134016  69.8028169  93.0478535  60.6480438  69.0502022
  93.3670548  62.0134911  69.6207659  78.6918617  53.2248685  77.8691728
  78.1472085  54.0008493  78.0012002  79.5697967  53.5719489  77.7110849
  85.4806233  46.5560269  70.2472527  85.6022145  45.6276915  70.4463414
  85.1908276  46.5698955  69.3350842  88.3497424  44.2415179  73.3839246
  88.3719121  44.3054512  72.4291226  88.7665483  43.4019688  73.5779753
  98.7281048  53.9770439  71.4218469  99.1712194  53.2277764  71.0237592
  97.8507558  53.9680575  71.0392201  93.8616830  60.5300780  66.9025067
  94.5567734  61.1507473  67.1212382  94.2039980  59.6796132  67.1777445
  79.4784639  52.3518581  80.7621885  78.7366375  52.5001217  81.3486515
  79.1577383  52.6126847  79.8988634  87.4228301  61.8934559  80.5602275
  87.7315428  61.6483706  81.4324974  88.2203783  62.0981198  80.0721145
  87.4448913  64.0472469  72.7907651  87.0053904  63.5548848  73.4840508
  88.1957030  63.5045437  72.5499727  79.9241252  60.2384010  72.7932280
  80.7499272  59.9387782  72.4130923  79.5735304  59.4691632  73.2422068
  84.8922786  59.5910478  74.8629953  84.2702795  58.9281183  74.5632181
  85.5627652  59.6171610  74.1803601  78.1249857  58.1570336  73.7521213
  77.2881766  57.7292511  73.5705214  78.0973503  58.3502780  74.6892004
  84.9647313  48.0692266  84.4562459  85.0135468  48.9454389  84.0740229
  85.5069827  47.5269659  83.8834102  95.4502159  58.6133389  83.7363596
  94.6597702  58.5957528  83.1968096  95.2135513  59.1521683  84.4912633
  95.5700034  55.4625856  81.0496325  95.6198039  55.2975863  81.9911848
  95.4613957  54.5953115  80.6594206  84.4536292  58.1414402  68.3388414
  84.6024413  58.8249866  67.6855086  85.2602736  58.1219492  68.8537869
  92.8603796  51.4456784  82.3655631  93.7613659  51.3063249  82.0739629
  92.9351771  51.6111239  83.3053809  87.1946601  48.8223639  81.2108818
  86.3249911  49.1157205  80.9391406  87.4306082  49.4064084  81.9316081
  97.0718231  57.8822797  81.2938346  96.7803039  58.2452778  82.1301807
  96.4590362  57.1689806  81.1151678  98.2713913  55.4475677  73.8140917
  99.1060804  55.8865481  73.9778477  98.4073042  54.9714330  72.9949162
  95.3205419  53.0055412  79.7618404  95.7959540  53.1983058  78.9537256
  94.3970984  53.0614598  79.5161788  82.2088925  54.1679579  69.3449483
  81.9634967  53.2641909  69.5429693  82.3784840  54.1696730  68.4028961
  89.8985635  45.0403256  78.7274238  90.4167579  45.7764282  78.4020727
  89.5440768  45.3467249  79.5620997  81.4784573  49.9007937  66.8435644
  80.7853818  49.9752292  66.1875680  81.2336325  49.1368280  67.3657161
  90.1498229  41.4603538  74.2475135  90.4299983  40.7926727  74.8735561
  90.9348836  41.6532634  73.7349799  87.9531698  60.6362532  65.8100161
  87.3805665  61.2552719  65.3570633  88.5264492  61.1861894  66.3440083
  94.0207088  49.8821172  77.9946710  94.9724511  49.9819270  78.0158934
  93.8510538  49.0899441  78.5044794  92.0421467  46.9676755  78.1806111
  91.4471399  47.2481768  77.4852599  91.7571164  47.4570656  78.9522852
  91.1728958  60.9199682  66.9408743  92.1059631  60.8545244  67.1441619
  91.0852171  61.7555949  66.4823276  93.8016974  60.2365552  63.9012691
  93.7230606  59.9025416  64.7948449  94.6226641  60.7287320  63.9004163
  96.4995166  53.1027292  77.1089010  96.4671486  52.1643293  77.2948693
  97.1095789  53.1811328  76.3754834  88.3378496  51.9723345  63.1516214
  89.2837601  51.8429553  63.2204632  87.9592741  51.2338007  63.6285642
  96.6489654  49.8938335  77.1547293  96.1328703  49.1096792  76.9677222
  97.5329603  49.5657052  77.3193812  94.3100381  43.6379351  73.1143105
  94.1125202  43.3294439  73.9986437  94.9200087  44.3640990  73.2441035
 102.3171715  54.1643299  76.2495046 103.0475104  53.9028587  76.8102750
 101.7078661  53.4272021  76.2897114 100.3987013  52.3051161  76.8469498
  99.6720176  52.1707126  76.2385989  99.9834299  52.6127990  77.6526216
  88.2217189  56.0241091  84.6116871  89.1420198  56.2019690  84.8056917
  88.1866772  55.0797136  84.4596570  86.5221414  49.8973321  63.0871099
  85.6152869  49.6006434  63.1633812  86.7997395  49.6003139  62.2205385
  77.4399354  51.2179685  73.5370145  77.1202138  50.3644993  73.2444519
  76.8932782  51.4328263  74.2928113  81.2179262  53.9342126  77.2539652
  81.4365271  54.8659233  77.2727686  81.6305035  53.5750100  78.0394456
  88.1383479  44.4410211  69.2415340  87.3284208  44.0957296  69.6170586
  88.8267896  44.1317755  69.8302952  90.0674028  43.5188258  70.8639637
  90.6205066  43.9383711  71.5229660  90.3044114  42.5924006  70.9062593
  86.0907127  49.5075331  86.6442401  85.9903854  50.4569688  86.5754492
  85.8728669  49.1793570  85.7718471  85.2920198  46.7560256  63.2283078
  86.1539362  47.0815155  63.4878895  85.4770542  45.9691752  62.7156144
  77.3087614  54.8382596  75.5063267  76.6151085  54.4236549  74.9933221
  78.0560605  54.8803133  74.9096686  93.4452835  45.6288783  70.3718301
  92.8651504  46.2873587  69.9896353  93.1788767  44.8066127  69.9605718
  91.8956401  45.0293841  72.5739621  92.3956179  45.1410375  71.7653940
  92.5392009  44.7254893  73.2140430  85.9538397  52.9372470  85.4607462
  85.4705479  53.7372830  85.6671351  86.0399336  52.9480415  84.5074906
  79.2224357  54.7700850  73.3829282  79.1995045  54.8688537  72.4311165
  79.5324993  55.6166001  73.7046448  81.8811734  56.8277005  77.4975896
  82.8354988  56.7960947  77.4305828  81.6824258  56.3667629  78.3126122
  82.4711117  55.3978121  80.0646694  83.2904006  55.8922200  80.0881531
  82.7447924  54.4810089  80.0364261  98.0164807  48.5263013  74.2002929
  98.6109298  48.2858749  73.4896237  98.0891391  47.8070144  74.8276465
  80.2361963  62.3696624  74.5146094  80.1016431  61.6097025  73.9484092
  79.8194025  63.0937524  74.0474883  91.3720926  57.5533548  63.5222669
  92.0756776  57.7583550  64.1380325  90.6483575  58.1210310  63.7871753
  92.2018736  53.3043409  69.6424939  92.1453938  53.7611961  68.8032572
  92.7547079  52.5434094  69.4647782  96.0123542  49.0933141  70.4675059
  95.7560477  48.6929777  71.2983267  95.3876410  49.8076935  70.3425198
 100.3235880  51.8329214  72.9746350  99.7635438  51.9022404  73.7477912
  99.7179384  51.6570199  72.2545847  83.3931089  63.2665941  74.7264537
  83.2763473  64.2111374  74.6243227  82.5723535  62.9639503  75.1150336
  93.2807624  57.9916077  65.5721129  94.1153228  57.5597276  65.3898604
  93.1191967  57.8198091  66.4998024  77.7246031  49.7316255  80.7638891
  78.3704894  49.2215209  81.2526116  77.5163182  50.4684936  81.3382316
  90.2499423  56.7997102  86.2631031  91.1190583  56.9737755  85.9017666
  89.7706174  57.6191519  86.1406761  86.2449641  43.9956299  66.5162787
  86.2328311  44.9398139  66.6731058  87.1373063  43.8126445  66.2222248
  84.4185603  63.9194203  77.9420465  85.3212850  63.9517814  78.2586960
  84.1922973  62.9894654  77.9566801  86.1739205  62.6725190  74.6030544
  85.2234836  62.6727051  74.4894916  86.4771691  61.9257924  74.0866578
  90.0601761  40.5899076  70.7708724  89.2934157  40.0357563  70.9165406
  90.4712466  40.6620945  71.6322875  82.0643522  46.8783872  84.8613905
  82.9274983  46.5220677  85.0717230  81.4908932  46.5397767  85.5489309
 101.9091899  68.5085728  75.6676306 102.5470309  68.3892476  74.9639646
 101.7912742  69.4566572  75.7264258  98.7181605  68.4613156  75.6037831
  98.3800117  68.3454221  74.7158366  99.5871373  68.0604321  75.5838837
  99.2001388  69.6148008  81.5624036  99.1890029  69.2200806  80.6904540
  99.3622027  68.8814081  82.1557808  92.1232853  71.8099824  74.4318942
  92.9154145  71.4690649  74.0165241  92.3629503  71.9194799  75.3521095
 100.1567979  73.9819600  66.9049187  99.5055959  74.5673681  66.5183200
 100.9512342  74.5125795  66.9644224  94.0823607  71.0708738  67.3036321
  94.8554483  70.5237725  67.1649197  94.4349005  71.9352987  67.5150782
  95.9208649  72.3985120  80.5103220  95.6298515  73.3030751  80.3949887
  96.5565633  72.4401647  81.2247290  96.8464856  69.7761968  77.1004580
  97.4428428  69.5517991  76.3861543  96.9039827  69.0346714  77.7030028
  96.4189884  67.2301404  64.9354771  96.6715405  66.7082925  64.1738234
  95.4814443  67.0667549  65.0381454 101.4633167  66.2337182  72.7429514
 102.2496256  65.8156605  72.3919931 101.7271872  67.1383274  72.9111162
 101.6343245  71.6710032  67.4418171 100.9989078  71.7444659  68.1539076
 101.3040651  72.2603631  66.7637250 106.8641594  66.1712415  73.6462493
 107.5966766  65.6011632  73.8800322 106.1080950  65.7834016  74.0868998
  98.4817714  68.5939657  70.8425835  98.1175921  68.0670278  71.5538757
  99.3384830  68.2038126  70.6692320 104.3867015  59.8833989  78.1057101
 104.0550339  60.7529400  77.8818316 103.7912628  59.5670273  78.7851132
 100.8798534  72.0846535  77.5053014 100.5799257  72.9871574  77.3968821
 100.5349594  71.8178719  78.3574167  94.3311016  68.5360332  73.5389718
  93.4061512  68.4036546  73.7467410  94.5795429  69.3154551  74.0359661
 104.2795678  64.6029076  75.1850451 103.3712555  64.5344484  74.8909212
 104.2283274  65.0801020  76.0132277  98.1012422  66.0787214  66.8233850
  97.9812047  66.5244265  67.6619331  97.4065010  66.4272532  66.2647389
  91.6919827  68.1793606  74.3733507  91.8212208  68.4328085  75.2872919
  91.0117278  68.7721314  74.0538162  95.8619314  78.8490856  70.4723982
  95.7843344  79.7998681  70.5512462  95.2580958  78.5036728  71.1298908
  98.3536544  66.0218721  83.1285349  97.5769878  66.5812641  83.1188213
  98.9927107  66.5075504  83.6500219 106.1457324  62.8045514  76.9628325
 105.5031705  63.0978047  76.3168120 105.6412253  62.6898434  77.7681522
 103.7997488  66.5508687  67.6514184 104.7115344  66.7836074  67.4761882
 103.2907135  67.1345731  67.0889263  96.6082916  68.8304174  82.6903316
  97.3497600  69.3689218  82.4138139  95.9019902  69.4570463  82.8474867
 102.0838256  70.9733315  81.2875477 102.4921612  70.5315725  80.5430109
 101.3615517  70.3985942  81.5409670  98.4369326  65.9105922  78.6609034
  99.2830521  66.3345335  78.8043683  98.3767963  65.2539546  79.3547597
 102.4067070  71.5334506  75.0427766 101.7775933  71.6980220  74.3403834
 102.0192732  71.9476115  75.8138730 106.2856302  72.4688943  72.3972130
 105.6007340  72.8487845  71.8469163 106.3700152  73.0784270  73.1304077
 101.5868771  63.5710290  80.3190208 101.3429703  64.3252351  79.7824483
 101.8628702  63.9495638  81.1537455 103.5407234  70.1148902  78.9967473
 103.7524129  70.7580662  78.3201854 103.4936982  69.2811219  78.5289403
 101.1433463  62.7266723  75.9004045 100.2817942  63.0247977  76.1920783
 101.1695897  62.9437122  74.9685078  97.9595032  71.2708914  72.3077851
  98.4233378  71.5496617  71.5182473  97.6951830  70.3692358  72.1250942
  95.3444280  65.9843823  83.4918626  94.7142940  66.6660103  83.7254022
  95.2380368  65.8726904  82.5471764  90.6389252  65.6515619  74.4184550
  89.8488306  65.9073147  73.9424660  91.1300500  66.4663957  74.5236590
 104.6553062  72.9920858  77.1689831 105.4770506  72.5901045  76.8872512
 104.6515465  72.8889092  78.1205946  92.5903998  66.0160198  71.3768026
  91.7935161  66.1278892  71.8951522  92.3629590  66.3546850  70.5108917
  98.4209665  72.5404901  79.3250541  98.4854098  73.0025308  80.1608713
  97.7120589  71.9102266  79.4532851  88.9226955  65.9046109  76.8499540
  89.1734994  66.7893119  77.1157116  89.4586504  65.7250711  76.0774632
 112.7459055  69.3359606  73.5174802 111.9922763  68.7667004  73.3618806
 112.8806596  69.3022271  74.4645437  98.1357683  74.2073009  69.1929521
  98.0003358  75.0524544  69.6214369  98.6767495  74.4092286  68.4295455
  94.6225023  60.2864588  85.8543877  94.2291968  59.7330787  86.5291521
  95.4391163  60.5975167  86.2450394  91.5887080  71.7248447  69.7657446
  92.1011601  72.5191697  69.9163011  92.2409793  71.0274737  69.6991048
  93.3981965  74.8414203  71.8480200  93.5748593  75.7632168  71.6601184
  94.1938799  74.5272622  72.2774579  97.5392984  61.7022468  83.4464133
  98.2802697  62.3029621  83.3668596  97.7710906  60.9600105  82.8882176
  99.7626159  74.8296575  83.3229863  99.3190013  74.0432954  83.0050768
 100.4243373  75.0175726  82.6573754 101.8607397  75.1099375  81.3511265
 101.8425873  75.9308256  80.8591534 102.7827317  74.9853450  81.5761406
  98.3180452  72.6243505  82.1934773  98.8508788  71.8631793  81.9634081
  97.7894533  72.3317156  82.9358928 101.4850146  57.7303571  77.7228415
 101.1414416  58.6205212  77.6467525 101.8529109  57.5405228  76.8598000
  89.5535997  70.0537101  70.5417017  90.3911219  70.4634109  70.3250725
  89.7314265  69.1136543  70.5117211 101.4500429  67.7212182  66.2300850
 100.9347053  68.4916786  66.4689237 101.1777738  67.0477318  66.8533911
  99.0347540  62.5661882  71.2886088  98.1789137  62.1768733  71.1091727
  99.4474492  62.6453843  70.4285874 100.5646687  60.1008226  75.6877648
 100.0611482  60.0638361  74.8745453 100.8577294  61.0100968  75.7474305
  96.8089573  60.1846955  74.6943830  97.6742570  59.9889764  74.3349719
  96.8767082  59.9557307  75.6213187 106.4234703  70.4744536  68.1654023
 105.6464146  70.1355696  67.7209185 107.1026184  70.4797159  67.4908988
 101.2386732  65.5939274  68.0560631 100.9336868  65.9085423  68.9070774
 102.1917174  65.6720694  68.0987964  99.6833164  71.7529497  69.7053585
  99.1554526  71.0182257  69.3926823  99.1820667  72.5304173  69.4593553
 104.6626010  69.9478518  74.8220631 104.0049685  70.6377779  74.9100760
 105.4666409  70.3374949  75.1654618 103.4731469  68.3022890  72.8724573
 103.9863351  68.9352882  73.3746283 104.1232693  67.7024086  72.5067933
  96.7174560  59.2890412  70.7935266  96.0638972  58.9739429  70.1691881
  96.6755034  58.6666153  71.5195089  97.8285764  69.5709707  62.7088558
  96.9212826  69.3398961  62.9079707  98.3256796  68.7747327  62.8962540
 100.7353843  78.2807214  65.6285244 100.0615542  78.5838911  66.2370202
 101.1219665  79.0836295  65.2790701  99.9512300  65.7772346  75.1182914
  99.0334861  65.9987293  74.9604602 100.3672444  65.8518656  74.2594621
 100.7347348  67.1763761  70.2485594 101.4819167  67.6885159  69.9392716
 101.0038937  66.8547814  71.1089987  99.0073998  69.6722302  67.2312548
  98.0985217  69.3881335  67.3285018  99.0369082  70.0921381  66.3715855
 104.2393265  73.2828892  71.0003716 103.7855592  72.4419802  71.0568906
 103.6087232  73.9190290  71.3378496 103.1826185  64.2120878  72.2304383
 102.4448942  63.6998264  72.5614626 103.4352958  63.7721259  71.4187660
 102.6826204  75.1205388  71.9353534 102.9749179  75.6810445  71.2165900
 103.1924825  75.4133949  72.6906693 103.2837812  56.9897130  72.8246152
 103.5896689  56.1294493  72.5372068 104.0090417  57.5814750  72.6245146
  89.5762168  67.3927816  71.2127750  89.3786568  66.7997177  70.4878817
  89.0208832  67.0880026  71.9303689  98.7050086  71.2131046  64.5700627
  98.2669516  70.4966905  64.1106264  99.4460527  71.4407161  64.0085718
  95.4951252  65.9027983  71.0912722  94.6819117  66.2022153  71.4977915
  95.9910246  65.5083671  71.8087205  97.6459830  75.8985739  73.0246987
  97.6036008  76.1246586  72.0955519  98.5622529  75.6649114  73.1732788
 101.0925463  66.3669807  79.9227616 101.4474851  66.5941280  80.7822082
 101.7397595  66.6988184  79.3004872 106.8223200  69.4888243  70.6276945
 106.6841099  69.6789839  69.6998135 106.4659419  70.2507626  71.0844996
 106.8492580  71.5564770  75.6388217 107.2829087  71.4640059  76.4871271
 107.5624161  71.5322270  75.0008233  95.7625630  72.7748768  72.8208950
  96.5566229  72.2799089  72.6191525  95.0517323  72.2466632  72.4576655
 100.5820475  75.1566864  77.1721317 100.6357497  75.7257800  77.9399033
  99.7135256  75.3268749  76.8075355  92.0708394  66.9191850  68.8968703
  91.1405982  66.8576306  69.1138665  92.1665866  66.3967803  68.1005344
  91.9893943  63.4446663  71.4846944  92.2500760  64.3591996  71.3756105
  92.8111115  62.9771106  71.6343557  93.4618868  64.8584420  78.6545769
  94.1341922  64.6501782  78.0058418  92.6348655  64.6606506  78.2151001
 107.7108130  71.5988471  78.1721102 107.9044020  72.5034281  78.4180377
 107.6108748  71.1395890  79.0059687  99.3644440  61.4846361  80.6711430
  98.7172355  62.1836311  80.5775906 100.1345456  61.9182505  81.0387678
 102.7723238  71.7495213  83.7461983 102.6208745  71.5205765  82.8292067
 102.7627918  72.7065815  83.7593328  99.5408575  69.3227126  78.7308249
 100.4700635  69.4738286  78.5577217  99.1199605  69.4111147  77.8756896
  98.3396906  73.3477790  76.5006787  98.2007992  72.9796575  77.3732725
  97.5511503  73.8625430  76.3290745  98.9345058  78.4486887  67.8432323
  99.1096814  77.9774930  68.6577946  98.2477846  79.0752653  68.0713584
  99.8902122  72.7259393  73.8895625  99.5551954  72.6860163  74.7853275
  99.3906067  72.0604109  73.4166035  93.8646366  68.1327023  79.4148206
  93.7266164  67.4007262  80.0159745  94.7751289  68.0435923  79.1332394
 102.8261313  70.0715427  64.1632684 102.2090484  69.3462256  64.0665737
 102.3577802  70.8324788  63.8199759 104.4815445  74.7814336  81.8238465
 104.4227991  74.0973556  81.1569048 104.8834963  75.5233326  81.3719091
  95.2057600  64.8312200  80.7227525  94.6694957  64.3802939  81.3749121
  94.6174309  64.9658109  79.9797989  93.5006144  81.5976250  74.6172184
  93.7402742  82.2294774  75.2951202  92.6575340  81.2464290  74.9037543
  94.6159859  64.2900852  63.2853989  93.7389325  64.1689653  62.9216235
  95.0917612  63.4986930  63.0332877 104.4832852  72.7453920  80.0552444
 103.5959631  72.4079842  80.1778843 105.0531403  72.0136951  80.2921210
  86.1361999  69.0778012  73.3795496  86.8233039  68.7639742  72.7916511
  85.9810128  69.9819376  73.1062747  98.0134006  77.4055372  77.0213688
  97.9404177  78.2110344  77.5332992  97.5711399  77.6047338  76.1961709
  97.8023785  76.6427142  70.5316509  97.0191307  77.1848822  70.6254734
  98.5016530  77.1601122  70.9310750 101.1120435  62.4521772  73.1750715
 101.6089135  61.6991734  72.8551785 100.3407417  62.4886088  72.6093924
 108.9650193  68.1562137  74.8169006 108.9540069  69.0386853  74.4462939
 108.0967572  67.8033688  74.6223543 100.4732689  77.3042206  79.1771846
 101.1860661  77.9389671  79.1047748  99.9822718  77.4006072  78.3611848
 102.1950216  71.2093459  70.7489138 101.2606495  71.3294921  70.5793842
 102.3726884  70.3065926  70.4849148 105.5822767  67.0510778  71.2839172
 106.0483220  67.8838770  71.2099475 106.0330268  66.5855760  71.9884431
  95.5244603  75.0536650  79.9977417  96.2254062  75.6873133  80.1506811
  95.0539718  75.3951381  79.2373056 103.6498998  73.3954599  68.2825324
 103.9258842  73.2811194  69.1919198 102.7803497  72.9972084  68.2437497
 103.5539430  59.4191365  75.3230073 102.6402510  59.6495592  75.4912280
 103.9832532  59.5029809  76.1744106 103.3245889  67.6081257  77.8229967
 102.6717339  67.8557165  77.1682420 103.7026268  66.7945395  77.4892445
 100.2853062  77.6440950  71.9258138 100.4675457  76.8262606  72.3885890
 101.1086048  77.8608642  71.4883028 100.6195228  76.5709135  69.1873186
 101.1482994  76.0601590  68.5743348 100.8823448  76.2551666  70.0518719
  99.3733462  68.3501068  84.3096005  98.6974099  68.2495197  84.9798380
 100.1961096  68.1940282  84.7732002  91.1212321  74.5873005  76.9308520
  91.7065758  73.8416693  77.0636424  90.9237159  74.8976961  77.8145184
  93.9750976  77.6224252  71.9470962  93.3061351  78.1070380  71.4635002
  93.8363846  77.8693472  72.8614341  85.7129975  67.1578605  75.6512963
  85.7514075  66.6242196  76.4450081  85.2070268  66.6313810  75.0323940
  98.1156245  79.6567996  78.5453621  98.6674553  79.8199617  79.3102706
  98.4562438  80.2472433  77.8733645  93.0920738  62.0043145  79.1475505
  93.1562064  62.8657976  78.7352903  93.0287858  61.3917147  78.4147864
  92.5673010  64.0766278  82.7948539  93.1945049  63.6943355  83.4086064
  91.7100929  63.8580480  83.1604232 102.9667119  74.4829253  84.4002275
 103.5107023  75.0959211  83.9057230 102.3853964  75.0408831  84.9169288
  89.3438553  65.8842707  68.7266894  89.6391994  64.9753385  68.6733948
  88.4426589  65.8630446  68.4047897 101.2524632  77.6049971  75.5317303
 101.1275771  76.8039711  75.0228248 101.9103723  78.0996164  75.0431273
  92.8732800  63.9598704  74.7094443  92.1519386  64.5734671  74.5701916
  93.6626056  64.4956468  74.6311089 103.3159540  75.4058991  77.1596853
 102.3689876  75.2864342  77.0875180 103.6642313  74.5181489  77.2423114
  95.6759114  61.2953130  80.9835095  96.1993515  61.5415427  81.7461404
  95.4571447  62.1273165  80.5638232  91.0726395  63.5656805  68.8506219
  90.7439101  62.6854184  68.6681325  91.4265765  63.5104473  69.7382609
 100.3205973  75.2011707  73.3601205 100.1730936  74.2728415  73.5408775
 101.1459467  75.2231798  72.8758280  94.1868218  63.8529774  69.2181697
  94.5264290  64.3815696  68.4960306  94.6340338  64.1910181  69.9940264
 103.9240095  76.0240266  74.4466078 104.8486643  75.8183127  74.3090529
 103.7555399  75.7756667  75.3555419  96.8811659  62.2366825  78.6684765
  96.5408479  61.4374638  79.0705445  96.1750665  62.5368536  78.0961598
  97.5328130  59.3216138  77.1212088  98.3554200  58.8476616  76.9990979
  97.7766194  60.1006621  77.6210775  96.1736365  62.3504396  67.4174990
  96.8944727  62.7285649  66.9138707  95.5501669  63.0693273  67.5209968
 100.3167488  63.0549545  68.3533322 100.5331102  63.9374183  68.0522150
  99.8361555  62.6635758  67.6238964  95.0566709  66.0135258  74.9304067
  94.9111290  66.3275561  75.8228348  94.5791913  66.6320159  74.3774965
  96.9163092  63.0037806  74.9784956  96.9024661  62.1078900  74.6417254
  97.6335520  63.0108470  75.6123242  98.7689223  63.4375146  77.0238084
  98.5107001  64.3592217  77.0222414  98.2374263  63.0405581  77.7138548
 103.7135412  76.5425934  69.8028169 103.8872289  75.9772356  69.0502022
 104.2064303  77.3426828  69.6207659  89.5312371  68.5540603  77.8691728
  88.9865839  69.3300411  78.0012002  90.4091721  68.9011407  77.7110849
  99.1891178  59.5707097  73.3839246  99.2112875  59.6346430  72.4291226
  99.6059237  58.7311606  73.5779753 109.5674803  69.3062357  71.4218469
 110.0105949  68.5569682  71.0237592 108.6901313  69.2972493  71.0392201
 104.7010584  75.8592698  66.9025067 105.3961489  76.4799391  67.1212382
 105.0433734  75.0088049  67.1777445  90.3178393  67.6810499  80.7621885
  89.5760129  67.8293134  81.3486515  89.9971137  67.9418765  79.8988634
 106.6002007  73.3092404  68.4312398 107.1253331  73.6479676  67.7061718
 106.5124360  72.3739419  68.2475533  98.2622056  77.2226477  80.5602275
  98.5709182  76.9775624  81.4324974  99.0597538  77.4273116  80.0721145
  98.2842668  79.3764387  72.7907651  97.8447658  78.8840765  73.4840508
  99.0350785  78.8337354  72.5499727  90.7635007  75.5675928  72.7932280
  91.5893027  75.2679700  72.4130923  90.4129059  74.7983550  73.2422068
  95.7316540  74.9202396  74.8629953  95.1096549  74.2573101  74.5632181
  96.4021407  74.9463528  74.1803601  88.9643612  73.4862254  73.7521213
  88.1275520  73.0584428  73.5705214  88.9367257  73.6794697  74.6892004
  95.8041068  63.3984184  84.4562459  95.8529223  64.2746307  84.0740229
  96.3463582  62.8561577  83.8834102 106.2895913  73.9425307  83.7363596
 105.4991457  73.9249446  83.1968096 106.0529268  74.4813601  84.4912633
 106.4093788  70.7917774  81.0496325 106.4591793  70.6267781  81.9911848
 106.3007712  69.9245033  80.6594206 103.6997551  66.7748702  82.3655631
 104.6007413  66.6355166  82.0739629 103.7745525  66.9403156  83.3053809
  98.0340356  64.1515556  81.2108818  97.1643665  64.4449122  80.9391406
  98.2699836  64.7356001  81.9316081 107.9111985  73.2114715  81.2938346
 107.6196793  73.5744696  82.1301807 107.2984116  72.4981723  81.1151678
 109.1107667  70.7767595  73.8140917 109.9454559  71.2157399  73.9778477
 109.2466796  70.3006248  72.9949162 106.1599173  68.3347330  79.7618404
 106.6353295  68.5274976  78.9537256 105.2364739  68.3906515  79.5161788
  93.0482680  69.4971497  69.3449483  92.8028722  68.5933827  69.5429693
  93.2178594  69.4988647  68.4028961 100.7379390  60.3695173  78.7274238
 101.2561334  61.1056200  78.4020727 100.3834523  60.6759167  79.5620997
  92.3178327  65.2299854  66.8435644  91.6247572  65.3044209  66.1875680
  92.0730079  64.4660198  67.3657161 100.9891984  56.7895456  74.2475135
 101.2693738  56.1218645  74.8735561 101.7742591  56.9824551  73.7349799
  98.7925452  75.9654450  65.8100161  98.2199420  76.5844637  65.3570633
  99.3658246  76.5153811  66.3440083 104.8600842  65.2113090  77.9946710
 105.8118265  65.3111187  78.0158934 104.6904293  64.4191358  78.5044794
 102.8815222  62.2968673  78.1806111 102.2865154  62.5773686  77.4852599
 102.5964918  62.7862574  78.9522852 102.0122712  76.2491600  66.9408743
 102.9453385  76.1837161  67.1441619 101.9245925  77.0847867  66.4823276
 104.6410729  75.5657470  63.9012691 104.5624360  75.2317334  64.7948449
 105.4620396  76.0579238  63.9004163 107.3388920  68.4319209  77.1089010
 107.3065240  67.4935210  77.2948693 107.9489544  68.5103246  76.3754834
 107.4883409  65.2230253  77.1547293 106.9722457  64.4388710  76.9677222
 108.3723357  64.8948969  77.3193812 105.1494135  58.9671268  73.1143105
 104.9518957  58.6586357  73.9986437 105.7593841  59.6932907  73.2441035
 113.1565470  69.4935216  76.2495046 113.8868858  69.2320504  76.8102750
 112.5472415  68.7563938  76.2897114 111.2380767  67.6343079  76.8469498
 110.5113931  67.4999044  76.2385989 110.8228054  67.9419907  77.6526216
  99.0610943  71.3533009  84.6116871  99.9813953  71.5311608  84.8056917
  99.0260527  70.4089054  84.4596570  88.2793108  66.5471602  73.5370145
  87.9595893  65.6936910  73.2444519  87.7326537  66.7620180  74.2928113
  92.0573016  69.2634043  77.2539652  92.2759026  70.1951151  77.2727686
  92.4698790  68.9042018  78.0394456  98.9777234  59.7702129  69.2415340
  98.1677962  59.4249213  69.6170586  99.6661651  59.4609672  69.8302952
 100.9067782  58.8480175  70.8639637 101.4598821  59.2675629  71.5229660
 101.1437868  57.9215923  70.9062593  96.9300881  64.8367249  86.6442401
  96.8297608  65.7861606  86.5754492  96.7122423  64.5085488  85.7718471
  88.1481368  70.1674514  75.5063267  87.4544840  69.7528467  74.9933221
  88.8954359  70.2095050  74.9096686 104.2846589  60.9580700  70.3718301
 103.7045258  61.6165505  69.9896353 104.0182522  60.1358045  69.9605718
 102.7350156  60.3585758  72.5739621 103.2349934  60.4702293  71.7653940
 103.3785763  60.0546811  73.2140430  96.7932151  68.2664388  85.4607462
  96.3099233  69.0664748  85.6671351  96.8793090  68.2772333  84.5074906
  90.0618111  70.0992767  73.3829282  90.0388799  70.1980455  72.4311165
  90.3718748  70.9457918  73.7046448  92.7205489  72.1568923  77.4975896
  93.6748742  72.1252865  77.4305828  92.5218012  71.6959546  78.3126122
  93.3104871  70.7270039  80.0646694  94.1297760  71.2214117  80.0881531
  93.5841679  69.8102007  80.0364261 103.0671467  63.1180791  69.4274649
 102.1797322  63.4030441  69.2094844 103.4825456  62.9574554  68.5801926
 106.4186003  63.1427312  73.1428988 107.1946393  63.6323764  73.4153605
 105.6934138  63.5685366  73.6000858 108.8558562  63.8554931  74.2002929
 109.4503053  63.6150667  73.4896237 108.9285146  63.1362062  74.8276465
  91.0755718  77.6988542  74.5146094  90.9410186  76.9388943  73.9484092
  90.6587780  78.4229442  74.0474883 102.2114681  72.8825466  63.5222669
 102.9150531  73.0875468  64.1380325 101.4877329  73.4502227  63.7871753
 103.0412491  68.6335327  69.6424939 102.9847692  69.0903878  68.8032572
 103.5940833  67.8726011  69.4647782 106.8517297  64.4225059  70.4675059
 106.5954231  64.0221694  71.2983267 106.2270165  65.1368853  70.3425198
 111.1629635  67.1621132  72.9746350 110.6029193  67.2314321  73.7477912
 110.5573138  66.9862117  72.2545847  94.2324844  78.5957859  74.7264537
  94.1157228  79.5403292  74.6243227  93.4117290  78.2931421  75.1150336
 104.1201378  73.3207995  65.5721129 104.9546982  72.8889193  65.3898604
 103.9585721  73.1490008  66.4998024 103.7747270  69.8240108  66.9377469
 103.7196074  69.6584379  65.9965913 103.1493326  70.5316141  67.0939658
  88.5639785  65.0608172  80.7638891  89.2098649  64.5507126  81.2526116
  88.3556936  65.7976854  81.3382316 101.0893177  72.1289020  86.2631031
 101.9584337  72.3029672  85.9017666 100.6099929  72.9483437  86.1406761
  95.2579358  79.2486121  77.9420465  96.1606604  79.2809731  78.2586960
  95.0316728  78.3186572  77.9566801  97.0132960  78.0017107  74.6030544
  96.0628591  78.0018969  74.4894916  97.3165446  77.2549842  74.0866578
 100.8995515  55.9190994  70.7708724 100.1327911  55.3649480  70.9165406
 101.3106220  55.9912862  71.6322875 112.7485653  83.8377646  75.6676306
 113.3864063  83.7184393  74.9639646 112.6306496  84.7858490  75.7264258
 109.5575359  83.7905074  75.6037831 109.2193871  83.6746139  74.7158366
 110.4265128  83.3896239  75.5838837 105.4162175  85.6440550  71.5934722
 104.8527040  85.5530487  70.8251009 105.3014570  84.8240455  72.0737214
 110.0395142  84.9439926  81.5624036 110.0283783  84.5492724  80.6904540
 110.2015782  84.2105998  82.1557808 102.9626607  87.1391742  74.4318942
 103.7547899  86.7982567  74.0165241 103.2023257  87.2486717  75.3521095
 110.9961734  89.3111518  66.9049187 110.3449714  89.8965598  66.5183200
 111.7906097  89.8417713  66.9644224 104.9217361  86.4000655  67.3036321
 105.6948237  85.8529642  67.1649197 105.2742760  87.2644905  67.5150782
 106.7602404  87.7277037  80.5103220 106.4692270  88.6322668  80.3949887
 107.3959388  87.7693565  81.2247290 107.6858610  85.1053886  77.1004580
 108.2822183  84.8809908  76.3861543 107.7433582  84.3638631  77.7030028
 107.2583639  82.5593321  64.9354771 107.5109160  82.0374843  64.1738234
 106.3208198  82.3959467  65.0381454 112.3026922  81.5629100  72.7429514
 113.0890011  81.1448523  72.3919931 112.5665626  82.4675192  72.9111162
 112.4736999  87.0001950  67.4418171 111.8382832  87.0736577  68.1539076
 112.1434405  87.5895549  66.7637250 117.7035349  81.5004333  73.6462493
 118.4360521  80.9303550  73.8800322 116.9474705  81.1125933  74.0868998
 106.9779928  84.4621427  67.1379146 106.8616186  83.7866331  67.8060230
 107.0882187  83.9753801  66.3211299 109.3211469  83.9231574  70.8425835
 108.9569676  83.3962195  71.5538757 110.1778584  83.5330043  70.6692320
 115.2260769  75.2125907  78.1057101 114.8944094  76.0821318  77.8818316
 114.6306383  74.8962191  78.7851132 108.9616956  78.9521474  65.8387184
 109.1291358  79.8201711  66.2057655 108.7714125  79.1148756  64.9148473
 111.7192289  87.4138453  77.5053014 111.4193012  88.3163492  77.3968821
 111.3743348  87.1470636  78.3574167 105.1704770  83.8652250  73.5389718
 104.2455267  83.7328464  73.7467410 105.4189183  84.6446469  74.0359661
 115.1189432  79.9320993  75.1850451 114.2106310  79.8636402  74.8909212
 115.0677028  80.4092938  76.0132277 108.9406176  81.4079132  66.8233850
 108.8205802  81.8536182  67.6619331 108.2458765  81.7564449  66.2647389
 102.5313581  83.5085523  74.3733507 102.6605962  83.7620002  75.2872919
 101.8511033  84.1013231  74.0538162 106.7013068  94.1782773  70.4723982
 106.6237098  95.1290598  70.5512462 106.0974712  93.8328646  71.1298908
 109.1930298  81.3510639  83.1285349 108.4163632  81.9104559  83.1188213
 109.8320861  81.8367422  83.6500219 116.9851079  78.1337432  76.9628325
 116.3425459  78.4269965  76.3168120 116.4806007  78.0190352  77.7681522
 114.6391243  81.8800605  67.6514184 115.5509099  82.1127992  67.4761882
 114.1300890  82.4637649  67.0889263 107.4476671  84.1596092  82.6903316
 108.1891355  84.6981136  82.4138139 106.7413656  84.7862381  82.8474867
 112.9232010  86.3025233  81.2875477 113.3315366  85.8607643  80.5430109
 112.2009272  85.7277860  81.5409670 109.2763080  81.2397839  78.6609034
 110.1224275  81.6637253  78.8043683 109.2161718  80.5831464  79.3547597
 113.2460825  86.8626423  75.0427766 112.6169687  87.0272137  74.3403834
 112.8586487  87.2768033  75.8138730 117.1250057  87.7980861  72.3972130
 116.4401095  88.1779762  71.8469163 117.2093906  88.4076188  73.1304077
 112.4262526  78.9002208  80.3190208 112.1823457  79.6544268  79.7824483
 112.7022456  79.2787555  81.1537455 114.3800988  85.4440820  78.9967473
 114.5917884  86.0872580  78.3201854 114.3330737  84.6103137  78.5289403
 111.9827217  78.0558641  75.9004045 111.1211696  78.3539894  76.1920783
 112.0089652  78.2729040  74.9685078 108.7988787  86.6000831  72.3077851
 109.2627132  86.8788534  71.5182473 108.5345585  85.6984276  72.1250942
 105.6912868  86.1472313  75.2457614 106.2614225  86.5759581  74.6075099
 106.2820980  85.8654898  75.9441800 107.7357673  82.7223984  69.1167416
 108.4381716  83.1745027  69.5841342 107.4038301  82.0807803  69.7447309
 106.1838034  81.3135740  83.4918626 105.5536695  81.9952021  83.7254022
 106.0774122  81.2018822  82.5471764 101.4783007  80.9807536  74.4184550
 100.6882061  81.2365065  73.9424660 101.9694254  81.7955874  74.5236590
 115.4946816  88.3212776  77.1689831 116.3164260  87.9192963  76.8872512
 115.4909219  88.2181010  78.1205946 103.4297752  81.3452116  71.3768026
 102.6328915  81.4570810  71.8951522 103.2023344  81.6838768  70.5108917
 109.2603420  87.8696819  79.3250541 109.3247852  88.3317226  80.1608713
 108.5514344  87.2394184  79.4532851  99.7620710  81.2338027  76.8499540
 100.0128748  82.1185037  77.1157116 100.2980258  81.0542628  76.0774632
 108.9751437  89.5364926  69.1929521 108.8397112  90.3816462  69.6214369
 109.5161250  89.7384204  68.4295455 105.4618777  75.6156506  85.8543877
 105.0685723  75.0622705  86.5291521 106.2784917  75.9267085  86.2450394
 102.4280835  87.0540364  69.7657446 102.9405355  87.8483615  69.9163011
 103.0803548  86.3566655  69.6991048 104.2375719  90.1706121  71.8480200
 104.4142348  91.0924085  71.6601184 105.0332553  89.8564540  72.2774579
 108.3786738  77.0314385  83.4464133 109.1196451  77.6321538  83.3668596
 108.6104661  76.2892023  82.8882176 103.5228076  82.2170753  81.7242363
 103.4081591  81.3156010  82.0249462 102.6672594  82.4634449  81.3727179
 110.6019914  90.1588493  83.3229863 110.1583768  89.3724871  83.0050768
 111.2637127  90.3467643  82.6573754 105.3607035  91.6884294  77.8490542
 105.9114460  91.5601358  77.0767536 104.5218511  91.9879183  77.4985435
 112.7001152  90.4391293  81.3511265 112.6819627  91.2600174  80.8591534
 113.6221072  90.3145368  81.5761406 109.1574206  87.9535422  82.1934773
 109.6902543  87.1923710  81.9634081 108.6288287  87.6609074  82.9358928
 112.3243901  73.0595488  77.7228415 111.9808170  73.9497130  77.6467525
 112.6922864  72.8697146  76.8598000 100.3929752  85.3829019  70.5417017
 101.2304974  85.7926027  70.3250725 100.5708019  84.4428461  70.5117211
 112.2894184  83.0504099  66.2300850 111.7740807  83.8208704  66.4689237
 112.0171492  82.3769235  66.8533911 109.8741295  77.8953800  71.2886088
 109.0182891  77.5060650  71.1091727 110.2868246  77.9745761  70.4285874
 111.4040441  75.4300143  75.6877648 110.9005237  75.3930279  74.8745453
 111.6971048  76.3392886  75.7474305 107.6483327  75.5138873  74.6943830
 108.5136324  75.3181682  74.3349719 107.7160836  75.2849225  75.6213187
 117.2628458  85.8036454  68.1654023 116.4857901  85.4647613  67.7209185
 117.9419939  85.8089077  67.4908988 112.0780487  80.9231191  68.0560631
 111.7730622  81.2377341  68.9070774 113.0310929  81.0012611  68.0987964
 110.5226919  87.0821415  69.7053585 109.9948280  86.3474174  69.3926823
 110.0214421  87.8596091  69.4593553 115.5019765  85.2770435  74.8220631
 114.8443439  85.9669697  74.9100760 116.3060164  85.6666867  75.1654618
 105.2545646  77.7441081  72.0660197 105.8289398  77.5216262  71.3333390
 105.8416629  77.8129775  72.8188798 114.3125224  83.6314808  72.8724573
 114.8257105  84.2644800  73.3746283 114.9626447  83.0316003  72.5067933
 105.5815233  79.7745542  66.0856082 104.7452546  80.1120229  66.4065357
 105.4420003  79.6394522  65.1483219 107.5568314  74.6182330  70.7935266
 106.9032726  74.3031347  70.1691881 107.5148788  73.9958070  71.5195089
 108.6679519  84.9001625  62.7088558 107.7606581  84.6690878  62.9079707
 109.1650551  84.1039244  62.8962540 111.5747598  93.6099132  65.6285244
 110.9009297  93.9130829  66.2370202 111.9613420  94.4128213  65.2790701
 110.7906054  81.1064263  75.1182914 109.8728616  81.3279210  74.9604602
 111.2066198  81.1810574  74.2594621 111.5741102  82.5055679  70.2485594
 112.3212921  83.0177076  69.9392716 111.8432692  82.1839732  71.1089987
 109.8467752  85.0014220  67.2312548 108.9378972  84.7173253  67.3285018
 109.8762836  85.4213298  66.3715855 115.0787020  88.6120809  71.0003716
 114.6249347  87.7711719  71.0568906 114.4480986  89.2482208  71.3378496
 114.0219939  79.5412795  72.2304383 113.2842696  79.0290182  72.5614626
 114.2746713  79.1013177  71.4187660 113.5219959  90.4497306  71.9353534
 113.8142933  91.0102363  71.2165900 114.0318580  90.7425867  72.6906693
 114.1231567  72.3189047  72.8246152 114.4290443  71.4586411  72.5372068
 114.8484171  72.9106668  72.6245146 100.4155923  82.7219734  71.2127750
 100.2180323  82.1289095  70.4878817  99.8602587  82.4171944  71.9303689
 108.3952646  82.6142840  73.3322344 108.4501256  81.6616677  73.2564820
 107.5843848  82.7702280  73.8163642 109.5443840  86.5422964  64.5700627
 109.1063270  85.8258822  64.1106264 110.2854281  86.7699078  64.0085718
 106.3345006  81.2319900  71.0912722 105.5212872  81.5314071  71.4977915
 106.8304000  80.8375589  71.8087205 108.4853584  91.2277657  73.0246987
 108.4429763  91.4538503  72.0955519 109.4016283  90.9941032  73.1732788
 111.9319218  81.6961725  79.9227616 112.2868606  81.9233198  80.7822082
 112.5791349  82.0280101  79.3004872 117.6616955  84.8180161  70.6276945
 117.5234854  85.0081757  69.6998135 117.3053174  85.5799543  71.0844996
 105.8259081  78.8038256  76.7073957 106.4658460  78.6627015  76.0096921
 104.9936612  78.5172769  76.3312559 117.6886335  86.8856688  75.6388217
 118.1222841  86.7931977  76.4871271 118.4017915  86.8614188  75.0008233
 106.6019385  88.1040686  72.8208950 107.3959983  87.6091006  72.6191525
 105.8911077  87.5758549  72.4576655 111.4214229  90.4858782  77.1721317
 111.4751252  91.0549718  77.9399033 110.5529011  90.6560667  76.8075355
 102.9102148  82.2483768  68.8968703 101.9799737  82.1868223  69.1138665
 103.0059620  81.7259721  68.1005344 102.8287697  78.7738581  71.4846944
 103.0894515  79.6883914  71.3756105 103.6504870  78.3063023  71.6343557
 104.3012623  80.1876338  78.6545769 104.9735676  79.9793700  78.0058418
 103.4742409  79.9898424  78.2151001 118.5501884  86.9280388  78.1721102
 118.7437774  87.8326199  78.4180377 118.4502502  86.4687807  79.0059687
 110.2038195  76.8138279  80.6711430 109.5566110  77.5128228  80.5775906
 110.9739210  77.2474423  81.0387678 113.6116993  87.0787131  83.7461983
 113.4602499  86.8497683  82.8292067 113.6021672  88.0357732  83.7593328
 110.3802329  84.6519044  78.7308249 111.3094389  84.8030203  78.5577217
 109.9593359  84.7403064  77.8756896 109.1790661  88.6769708  76.5006787
 109.0401747  88.3088493  77.3732725 108.3905257  89.1917348  76.3290745
 109.7738813  93.7778805  67.8432323 109.9490569  93.3066848  68.6577946
 109.0871601  94.4044571  68.0713584 110.7295876  88.0551311  73.8895625
 110.3945709  88.0152081  74.7853275 110.2299822  87.3896027  73.4166035
 104.7040120  83.4618941  79.4148206 104.5659918  82.7299180  80.0159745
 105.6145044  83.3727841  79.1332394 113.6655068  85.4007345  64.1632684
 113.0484238  84.6754173  64.0665737 113.1971556  86.1616705  63.8199759
 107.3322421  83.1738900  78.9031886 108.0422039  82.5332092  78.8618504
 107.2891729  83.4251795  79.8258066 115.3209199  90.1106254  81.8238465
 115.2621746  89.4265474  81.1569048 115.7228718  90.8525244  81.3719091
 106.0451355  80.1604118  80.7227525 105.5088712  79.7094857  81.3749121
 105.4568063  80.2950027  79.9797989 104.3399898  96.9268167  74.6172184
 104.5796496  97.5586692  75.2951202 103.4969095  96.5756207  74.9037543
 105.4553614  79.6192769  63.2853989 104.5783080  79.4981570  62.9216235
 105.9311367  78.8278848  63.0332877 115.3226607  88.0745837  80.0552444
 114.4353385  87.7371759  80.1778843 115.8925158  87.3428869  80.2921210
  96.9755754  84.4069929  73.3795496  97.6626794  84.0931659  72.7916511
  96.8203882  85.3111294  73.1062747 101.7790476  79.2960126  77.8080519
 101.6948665  78.6885795  77.0730929 100.9573182  79.7869144  77.8090016
 108.8527760  92.7347290  77.0213688 108.7797932  93.5402261  77.5332992
 108.4105153  92.9339256  76.1961709 108.6417540  91.9719060  70.5316509
 107.8585062  92.5140740  70.6254734 109.3410285  92.4893039  70.9310750
 111.9514190  77.7813689  73.1750715 112.4482889  77.0283652  72.8551785
 111.1801171  77.8178006  72.6093924 119.8043947  83.4854055  74.8169006
 119.7933823  84.3678770  74.4462939 118.9361327  83.1325606  74.6223543
 111.3126444  92.6334124  79.1771846 112.0254416  93.2681589  79.1047748
 110.8216472  92.7297990  78.3611848 113.0343970  86.5385377  70.7489138
 112.1000249  86.6586839  70.5793842 113.2120639  85.6357843  70.4849148
 108.5349159  79.9231072  72.9022399 108.1646946  79.3702113  73.5903305
 109.0308251  79.3189206  72.3497399 116.4216522  82.3802696  71.2839172
 116.8876974  83.2130687  71.2099475 116.8724022  81.9147677  71.9884431
 106.3638357  90.3828567  79.9977417 107.0647817  91.0165050  80.1506811
 105.8933472  90.7243299  79.2373056 114.4892753  88.7246517  68.2825324
 114.7652597  88.6103112  69.1919198 113.6197252  88.3264002  68.2437497
 114.3933185  74.7483283  75.3230073 113.4796264  74.9787510  75.4912280
 114.8226286  74.8321727  76.1744106 114.1639643  82.9373175  77.8229967
 113.5111093  83.1849082  77.1682420 114.5420023  82.1237313  77.4892445
 111.1246817  92.9732868  71.9258138 111.3069211  92.1554524  72.3885890
 111.9479803  93.1900560  71.4883028 111.4588982  91.9001053  69.1873186
 111.9876749  91.3893508  68.5743348 111.7217202  91.5843583  70.0518719
 110.2127216  83.6792986  84.3096005 109.5367853  83.5787115  84.9798380
 111.0354850  83.5232200  84.7732002 101.9606075  89.9164922  76.9308520
 102.5459512  89.1708610  77.0636424 101.7630914  90.2268879  77.8145184
 104.8144730  92.9516170  71.9470962 104.1455106  93.4362297  71.4635002
 104.6757600  93.1985390  72.8614341  96.5523730  82.4870523  75.6512963
  96.5907829  81.9534113  76.4450081  96.0464023  81.9605728  75.0323940
 108.9549999  94.9859913  78.5453621 109.5068307  95.1491535  79.3102706
 109.2956192  95.5764351  77.8733645 103.9314492  77.3335063  79.1475505
 103.9955819  78.1949894  78.7352903 103.8681612  76.7209065  78.4147864
 103.4066765  79.4058196  82.7948539 104.0338804  79.0235273  83.4086064
 102.5494684  79.1872398  83.1604232 113.8060873  89.8121171  84.4002275
 114.3500777  90.4251129  83.9057230 113.2247718  90.3700749  84.9169288
 100.1832307  81.2134625  68.7266894 100.4785749  80.3045303  68.6733948
  99.2820343  81.1922364  68.4047897 112.0918386  92.9341889  75.5317303
 111.9669526  92.1331629  75.0228248 112.7497477  93.4288082  75.0431273
 103.7126554  79.2890621  74.7094443 102.9913140  79.9026589  74.5701916
 104.5019810  79.8248386  74.6311089 114.1553295  90.7350909  77.1596853
 113.2083630  90.6156260  77.0875180 114.5036068  89.8473407  77.2423114
 106.5152868  76.6245048  80.9835095 107.0387270  76.8707344  81.7461404
 106.2965201  77.4565083  80.5638232 101.9120149  78.8948722  68.8506219
 101.5832855  78.0146101  68.6681325 102.2659520  78.8396391  69.7382609
 111.1599728  90.5303625  73.3601205 111.0124690  89.6020332  73.5408775
 111.9853221  90.5523716  72.8758280 105.0261972  79.1821692  69.2181697
 105.3658045  79.7107613  68.4960306 105.4734093  79.5202098  69.9940264
 114.7633850  91.3532184  74.4466078 115.6880397  91.1475045  74.3090529
 114.5949153  91.1048585  75.3555419 107.7205413  77.5658743  78.6684765
 107.3802233  76.7666556  79.0705445 107.0144419  77.8660454  78.0961598
 108.3721885  74.6508055  77.1212088 109.1947954  74.1768533  76.9990979
 108.6159948  75.4298539  77.6210775 107.0130119  77.6796314  67.4174990
 107.7338482  78.0577567  66.9138707 106.3895424  78.3985191  67.5209968
 111.1561242  78.3841463  68.3533322 111.3724857  79.2666101  68.0522150
 110.6755309  77.9927676  67.6238964 105.8960464  81.3427176  74.9304067
 105.7505044  81.6567479  75.8228348 105.4185667  81.9612076  74.3774965
 107.7556847  78.3329724  74.9784956 107.7418415  77.4370817  74.6417254
 108.4729275  78.3400388  75.6123242 109.6082977  78.7667064  77.0238084
 109.3500755  79.6884135  77.0222414 109.0768018  78.3697499  77.7138548
 114.5529166  91.8717851  69.8028169 114.7266044  91.3064274  69.0502022
 115.0458057  92.6718746  69.6207659 100.3706126  83.8832520  77.8691728
  99.8259594  84.6592328  78.0012002 101.2485476  84.2303325  77.7110849
 107.1593742  77.2144104  70.2472527 107.2809654  76.2860750  70.4463414
 106.8695785  77.2282790  69.3350842 110.0284933  74.8999015  73.3839246
 110.0506630  74.9638348  72.4291226 110.4452992  74.0603523  73.5779753
 120.4068557  84.6354274  71.4218469 120.8499703  83.8861599  71.0237592
 119.5295067  84.6264411  71.0392201 115.5404338  91.1884616  66.9025067
 116.2355243  91.8091308  67.1212382 115.8827489  90.3379967  67.1777445
 101.1572148  83.0102417  80.7621885 100.4153884  83.1585052  81.3486515
 100.8364892  83.2710682  79.8988634 117.4395762  88.6384321  68.4312398
 117.9647086  88.9771594  67.7061718 117.3518114  87.7031337  68.2475533
 109.1015810  92.5518395  80.5602275 109.4102937  92.3067542  81.4324974
 109.8991292  92.7565033  80.0721145 109.1236422  94.7056304  72.7907651
 108.6841413  94.2132683  73.4840508 109.8744539  94.1629272  72.5499727
 101.6028761  90.8967845  72.7932280 102.4286781  90.5971617  72.4130923
 101.2522813  90.1275468  73.2422068 106.5710295  90.2494314  74.8629953
 105.9490304  89.5865019  74.5632181 107.2415161  90.2755445  74.1803601
  99.8037366  88.8154172  73.7521213  98.9669275  88.3876346  73.5705214
  99.7761012  89.0086615  74.6892004 106.6434822  78.7276102  84.4562459
 106.6922977  79.6038224  84.0740229 107.1857336  78.1853495  83.8834102
 117.1289668  89.2717225  83.7363596 116.3385211  89.2541364  83.1968096
 116.8923022  89.8105519  84.4912633 117.2487543  86.1209691  81.0496325
 117.2985548  85.9559699  81.9911848 117.1401466  85.2536950  80.6594206
 106.1323801  88.7998237  68.3388414 106.2811922  89.4833701  67.6855086
 106.9390245  88.7803327  68.8537869 114.5391305  82.1040619  82.3655631
 115.4401168  81.9647084  82.0739629 114.6139280  82.2695074  83.3053809
 108.8734110  79.4807474  81.2108818 108.0037420  79.7741040  80.9391406
 109.1093591  80.0647919  81.9316081 118.7505740  88.5406633  81.2938346
 118.4590548  88.9036613  82.1301807 118.1377871  87.8273641  81.1151678
 119.9501422  86.1059513  73.8140917 120.7848313  86.5449317  73.9778477
 120.0860551  85.6298166  72.9949162 116.9992928  83.6639247  79.7618404
 117.4747049  83.8566894  78.9537256 116.0758493  83.7198433  79.5161788
 103.8876434  84.8263415  69.3449483 103.6422476  83.9225745  69.5429693
 104.0572349  84.8280565  68.4028961 111.5773144  75.6987091  78.7274238
 112.0955088  76.4348118  78.4020727 111.2228277  76.0051084  79.5620997
 103.1572082  80.5591772  66.8435644 102.4641327  80.6336127  66.1875680
 102.9123834  79.7952116  67.3657161 111.8285738  72.1187373  74.2475135
 112.1087492  71.4510563  74.8735561 112.6136345  72.3116469  73.7349799
 109.6319207  91.2946367  65.8100161 109.0593174  91.9136554  65.3570633
 110.2052001  91.8445729  66.3440083 115.6994597  80.5405007  77.9946710
 116.6512020  80.6403105  78.0158934 115.5298047  79.7483276  78.5044794
 113.7208976  77.6260591  78.1806111 113.1258908  77.9065603  77.4852599
 113.4358673  78.1154492  78.9522852 112.8516467  91.5783517  66.9408743
 113.7847140  91.5129079  67.1441619 112.7639680  92.4139784  66.4823276
 115.4804483  90.8949388  63.9012691 115.4018115  90.5609251  64.7948449
 116.3014150  91.3871156  63.9004163 118.1782675  83.7611127  77.1089010
 118.1458995  82.8227128  77.2948693 118.7883298  83.8395164  76.3754834
 110.0166005  82.6307180  63.1516214 110.9625110  82.5013388  63.2204632
 109.6380250  81.8921842  63.6285642 118.3277163  80.5522171  77.1547293
 117.8116212  79.7680627  76.9677222 119.2117112  80.2240887  77.3193812
 115.9887890  74.2963186  73.1143105 115.7912711  73.9878274  73.9986437
 116.5987596  75.0224825  73.2441035 109.9004698  86.6824926  84.6116871
 110.8207707  86.8603525  84.8056917 109.8654281  85.7380972  84.4596570
 108.2008923  80.5557156  63.0871099 107.2940378  80.2590269  63.1633812
 108.4784904  80.2586975  62.2205385  99.1186863  81.8763520  73.5370145
  98.7989647  81.0228828  73.2444519  98.5720291  82.0912098  74.2928113
 102.8966771  84.5925961  77.2539652 103.1152780  85.5243069  77.2727686
 103.3092544  84.2333935  78.0394456 109.8170988  75.0994046  69.2415340
 109.0071717  74.7541131  69.6170586 110.5055405  74.7901590  69.8302952
 111.7461537  74.1772093  70.8639637 112.2992575  74.5967546  71.5229660
 111.9831623  73.2507841  70.9062593 107.7694636  80.1659167  86.6442401
 107.6691363  81.1153524  86.5754492 107.5516178  79.8377406  85.7718471
 106.9707707  77.4144092  63.2283078 107.8326871  77.7398990  63.4878895
 107.1558051  76.6275588  62.7156144  98.9875123  85.4966431  75.5063267
  98.2938594  85.0820384  74.9933221  99.7348114  85.5386968  74.9096686
 115.1240344  76.2872618  70.3718301 114.5439013  76.9457422  69.9896353
 114.8576276  75.4649963  69.9605718 113.5743910  75.6877676  72.5739621
 114.0743688  75.7994210  71.7653940 114.2179518  75.3838729  73.2140430
 107.6325906  83.5956305  85.4607462 107.1492988  84.3956666  85.6671351
 107.7186845  83.6064250  84.5074906 100.9011866  85.4284685  73.3829282
 100.8782554  85.5272372  72.4311165 101.2112502  86.2749836  73.7046448
 103.5599243  87.4860840  77.4975896 104.5142497  87.4544783  77.4305828
 103.3611767  87.0251464  78.3126122 104.1498626  86.0561956  80.0646694
 104.9691515  86.5506035  80.0881531 104.4235433  85.1393924  80.0364261
 113.9065222  78.4472709  69.4274649 113.0191077  78.7322359  69.2094844
 114.3219211  78.2866472  68.5801926 117.2579758  78.4719230  73.1428988
 118.0340148  78.9615682  73.4153605 116.5327892  78.8977284  73.6000858
 119.6952316  79.1846849  74.2002929 120.2896807  78.9442585  73.4896237
 119.7678900  78.4653979  74.8276465 101.9149472  93.0280460  74.5146094
 101.7803940  92.2680861  73.9484092 101.4981534  93.7521360  74.0474883
 113.0508435  88.2117383  63.5222669 113.7544285  88.4167386  64.1380325
 112.3271084  88.7794145  63.7871753 113.8806245  83.9627244  69.6424939
 113.8241447  84.4195796  68.8032572 114.4334588  83.2017929  69.4647782
 117.6911051  79.7516976  70.4675059 117.4347986  79.3513612  71.2983267
 117.0663919  80.4660770  70.3425198 105.0718598  93.9249777  74.7264537
 104.9550982  94.8695209  74.6243227 104.2511044  93.6223338  75.1150336
 114.9595133  88.6499912  65.5721129 115.7940737  88.2181111  65.3898604
 114.7979476  88.4781926  66.4998024 114.6141025  85.1532026  66.9377469
 114.5589829  84.9876297  65.9965913 113.9887080  85.8608059  67.0939658
  99.4033540  80.3900090  80.7638891 100.0492403  79.8799044  81.2526116
  99.1950691  81.1268772  81.3382316 111.9286932  87.4580938  86.2631031
 112.7978092  87.6321590  85.9017666 111.4493683  88.2775354  86.1406761
 107.9237150  74.6540135  66.5162787 107.9115820  75.5981975  66.6731058
 108.8160572  74.4710280  66.2222248 106.0973112  94.5778039  77.9420465
 107.0000359  94.6101649  78.2586960 105.8710482  93.6478490  77.9566801
 107.8526714  93.3309025  74.6030544 106.9022345  93.3310887  74.4894916
 108.1559200  92.5841760  74.0866578 111.7389270  71.2482911  70.7708724
 110.9721665  70.6941398  70.9165406 112.1499975  71.3204780  71.6322875
 103.7431031  77.5367707  84.8613905 104.6062492  77.1804512  85.0717230
 103.1696441  77.1981602  85.5489309 120.3969114  99.1196992  75.6037831
 120.0587625  99.0038056  74.7158366 121.2658882  98.7188157  75.5838837
 116.2555930 100.9732468  71.5934722 115.6920795 100.8822405  70.8251009
 116.1408325 100.1532373  72.0737214 120.8788897 100.2731843  81.5624036
 120.8677538  99.8784642  80.6904540 121.0409536  99.5397916  82.1557808
 113.8020362 102.4683660  74.4318942 114.5941654 102.1274484  74.0165241
 114.0417012 102.5778635  75.3521095 115.7611116 101.7292573  67.3036321
 116.5341992 101.1821560  67.1649197 116.1136514 102.5936822  67.5150782
 117.5996158 103.0568955  80.5103220 117.3086024 103.9614586  80.3949887
 118.2353142 103.0985483  81.2247290 118.5252365 100.4345804  77.1004580
 119.1215937 100.2101826  76.3861543 118.5827336  99.6930549  77.7030028
 118.0977393  97.8885239  64.9354771 118.3502914  97.3666760  64.1738234
 117.1601952  97.7251384  65.0381454 117.8173682  99.7913345  67.1379146
 117.7009940  99.1158248  67.8060230 117.9275942  99.3045719  66.3211299
 120.1605223  99.2523492  70.8425835 119.7963430  98.7254113  71.5538757
 121.0172339  98.8621961  70.6692320 119.8010710  94.2813392  65.8387184
 119.9685112  95.1493628  66.2057655 119.6107879  94.4440673  64.9148473
 116.0098525  99.1944168  73.5389718 115.0849021  99.0620382  73.7467410
 116.2582938  99.9738387  74.0359661 119.7799931  96.7371049  66.8233850
 119.6599556  97.1828100  67.6619331 119.0852519  97.0856367  66.2647389
 113.3707336  98.8377441  74.3733507 113.4999717  99.0911920  75.2872919
 112.6904787  99.4305149  74.0538162 120.0324053  96.6802556  83.1285349
 119.2557387  97.2396477  83.1188213 120.6714616  97.1659339  83.6500219
 118.2870425  99.4888010  82.6903316 119.0285109 100.0273054  82.4138139
 117.5807411 100.1154299  82.8474867 120.1156835  96.5689757  78.6609034
 120.9618030  96.9929171  78.8043683 120.0555472  95.9123381  79.3547597
 119.6382541 101.9292749  72.3077851 120.1020887 102.2080452  71.5182473
 119.3739339 101.0276194  72.1250942 116.5306622 101.4764231  75.2457614
 117.1007979 101.9051499  74.6075099 117.1214734 101.1946815  75.9441800
 118.5751427  98.0515901  69.1167416 119.2775471  98.5036945  69.5841342
 118.2432056  97.4099720  69.7447309 117.0231789  96.6427658  83.4918626
 116.3930449  97.3243939  83.7254022 116.9167877  96.5310740  82.5471764
 112.3176761  96.3099454  74.4184550 111.5275815  96.5656983  73.9424660
 112.8088009  97.1247792  74.5236590 114.2691507  96.6744033  71.3768026
 113.4722670  96.7862728  71.8951522 114.0417099  97.0130685  70.5108917
 120.0997174 103.1988736  79.3250541 120.1641607 103.6609144  80.1608713
 119.3908098 102.5686101  79.4532851 110.6014464  96.5629944  76.8499540
 110.8522503  97.4476954  77.1157116 111.1374013  96.3834546  76.0774632
 116.3012532  90.9448424  85.8543877 115.9079477  90.3914622  86.5291521
 117.1178672  91.2559002  86.2450394 113.2674589 102.3832282  69.7657446
 113.7799110 103.1775532  69.9163011 113.9197302 101.6858572  69.6991048
 115.0769474 105.4998038  71.8480200 115.2536102 106.4216003  71.6601184
 115.8726308 105.1856458  72.2774579 119.2180493  92.3606303  83.4464133
 119.9590206  92.9613456  83.3668596 119.4498415  91.6183941  82.8882176
 114.3621831  97.5462670  81.7242363 114.2475346  96.6447927  82.0249462
 113.5066348  97.7926367  81.3727179 116.2000789 107.0176212  77.8490542
 116.7508215 106.8893275  77.0767536 115.3612265 107.3171101  77.4985435
 119.9967961 103.2827340  82.1934773 120.5296297 102.5215628  81.9634081
 119.4682042 102.9900992  82.9358928 111.2323506 100.7120936  70.5417017
 112.0698728 101.1217945  70.3250725 111.4101774  99.7720378  70.5117211
 120.7135049  93.2245718  71.2886088 119.8576646  92.8352568  71.1091727
 121.1262001  93.3037679  70.4285874 118.4877082  90.8430791  74.6943830
 119.3530079  90.6473599  74.3349719 118.5554591  90.6141143  75.6213187
 121.3620673 102.4113332  69.7053585 120.8342035 101.6766092  69.3926823
 120.8608176 103.1888009  69.4593553 116.0939401  93.0732999  72.0660197
 116.6683153  92.8508180  71.3333390 116.6810383  93.1421693  72.8188798
 116.4208988  95.1037460  66.0856082 115.5846300  95.4412146  66.4065357
 116.2813758  94.9686439  65.1483219 118.3962069  89.9474248  70.7935266
 117.7426481  89.6323265  70.1691881 118.3542543  89.3249988  71.5195089
 119.5073273 100.2293543  62.7088558 118.6000335  99.9982796  62.9079707
 120.0044305  99.4331162  62.8962540 120.6861507 100.3306138  67.2312548
 119.7772726 100.0465170  67.3285018 120.7156591 100.7505216  66.3715855
 111.2549677  98.0511652  71.2127750 111.0574077  97.4581012  70.4878817
 110.6996341  97.7463862  71.9303689 119.2346401  97.9434758  73.3322344
 119.2895011  96.9908595  73.2564820 118.4237603  98.0994197  73.8163642
 120.3837595 101.8714881  64.5700627 119.9457025 101.1550740  64.1106264
 121.1248035 102.0990996  64.0085718 117.1738761  96.5611818  71.0912722
 116.3606626  96.8605988  71.4977915 117.6697755  96.1667507  71.8087205
 116.6652836  94.1330173  76.7073957 117.3052215  93.9918932  76.0096921
 115.8330366  93.8464687  76.3312559 117.4413139 103.4332604  72.8208950
 118.2353738 102.9382924  72.6191525 116.7304832 102.9050467  72.4576655
 113.7495903  97.5775686  68.8968703 112.8193491  97.5160141  69.1138665
 113.8453375  97.0551638  68.1005344 113.6681452  94.1030498  71.4846944
 113.9288269  95.0175832  71.3756105 114.4898624  93.6354941  71.6343557
 115.1406377  95.5168256  78.6545769 115.8129431  95.3085618  78.0058418
 114.3136164  95.3190342  78.2151001 120.0184415 104.0061626  76.5006787
 119.8795501 103.6380410  77.3732725 119.2299012 104.5209265  76.3290745
 121.5689631 103.3843228  73.8895625 121.2339463 103.3443998  74.7853275
 121.0693576 102.7187944  73.4166035 115.5433875  98.7910859  79.4148206
 115.4053672  98.0591097  80.0159745 116.4538798  98.7019759  79.1332394
 118.1716175  98.5030818  78.9031886 118.8815794  97.8624010  78.8618504
 118.1285483  98.7543713  79.8258066 116.8845109  95.4896036  80.7227525
 116.3482466  95.0386774  81.3749121 116.2961818  95.6241945  79.9797989
 116.2947368  94.9484687  63.2853989 115.4176834  94.8273488  62.9216235
 116.7705121  94.1570765  63.0332877 107.8149508  99.7361847  73.3795496
 108.5020548  99.4223577  72.7916511 107.6597637 100.6403212  73.1062747
 112.6184230  94.6252043  77.8080519 112.5342419  94.0177713  77.0730929
 111.7966937  95.1161062  77.8090016 119.3742913  95.2522990  72.9022399
 119.0040701  94.6994030  73.5903305 119.8702005  94.6481123  72.3497399
 117.2032112 105.7120485  79.9977417 117.9041571 106.3456968  80.1506811
 116.7327227 106.0535217  79.2373056 112.7999830 105.2456840  76.9308520
 113.3853266 104.5000528  77.0636424 112.6024668 105.5560797  77.8145184
 107.3917484  97.8162440  75.6512963 107.4301584  97.2826031  76.4450081
 106.8857777  97.2897646  75.0323940 114.7708247  92.6626981  79.1475505
 114.8349573  93.5241812  78.7352903 114.7075367  92.0500982  78.4147864
 114.2460519  94.7350113  82.7948539 114.8732558  94.3527191  83.4086064
 113.3888438  94.5164315  83.1604232 111.0226062  96.5426542  68.7266894
 111.3179503  95.6337221  68.6733948 110.1214098  96.5214282  68.4047897
 114.5520309  94.6182539  74.7094443 113.8306895  95.2318507  74.5701916
 115.3413565  95.1540304  74.6311089 117.3546623  91.9536965  80.9835095
 117.8781024  92.1999262  81.7461404 117.1358956  92.7857000  80.5638232
 112.7513904  94.2240640  68.8506219 112.4226610  93.3438019  68.6681325
 113.1053274  94.1688309  69.7382609 115.8655727  94.5113610  69.2181697
 116.2051799  95.0399531  68.4960306 116.3127847  94.8494016  69.9940264
 118.5599168  92.8950661  78.6684765 118.2195988  92.0958474  79.0705445
 117.8538174  93.1952371  78.0961598 119.2115639  89.9799973  77.1212088
 120.0341709  89.5060451  76.9990979 119.4553703  90.7590457  77.6210775
 117.8523874  93.0088231  67.4174990 118.5732236  93.3869484  66.9138707
 117.2289178  93.7277108  67.5209968 116.7354218  96.6719094  74.9304067
 116.5898799  96.9859397  75.8228348 116.2579422  97.2903994  74.3774965
 118.5950601  93.6621642  74.9784956 118.5812170  92.7662735  74.6417254
 119.3123029  93.6692305  75.6123242 120.4476732  94.0958982  77.0238084
 120.1894510  95.0176052  77.0222414 119.9161772  93.6989416  77.7138548
 111.2099880  99.2124438  77.8691728 110.6653348  99.9884246  78.0012002
 112.0879230  99.5595242  77.7110849 117.9987497  92.5436022  70.2472527
 118.1203408  91.6152668  70.4463414 117.7089539  92.5574708  69.3350842
 120.8678687  90.2290932  73.3839246 120.8900384  90.2930265  72.4291226
 121.2846746  89.3895441  73.5779753 111.9965902  98.3394334  80.7621885
 111.2547638  98.4876970  81.3486515 111.6758646  98.6002600  79.8988634
 112.4422516 106.2259763  72.7932280 113.2680536 105.9263535  72.4130923
 112.0916568 105.4567385  73.2422068 117.4104049 105.5786231  74.8629953
 116.7884058 104.9156936  74.5632181 118.0808916 105.6047363  74.1803601
 110.6431121 104.1446089  73.7521213 109.8063029 103.7168264  73.5705214
 110.6154766 104.3378533  74.6892004 117.4828576  94.0568019  84.4562459
 117.5316732  94.9330142  84.0740229 118.0251091  93.5145412  83.8834102
 116.9717556 104.1290155  68.3388414 117.1205676 104.8125619  67.6855086
 117.7783999 104.1095245  68.8537869 119.7127865  94.8099392  81.2108818
 118.8431174  95.1032958  80.9391406 119.9487345  95.3939837  81.9316081
 114.7270189 100.1555332  69.3449483 114.4816231  99.2517662  69.5429693
 114.8966103 100.1572483  68.4028961 113.9965836  95.8883690  66.8435644
 113.3035081  95.9628045  66.1875680 113.7517588  95.1244033  67.3657161
 119.0402677  95.8849074  63.0871099 118.1334132  95.5882187  63.1633812
 119.3178658  95.5878892  62.2205385 109.9580617  97.2055438  73.5370145
 109.6383402  96.3520746  73.2444519 109.4114046  97.4204016  74.2928113
 113.7360525  99.9217879  77.2539652 113.9546535 100.8534986  77.2727686
 114.1486299  99.5625853  78.0394456 120.6564743  90.4285964  69.2415340
 119.8465471  90.0833049  69.6170586 121.3449160  90.1193508  69.8302952
 118.6088390  95.4951084  86.6442401 118.5085117  96.4445441  86.5754492
 118.3909932  95.1669323  85.7718471 117.8101462  92.7436009  63.2283078
 118.6720626  93.0690908  63.4878895 117.9951806  91.9567505  62.7156144
 109.8268877 100.8258349  75.5063267 109.1332349 100.4112302  74.9933221
 110.5741868 100.8678886  74.9096686 118.4719660  98.9248223  85.4607462
 117.9886742  99.7248583  85.6671351 118.5580599  98.9356168  84.5074906
 111.7405620 100.7576603  73.3829282 111.7176308 100.8564290  72.4311165
 112.0506256 101.6041754  73.7046448 114.3992998 102.8152758  77.4975896
 115.3536251 102.7836700  77.4305828 114.2005521 102.3543382  78.3126122
 114.9892380 101.3853874  80.0646694 115.8085269 101.8797953  80.0881531
 115.2629188 100.4685842  80.0364261 112.7543227 108.3572377  74.5146094
 112.6197695 107.5972778  73.9484092 112.3375289 109.0813277  74.0474883
 110.2427294  95.7192008  80.7638891 110.8886158  95.2090962  81.2526116
 110.0344445  96.4560689  81.3382316 118.7630905  89.9832052  66.5162787
 118.7509575  90.9273892  66.6731058 119.6554327  89.8002198  66.2222248
 114.5824785  92.8659625  84.8613905 115.4456247  92.5096430  85.0717230
 114.0090196  92.5273520  85.5489309  52.5044297  -5.4614692  57.1969288
  52.4268327  -4.5106867  57.2757769  51.9005941  -5.8068820  57.8544215
  50.1431127  -2.7129298  61.3417490  50.3827725  -2.0810774  62.0196509
  49.3000323  -3.0641258  61.6282850  50.6175959  -6.6881296  58.6716269
  49.9486334  -6.2035168  58.1880309  50.4788829  -6.4412076  59.5859647
  54.7581228  -4.6537553  65.2698927  55.3099536  -4.4905931  66.0348012
  55.0987421  -4.0633115  64.5978952  47.7180701  -6.6117006  61.2391401
  47.5835169  -7.3716605  60.6729399  47.3012763  -5.8876106  60.7720189
  50.8749827  -5.7147689  61.4509843  50.7582211  -4.7702257  61.3488533
  50.0542273  -6.0174128  61.8395642  51.9004341  -5.0619427  64.6665772
  52.8031588  -5.0295817  64.9832267  51.6741711  -5.9918976  64.6812107
  66.2000343  -0.5200474  62.3283137  65.8618854  -0.6359409  61.4403672
  67.0690111  -0.9209309  62.3084144  62.0587158   1.3335002  58.3180028
  61.4952024   1.2424939  57.5496316  61.9439554   0.5134907  58.7982521
  66.6820126   0.6334378  68.2869343  66.6708767   0.2387176  67.4149847
  66.8440765  -0.0999550  68.8803114  59.6051590   2.8286194  61.1564249
  60.3972882   2.4877019  60.7410548  59.8448241   2.9381169  62.0766402
  67.6386717   5.0005970  53.6294493  66.9874697   5.5860050  53.2428507
  68.4331080   5.5312165  53.6889531  61.5642344   2.0895107  54.0281628
  62.3373220   1.5424094  53.8894503  61.9167743   2.9539356  54.2396089
  63.4027387   3.4171489  67.2348527  63.1117253   4.3217120  67.1195193
  64.0384371   3.4588017  67.9492596  64.3283594   0.7948338  63.8249887
  64.9247166   0.5704360  63.1106849  64.3858565   0.0533083  64.4275334
  69.1161982   2.6896402  54.1663478  68.4807815   2.7631028  54.8784382
  68.7859389   3.2790001  53.4882557  63.6204911   0.1515879  53.8624452
  63.5041169  -0.5239217  54.5305537  63.7307171  -0.3351747  53.0456605
  65.9636452  -0.3873974  57.5671142  65.5994659  -0.9143353  58.2784063
  66.8203568  -0.7775505  57.3937627  68.3617272   3.1032905  64.2298321
  68.0617995   4.0057944  64.1214128  68.0168331   2.8365088  65.0819473
  61.8129753  -0.4453298  60.2635025  60.8880250  -0.5777084  60.4712717
  62.0614167   0.3340921  60.7604967  59.1738564  -0.8020025  61.0978814
  59.3030946  -0.5485546  62.0118226  58.4936016  -0.2092317  60.7783469
  63.3438052   9.8677225  57.1969288  63.2662081  10.8185050  57.2757769
  62.7399695   9.5223098  57.8544215  64.0901654  -0.1509456  69.4148622
  64.8316338   0.3875588  69.1383446  63.3838639   0.4756833  69.5720174
  69.5656993   1.9919684  68.0120784  69.9740350   1.5502095  67.2675416
  68.8434255   1.4172312  68.2654977  69.8885808   2.5520875  61.7673073
  69.2594671   2.7166589  61.0649140  69.5011470   2.9662485  62.5384037
  73.7675040   3.4875313  59.1217436  73.0826078   3.8674214  58.5714470
  73.8518889   4.0970640  59.8549384  71.0225972   1.1335272  65.7212780
  71.2342867   1.7767032  65.0447161  70.9755720   0.2997589  65.2534710
  65.4413770   2.2895283  59.0323158  65.9052116   2.5682986  58.2427780
  65.1770568   1.3878728  58.8496248  62.3337851   1.8366765  61.9702921
  62.9039208   2.2654033  61.3320405  62.9245963   1.5549349  62.6687107
  58.1207990  -3.3298012  61.1429856  57.3307044  -3.0740483  60.6669967
  58.6119237  -2.5149674  61.2481897  72.1371800   4.0107227  63.8935137
  72.9589243   3.6087415  63.6117819  72.1334202   3.9075462  64.8451253
  60.0722735  -2.9653433  58.1013333  59.2753899  -2.8534738  58.6196829
  59.8448328  -2.6266780  57.2354224  65.9028403   3.5591271  66.0495848
  65.9672836   4.0211678  66.8854020  65.1939327   2.9288636  66.1778158
  56.4045693  -3.0767521  63.5744847  56.6553731  -2.1920511  63.8402423
  56.9405241  -3.2562920  62.8019939  65.6176421   5.2259378  55.9174828
  65.4822095   6.0710914  56.3459676  66.1586233   5.4278656  55.1540762
  59.0705818   2.7434816  56.4902753  59.5830339   3.5378066  56.6408318
  59.7228531   2.0461107  56.4236355  60.8800703   5.8600573  58.5725506
  61.0567331   6.7818537  58.3846490  61.6757536   5.5458992  59.0019886
  60.1653059  -2.0934796  68.4487669  60.0506574  -2.9949538  68.7494768
  59.3097577  -1.8471099  68.0972486  67.2444897   5.8482945  70.0475170
  66.8008751   5.0619323  69.7296075  67.9062111   6.0362095  69.3819061
  62.0032018   7.3778746  64.5735849  62.5539443   7.2495810  63.8012843
  61.1643494   7.6773635  64.2230741  69.3426135   6.1285745  68.0756571
  69.3244610   6.9494626  67.5836841  70.2646055   6.0039820  68.3006713
  65.7999189   3.6429874  68.9180080  66.3327526   2.8818162  68.6879388
  65.2713270   3.3503526  69.6604234  57.0354735   1.0723471  57.2662324
  57.8729957   1.4820479  57.0496031  57.2133003   0.1322913  57.2362517
  67.1651902   2.7715867  56.4298892  66.6373264   2.0368626  56.1172129
  66.6639405   3.5490543  56.1838860  72.1444748   0.9664887  61.5465938
  71.4868422   1.6564148  61.6346067  72.9485147   1.3561319  61.8899924
  65.3104502   0.5896077  49.4333865  64.4031564   0.3585330  49.6325014
  65.8075534  -0.2066304  49.6207846  68.2172581   9.2993584  52.3530551
  67.5434280   9.6025281  52.9615509  68.6038403  10.1022664  52.0036008
  66.4892736   0.6908672  53.9557855  65.5803955   0.4067705  54.0530325
  66.5187819   1.1107750  53.0961162  71.7212003   4.3015261  57.7249022
  71.2674330   3.4606171  57.7814213  71.0905970   4.9376660  58.0623803
  70.1644942   6.1391758  58.6598841  70.4567917   6.6996815  57.9411206
  70.6743563   6.4320319  59.4152000  57.0580906  -1.5885814  57.9373057
  56.8605306  -2.1816453  57.2124124  56.5027570  -1.8933604  58.6548996
  66.1868823   2.2317415  51.2945933  65.7488253   1.5153274  50.8351571
  66.9279264   2.4593530  50.7331025  65.1278567   6.9172109  59.7492294
  65.0854746   7.1432955  58.8200826  66.0441266   6.6835484  59.8978095
  74.3311318   2.5751139  62.3633523  74.7647824   2.4826429  63.2116578
  75.0442899   2.5508640  61.7253539  63.2444368   3.7935138  59.5454256
  64.0384967   3.2985458  59.3436831  62.5336061   3.2653001  59.1821962
  68.0639213   6.1753234  63.8966624  68.1176235   6.7444170  64.6644340
  67.1953994   6.3455119  63.5320661  59.5527132  -2.0621780  55.6214009
  58.6224720  -2.1237325  55.8383971  59.6484604  -2.5845827  54.8250650
  75.1926867   2.6174840  64.8966409  75.3862757   3.5220651  65.1425684
  75.0927486   2.1582259  65.7304994  70.2541976   2.7681583  70.4707290
  70.1027482   2.5392135  69.5537373  70.2446656   3.7252184  70.4838635
  67.0227312   0.3413496  65.4553556  67.9519372   0.4924655  65.2822523
  66.6018342   0.4297516  64.6002202  65.8215644   4.3664160  63.2252094
  65.6826730   3.9982944  64.0978032  65.0330240   4.8811799  63.0536051
  66.4163796   9.4673256  54.5677630  66.5915552   8.9961300  55.3823253
  65.7296584  10.0939023  54.7958891  67.3720859   3.7445763  60.6140931
  67.0370692   3.7046533  61.5098581  66.8724805   3.0790479  60.1411342
  61.3465103  -0.8486607  66.1393513  61.2084901  -1.5806368  66.7405052
  62.2570027  -0.9377707  65.8577700  70.3080051   1.0901797  50.8877991
  69.6909222   0.3648625  50.7911044  69.8396539   1.8511157  50.5445065
  63.9747404  -1.1366648  65.6277192  64.6847023  -1.7773456  65.5863811
  63.9316712  -0.8853753  66.5503373  71.9634183   5.8000705  68.5483771
  71.9046729   5.1159926  67.8814354  72.3653701   6.5419695  68.0964397
  60.9824881  12.6162619  61.3417490  61.2221480  13.2481143  62.0196509
  60.1394078  12.2650659  61.6282850  71.9651590   3.7640289  66.7797751
  71.0778369   3.4266211  66.9024150  72.5350141   3.0323321  67.0166516
  53.6180737   0.0964381  60.1040802  54.3051777  -0.2173889  59.5161818
  53.4628866   1.0005746  59.8308054  65.4952743   8.4241742  63.7458994
  65.4222915   9.2296713  64.2578299  65.0530136   8.6233708  62.9207016
  65.2842523   7.6613512  57.2561816  64.5010045   8.2035192  57.3500040
  65.9835268   8.1787491  57.6556057  67.9551427   8.3228576  65.9017153
  68.6679399   8.9576041  65.8293054  67.4641456   8.4192442  65.0857155
  69.6768954   2.2279828  57.4734445  68.7425233   2.3481291  57.3039149
  69.8545622   1.3252295  57.2094454  63.0063340   6.0723019  66.7222724
  63.7072800   6.7059502  66.8752118  62.5358455   6.4137751  65.9618363
  71.1317736   4.4140969  55.0070631  71.4077580   4.2997564  55.9164505
  70.2622235   4.0158454  54.9682804  67.7671800   8.6627320  58.6503444
  67.9494195   7.8448976  59.1131197  68.5904786   8.8795012  58.2128334
  68.1013966   7.5895505  55.9118493  68.6301732   7.0787960  55.2988655
  68.3642185   7.2738035  56.7764026  66.8552199  -0.6312562  71.0341311
  66.1792836  -0.7318433  71.7043686  67.6779833  -0.7873349  71.4977308
  58.6031058   5.6059374  63.6553826  59.1884495   4.8603062  63.7881731
  58.4055897   5.9163331  64.5390490  61.4569714   8.6410622  58.6716269
  60.7880089   9.1256749  58.1880309  61.3182583   8.8879842  59.5859647
  53.1948713  -1.8235026  62.3758270  53.2332813  -2.3571435  63.1695388
  52.6889006  -2.3499820  61.7569247  65.5974982  10.6754365  65.2698927
  66.1493290  10.8385987  66.0348012  65.9381176  11.2658803  64.5978952
  70.4485857   5.5015623  71.1247582  70.9925761   6.1145581  70.6302536
  69.8672701   6.0595201  71.6414595  56.8257291  -3.0970923  55.4512201
  57.1210732  -4.0060245  55.3979255  55.9245327  -3.1183184  55.1293203
  68.7343370   8.6236341  62.2562609  68.6094509   7.8226081  61.7473555
  69.3922461   9.1182534  61.7676579  70.7978278   6.4245361  63.8842159
  69.8508613   6.3050712  63.8120486  71.1461051   5.5367859  63.9668421
  67.8024711   6.2198077  60.0846512  67.6549674   5.2914784  60.2654082
  68.6278205   6.2418168  59.6003587  71.4058833   7.0426636  61.1711384
  72.3305381   6.8369497  61.0335836  71.2374136   6.7943037  62.0800726
  71.1954149   7.5612303  56.5273476  71.3691027   6.9958726  55.7747328
  71.6883041   8.3613198  56.3452966  57.0131109  -0.4273028  64.5937035
  56.4684577   0.3486780  64.7257309  57.8910459  -0.0802223  64.4356156
  72.1829322   6.8779068  53.6270374  72.8780226   7.4985760  53.8457689
  72.5252472   6.0274419  53.9022752  57.7997131  -1.3003132  67.4867192
  57.0578867  -1.1520496  68.0731822  57.4789875  -1.0394866  66.6233941
  74.0820745   4.3278773  55.1557705  74.6072069   4.6666046  54.4307025
  73.9943097   3.3925788  54.9720840  65.7440794   8.2412847  67.2847582
  66.0527920   7.9961993  68.1570281  66.5416276   8.4459485  66.7966452
  65.7661406  10.3950756  59.5152958  65.3266396   9.9027135  60.2085815
  66.5169523   9.8523724  59.2745033  58.2453745   6.5862297  59.5177586
  59.0711765   6.2866069  59.1376230  57.8947797   5.8169920  59.9667375
  63.2135278   5.9388765  61.5875260  62.5915287   5.2759470  61.2877488
  63.8840145   5.9649897  60.9048908  56.4462350   4.5048624  60.4766520
  55.6094258   4.0770798  60.2950521  56.4185995   4.6981067  61.4137311
  73.7714651   4.9611677  70.4608903  72.9810195   4.9435816  69.9213402
  73.5348006   5.4999970  71.2157939  62.7748785   4.4892689  55.0633720
  62.9236905   5.1728153  54.4100393  63.5815228   4.4697779  55.5783176
  75.3930723   4.2301085  68.0183653  75.1015531   4.5931065  68.8547114
  74.7802854   3.5168093  67.8396985  60.5301418   0.5157866  56.0694789
  60.2847460  -0.3879804  56.2674999  60.6997332   0.5175017  55.1274267
  66.2744190   6.9840819  52.5345468  65.7018157   7.6031006  52.0815940
  66.8476984   7.5340181  53.0685390  69.4941450   7.2677969  53.6654050
  70.4272123   7.2023531  53.8686926  69.4064663   8.1034236  53.2068583
  72.1229467   6.5843840  50.6257998  72.0443098   6.2503703  51.5193755
  72.9439133   7.0765608  50.6249470  66.5429681   2.3719378  71.3362177
  67.4632691   2.5497977  71.5302224  66.5079264   1.4275423  71.1841876
  55.7611846  -2.4342028  60.2615452  55.4414631  -3.2876720  59.9689826
  55.2145274  -2.2193450  61.0173419  59.5391754   0.2820413  63.9784958
  59.7577764   1.2137521  63.9972992  59.9517528  -0.0771613  64.7639762
  55.6300106   1.1860883  62.2308573  54.9363578   0.7714836  61.7178528
  56.3773097   1.2281420  61.6341992  64.2750889  -0.7149243  72.1852769
  63.7917971   0.0851117  72.3916658  64.3611828  -0.7041298  71.2320213
  57.5436849   1.1179137  60.1074588  57.5207537   1.2166824  59.1556471
  57.8537485   1.9644288  60.4291754  60.2024227   3.1755292  64.2221203
  61.1567480   3.1439234  64.1551134  60.0036750   2.7145916  65.0371429
  60.7923609   1.7456408  66.7892000  61.6116498   2.2400487  66.8126838
  61.0660417   0.8288376  66.7609568  58.5574455   8.7174912  61.2391401
  58.4228923   7.9575312  60.6729399  58.1406518   9.4415811  60.7720189
  69.6933418   3.9011835  50.2467976  70.3969269   4.1061838  50.8625631
  68.9696067   4.4688597  50.5117059  61.7143581   9.6144229  61.4509843
  61.5975965  10.5589661  61.3488533  60.8936028   9.3117790  61.8395642
  71.6020116   4.3394364  52.2966436  72.4365720   3.9075563  52.1143911
  71.4404459   4.1676378  53.2243330  71.2566008   0.8426478  53.6622775
  71.2014812   0.6770749  52.7211219  70.6312063   1.5502511  53.8184965
  56.0458523  -3.9205458  67.4884197  56.6917387  -4.4306504  67.9771423
  55.8375674  -3.1836776  68.0627623  68.5711915   3.1475389  72.9876338
  69.4403075   3.3216042  72.6262973  68.0918667   3.9669806  72.8652067
  62.7398095  10.2672490  64.6665772  63.6425342  10.2996101  64.9832267
  62.5135466   9.3372941  64.6812107  64.4951697   9.0203477  61.3275850
  63.5447328   9.0205339  61.2140223  64.7984184   8.2736212  60.8111885
  80.2304391  14.8564015  62.3921613  80.8682801  14.7370763  61.6884953
  80.1125234  15.8044859  62.4509565  77.0394097  14.8091444  62.3283137
  76.7012609  14.6932508  61.4403672  77.9083865  14.4082609  62.3084144
  72.8980913  16.6626920  58.3180028  72.3345778  16.5716857  57.5496316
  72.7833308  15.8426824  58.7982521  77.5213880  15.9626295  68.2869343
  77.5102521  15.5679094  67.4149847  77.6834520  15.2292368  68.8803114
  70.4445345  18.1578112  61.1564249  71.2366637  17.8168936  60.7410548
  70.6841995  18.2673087  62.0766402  78.4780472  20.3297888  53.6294493
  77.8268451  20.9151968  53.2428507  79.2724834  20.8604083  53.6889531
  72.4036099  17.4187025  54.0281628  73.1766975  16.8716012  53.8894503
  72.7561498  18.2831274  54.2396089  74.2421141  18.7463407  67.2348527
  73.9511007  19.6509038  67.1195193  74.8778126  18.7879935  67.9492596
  75.1677348  16.1240256  63.8249887  75.7640920  15.8996278  63.1106849
  75.2252320  15.3825001  64.4275334  74.7402377  13.5779691  51.6600077
  74.9927897  13.0561212  50.8983540  73.8026936  13.4145836  51.7626761
  79.7845659  12.5815469  59.4674821  80.5708749  12.1634892  59.1165238
  80.0484364  13.4861561  59.6356469  79.9555737  18.0188320  54.1663478
  79.3201570  18.0922946  54.8784382  79.6253143  18.6081918  53.4882557
  85.1854087  12.5190702  60.3707799  85.9179259  11.9489919  60.6045629
  84.4293442  12.1312303  60.8114305  74.4598665  15.4807797  53.8624452
  74.3434923  14.8052700  54.5305537  74.5700925  14.9940171  53.0456605
  76.8030206  14.9417944  57.5671142  76.4388414  14.4148565  58.2784063
  77.6597322  14.5516413  57.3937627  82.7079507   6.2312277  64.8302408
  82.3762832   7.1007688  64.6063623  82.1125120   5.9148561  65.5096438
  76.4435693   9.9707844  52.5632490  76.6110096  10.8388080  52.9302961
  76.2532862  10.1335125  51.6393779  79.2011026  18.4324823  64.2298321
  78.9011750  19.3349861  64.1214128  78.8562086  18.1657006  65.0819473
  72.6523508  14.8838619  60.2635025  71.7274004  14.7514834  60.4712717
  72.9007921  15.6632839  60.7604967  82.6008170  10.9507363  61.9095758
  81.6925048  10.8822771  61.6154519  82.5495766  11.4279308  62.7377583
  76.4224914  12.4265501  53.5479157  76.3024539  12.8722552  54.3864637
  75.7277503  12.7750819  52.9892695  70.0132319  14.5271893  61.0978814
  70.1424700  14.7806372  62.0118226  69.3329770  15.1199601  60.7783469
  74.1831806  25.1969143  57.1969288  74.1055836  26.1476968  57.2757769
  73.5793450  24.8515015  57.8544215  76.6749036  12.3697008  69.8530655
  75.8982370  12.9290928  69.8433520  77.3139599  12.8553791  70.3745525
  84.4669817   9.1523801  63.6873632  83.8244197   9.4456334  63.0413426
  83.9624745   9.0376721  64.4926828  82.1209980  12.8986974  54.3759491
  83.0327836  13.1314361  54.2007189  81.6119627  13.4824019  53.8134570
  74.9295408  15.1782462  69.4148622  75.6710093  15.7167506  69.1383446
  74.2232394  15.8048750  69.5720174  80.4050748  17.3211602  68.0120784
  80.8134104  16.8794013  67.2675416  79.6828009  16.7464230  68.2654977
  76.7581818  12.2584209  65.3854341  77.6043013  12.6823622  65.5288990
  76.6980456  11.6017833  66.0792904  80.7279563  17.8812793  61.7673073
  80.0988425  18.0458507  61.0649140  80.3405225  18.2954402  62.5384037
  84.6068795  18.8167231  59.1217436  83.9219833  19.1966132  58.5714470
  84.6912644  19.4262557  59.8549384  79.9081263   9.9188577  67.0435514
  79.6642195  10.6730638  66.5069790  80.1841194  10.2973925  67.8782761
  81.8619726  16.4627190  65.7212780  82.0736621  17.1058950  65.0447161
  81.8149474  15.6289506  65.2534710  79.4645955   9.0745010  62.6249352
  78.6030434   9.3726264  62.9166090  79.4908390   9.2915409  61.6930385
  76.2807525  17.6187201  59.0323158  76.7445870  17.8974904  58.2427780
  76.0164323  16.7170645  58.8496248  73.1731606  17.1658682  61.9702921
  73.7432963  17.5945951  61.3320405  73.7639717  16.8841267  62.6687107
  75.2176411  13.7410353  55.8412723  75.9200454  14.1931397  56.3086649
  74.8857039  13.0994172  56.4692616  73.6656772  12.3322110  70.2163932
  73.0355433  13.0138391  70.4499329  73.5592860  12.2205191  69.2717070
  68.9601745  11.9993906  61.1429856  68.1700799  12.2551434  60.6669967
  69.4512992  12.8142244  61.2481897  82.9765554  19.3399145  63.8935137
  83.7982998  18.9379332  63.6117819  82.9727957  19.2367379  64.8451253
  70.9116490  12.3638485  58.1013333  70.1147653  12.4757179  58.6196829
  70.6842082  12.7025137  57.2354224  76.7422158  18.8883188  66.0495848
  76.8066590  19.3503596  66.8854020  76.0333081  18.2580553  66.1778158
  67.2439448  12.2524396  63.5744847  67.4947486  13.1371406  63.8402423
  67.7798996  12.0728998  62.8019939  91.0671547  15.6837894  60.2420109
  90.3135256  15.1145292  60.0864113  91.2019088  15.6500558  61.1890743
  76.4570175  20.5551296  55.9174828  76.3215850  21.4002832  56.3459676
  76.9979988  20.7570574  55.1540762  72.9437515   6.6342876  72.5789183
  72.5504460   6.0809074  73.2536827  73.7603655   6.9453454  72.9695701
  69.9099573  18.0726734  56.4902753  70.4224093  18.8669984  56.6408318
  70.5622285  17.3753024  56.4236355  71.7194457  21.1892490  58.5725506
  71.8961086  22.1110455  58.3846490  72.5151291  20.8750909  59.0019886
  75.8605476   8.0500755  70.1709440  76.6015189   8.6507908  70.0913902
  76.0923399   7.3078393  69.6127482  71.0046814  13.2357122  68.4487669
  70.8900329  12.3342379  68.7494768  70.1491332  13.4820819  68.0972486
  78.0838652  21.1774862  70.0475170  77.6402506  20.3911241  69.7296075
  78.7455865  21.3654013  69.3819061  72.8425773  22.7070664  64.5735849
  73.3933198  22.5787727  63.8012843  72.0037249  23.0065553  64.2230741
  80.1819890  21.4577662  68.0756571  80.1638365  22.2786543  67.5836841
  81.1039810  21.3331738  68.3006713  76.6392944  18.9721792  68.9180080
  77.1721281  18.2110080  68.6879388  76.1107025  18.6795444  69.6604234
  79.8062639   4.0781858  64.4473721  79.4626908   4.9683499  64.3712832
  80.1741601   3.8883515  63.5843306  67.8748489  16.4015388  57.2662324
  68.7123711  16.8112397  57.0496031  68.0526757  15.4614830  57.2362517
  79.7712921  14.0690469  52.9546157  79.2559545  14.8395073  53.1934544
  79.4990230  13.3955605  53.5779218  77.3560033   8.9140170  58.0131395
  76.5001629   8.5247020  57.8337034  77.7686984   8.9932130  57.1531180
  78.8859179   6.4486513  62.4122955  78.3823975   6.4116648  61.5990760
  79.1789786   7.3579256  62.4719611  75.1302065   6.5325243  61.4189136
  75.9955062   6.3368051  61.0595026  75.1979574   6.3035594  62.3458493
  84.7447196  16.8222824  54.8899330  83.9676638  16.4833983  54.4454492
  85.4238677  16.8275447  54.2154295  79.5599225  11.9417561  54.7805938
  79.2549360  12.2563710  55.6316081  80.5129667  12.0198981  54.8233271
  78.0045656  18.1007784  56.4298892  77.4767018  17.3660544  56.1172129
  77.5033159  18.8782461  56.1838860  82.9838503  16.2956805  61.5465938
  82.3262177  16.9856066  61.6346067  83.7878902  16.6853237  61.8899924
  72.7364384   8.7627451  58.7905503  73.3108136   8.5402632  58.0578696
  73.3235367   8.8316145  59.5434105  81.7943961  14.6501177  59.5969880
  82.3075843  15.2831169  60.0991590  82.4445185  14.0502373  59.2313240
  73.0633971  10.7931912  52.8101389  72.2271283  11.1306598  53.1310663
  72.9238741  10.6580891  51.8728525  75.0387052   5.6368699  57.5180573
  74.3851464   5.3217717  56.8937187  74.9967526   5.0144440  58.2440396
  76.1498257  15.9187995  49.4333865  75.2425318  15.6877248  49.6325014
  76.6469289  15.1225614  49.6207846  79.0566336  24.6285502  52.3530551
  78.3828034  24.9317198  52.9615509  79.4432158  25.4314582  52.0036008
  78.2724792  12.1250633  61.8428220  77.3547354  12.3465580  61.6849908
  78.6884936  12.1996943  60.9839928  79.0559840  13.5242049  56.9730901
  79.8031659  14.0363446  56.6638023  79.3251429  13.2026101  57.8335294
  77.3286490  16.0200589  53.9557855  76.4197709  15.7359622  54.0530325
  77.3581574  16.4399668  53.0961162  82.5605758  19.6307179  57.7249022
  82.1068085  18.7898089  57.7814213  81.9299724  20.2668577  58.0623803
  81.5038677  10.5599165  58.9549690  80.7661434  10.0476551  59.2859932
  81.7565451  10.1199547  58.1432967  81.0038697  21.4683676  58.6598841
  81.2961671  22.0288733  57.9411206  81.5137317  21.7612237  59.4152000
  67.8974660  13.7406104  57.9373057  67.6999060  13.1475464  57.2124124
  67.3421324  13.4358314  58.6548996  75.8771384  13.6329210  60.0567650
  75.9319994  12.6803046  59.9810127  75.0662586  13.7888649  60.5408949
  77.0262578  17.5609333  51.2945933  76.5882008  16.8445192  50.8351571
  77.7673019  17.7885448  50.7331025  73.8163744  12.2506270  57.8158029
  73.0031610  12.5500440  58.2223221  74.3122738  11.8561959  58.5332511
  75.9672322  22.2464027  59.7492294  75.9248501  22.4724873  58.8200826
  76.8835021  22.0127401  59.8978095  79.4137956  12.7148094  66.6472923
  79.7687343  12.9419567  67.5067389  80.0610087  13.0466471  66.0250178
  85.1435693  15.8366530  57.3522252  85.0053591  16.0268126  56.4243441
  84.7871912  16.5985913  57.8090303  73.3077819   9.8224625  63.4319264
  73.9477198   9.6813384  62.7342227  72.4755349   9.5359139  63.0557866
  85.1705072  17.9043057  62.3633523  85.6041579  17.8118346  63.2116578
  85.8836653  17.8800558  61.7253539  74.0838123  19.1227056  59.5454256
  74.8778721  18.6277376  59.3436831  73.3729815  18.5944919  59.1821962
  78.9032967  21.5045151  63.8966624  78.9569989  22.0736088  64.6644340
  78.0347749  21.6747036  63.5320661  70.3920886  13.2670137  55.6214009
  69.4618474  13.2054593  55.8383971  70.4878358  12.7446090  54.8250650
  70.3106435   9.7924950  58.2092251  70.5713253  10.7070284  58.1001411
  71.1323608   9.3249393  58.3588864  71.7831361  11.2062707  65.3791075
  72.4554414  10.9980070  64.7303724  70.9561147  11.0084793  64.9396308
  86.0320622  17.9466758  64.8966409  86.2256512  18.8512568  65.1425684
  85.9321240  17.4874177  65.7304994  77.6856933   7.8324648  67.3956736
  77.0384848   8.5314598  67.3021213  78.4557948   8.2660792  67.7632984
  81.0935731  18.0973501  70.4707290  80.9421237  17.8684052  69.5537373
  81.0840410  19.0544102  70.4838635  77.8621067  15.6705413  65.4553556
  78.7913127  15.8216573  65.2822523  77.4412097  15.7589434  64.6002202
  76.6609399  19.6956078  63.2252094  76.5220484  19.3274862  64.0978032
  75.8723995  20.2103717  63.0536051  77.2557551  24.7965174  54.5677630
  77.4309306  24.3253217  55.3823253  76.5690339  25.4230940  54.7958891
  78.2114614  19.0737680  60.6140931  77.8764446  19.0338450  61.5098581
  77.7118560  18.4082396  60.1411342  72.1858858  14.4805310  66.1393513
  72.0478656  13.7485549  66.7405052  73.0963781  14.3914211  65.8577700
  81.1473806  16.4193715  50.8877991  80.5302976  15.6940543  50.7911044
  80.6790294  17.1803075  50.5445065  74.8141159  14.1925270  65.6277192
  75.5240777  13.5518462  65.5863811  74.7710467  14.4438165  66.5503373
  82.8027937  21.1292623  68.5483771  82.7440483  20.4451843  67.8814354
  83.2047456  21.8711613  68.0964397  73.5270092  11.1790488  67.4472832
  72.9907449  10.7281226  68.0994428  72.9386801  11.3136396  66.7043296
  71.8218636  27.9454537  61.3417490  72.0615234  28.5773061  62.0196509
  70.9787832  27.5942577  61.6282850  72.9372351  10.6379139  50.0099295
  72.0601818  10.5167940  49.6461542  73.4130105   9.8465217  49.7578184
  82.8045344  19.0932207  66.7797751  81.9172123  18.7558129  66.9024150
  83.3743896  18.3615238  67.0166516  64.4574492  15.4256299  60.1040802
  65.1445531  15.1118029  59.5161818  64.3022620  16.3297663  59.8308054
  69.2609214  10.3146495  64.5325826  69.1767402   9.7072165  63.7976236
  68.4391920  10.8055514  64.5335322  76.3346498  23.7533659  63.7458994
  76.2616669  24.5588631  64.2578299  75.8923891  23.9525625  62.9207016
  76.1236277  22.9905429  57.2561816  75.3403799  23.5327110  57.3500040
  76.8229023  23.5079409  57.6556057  79.4332928   8.8000059  59.8996021
  79.9301627   8.0470021  59.5797091  78.6619909   8.8364376  59.3339231
  87.2862685  14.5040424  61.5414313  87.2752561  15.3865140  61.1708246
  86.4180064  14.1511975  61.3468850  78.7945181  23.6520493  65.9017153
  79.5073154  24.2867958  65.8293054  78.3035210  23.7484359  65.0857155
  80.5162708  17.5571746  57.4734445  79.5818987  17.6773209  57.3039149
  80.6939377  16.6544213  57.2094454  76.0167896  10.9417442  59.6267706
  75.6465684  10.3888482  60.3148611  76.5126989  10.3375575  59.0742706
  83.9035260  13.3989065  58.0084479  84.3695712  14.2317057  57.9344781
  84.3542760  12.9334047  58.7129737  73.8457095  21.4014937  66.7222724
  74.5466554  22.0351420  66.8752118  73.3752210  21.7429668  65.9618363
  81.9711491  19.7432887  55.0070631  82.2471335  19.6289481  55.9164505
  81.1015989  19.3450371  54.9682804  81.8751922   5.7669652  62.0475380
  80.9615002   5.9973879  62.2157587  82.3045024   5.8508096  62.8989412
  81.6458381  13.9559544  64.5475274  80.9929831  14.2035452  63.8927727
  82.0238761  13.1423682  64.2137751  78.6065555  23.9919237  58.6503444
  78.7887949  23.1740893  59.1131197  79.4298541  24.2086930  58.2128334
  78.9407720  22.9187423  55.9118493  79.4695487  22.4079877  55.2988655
  79.2035940  22.6029953  56.7764026  77.6945954  14.6979355  71.0341311
  77.0186591  14.5973485  71.7043686  78.5173588  14.5418569  71.4977308
  69.4424813  20.9351292  63.6553826  70.0278250  20.1894980  63.7881731
  69.2449651  21.2455249  64.5390490  72.2963468  23.9702539  58.6716269
  71.6273843  24.4548667  58.1880309  72.1576338  24.2171760  59.5859647
  64.0342468  13.5056892  62.3758270  64.0726567  12.9720483  63.1695388
  63.5282761  12.9792098  61.7569247  76.4368737  26.0046283  65.2698927
  76.9887045  26.1677904  66.0348012  76.7774930  26.5950721  64.5978952
  71.4133230   8.3521433  65.8720812  71.4774556   9.2136264  65.4598210
  71.3500350   7.7395434  65.1393170  70.8885503  10.4244565  69.5193846
  71.5157541  10.0421642  70.1331370  70.0313421  10.2058767  69.8849539
  81.2879611  20.8307540  71.1247582  81.8319515  21.4437499  70.6302536
  80.7066456  21.3887119  71.6414595  67.6651045  12.2320994  55.4512201
  67.9604486  11.3231673  55.3979255  66.7639081  12.2108734  55.1293203
  79.5737124  23.9528258  62.2562609  79.4488263  23.1517998  61.7473555
  80.2316215  24.4474452  61.7676579  71.1945292  10.3076991  61.4339750
  70.4731878  10.9212959  61.2947223  71.9838548  10.8434756  61.3556395
  81.6372032  21.7537278  63.8842159  80.6902368  21.6342630  63.8120486
  81.9854806  20.8659776  63.9668421  73.9971606   7.6431417  67.7080401
  74.5206008   7.8893714  68.4706711  73.7783939   8.4751452  67.2883539
  69.3938887   9.9135092  55.5751526  69.0651593   9.0332471  55.3926632
  69.7478258   9.8582761  56.4627915  78.6418466  21.5489995  60.0846512
  78.4943428  20.6206702  60.2654082  79.4671959  21.5710085  59.6003587
  72.5080710  10.2008062  55.9427004  72.8476783  10.7293983  55.2205612
  72.9552830  10.5388468  56.7185570  82.2452588  22.3718553  61.1711384
  83.1699135  22.1661415  61.0335836  82.0767891  22.1234955  62.0800726
  75.2024151   8.5845112  65.3930072  74.8620971   7.7852926  65.7950752
  74.4963157   8.8846823  64.8206905  75.8540623   5.6694425  63.8457395
  76.6766692   5.1954903  63.7236285  76.0978686   6.4484909  64.3456081
  74.4948857   8.6982683  54.1420297  75.2157220   9.0763936  53.6384013
  73.8714161   9.4171560  54.2455274  78.6379980   9.4027832  55.0778629
  78.8543594  10.2852470  54.7767457  78.1574047   9.0114046  54.3484271
  73.3779201  12.3613546  61.6549373  73.2323782  12.6753849  62.5473655
  72.9004405  12.9798446  61.1020272  75.2375584   9.3516093  61.7030263
  75.2237153   8.4557187  61.3662561  75.9548012   9.3586757  62.3368549
  77.0901715   9.7853434  63.7483390  76.8319493  10.7070504  63.7467721
  76.5586755   9.3883868  64.4383855  82.0347904  22.8904221  56.5273476
  82.2084781  22.3250643  55.7747328  82.5276795  23.6905116  56.3452966
  67.8524864  14.9018890  64.5937035  67.3078332  15.6778698  64.7257309
  68.7304213  15.2489694  64.4356156  74.6412480   8.2330474  56.9717833
  74.7628391   7.3047120  57.1708721  74.3514523   8.2469160  56.0596149
  77.5103671   5.9185384  60.1084553  77.5325367   5.9824717  59.1536533
  77.9271730   5.0789893  60.3025059  87.8887295  15.6540644  58.1463776
  88.3318441  14.9047969  57.7482899  87.0113805  15.6450780  57.7637508
  83.0223076  22.2070985  53.6270374  83.7173981  22.8277678  53.8457689
  83.3646226  21.3566336  53.9022752  68.6390885  14.0288786  67.4867192
  67.8972621  14.1771422  68.0731822  68.3183630  14.2897052  66.6233941
  84.9214499  19.6570691  55.1557705  85.4465823  19.9957964  54.4307025
  84.8336852  18.7217706  54.9720840  76.5834548  23.5704764  67.2847582
  76.8921675  23.3253911  68.1570281  77.3810030  23.7751403  66.7966452
  76.6055160  25.7242674  59.5152958  76.1660150  25.2319053  60.2085815
  77.3563277  25.1815642  59.2745033  69.0847499  21.9154215  59.5177586
  69.9105519  21.6157987  59.1376230  68.7341551  21.1461837  59.9667375
  74.0529032  21.2680683  61.5875260  73.4309042  20.6051388  61.2877488
  74.7233899  21.2941815  60.9048908  67.2856104  19.8340541  60.4766520
  66.4488012  19.4062716  60.2950521  67.2579750  20.0272985  61.4137311
  74.1253560   9.7462471  71.1807766  74.1741715  10.6224594  70.7985535
  74.6676074   9.2039864  70.6079409  84.6108405  20.2903594  70.4608903
  83.8203949  20.2727733  69.9213402  84.3741760  20.8291888  71.2157939
  84.7306281  17.1396061  67.7741631  84.7804285  16.9746068  68.7157154
  84.6220204  16.2723320  67.3839512  73.6142539  19.8184606  55.0633720
  73.7630660  20.5020071  54.4100393  74.4208983  19.7989697  55.5783176
  82.0210043  13.1226989  69.0900938  82.9219906  12.9833454  68.7984936
  82.0958017  13.2881444  70.0299116  76.3552848  10.4993844  67.9354124
  75.4856158  10.7927410  67.6636713  76.5912329  11.0834289  68.6561388
  86.2324477  19.5593002  68.0183653  85.9409286  19.9222983  68.8547114
  85.6196609  18.8460011  67.8396985  87.4320160  17.1245882  60.5386223
  88.2667051  17.5635686  60.7023784  87.5679288  16.6484535  59.7194469
  84.4811666  14.6825617  66.4863711  84.9565787  14.8753263  65.6782562
  83.5577231  14.7384803  66.2407095  71.3695172  15.8449784  56.0694789
  71.1241214  14.9412114  56.2674999  71.5391087  15.8466935  55.1274267
  79.0591882   6.7173460  65.4519545  79.5773826   7.4534487  65.1266033
  78.7047015   7.0237454  66.2866304  70.6390820  11.5778142  53.5680951
  69.9460065  11.6522497  52.9120987  70.3942572  10.8138485  54.0902468
  77.1137945  22.3132737  52.5345468  76.5411912  22.9322924  52.0815940
  77.6870738  22.8632099  53.0685390  83.1813335  11.5591377  64.7192017
  84.1330757  11.6589475  64.7404241  83.0116785  10.7669646  65.2290101
  81.2027714   8.6446960  64.9051417  80.6077646   8.9251973  64.2097906
  80.9177411   9.1340861  65.6768159  80.3335205  22.5969887  53.6654050
  81.2665878  22.5315449  53.8686926  80.2458417  23.4326154  53.2068583
  82.9623221  21.9135757  50.6257998  82.8836853  21.5795621  51.5193755
  83.7832888  22.4057525  50.6249470  85.6601412  14.7797497  63.8334316
  85.6277732  13.8413497  64.0194000  86.2702036  14.8581533  63.1000141
  77.4984743  13.6493550  49.8761520  78.4443848  13.5199758  49.9449938
  77.1198988  12.9108212  50.3530948  85.8095901  11.5708540  63.8792599
  85.2934949  10.7866997  63.6922528  86.6935849  11.2427257  64.0439119
  83.4706628   5.3149556  59.8388412  83.2731449   5.0064644  60.7231744
  84.0806333   6.0411195  59.9686342  91.4777962  15.8413504  62.9740353
  92.2081351  15.5798792  63.5348056  90.8684908  15.1042225  63.0142421
  89.5593259  13.9821366  63.5714804  88.8326423  13.8477331  62.9631296
  89.1440546  14.2898195  64.3771522  77.3823436  17.7011296  71.3362177
  78.3026445  17.8789895  71.5302224  77.3473019  16.7567341  71.1841876
  75.6827660  11.5743526  49.8116405  74.7759116  11.2776639  49.8879119
  75.9603641  11.2773344  48.9450692  66.6005601  12.8949889  60.2615452
  66.2808385  12.0415198  59.9689826  66.0539029  13.1098468  61.0173419
  70.3785508  15.6112330  63.9784958  70.5971518  16.5429438  63.9972992
  70.7911282  15.2520305  64.7639762  77.2989726   6.1180416  55.9660647
  76.4890454   5.7727501  56.3415893  77.9874143   5.8087959  56.5548258
  79.2280274   5.1958463  57.5884943  79.7811313   5.6153916  58.2474966
  79.4650361   4.2694211  57.6307899  75.2513374  11.1845536  73.3687707
  75.1510101  12.1339893  73.2999798  75.0334916  10.8563775  72.4963777
  74.4526445   8.4330461  49.9528385  75.3145609   8.7585360  50.2124202
  74.6376789   7.6461957  49.4401450  66.4693861  16.5152801  62.2308573
  65.7757332  16.1006754  61.7178528  67.2166852  16.5573337  61.6341992
  82.6059081   7.3058988  57.0963608  82.0257751   7.9643792  56.7141660
  82.3395014   6.4836332  56.6851025  81.0562648   6.7064045  59.2984928
  81.5562426   6.8180580  58.4899247  81.6998256   6.4025098  59.9385736
  75.1144644  14.6142675  72.1852769  74.6311725  15.4143035  72.3916658
  75.2005583  14.6250620  71.2320213  68.3830603  16.4471055  60.1074588
  68.3601291  16.5458742  59.1556471  68.6931240  17.2936206  60.4291754
  71.0417981  18.5047210  64.2221203  71.9961235  18.4731152  64.1551134
  70.8430505  18.0437833  65.0371429  71.6317363  17.0748326  66.7892000
  72.4510252  17.5692404  66.8126838  71.9054171  16.1580294  66.7609568
  81.3883959   9.4659078  56.1519956  80.5009815   9.7508729  55.9340151
  81.8037949   9.3052841  55.3047233  84.7398496   9.4905599  59.8674295
  85.5158886   9.9802052  60.1398912  84.0146630   9.9163653  60.3246165
  87.1771054  10.2033218  60.9248236  87.7715545   9.9628954  60.2141544
  87.2497638   9.4840349  61.5521772  69.3968210  24.0466829  61.2391401
  69.2622678  23.2867230  60.6729399  68.9800272  24.7707729  60.7720189
  80.5327173  19.2303753  50.2467976  81.2363023  19.4353755  50.8625631
  79.8089822  19.7980515  50.5117059  81.3624983  14.9813614  56.3670246
  81.3060185  15.4382165  55.5277878  81.9153326  14.2204299  56.1893089
  85.1729789  10.7703346  57.1920366  84.9166723  10.3699982  58.0228573
  84.5482657  11.4847140  57.0670505  89.4842127  13.5099419  59.6991657
  88.9241685  13.5792608  60.4723219  88.8785630  13.3340404  58.9791153
  72.5537336  24.9436146  61.4509843  72.4369720  25.8881579  61.3488533
  71.7329782  24.6409708  61.8395642  82.4413870  19.6686282  52.2966436
  83.2759474  19.2367480  52.1143911  82.2798213  19.4968296  53.2243330
  82.0959763  16.1718395  53.6622775  82.0408566  16.0062667  52.7211219
  81.4705818  16.8794428  53.8184965  66.8852278  11.4086460  67.4884197
  67.5311141  10.8985414  67.9771423  66.6769429  12.1455141  68.0627623
  79.4105670  18.4767307  72.9876338  80.2796829  18.6507959  72.6262973
  78.9312421  19.2961724  72.8652067  75.4055888   5.6726504  53.2408094
  75.3934558   6.6168344  53.3976364  76.2979310   5.4896650  52.9467555
  73.5791850  25.5964408  64.6665772  74.4819097  25.6288018  64.9832267
  73.3529220  24.6664859  64.6812107  75.3345452  24.3495395  61.3275850
  74.3841083  24.3497256  61.2140223  75.6377938  23.6028129  60.8111885
  71.2249769   8.5554077  71.5859212  72.0881230   8.1990882  71.7962536
  70.6515179   8.2167972  72.2734616  91.0698145  30.1855933  62.3921613
  91.7076555  30.0662680  61.6884953  90.9518988  31.1336777  62.4509565
  87.8787852  30.1383361  62.3283137  87.5406363  30.0224426  61.4403672
  88.7477620  29.7374526  62.3084144  88.3607635  31.2918213  68.2869343
  88.3496276  30.8971011  67.4149847  88.5228274  30.5584286  68.8803114
  85.0814896  34.0755325  67.2348527  84.7904762  34.9800956  67.1195193
  85.7171880  34.1171852  67.9492596  86.0071103  31.4532173  63.8249887
  86.6034675  31.2288196  63.1106849  86.0646074  30.7116919  64.4275334
  96.0247841  27.8482620  60.3707799  96.7573013  27.2781837  60.6045629
  95.2687197  27.4604221  60.8114305  93.5473261  21.5604194  64.8302408
  93.2156586  22.4299605  64.6063623  92.9518875  21.2440478  65.5096438
  90.0404781  33.7616740  64.2298321  89.7405504  34.6641779  64.1214128
  89.6955840  33.4948923  65.0819473  93.4401925  26.2799280  61.9095758
  92.5318802  26.2114689  61.6154519  93.3889521  26.7571225  62.7377583
  80.8526073  29.8563811  61.0978814  80.9818455  30.1098290  62.0118226
  80.1723525  30.4491519  60.7783469  87.5142791  27.6988926  69.8530655
  86.7376125  28.2582846  69.8433520  88.1533354  28.1845709  70.3745525
  95.3063571  24.4815719  63.6873632  94.6637951  24.7748252  63.0413426
  94.8018500  24.3668639  64.4926828  85.7689163  30.5074379  69.4148622
  86.5103847  31.0459423  69.1383446  85.0626148  31.1340668  69.5720174
  91.2444502  32.6503520  68.0120784  91.6527859  32.2085930  67.2675416
  90.5221764  32.0756147  68.2654977  87.5975573  27.5876127  65.3854341
  88.4436768  28.0115540  65.5288990  87.5374210  26.9309751  66.0792904
  90.7475018  25.2480495  67.0435514  90.5035950  26.0022556  66.5069790
  91.0234948  25.6265843  67.8782761  92.7013481  31.7919107  65.7212780
  92.9130376  32.4350867  65.0447161  92.6543229  30.9581424  65.2534710
  90.3039710  24.4036928  62.6249352  89.4424189  24.7018182  62.9166090
  90.3302144  24.6207327  61.6930385  84.0125360  32.4950600  61.9702921
  84.5826717  32.9237868  61.3320405  84.6033472  32.2133185  62.6687107
  84.5050527  27.6614028  70.2163932  83.8749187  28.3430308  70.4499329
  84.3986614  27.5497109  69.2717070  79.7995499  27.3285824  61.1429856
  79.0094553  27.5843352  60.6669967  80.2906746  28.1434161  61.2481897
  93.8159309  34.6691063  63.8935137  94.6376752  34.2671250  63.6117819
  93.8121711  34.5659297  64.8451253  81.7510244  27.6930403  58.1013333
  80.9541408  27.8049097  58.6196829  81.5235837  28.0317055  57.2354224
  87.5815912  34.2175106  66.0495848  87.6460345  34.6795513  66.8854020
  86.8726836  33.5872471  66.1778158  78.0833202  27.5816314  63.5744847
  78.3341240  28.4663324  63.8402423  78.6192750  27.4020916  62.8019939
 101.9065302  31.0129811  60.2420109 101.1529010  30.4437209  60.0864113
 102.0412843  30.9792476  61.1890743  83.7831269  21.9634793  72.5789183
  83.3898215  21.4100992  73.2536827  84.5997410  22.2745372  72.9695701
  86.6999230  23.3792672  70.1709440  87.4408944  23.9799826  70.0913902
  86.9317153  22.6370310  69.6127482  81.8440568  28.5649040  68.4487669
  81.7294083  27.6634297  68.7494768  80.9885086  28.8112737  68.0972486
  88.9232406  36.5066780  70.0475170  88.4796260  35.7203159  69.7296075
  89.5849620  36.6945931  69.3819061  83.6819527  38.0362582  64.5735849
  84.2326952  37.9079645  63.8012843  82.8431003  38.3357471  64.2230741
  91.0213644  36.7869580  68.0756571  91.0032119  37.6078461  67.5836841
  91.9433564  36.6623655  68.3006713  87.4786698  34.3013709  68.9180080
  88.0115035  33.5401998  68.6879388  86.9500779  34.0087361  69.6604234
  90.6456393  19.4073775  64.4473721  90.3020663  20.2975417  64.3712832
  91.0135356  19.2175433  63.5843306  89.7252934  21.7778431  62.4122955
  89.2217729  21.7408566  61.5990760  90.0183540  22.6871173  62.4719611
  85.9695820  21.8617160  61.4189136  86.8348816  21.6659969  61.0595026
  86.0373328  21.6327512  62.3458493  83.5758139  24.0919368  58.7905503
  84.1501890  23.8694550  58.0578696  84.1629121  24.1608063  59.5434105
  85.8780806  20.9660617  57.5180573  85.2245219  20.6509634  56.8937187
  85.8361280  20.3436358  58.2440396  89.1118547  27.4542551  61.8428220
  88.1941108  27.6757498  61.6849908  89.5278690  27.5288861  60.9839928
  92.4444059  18.6667335  59.5491459  92.7502936  17.8064698  59.2617374
  93.1696664  19.2584955  59.3490453  78.7368415  29.0698021  57.9373057
  78.5392815  28.4767382  57.2124124  78.1815079  28.7650231  58.6548996
  90.2531710  28.0440012  66.6472923  90.6081098  28.2711485  67.5067389
  90.9003841  28.3758389  66.0250178  84.1471573  25.1516543  63.4319264
  84.7870953  25.0105302  62.7342227  83.3149104  24.8651056  63.0557866
  89.7426722  36.8337069  63.8966624  89.7963744  37.4028005  64.6644340
  88.8741503  37.0038954  63.5320661  81.1500190  25.1216868  58.2092251
  81.4107007  26.0362201  58.1001411  81.9717362  24.6541311  58.3588864
  82.6225115  26.5354625  65.3791075  83.2948168  26.3271987  64.7303724
  81.7954902  26.3376711  64.9396308  96.8714376  33.2758675  64.8966409
  97.0650266  34.1804486  65.1425684  96.7714995  32.8166095  65.7304994
  88.5250687  23.1616566  67.3956736  87.8778602  23.8606516  67.3021213
  89.2951702  23.5952710  67.7632984  91.9329485  33.4265418  70.4707290
  91.7814991  33.1975970  69.5537373  91.9234164  34.3836020  70.4838635
  88.7014821  30.9997331  65.4553556  89.6306881  31.1508491  65.2822523
  88.2805851  31.0881352  64.6002202  87.5003153  35.0247995  63.2252094
  87.3614239  34.6566780  64.0978032  86.7117749  35.5395635  63.0536051
  83.0252612  29.8097228  66.1393513  82.8872410  29.0777467  66.7405052
  83.9357536  29.7206128  65.8577700  85.6534913  29.5217187  65.6277192
  86.3634532  28.8810380  65.5863811  85.6104221  29.7730082  66.5503373
  93.6421692  36.4584541  68.5483771  93.5834238  35.7743761  67.8814354
  94.0441210  37.2003531  68.0964397  84.3663847  26.5082405  67.4472832
  83.8301204  26.0573144  68.0994428  83.7780555  26.6428314  66.7043296
  82.6612390  43.2746455  61.3417490  82.9008989  43.9064979  62.0196509
  81.8181587  42.9234495  61.6282850  93.6439099  34.4224125  66.7797751
  92.7565878  34.0850046  66.9024150  94.2137650  33.6907156  67.0166516
  75.2968246  30.7548216  60.1040802  75.9839286  30.4409946  59.5161818
  75.1416375  31.6589581  59.8308054  80.1002968  25.6438413  64.5325826
  80.0161157  25.0364083  63.7976236  79.2785675  26.1347431  64.5335322
  87.1740252  39.0825577  63.7458994  87.1010424  39.8880549  64.2578299
  86.7317645  39.2817543  62.9207016  90.2726682  24.1291977  59.8996021
  90.7695382  23.3761939  59.5797091  89.5013664  24.1656293  59.3339231
  98.1256439  29.8332342  61.5414313  98.1146316  30.7157057  61.1708246
  97.2573819  29.4803893  61.3468850  89.6338936  38.9812411  65.9017153
  90.3466908  39.6159876  65.8293054  89.1428964  39.0776277  65.0857155
  84.6850849  36.7306855  66.7222724  85.3860309  37.3643337  66.8752118
  84.2145964  37.0721586  65.9618363  92.7145677  21.0961570  62.0475380
  91.8008757  21.3265797  62.2157587  93.1438778  21.1800014  62.8989412
  92.4852135  29.2851462  64.5475274  91.8323586  29.5327369  63.8927727
  92.8632515  28.4715600  64.2137751  88.5339708  30.0271273  71.0341311
  87.8580345  29.9265402  71.7043686  89.3567342  29.8710487  71.4977308
  80.2818567  36.2643210  63.6553826  80.8672004  35.5186897  63.7881731
  80.0843406  36.5747166  64.5390490  74.8736222  28.8348810  62.3758270
  74.9120322  28.3012400  63.1695388  74.3676515  28.3084015  61.7569247
  87.2762491  41.3338200  65.2698927  87.8280799  41.4969822  66.0348012
  87.6168685  41.9242638  64.5978952  82.2526984  23.6813350  65.8720812
  82.3168311  24.5428181  65.4598210  82.1894105  23.0687352  65.1393170
  81.7279257  25.7536483  69.5193846  82.3551296  25.3713560  70.1331370
  80.8707176  25.5350685  69.8849539  92.1273366  36.1599458  71.1247582
  92.6713270  36.7729416  70.6302536  91.5460210  36.7179036  71.6414595
  78.5044800  27.5612912  55.4512201  78.7998241  26.6523590  55.3979255
  77.6032836  27.5400651  55.1293203  90.4130879  39.2820176  62.2562609
  90.2882018  38.4809916  61.7473555  91.0709970  39.7766369  61.7676579
  82.0339047  25.6368909  61.4339750  81.3125633  26.2504876  61.2947223
  82.8232303  26.1726673  61.3556395  92.4765787  37.0829196  63.8842159
  91.5296122  36.9634547  63.8120486  92.8248560  36.1951694  63.9668421
  84.8365360  22.9723335  67.7080401  85.3599762  23.2185632  68.4706711
  84.6177694  23.8043370  67.2883539  86.0417905  23.9137030  65.3930072
  85.7014726  23.1144843  65.7950752  85.3356912  24.2138741  64.8206905
  86.6934377  20.9986343  63.8457395  87.5160446  20.5246821  63.7236285
  86.9372441  21.7776826  64.3456081  84.2172956  27.6905463  61.6549373
  84.0717537  28.0045766  62.5473655  83.7398160  28.3090364  61.1020272
  86.0769339  24.6808011  61.7030263  86.0630908  23.7849104  61.3662561
  86.7941767  24.6878675  62.3368549  87.9295470  25.1145351  63.7483390
  87.6713247  26.0362422  63.7467721  87.3980510  24.7175786  64.4383855
  78.6918618  30.2310808  64.5937035  78.1472086  31.0070616  64.7257309
  79.5697968  30.5781612  64.4356156  85.4806235  23.5622391  56.9717833
  85.6022146  22.6339038  57.1708721  85.1908277  23.5761077  56.0596149
  88.3497425  21.2477302  60.1084553  88.3719122  21.3116635  59.1536533
  88.7665484  20.4081811  60.3025059  79.4784640  29.3580704  67.4867192
  78.7366376  29.5063339  68.0731822  79.1577384  29.6188969  66.6233941
  87.4228303  38.8996682  67.2847582  87.7315429  38.6545829  68.1570281
  88.2203785  39.1043321  66.7966452  78.1249859  35.1632459  60.4766520
  77.2881767  34.7354633  60.2950521  78.0973504  35.3564902  61.4137311
  84.9647314  25.0754389  71.1807766  85.0135470  25.9516512  70.7985535
  85.5069828  24.5331782  70.6079409  95.4502160  35.6195512  70.4608903
  94.6597704  35.6019651  69.9213402  95.2135515  36.1583806  71.2157939
  95.5700035  32.4687978  67.7741631  95.6198040  32.3037986  68.7157154
  95.4613958  31.6015237  67.3839512  92.8603797  28.4518906  69.0900938
  93.7613660  28.3125371  68.7984936  92.9351772  28.6173361  70.0299116
  87.1946603  25.8285761  67.9354124  86.3249912  26.1219327  67.6636713
  87.4306083  26.4126206  68.6561388  97.0718232  34.8884920  68.0183653
  96.7803040  35.2514901  68.8547114  96.4590363  34.1751928  67.8396985
  95.3205420  30.0117535  66.4863711  95.7959542  30.2045181  65.6782562
  94.3970985  30.0676720  66.2407095  89.8985637  22.0465378  65.4519545
  90.4167580  22.7826405  65.1266033  89.5440769  22.3529371  66.2866304
  90.1498231  18.4665661  60.9720441  90.4299984  17.7988850  61.5980868
  90.9348838  18.6594756  60.4595105  94.0207089  26.8883295  64.7192017
  94.9724512  26.9881392  64.7404241  93.8510539  26.0961563  65.2290101
  92.0421469  23.9738878  64.9051417  91.4471401  24.2543891  64.2097906
  91.7571165  24.4632779  65.6768159  96.4995167  30.1089414  63.8334316
  96.4671487  29.1705415  64.0194000  97.1095791  30.1873451  63.1000141
  96.6489655  26.9000458  63.8792599  96.1328704  26.1158914  63.6922528
  97.5329604  26.5719174  64.0439119  94.3100382  20.6441473  59.8388412
  94.1125203  20.3356562  60.7231744  94.9200088  21.3703112  59.9686342
 102.3171717  31.1705421  62.9740353 103.0475105  30.9090709  63.5348056
 101.7078662  30.4334143  63.0142421 100.3987014  29.3113284  63.5714804
  99.6720177  29.1769249  62.9631296  99.9834301  29.6190112  64.3771522
  88.2217190  33.0303213  71.3362177  89.1420200  33.2081812  71.5302224
  88.1866773  32.0859259  71.1841876  77.4399355  28.2241807  60.2615452
  77.1202140  27.3707115  59.9689826  76.8932783  28.4390385  61.0173419
  81.2179263  30.9404248  63.9784958  81.4365273  31.8721356  63.9972992
  81.6305037  30.5812223  64.7639762  88.1383481  21.4472333  55.9660647
  87.3284209  21.1019418  56.3415893  88.8267898  21.1379877  56.5548258
  90.0674029  20.5250380  57.5884943  90.6205067  20.9445834  58.2474966
  90.3044115  19.5986128  57.6307899  86.0907128  26.5137454  73.3687707
  85.9903855  27.4631811  73.2999798  85.8728670  26.1855693  72.4963777
  77.3087615  31.8444719  62.2308573  76.6151087  31.4298671  61.7178528
  78.0560606  31.8865255  61.6341992  93.4452836  22.6350905  57.0963608
  92.8651505  23.2935709  56.7141660  93.1788769  21.8128250  56.6851025
  91.8956402  22.0355963  59.2984928  92.3956181  22.1472498  58.4899247
  92.5392010  21.7317016  59.9385736  85.9538398  29.9434593  72.1852769
  85.4705480  30.7434953  72.3916658  86.0399337  29.9542538  71.2320213
  79.2224358  31.7762972  60.1074588  79.1995046  31.8750660  59.1556471
  79.5324994  32.6228123  60.4291754  81.8811736  33.8339127  64.2221203
  82.8354989  33.8023070  64.1551134  81.6824259  33.3729751  65.0371429
  82.4711118  32.4040243  66.7892000  83.2904007  32.8984322  66.8126838
  82.7447925  31.4872212  66.7609568  95.5792250  24.8197517  59.8674295
  96.3552640  25.3093969  60.1398912  94.8540384  25.2455571  60.3246165
  98.0164809  25.5325136  60.9248236  98.6109300  25.2920872  60.2141544
  98.0891392  24.8132267  61.5521772  80.2361964  39.3758747  61.2391401
  80.1016432  38.6159148  60.6729399  79.8194027  40.0999647  60.7720189
  96.0123544  26.0995264  57.1920366  95.7560478  25.6991899  58.0228573
  95.3876412  26.8139058  57.0670505 100.3235882  28.8391337  59.6991657
  99.7635439  28.9084526  60.4723219  99.7179385  28.6632321  58.9791153
  83.3931090  40.2728064  61.4509843  83.2763474  41.2173496  61.3488533
  82.5723537  39.9701625  61.8395642  77.7246032  26.7378377  67.4884197
  78.3704896  26.2277331  67.9771423  77.5163183  27.4747059  68.0627623
  90.2499424  33.8059225  72.9876338  91.1190584  33.9799877  72.6262973
  89.7706176  34.6253642  72.8652067  86.2449643  21.0018422  53.2408094
  86.2328312  21.9460262  53.3976364  87.1373064  20.8188567  52.9467555
  84.4185604  40.9256326  64.6665772  85.3212851  40.9579936  64.9832267
  84.1922975  39.9956777  64.6812107  90.0601762  17.5961199  57.4954030
  89.2934158  17.0419685  57.6410713  90.4712467  17.6683067  58.3568182
  82.0643523  23.8845994  71.5859212  82.9274985  23.5282799  71.7962536
  81.4908934  23.5459889  72.2734616 101.9091900  45.5147851  62.3921613
 102.5470310  45.3954598  61.6884953 101.7912743  46.4628695  62.4509565
  98.7181606  45.4675279  62.3283137  98.3800118  45.3516344  61.4403672
  99.5871374  45.0666444  62.3084144  94.5768422  47.3210755  58.3180028
  94.0133287  47.2300692  57.5496316  94.4620817  46.5010660  58.7982521
  99.2001389  46.6210131  68.2869343  99.1890030  46.2262929  67.4149847
  99.3622029  45.8876203  68.8803114  92.1232854  48.8161947  61.1564249
  92.9154146  48.4752772  60.7410548  92.3629504  48.9256922  62.0766402
 100.1567981  50.9881723  53.6294493  99.5055960  51.5735803  53.2428507
 100.9512343  51.5187918  53.6889531  94.0823608  48.0770860  54.0281628
  94.8554484  47.5299847  53.8894503  94.4349007  48.9415109  54.2396089
  95.9208650  49.4047242  67.2348527  95.6298516  50.3092873  67.1195193
  96.5565635  49.4463770  67.9492596  96.8464857  46.7824091  63.8249887
  97.4428429  46.5580113  63.1106849  96.9039829  46.0408836  64.4275334
  96.4189886  44.2363526  51.6600077  96.6715406  43.7145048  50.8983540
  95.4814445  44.0729672  51.7626761 101.4633168  43.2399305  59.4674821
 102.2496258  42.8218728  59.1165238 101.7271873  44.1445397  59.6356469
 101.6343246  48.6772155  54.1663478 100.9989079  48.7506781  54.8784382
 101.3040652  49.2665754  53.4882557 106.8641596  43.1774538  60.3707799
 107.5966768  42.6073755  60.6045629 106.1080951  42.7896138  60.8114305
  96.1386174  46.1391632  53.8624452  96.0222432  45.4636536  54.5305537
  96.2488434  45.6524006  53.0456605  98.4817715  45.6001779  57.5671142
  98.1175923  45.0732400  58.2784063  99.3384831  45.2100248  57.3937627
 104.3867016  36.8896112  64.8302408 104.0550341  37.7591523  64.6063623
 103.7912629  36.5732396  65.5096438 100.8798535  49.0908658  64.2298321
 100.5799259  49.9933697  64.1214128 100.5349595  48.8240841  65.0819473
  94.3311017  45.5422455  60.2635025  93.4061513  45.4098669  60.4712717
  94.5795430  46.3216674  60.7604967 104.2795679  41.6091198  61.9095758
 103.3712557  41.5406607  61.6154519 104.2283275  42.0863143  62.7377583
  98.1012423  43.0849337  53.5479157  97.9812048  43.5306387  54.3864637
  97.4065012  43.4334654  52.9892695  91.6919828  45.1855728  61.0978814
  91.8212209  45.4390207  62.0118226  91.0117279  45.7783436  60.7783469
  95.8619315  55.8552978  57.1969288  95.7843345  56.8060803  57.2757769
  95.2580959  55.5098851  57.8544215  98.3536545  43.0280844  69.8530655
  97.5769879  43.5874764  69.8433520  98.9927108  43.5137627  70.3745525
 106.1457326  39.8107637  63.6873632 105.5031706  40.1040170  63.0413426
 105.6412254  39.6960557  64.4926828 103.7997489  43.5570810  54.3759491
 104.7115345  43.7898196  54.2007189 103.2907136  44.1407854  53.8134570
  96.6082917  45.8366297  69.4148622  97.3497602  46.3751341  69.1383446
  95.9019903  46.4632586  69.5720174  98.4369327  42.9168044  65.3854341
  99.2830522  43.3407458  65.5288990  98.3767965  42.2601669  66.0792904
 102.4067072  48.5396628  61.7673073 101.7775934  48.7042342  61.0649140
 102.0192734  48.9538238  62.5384037 106.2856304  49.4751066  59.1217436
 105.6007342  49.8549967  58.5714470 106.3700153  50.0846393  59.8549384
 101.5868772  40.5772413  67.0435514 101.3429704  41.3314473  66.5069790
 101.8628703  40.9557760  67.8782761 103.5407235  47.1211025  65.7212780
 103.7524130  47.7642785  65.0447161 103.4936983  46.2873342  65.2534710
 101.1433464  39.7328846  62.6249352 100.2817943  40.0310099  62.9166090
 101.1695899  39.9499245  61.6930385  97.9595033  48.2771036  59.0323158
  98.4233379  48.5558739  58.2427780  97.6951832  47.3754481  58.8496248
  94.8519115  47.8242518  61.9702921  95.4220472  48.2529786  61.3320405
  95.4427226  47.5425102  62.6687107  95.3444281  42.9905945  70.2163932
  94.7142942  43.6722226  70.4499329  95.2380369  42.8789027  69.2717070
  90.6389254  42.6577741  61.1429856  89.8488307  42.9135270  60.6669967
  91.1300501  43.4726079  61.2481897 104.6553063  49.9982980  63.8935137
 105.4770507  49.5963168  63.6117819 104.6515466  49.8951215  64.8451253
  98.4209667  49.5467024  66.0495848  98.4854099  50.0087431  66.8854020
  97.7120590  48.9164389  66.1778158  88.9226956  42.9108232  63.5744847
  89.1734995  43.7955242  63.8402423  89.4586505  42.7312833  62.8019939
 112.7459056  46.3421729  60.2420109 111.9922765  45.7729127  60.0864113
 112.8806597  46.3084393  61.1890743  98.1357684  51.2135131  55.9174828
  98.0003359  52.0586667  56.3459676  98.6767497  51.4154409  55.1540762
  94.6225024  37.2926711  72.5789183  94.2291969  36.7392910  73.2536827
  95.4391164  37.6037290  72.9695701  91.5887082  48.7310569  56.4902753
  92.1011602  49.5253820  56.6408318  92.2409794  48.0336860  56.4236355
  93.3981966  51.8476326  58.5725506  93.5748595  52.7694290  58.3846490
  94.1938800  51.5334745  59.0019886  97.5392985  38.7084590  70.1709440
  98.2802698  39.3091743  70.0913902  97.7710908  37.9662228  69.6127482
  92.6834323  43.8940957  68.4487669  92.5687838  42.9926215  68.7494768
  91.8278841  44.1404654  68.0972486  99.7626161  51.8358698  70.0475170
  99.3190015  51.0495076  69.7296075 100.4243374  52.0237848  69.3819061
  94.5213282  53.3654499  64.5735849  95.0720707  53.2371563  63.8012843
  93.6824758  53.6649388  64.2230741 101.8607399  52.1161498  68.0756571
 101.8425874  52.9370379  67.5836841 102.7827319  51.9915573  68.3006713
  98.3180453  49.6305627  68.9180080  98.8508790  48.8693915  68.6879388
  97.7894534  49.3379279  69.6604234 101.4850148  34.7365693  64.4473721
 101.1414417  35.6267335  64.3712832 101.8529110  34.5467351  63.5843306
  89.5535998  47.0599224  57.2662324  90.3911220  47.4696232  57.0496031
  89.7314266  46.1198666  57.2362517 101.4500430  44.7274304  52.9546157
 100.9347054  45.4978909  53.1934544 101.1777739  44.0539440  53.5779218
 100.5646688  37.1070348  62.4122955 100.0611484  37.0700483  61.5990760
 100.8577295  38.0163091  62.4719611 106.4234705  47.4806659  54.8899330
 105.6464147  47.1417818  54.4454492 107.1026186  47.4859282  54.2154295
  99.6833165  48.7591620  56.4298892  99.1554527  48.0244379  56.1172129
  99.1820668  49.5366296  56.1838860 104.6626011  46.9540640  61.5465938
 104.0049686  47.6439902  61.6346067 105.4666411  47.3437072  61.8899924
 103.4731470  45.3085013  59.5969880 103.9863352  45.9415005  60.0991590
 104.1232694  44.7086208  59.2313240  97.8285766  46.5771830  49.4333865
  96.9212827  46.3461083  49.6325014  98.3256798  45.7809449  49.6207846
 100.7353845  55.2869337  52.3530551 100.0615543  55.5901034  52.9615509
 101.1219667  56.0898417  52.0036008  99.9512301  42.7834468  61.8428220
  99.0334863  43.0049415  61.6849908 100.3672445  42.8580779  60.9839928
  99.0073999  46.6784425  53.9557855  98.0985218  46.3943458  54.0530325
  99.0369083  47.0983503  53.0961162 104.2393267  50.2891014  57.7249022
 103.7855594  49.4481924  57.7814213 103.6087233  50.9252413  58.0623803
 103.1826186  41.2183000  58.9549690 102.4448943  40.7060386  59.2859932
 103.4352960  40.7783382  58.1432967 102.6826206  52.1267511  58.6598841
 102.9749180  52.6872568  57.9411206 103.1924826  52.4196072  59.4152000
 103.2837813  33.9959252  59.5491459 103.5896690  33.1356616  59.2617374
 104.0090418  34.5876872  59.3490453  97.5558893  44.2913045  60.0567650
  97.6107503  43.3386882  59.9810127  96.7450095  44.4472484  60.5408949
  98.7050087  48.2193168  51.2945933  98.2669517  47.5029027  50.8351571
  99.4460528  48.4469283  50.7331025  97.6459831  52.9047862  59.7492294
  97.6036010  53.1308708  58.8200826  98.5622530  52.6711237  59.8978095
 101.0925465  43.3731930  66.6472923 101.4474852  43.6003403  67.5067389
 101.7397596  43.7050306  66.0250178 106.8223202  46.4950365  57.3522252
 106.6841100  46.6851961  56.4243441 106.4659420  47.2569748  57.8090303
  94.9865328  40.4808461  63.4319264  95.6264707  40.3397220  62.7342227
  94.1542858  40.1942974  63.0557866 106.8492581  48.5626892  62.3633523
 107.2829088  48.4702182  63.2116578 107.5624162  48.5384393  61.7253539
  95.7625632  49.7810891  59.5454256  96.5566230  49.2861211  59.3436831
  95.0517324  49.2528754  59.1821962 100.5820476  52.1628987  63.8966624
 100.6357498  52.7319923  64.6644340  99.7135258  52.3330872  63.5320661
  93.4618870  41.8646543  65.3791075  94.1341923  41.6563905  64.7303724
  92.6348656  41.6668629  64.9396308 107.7108131  48.6050593  64.8966409
 107.9044021  49.5096404  65.1425684 107.6108749  48.1458012  65.7304994
  99.3644442  38.4908484  67.3956736  98.7172357  39.1898433  67.3021213
 100.1345457  38.9244628  67.7632984 102.7723240  48.7557336  70.4707290
 102.6208746  48.5267888  69.5537373 102.7627919  49.7127937  70.4838635
  99.5408576  46.3289249  65.4553556 100.4700636  46.4800408  65.2822523
  99.1199606  46.4173269  64.6002202  98.3396908  50.3539913  63.2252094
  98.2007993  49.9858697  64.0978032  97.5511504  50.8687552  63.0536051
  98.9345060  55.4549010  54.5677630  99.1096815  54.9837053  55.3823253
  98.2477848  56.0814776  54.7958891  99.8902123  49.7321516  60.6140931
  99.5551955  49.6922286  61.5098581  99.3906069  49.0666232  60.1411342
  93.8646367  45.1389146  66.1393513  93.7266165  44.4069385  66.7405052
  94.7751290  45.0498046  65.8577700 102.8261315  47.0777550  50.8877991
 102.2090485  46.3524378  50.7911044 102.3577803  47.8386910  50.5445065
  96.4928667  44.8509105  65.6277192  97.2028286  44.2102297  65.5863811
  96.4497976  45.1022000  66.5503373 104.4815446  51.7876458  68.5483771
 104.4227992  51.1035679  67.8814354 104.8834965  52.5295448  68.0964397
  95.2057601  41.8374323  67.4472832  94.6694958  41.3865061  68.0994428
  94.6174310  41.9720232  66.7043296 104.4832853  49.7516042  66.7797751
 103.5959632  49.4141964  66.9024150 105.0531404  49.0199074  67.0166516
  86.1362001  46.0840134  60.1040802  86.8233040  45.7701864  59.5161818
  85.9810129  46.9881499  59.8308054  90.9396723  40.9730331  64.5325826
  90.8554911  40.3656000  63.7976236  90.1179429  41.4639349  64.5335322
  98.0134007  54.4117495  63.7458994  97.9404178  55.2172466  64.2578299
  97.5711400  54.6109461  62.9207016  97.8023786  53.6489265  57.2561816
  97.0191308  54.1910945  57.3500040  98.5016532  54.1663244  57.6556057
 108.9650194  45.1624260  61.5414313 108.9540070  46.0448975  61.1708246
 108.0967573  44.8095811  61.3468850 100.4732690  54.3104329  65.9017153
 101.1860663  54.9451794  65.8293054  99.9822719  54.4068195  65.0857155
 102.1950217  48.2155581  57.4734445 101.2606496  48.3357044  57.3039149
 102.3726886  47.3128048  57.2094454 105.5822769  44.0572901  58.0084479
 106.0483221  44.8900892  57.9344781 106.0330269  43.5917882  58.7129737
  95.5244604  52.0598772  66.7222724  96.2254063  52.6935255  66.8752118
  95.0539719  52.4013504  65.9618363 103.6499000  50.4016722  55.0070631
 103.9258844  50.2873317  55.9164505 102.7803498  50.0034207  54.9682804
 103.5539431  36.4253488  62.0475380 102.6402511  36.6557715  62.2157587
 103.9832533  36.5091932  62.8989412 103.3245890  44.6143380  64.5475274
 102.6717340  44.8619287  63.8927727 103.7026270  43.8007518  64.2137751
 100.2853064  54.6503073  58.6503444 100.4675458  53.8324729  59.1131197
 101.1086050  54.8670765  58.2128334 100.6195229  53.5771258  55.9118493
 101.1482996  53.0663713  55.2988655 100.8823449  53.2613788  56.7764026
  99.3733463  45.3563191  71.0341311  98.6974100  45.2557320  71.7043686
 100.1961097  45.2002404  71.4977308  91.1212322  51.5935127  63.6553826
  91.7065759  50.8478815  63.7881731  90.9237160  51.9039084  64.5390490
  93.9750977  54.6286375  58.6716269  93.3061352  55.1132502  58.1880309
  93.8363847  54.8755595  59.5859647  85.7129977  44.1640727  62.3758270
  85.7514076  43.6304318  63.1695388  85.2070270  43.6375933  61.7569247
  98.1156246  56.6630118  65.2698927  98.6674554  56.8261740  66.0348012
  98.4562439  57.2534556  64.5978952  93.0920739  39.0105268  65.8720812
  93.1562065  39.8720099  65.4598210  93.0287859  38.3979270  65.1393170
  92.5673012  41.0828401  69.5193846  93.1945050  40.7005478  70.1331370
  91.7100930  40.8642602  69.8849539 102.9667120  51.4891376  71.1247582
 103.5107024  52.1021334  70.6302536 102.3853965  52.0470954  71.6414595
 101.2524633  54.6112094  62.2562609 101.1275772  53.8101834  61.7473555
 101.9103724  55.1058287  61.7676579  92.8732801  40.9660826  61.4339750
  92.1519387  41.5796794  61.2947223  93.6626057  41.5018591  61.3556395
 103.3159541  52.4121114  63.8842159 102.3689877  52.2926465  63.8120486
 103.6642315  51.5243612  63.9668421  95.6759115  38.3015253  67.7080401
  96.1993517  38.5477549  68.4706711  95.4571448  39.1335288  67.2883539
 100.3205975  52.2073830  60.0846512 100.1730937  51.2790537  60.2654082
 101.1459468  52.2293921  59.6003587 103.9240097  53.0302389  61.1711384
 104.8486644  52.8245250  61.0335836 103.7555400  52.7818790  62.0800726
  96.8811660  39.2428948  65.3930072  96.5408480  38.4436761  65.7950752
  96.1750666  39.5430659  64.8206905  97.5328132  36.3278260  63.8457395
  98.3554201  35.8538738  63.7236285  97.7766195  37.1068744  64.3456081
  95.0566710  43.0197381  61.6549373  94.9111291  43.3337684  62.5473655
  94.5791914  43.6382281  61.1020272  96.9163093  40.0099929  61.7030263
  96.9024662  39.1141022  61.3662561  97.6335521  40.0170593  62.3368549
  98.7689224  40.4437269  63.7483390  98.5107002  41.3654340  63.7467721
  98.2374264  40.0467704  64.4383855 103.7135413  53.5488056  56.5273476
 103.8872290  52.9834479  55.7747328 104.2064304  54.3488951  56.3452966
  89.5312373  45.5602725  64.5937035  88.9865841  46.3362533  64.7257309
  90.4091722  45.9073530  64.4356156 109.5674804  46.3124479  58.1463776
 110.0105950  45.5631804  57.7482899 108.6901314  46.3034615  57.7637508
 104.7010585  52.8654821  53.6270374 105.3961490  53.4861513  53.8457689
 105.0433735  52.0150172  53.9022752  90.3178394  44.6872622  67.4867192
  89.5760130  44.8355257  68.0731822  89.9971139  44.9480887  66.6233941
 106.6002008  50.3154526  55.1557705 107.1253332  50.6541799  54.4307025
 106.5124361  49.3801541  54.9720840  98.2622057  54.2288600  67.2847582
  98.5709184  53.9837747  68.1570281  99.0597539  54.4335238  66.7966452
  98.2842669  56.3826509  59.5152958  97.8447659  55.8902888  60.2085815
  99.0350786  55.8399477  59.2745033  90.7635008  52.5738050  59.5177586
  91.5893028  52.2741822  59.1376230  90.4129060  51.8045673  59.9667375
  95.7316541  51.9264518  61.5875260  95.1096551  51.2635223  61.2877488
  96.4021408  51.9525650  60.9048908  88.9643613  50.4924377  60.4766520
  88.1275521  50.0646551  60.2950521  88.9367259  50.6856820  61.4137311
  95.8041069  40.4046306  71.1807766  95.8529224  41.2808429  70.7985535
  96.3463583  39.8623700  70.6079409 106.2895914  50.9487430  70.4608903
 105.4991458  50.9311569  69.9213402 106.0529269  51.4875723  71.2157939
  95.2930048  50.4768442  55.0633720  95.4418169  51.1603906  54.4100393
  96.0996492  50.4573532  55.5783176 103.6997552  43.7810824  69.0900938
 104.6007415  43.6417289  68.7984936 103.7745526  43.9465279  70.0299116
  98.0340357  41.1577679  67.9354124  97.1643667  41.4511245  67.6636713
  98.2699838  41.7418124  68.6561388 107.9111986  50.2176838  68.0183653
 107.6196795  50.5806818  68.8547114 107.2984118  49.5043846  67.8396985
 109.1107669  47.7829717  60.5386223 109.9454560  48.2219521  60.7023784
 109.2466797  47.3068371  59.7194469 106.1599175  45.3409452  66.4863711
 106.6353296  45.5337099  65.6782562 105.2364740  45.3968638  66.2407095
  93.0482681  46.5033619  56.0694789  92.8028723  45.5995949  56.2674999
  93.2178596  46.5050770  55.1274267 100.7379391  37.3757296  65.4519545
 101.2561335  38.1118323  65.1266033 100.3834524  37.6821289  66.2866304
 100.9891985  33.7957578  60.9720441 101.2693739  33.1280767  61.5980868
 101.7742592  33.9886674  60.4595105  98.7925454  52.9716572  52.5345468
  98.2199421  53.5906759  52.0815940  99.3658247  53.5215934  53.0685390
 104.8600844  42.2175212  64.7192017 105.8118266  42.3173310  64.7404241
 104.6904294  41.4253481  65.2290101 102.8815223  39.3030796  64.9051417
 102.2865155  39.5835808  64.2097906 102.5964920  39.7924696  65.6768159
 102.0122713  53.2553722  53.6654050 102.9453387  53.1899284  53.8686926
 101.9245926  54.0909989  53.2068583 104.6410730  52.5719593  50.6257998
 104.5624362  52.2379456  51.5193755 105.4620397  53.0641361  50.6249470
 107.3388921  45.4381332  63.8334316 107.3065241  44.4997333  64.0194000
 107.9489545  45.5165369  63.1000141 107.4883410  42.2292375  63.8792599
 106.9722458  41.4450832  63.6922528 108.3723358  41.9011092  64.0439119
 105.1494137  35.9733391  59.8388412 104.9518958  35.6648479  60.7231744
 105.7593842  36.6995030  59.9686342 113.1565471  46.4997339  62.9740353
 113.8868860  46.2382627  63.5348056 112.5472417  45.7626061  63.0142421
  88.2793110  43.5533725  60.2615452  87.9595894  42.6999033  59.9689826
  87.7326538  43.7682303  61.0173419  92.0573017  46.2696166  63.9784958
  92.2759027  47.2013274  63.9972992  92.4698791  45.9104140  64.7639762
 100.9067783  35.8542298  57.5884943 101.4598822  36.2737751  58.2474966
 101.1437870  34.9278046  57.6307899  96.9300883  41.8429372  73.3687707
  96.8297610  42.7923729  73.2999798  96.7122425  41.5147610  72.4963777
  88.1481370  47.1736636  62.2308573  87.4544841  46.7590589  61.7178528
  88.8954361  47.2157173  61.6341992 104.2846590  37.9642823  57.0963608
 103.7045260  38.6227627  56.7141660 104.0182523  37.1420168  56.6851025
 102.7350157  37.3647881  59.2984928 103.2349935  37.4764415  58.4899247
 103.3785765  37.0608934  59.9385736  96.7932153  45.2726510  72.1852769
  96.3099234  46.0726871  72.3916658  96.8793092  45.2834455  71.2320213
  90.0618112  47.1054890  60.1074588  90.0388800  47.2042577  59.1556471
  90.3718749  47.9520041  60.4291754  92.7205490  49.1631045  64.2221203
  93.6748744  49.1314987  64.1551134  92.5218014  48.7021669  65.0371429
  93.3104872  47.7332161  66.7892000  94.1297761  48.2276240  66.8126838
  93.5841680  46.8164129  66.7609568 106.4186005  40.1489434  59.8674295
 107.1946395  40.6385887  60.1398912 105.6934139  40.5747489  60.3246165
 108.8558563  40.8617054  60.9248236 109.4503054  40.6212790  60.2141544
 108.9285147  40.1424184  61.5521772  91.0755719  54.7050665  61.2391401
  90.9410187  53.9451065  60.6729399  90.6587781  55.4291564  60.7720189
 102.2114682  49.8887588  50.2467976 102.9150532  50.0937591  50.8625631
 101.4877331  50.4564350  50.5117059 103.0412492  45.6397449  56.3670246
 102.9847694  46.0966001  55.5277878 103.5940835  44.8788134  56.1893089
 106.8517298  41.4287181  57.1920366 106.5954232  41.0283817  58.0228573
 106.2270166  42.1430975  57.0670505 111.1629636  44.1683255  59.6991657
 110.6029194  44.2376444  60.4723219 110.5573139  43.9924239  58.9791153
  94.2324845  55.6019982  61.4509843  94.1157229  56.5465414  61.3488533
  93.4117291  55.2993543  61.8395642 104.1201379  50.3270117  52.2966436
 104.9546983  49.8951316  52.1143911 103.9585722  50.1552131  53.2243330
 103.7747272  46.8302231  53.6622775 103.7196075  46.6646502  52.7211219
 103.1493327  47.5378264  53.8184965  88.5639787  42.0670295  67.4884197
  89.2098650  41.5569249  67.9771423  88.3556938  42.8038977  68.0627623
 101.0893179  49.1351143  72.9876338 101.9584338  49.3091795  72.6262973
 100.6099930  49.9545559  72.8652067  97.0132961  55.0079230  61.3275850
  96.0628592  55.0081092  61.2140223  97.3165447  54.2611965  60.8111885
 100.8995516  32.9253116  57.4954030 100.1327912  32.3711603  57.6410713
 101.3106221  32.9974985  58.3568182  92.9037278  39.2137912  71.5859212
  93.7668739  38.8574717  71.7962536  92.3302688  38.8751807  72.2734616
 112.7485654  60.8439768  62.3921613 113.3864064  60.7246516  61.6884953
 112.6306497  61.7920612  62.4509565 109.5575361  60.7967197  62.3283137
 109.2193872  60.6808261  61.4403672 110.4265129  60.3958362  62.3084144
 105.4162176  62.6502673  58.3180028 104.8527042  62.5592610  57.5496316
 105.3014571  61.8302577  58.7982521 110.0395144  61.9502048  68.2869343
 110.0283784  61.5554847  67.4149847 110.2015783  61.2168121  68.8803114
 102.9626608  64.1453865  61.1564249 103.7547900  63.8044689  60.7410548
 103.2023259  64.2548840  62.0766402 110.9961735  66.3173641  53.6294493
 110.3449715  66.9027721  53.2428507 111.7906098  66.8479836  53.6889531
 104.9217362  63.4062778  54.0281628 105.6948238  62.8591765  53.8894503
 105.2742761  64.2707027  54.2396089 106.7602405  64.7339160  67.2348527
 106.4692271  65.6384791  67.1195193 107.3959389  64.7755688  67.9492596
 107.6858612  62.1116009  63.8249887 108.2822184  61.8872031  63.1106849
 107.7433583  61.3700754  64.4275334 107.2583640  59.5655444  51.6600077
 107.5109161  59.0436965  50.8983540 106.3208199  59.4021589  51.7626761
 112.3026923  58.5691222  59.4674821 113.0890012  58.1510645  59.1165238
 112.5665627  59.4737314  59.6356469 112.4737000  64.0064073  54.1663478
 111.8382833  64.0798699  54.8784382 112.1434407  64.5957671  53.4882557
 117.7035350  58.5066455  60.3707799 118.4360522  57.9365672  60.6045629
 116.9474706  58.1188056  60.8114305 106.9779929  61.4683550  53.8624452
 106.8616187  60.7928453  54.5305537 107.0882189  60.9815924  53.0456605
 109.3211470  60.9293697  57.5671142 108.9569677  60.4024318  58.2784063
 110.1778586  60.5392166  57.3937627 115.2260770  52.2188030  64.8302408
 114.8944095  53.0883441  64.6063623 114.6306384  51.9024314  65.5096438
 108.9616957  55.9583597  52.5632490 109.1291359  56.8263833  52.9302961
 108.7714126  56.1210878  51.6393779 111.7192290  64.4200576  64.2298321
 111.4193013  65.3225614  64.1214128 111.3743349  64.1532759  65.0819473
 105.1704771  60.8714372  60.2635025 104.2455268  60.7390587  60.4712717
 105.4189185  61.6508592  60.7604967 115.1189434  56.9383116  61.9095758
 114.2106311  56.8698524  61.6154519 115.0677030  57.4155061  62.7377583
 108.9406178  58.4141254  53.5479157 108.8205803  58.8598305  54.3864637
 108.2458766  58.7626572  52.9892695 102.5313582  60.5147646  61.0978814
 102.6605964  60.7682125  62.0118226 101.8511034  61.1075354  60.7783469
 106.7013070  71.1844896  57.1969288 106.6237099  72.1352721  57.2757769
 106.0974713  70.8390768  57.8544215 109.1930300  58.3572761  69.8530655
 108.4163634  58.9166682  69.8433520 109.8320863  58.8429544  70.3745525
 116.9851080  55.1399554  63.6873632 116.3425460  55.4332087  63.0413426
 116.4806009  55.0252475  64.4926828 114.6391244  58.8862727  54.3759491
 115.5509100  59.1190114  54.2007189 114.1300891  59.4699772  53.8134570
 107.4476672  61.1658215  69.4148622 108.1891356  61.7043259  69.1383446
 106.7413657  61.7924503  69.5720174 112.9232011  63.3087355  68.0120784
 113.3315367  62.8669766  67.2675416 112.2009273  62.7339983  68.2654977
 109.2763082  58.2459962  65.3854341 110.1224277  58.6699376  65.5288990
 109.2161719  57.5893586  66.0792904 113.2460826  63.8688546  61.7673073
 112.6169689  64.0334260  61.0649140 112.8586488  64.2830155  62.5384037
 117.1250058  64.8042984  59.1217436 116.4401096  65.1841885  58.5714470
 117.2093907  65.4138310  59.8549384 112.4262527  55.9064330  67.0435514
 112.1823459  56.6606391  66.5069790 112.7022457  56.2849678  67.8782761
 114.3800990  62.4502943  65.7212780 114.5917885  63.0934703  65.0447161
 114.3330738  61.6165259  65.2534710 111.9827219  55.0620763  62.6249352
 111.1211698  55.3602017  62.9166090 112.0089653  55.2791162  61.6930385
 108.7988788  63.6062954  59.0323158 109.2627134  63.8850657  58.2427780
 108.5345586  62.7046398  58.8496248 105.6912869  63.1534435  61.9702921
 106.2614226  63.5821704  61.3320405 106.2820981  62.8717020  62.6687107
 107.7357674  59.7286106  55.8412723 108.4381717  60.1807150  56.3086649
 107.4038303  59.0869925  56.4692616 106.1838036  58.3197863  70.2163932
 105.5536696  59.0014144  70.4499329 106.0774123  58.2080945  69.2717070
 101.4783008  57.9869659  61.1429856 100.6882062  58.2427187  60.6669967
 101.9694255  58.8017997  61.2481897 115.4946818  65.3274898  63.8935137
 116.3164261  64.9255085  63.6117819 115.4909220  65.2243132  64.8451253
 103.4297753  58.3514238  58.1013333 102.6328917  58.4632932  58.6196829
 103.2023346  58.6900890  57.2354224 109.2603421  64.8758941  66.0495848
 109.3247854  65.3379349  66.8854020 108.5514345  64.2456306  66.1778158
  99.7620711  58.2400149  63.5744847 100.0128749  59.1247159  63.8402423
 100.2980259  58.0604751  62.8019939 108.9751439  66.5427049  55.9174828
 108.8397113  67.3878585  56.3459676 109.5161251  66.7446327  55.1540762
 105.4618778  52.6218629  72.5789183 105.0685724  52.0684827  73.2536827
 106.2784919  52.9329207  72.9695701 102.4280836  64.0602487  56.4902753
 102.9405357  64.8545737  56.6408318 103.0803549  63.3628777  56.4236355
 104.2375721  67.1768243  58.5725506 104.4142349  68.0986208  58.3846490
 105.0332554  66.8626662  59.0019886 108.3786739  54.0376508  70.1709440
 109.1196453  54.6383661  70.0913902 108.6104662  53.2954146  69.6127482
 103.5228077  59.2232875  68.4487669 103.4081592  58.3218132  68.7494768
 102.6672595  59.4696572  68.0972486 110.6019915  67.1650615  70.0475170
 110.1583769  66.3786994  69.7296075 111.2637129  67.3529766  69.3819061
 105.3607036  68.6946417  64.5735849 105.9114461  68.5663480  63.8012843
 104.5218512  68.9941306  64.2230741 112.7001153  67.4453415  68.0756571
 112.6819628  68.2662296  67.5836841 113.6221073  67.3207491  68.3006713
 109.1574207  64.9597545  68.9180080 109.6902544  64.1985833  68.6879388
 108.6288288  64.6671197  69.6604234 112.3243902  50.0657611  64.4473721
 111.9808172  50.9559252  64.3712832 112.6922865  49.8759268  63.5843306
 100.3929753  62.3891141  57.2662324 101.2304975  62.7988150  57.0496031
 100.5708021  61.4490583  57.2362517 112.2894185  60.0566222  52.9546157
 111.7740808  60.8270827  53.1934544 112.0171493  59.3831358  53.5779218
 109.8741296  54.9015923  58.0131395 109.0182892  54.5122773  57.8337034
 110.2868248  54.9807883  57.1531180 111.4040443  52.4362266  62.4122955
 110.9005238  52.3992401  61.5990760 111.6971049  53.3455009  62.4719611
 107.6483328  52.5200996  61.4189136 108.5136325  52.3243804  61.0595026
 107.7160837  52.2911347  62.3458493 117.2628459  62.8098577  54.8899330
 116.4857902  62.4709736  54.4454492 117.9419940  62.8151200  54.2154295
 112.0780488  57.9293314  54.7805938 111.7730624  58.2439463  55.6316081
 113.0310930  58.0074734  54.8233271 110.5226920  64.0883537  56.4298892
 109.9948282  63.3536297  56.1172129 110.0214423  64.8658214  56.1838860
 115.5019766  62.2832558  61.5465938 114.8443440  62.9731819  61.6346067
 116.3060165  62.6728990  61.8899924 105.2545648  54.7503204  58.7905503
 105.8289399  54.5278385  58.0578696 105.8416630  54.8191898  59.5434105
 114.3125225  60.6376930  59.5969880 114.8257107  61.2706922  60.0991590
 114.9626449  60.0378126  59.2313240 105.5815235  56.7807665  52.8101389
 104.7452547  57.1182351  53.1310663 105.4420004  56.6456644  51.8728525
 107.5568315  51.6244452  57.5180573 106.9032728  51.3093470  56.8937187
 107.5148789  51.0020193  58.2440396 108.6679520  61.9063748  49.4333865
 107.7606582  61.6753001  49.6325014 109.1650552  61.1101367  49.6207846
 111.5747599  70.6161255  52.3530551 110.9009298  70.9192952  52.9615509
 111.9613421  71.4190335  52.0036008 110.7906056  58.1126386  61.8428220
 109.8728617  58.3341333  61.6849908 111.2066199  58.1872697  60.9839928
 111.5741103  59.5117802  56.9730901 112.3212922  60.0239199  56.6638023
 111.8432693  59.1901854  57.8335294 109.8467754  62.0076342  53.9557855
 108.9378973  61.7235375  54.0530325 109.8762837  62.4275421  53.0961162
 115.0787021  65.6182932  57.7249022 114.6249348  64.7773842  57.7814213
 114.4480988  66.2544330  58.0623803 114.0219941  56.5474918  58.9549690
 113.2842697  56.0352304  59.2859932 114.2746714  56.1075300  58.1432967
 113.5219960  67.4559429  58.6598841 113.8142935  68.0164486  57.9411206
 114.0318581  67.7487990  59.4152000 114.1231568  49.3251170  59.5491459
 114.4290445  48.4648533  59.2617374 114.8484173  49.9168790  59.3490453
 100.4155924  59.7281857  57.9373057 100.2180324  59.1351217  57.2124124
  99.8602588  59.4234067  58.6548996 108.3952648  59.6204963  60.0567650
 108.4501257  58.6678799  59.9810127 107.5843850  59.7764402  60.5408949
 109.5443841  63.5485086  51.2945933 109.1063271  62.8320945  50.8351571
 110.2854282  63.7761201  50.7331025 106.3345008  58.2382023  57.8158029
 105.5212873  58.5376193  58.2223221 106.8304002  57.8437712  58.5332511
 108.4853585  68.2339780  59.7492294 108.4429764  68.4600626  58.8200826
 109.4016284  68.0003154  59.8978095 111.9319219  58.7023847  66.6472923
 112.2868607  58.9295320  67.5067389 112.5791350  59.0342224  66.0250178
 117.6616956  61.8242283  57.3522252 117.5234855  62.0143879  56.4243441
 117.3053175  62.5861666  57.8090303 105.8259082  55.8100378  63.4319264
 106.4658462  55.6689137  62.7342227 104.9936613  55.5234892  63.0557866
 117.6886336  63.8918810  62.3633523 118.1222842  63.7994099  63.2116578
 118.4017916  63.8676311  61.7253539 106.6019386  65.1102809  59.5454256
 107.3959985  64.6153129  59.3436831 105.8911079  64.5820672  59.1821962
 111.4214231  67.4920904  63.8966624 111.4751253  68.0611841  64.6644340
 110.5529012  67.6622789  63.5320661 102.9102150  59.2545890  55.6214009
 101.9799738  59.1930346  55.8383971 103.0059622  58.7321843  54.8250650
 102.8287699  55.7800703  58.2092251 103.0894516  56.6946037  58.1001411
 103.6504871  55.3125146  58.3588864 104.3012624  57.1938460  65.3791075
 104.9735677  56.9855823  64.7303724 103.4742411  56.9960546  64.9396308
 118.5501885  63.9342511  64.8966409 118.7437775  64.8388321  65.1425684
 118.4502503  63.4749930  65.7304994 110.2038196  53.8200401  67.3956736
 109.5566111  54.5190351  67.3021213 110.9739211  54.2536545  67.7632984
 113.6116994  64.0849254  70.4707290 113.4602500  63.8559805  69.5537373
 113.6021673  65.0419855  70.4838635 110.3802330  61.6581166  65.4553556
 111.3094390  61.8092326  65.2822523 109.9593360  61.7465187  64.6002202
 109.1790662  65.6831831  63.2252094 109.0401748  65.3150615  64.0978032
 108.3905258  66.1979470  63.0536051 109.7738814  70.7840927  54.5677630
 109.9490570  70.3128970  55.3823253 109.0871602  71.4106693  54.7958891
 110.7295877  65.0613433  60.6140931 110.3945710  65.0214203  61.5098581
 110.2299823  64.3958149  60.1411342 104.7040121  60.4681063  66.1393513
 104.5659919  59.7361302  66.7405052 105.6145045  60.3789964  65.8577700
 113.6655069  62.4069468  50.8877991 113.0484240  61.6816296  50.7911044
 113.1971557  63.1678828  50.5445065 107.3322422  60.1801023  65.6277192
 108.0422041  59.5394215  65.5863811 107.2891730  60.4313918  66.5503373
 115.3209201  67.1168376  68.5483771 115.2621747  66.4327596  67.8814354
 115.7228719  67.8587366  68.0964397 106.0451356  57.1666241  67.4472832
 105.5088713  56.7156979  68.0994428 105.4568064  57.3012149  66.7043296
 104.3399899  73.9330290  61.3417490 104.5796498  74.5648814  62.0196509
 103.4969096  73.5818330  61.6282850 105.4553615  56.6254892  50.0099295
 104.5783081  56.5043693  49.6461542 105.9311368  55.8340970  49.7578184
 115.3226608  65.0807960  66.7797751 114.4353387  64.7433882  66.9024150
 115.8925159  64.3490991  67.0166516  96.9755755  61.4132052  60.1040802
  97.6626795  61.0993782  59.5161818  96.8203884  62.3173416  59.8308054
 101.7790477  56.3022248  64.5325826 101.6948666  55.6947918  63.7976236
 100.9573184  56.7931267  64.5335322 108.8527761  69.7409412  63.7458994
 108.7797933  70.5464384  64.2578299 108.4105154  69.9401378  62.9207016
 108.6417541  68.9781182  57.2561816 107.8585063  69.5202863  57.3500040
 109.3410286  69.4955162  57.6556057 111.9514191  54.7875812  59.8996021
 112.4482891  54.0345774  59.5797091 111.1801173  54.8240129  59.3339231
 119.8043948  60.4916177  61.5414313 119.7933825  61.3740893  61.1708246
 118.9361328  60.1387728  61.3468850 111.3126445  69.6396246  65.9017153
 112.0254417  70.2743711  65.8293054 110.8216473  69.7360112  65.0857155
 113.0343972  63.5447499  57.4734445 112.1000250  63.6648962  57.3039149
 113.2120640  62.6419966  57.2094454 108.5349160  56.9293195  59.6267706
 108.1646947  56.3764235  60.3148611 109.0308252  56.3251328  59.0742706
 116.4216523  59.3864818  58.0084479 116.8876975  60.2192810  57.9344781
 116.8724024  58.9209800  58.7129737 106.3638358  67.3890690  66.7222724
 107.0647818  68.0227173  66.8752118 105.8933473  67.7305421  65.9618363
 114.4892754  65.7308640  55.0070631 114.7652598  65.6165234  55.9164505
 113.6197253  65.3326125  54.9682804 114.3933186  51.7545405  62.0475380
 113.4796266  51.9849632  62.2157587 114.8226287  51.8383849  62.8989412
 114.1639644  59.9435297  64.5475274 113.5111095  60.1911205  63.8927727
 114.5420024  59.1299436  64.2137751 111.1246818  69.9794991  58.6503444
 111.3069213  69.1616646  59.1131197 111.9479804  70.1962683  58.2128334
 111.4588984  68.9063176  55.9118493 111.9876750  68.3955630  55.2988655
 111.7217203  68.5905706  56.7764026 110.2127217  60.6855108  71.0341311
 109.5367854  60.5849238  71.7043686 111.0354851  60.5294322  71.4977308
 101.9606076  66.9227045  63.6553826 102.5459513  66.1770733  63.7881731
 101.7630915  67.2331002  64.5390490 104.8144732  69.9578292  58.6716269
 104.1455107  70.4424420  58.1880309 104.6757601  70.2047513  59.5859647
  96.5523731  59.4932645  62.3758270  96.5907831  58.9596236  63.1695388
  96.0464024  58.9667851  61.7569247 108.9550000  71.9922036  65.2698927
 109.5068308  72.1553657  66.0348012 109.2956194  72.5826474  64.5978952
 103.9314493  54.3397186  65.8720812 103.9955820  55.2012017  65.4598210
 103.8681614  53.7271187  65.1393170 103.4066766  56.4120318  69.5193846
 104.0338805  56.0297396  70.1331370 102.5494685  56.1934520  69.8849539
 113.8060875  66.8183293  71.1247582 114.3500779  67.4313252  70.6302536
 113.2247719  67.3762872  71.6414595 100.1832309  58.2196747  55.4512201
 100.4785750  57.3107426  55.3979255  99.2820345  58.1984487  55.1293203
 112.0918388  69.9404011  62.2562609 111.9669527  69.1393751  61.7473555
 112.7497479  70.4350205  61.7676579 103.7126556  56.2952744  61.4339750
 102.9913142  56.9088712  61.2947223 104.5019812  56.8310509  61.3556395
 114.1553296  67.7413031  63.8842159 113.2083631  67.6218383  63.8120486
 114.5036069  66.8535529  63.9668421 106.5152869  53.6307170  67.7080401
 107.0387271  53.8769467  68.4706711 106.2965203  54.4627205  67.2883539
 101.9120150  55.9010845  55.5751526 101.5832856  55.0208224  55.3926632
 102.2659521  55.8458514  56.4627915 111.1599729  67.5365748  60.0846512
 111.0124692  66.6082455  60.2654082 111.9853223  67.5585838  59.6003587
 105.0261973  56.1883815  55.9427004 105.3658046  56.7169736  55.2205612
 105.4734094  56.5264221  56.7185570 114.7633851  68.3594306  61.1711384
 115.6880399  68.1537168  61.0335836 114.5949154  68.1110708  62.0800726
 107.7205414  54.5720865  65.3930072 107.3802235  53.7728679  65.7950752
 107.0144421  54.8722576  64.8206905 108.3721886  51.6570178  63.8457395
 109.1947955  51.1830656  63.7236285 108.6159950  52.4360662  64.3456081
 107.0130121  54.6858436  54.1420297 107.7338483  55.0639689  53.6384013
 106.3895425  55.4047313  54.2455274 111.1561244  55.3903585  55.0778629
 111.3724858  56.2728223  54.7767457 110.6755311  54.9989799  54.3484271
 105.8960465  58.3489299  61.6549373 105.7505046  58.6629602  62.5473655
 105.4185669  58.9674199  61.1020272 107.7556848  55.3391847  61.7030263
 107.7418417  54.4432940  61.3662561 108.4729276  55.3462510  62.3368549
 109.6082978  55.7729187  63.7483390 109.3500756  56.6946257  63.7467721
 109.0768019  55.3759621  64.4383855 114.5529167  68.8779974  56.5273476
 114.7266045  68.3126396  55.7747328 115.0458058  69.6780869  56.3452966
 100.3706127  60.8894643  64.5937035  99.8259595  61.6654451  64.7257309
 101.2485477  61.2365447  64.4356156 107.1593744  54.2206227  56.9717833
 107.2809655  53.2922873  57.1708721 106.8695786  54.2344913  56.0596149
 110.0284934  51.9061137  60.1084553 110.0506631  51.9700470  59.1536533
 110.4452993  51.0665646  60.3025059 120.4068558  61.6416397  58.1463776
 120.8499704  60.8923722  57.7482899 119.5295069  61.6326533  57.7637508
 115.5404340  68.1946738  53.6270374 116.2355244  68.8153431  53.8457689
 115.8827490  67.3442089  53.9022752 101.1572149  60.0164539  67.4867192
 100.4153885  60.1647175  68.0731822 100.8364893  60.2772805  66.6233941
 117.4395763  65.6446444  55.1557705 117.9647087  65.9833717  54.4307025
 117.3518115  64.7093459  54.9720840 109.1015812  69.5580517  67.2847582
 109.4102938  69.3129664  68.1570281 109.8991294  69.7627156  66.7966452
 109.1236424  71.7118427  59.5152958 108.6841414  71.2194806  60.2085815
 109.8744541  71.1691395  59.2745033 101.6028763  67.9029968  59.5177586
 102.4286783  67.6033740  59.1376230 101.2522815  67.1337590  59.9667375
 106.5710296  67.2556436  61.5875260 105.9490305  66.5927141  61.2877488
 107.2415163  67.2817568  60.9048908  99.8037368  65.8216294  60.4766520
  98.9669276  65.3938469  60.2950521  99.7761013  66.0148738  61.4137311
 106.6434823  55.7338224  71.1807766 106.6922979  56.6100347  70.7985535
 107.1857337  55.1915617  70.6079409 117.1289669  66.2779347  70.4608903
 116.3385213  66.2603486  69.9213402 116.8923024  66.8167641  71.2157939
 117.2487544  63.1271814  67.7741631 117.2985549  62.9621821  68.7157154
 117.1401467  62.2599073  67.3839512 106.1323803  65.8060359  55.0633720
 106.2811923  66.4895824  54.4100393 106.9390246  65.7865450  55.5783176
 114.5391306  59.1102742  69.0900938 115.4401169  58.9709207  68.7984936
 114.6139281  59.2757197  70.0299116 108.8734112  56.4869597  67.9354124
 108.0037421  56.7803163  67.6636713 109.1093592  57.0710042  68.6561388
 118.7505741  65.5468755  68.0183653 118.4590549  65.9098736  68.8547114
 118.1377872  64.8335764  67.8396985 119.9501423  63.1121635  60.5386223
 120.7848315  63.5511439  60.7023784 120.0860552  62.6360288  59.7194469
 116.9992929  60.6701370  66.4863711 117.4747051  60.8629016  65.6782562
 116.0758494  60.7260556  66.2407095 103.8876436  61.8325537  56.0694789
 103.6422478  60.9287867  56.2674999 104.0572350  61.8342688  55.1274267
 111.5773146  52.7049214  65.4519545 112.0955089  53.4410240  65.1266033
 111.2228278  53.0113207  66.2866304 103.1572083  57.5653895  53.5680951
 102.4641328  57.6398250  52.9120987 102.9123835  56.8014238  54.0902468
 111.8285740  49.1249496  60.9720441 112.1087493  48.4572685  61.5980868
 112.6136347  49.3178592  60.4595105 109.6319208  68.3008490  52.5345468
 109.0593175  68.9198677  52.0815940 110.2052002  68.8507852  53.0685390
 115.6994598  57.5467130  64.7192017 116.6512021  57.6465228  64.7404241
 115.5298048  56.7545399  65.2290101 113.7208978  54.6322713  64.9051417
 113.1258910  54.9127726  64.2097906 113.4358674  55.1216614  65.6768159
 112.8516468  68.5845640  53.6654050 113.7847141  68.5191202  53.8686926
 112.7639681  69.4201907  53.2068583 115.4804485  67.9011510  50.6257998
 115.4018116  67.5671374  51.5193755 116.3014151  68.3933278  50.6249470
 118.1782676  60.7673250  63.8334316 118.1458996  59.8289250  64.0194000
 118.7883299  60.8457286  63.1000141 110.0166007  59.6369303  49.8761520
 110.9625111  59.5075511  49.9449938 109.6380252  58.8983965  50.3530948
 118.3277164  57.5584293  63.8792599 117.8116213  56.7742750  63.6922528
 119.2117113  57.2303010  64.0439119 115.9887891  51.3025309  59.8388412
 115.7912712  50.9940397  60.7231744 116.5987597  52.0286948  59.9686342
 109.9004699  63.6887049  71.3362177 110.8207709  63.8665648  71.5302224
 109.8654282  62.7443094  71.1841876 108.2008924  57.5619279  49.8116405
 107.2940379  57.2652392  49.8879119 108.4784905  57.2649097  48.9450692
  99.1186864  58.8825642  60.2615452  98.7989649  58.0290951  59.9689826
  98.5720292  59.0974221  61.0173419 102.8966772  61.5988083  63.9784958
 103.1152782  62.5305191  63.9972992 103.3092546  61.2396058  64.7639762
 109.8170990  52.1056169  55.9660647 109.0071718  51.7603254  56.3415893
 110.5055407  51.7963713  56.5548258 111.7461538  51.1834216  57.5884943
 112.2992576  51.6029669  58.2474966 111.9831624  50.2569964  57.6307899
 107.7694637  57.1721289  73.3687707 107.6691364  58.1215646  73.2999798
 107.5516179  56.8439528  72.4963777 106.9707708  54.4206214  49.9528385
 107.8326872  54.7461113  50.2124202 107.1558053  53.6337710  49.4401450
  98.9875124  62.5028554  62.2308573  98.2938596  62.0882507  61.7178528
  99.7348115  62.5449090  61.6341992 115.1240345  53.2934741  57.0963608
 114.5439014  53.9519545  56.7141660 114.8576278  52.4712085  56.6851025
 113.5743911  52.6939798  59.2984928 114.0743690  52.8056333  58.4899247
 114.2179519  52.3900851  59.9385736 107.6325907  60.6018428  72.1852769
 107.1492989  61.4018788  72.3916658 107.7186846  60.6126373  71.2320213
 100.9011867  62.4346808  60.1074588 100.8782555  62.5334495  59.1556471
 101.2112503  63.2811959  60.4291754 103.5599245  64.4922963  64.2221203
 104.5142498  64.4606905  64.1551134 103.3611768  64.0313587  65.0371429
 104.1498627  63.0624079  66.7892000 104.9691516  63.5568158  66.8126838
 104.4235434  62.1456047  66.7609568 113.9065223  55.4534831  56.1519956
 113.0191078  55.7384482  55.9340151 114.3219212  55.2928595  55.3047233
 117.2579759  55.4781352  59.8674295 118.0340149  55.9677805  60.1398912
 116.5327893  55.9039406  60.3246165 119.6952318  56.1908971  60.9248236
 120.2896809  55.9504707  60.2141544 119.7678901  55.4716102  61.5521772
 101.9149473  70.0342582  61.2391401 101.7803941  69.2742983  60.6729399
 101.4981536  70.7583482  60.7720189 113.0508436  65.2179506  50.2467976
 113.7544287  65.4229508  50.8625631 112.3271085  65.7856268  50.5117059
 113.8806247  60.9689367  56.3670246 113.8241448  61.4257919  55.5277878
 114.4334589  60.2080052  56.1893089 117.6911053  56.7579099  57.1920366
 117.4347987  56.3575735  58.0228573 117.0663921  57.4722893  57.0670505
 105.0718599  70.9311899  61.4509843 104.9550983  71.8757332  61.3488533
 104.2511046  70.6285461  61.8395642 114.9595134  65.6562035  52.2966436
 115.7940738  65.2243233  52.1143911 114.7979477  65.4844049  53.2243330
 114.6141026  62.1594148  53.6622775 114.5589830  61.9938420  52.7211219
 113.9887081  62.8670181  53.8184965  99.4033541  57.3962213  67.4884197
 100.0492405  56.8861167  67.9771423  99.1950692  58.1330894  68.0627623
 111.9286933  64.4643060  72.9876338 112.7978093  64.6383712  72.6262973
 111.4493685  65.2837477  72.8652067 107.9237151  51.6602257  53.2408094
 107.9115821  52.6044097  53.3976364 108.8160573  51.4772403  52.9467555
 106.0973113  71.5840161  64.6665772 107.0000360  71.6163771  64.9832267
 105.8710483  70.6540612  64.6812107 107.8526715  70.3371148  61.3275850
 106.9022346  70.3373009  61.2140223 108.1559202  69.5903882  60.8111885
 111.7389271  48.2545034  57.4954030 110.9721667  47.7003521  57.6410713
 112.1499976  48.3266903  58.3568182 103.7431032  54.5429830  71.5859212
 104.6062494  54.1866635  71.7962536 103.1696443  54.2043725  72.2734616
 120.3969115  76.1259114  62.3283137 120.0587627  76.0100179  61.4403672
 121.2658883  75.7250279  62.3084144 116.2555931  77.9794591  58.3180028
 115.6920796  77.8884528  57.5496316 116.1408326  77.1594495  58.7982521
 120.8788898  77.2793966  68.2869343 120.8677539  76.8846764  67.4149847
 121.0409538  76.5460039  68.8803114 113.8020363  79.4745782  61.1564249
 114.5941655  79.1336607  60.7410548 114.0417013  79.5840757  62.0766402
 115.7611117  78.7354695  54.0281628 116.5341993  78.1883683  53.8894503
 116.1136516  79.5998945  54.2396089 117.5996159  80.0631078  67.2348527
 117.3086025  80.9676709  67.1195193 118.2353144  80.1047605  67.9492596
 118.5252366  77.4407926  63.8249887 119.1215938  77.2163949  63.1106849
 118.5827338  76.6992672  64.4275334 118.0977395  74.8947362  51.6600077
 118.3502915  74.3728883  50.8983540 117.1601954  74.7313507  51.7626761
 117.8173683  76.7975468  53.8624452 117.7009941  76.1220371  54.5305537
 117.9275943  76.3107842  53.0456605 120.1605224  76.2585615  57.5671142
 119.7963432  75.7316236  58.2784063 121.0172340  75.8684084  57.3937627
 119.8010711  71.2875514  52.5632490 119.9685114  72.1555751  52.9302961
 119.6107880  71.4502796  51.6393779 116.0098526  76.2006290  60.2635025
 115.0849022  76.0682504  60.4712717 116.2582939  76.9800509  60.7604967
 119.7799932  73.7433172  53.5479157 119.6599557  74.1890223  54.3864637
 119.0852521  74.0918490  52.9892695 113.3707337  75.8439564  61.0978814
 113.4999718  76.0974043  62.0118226 112.6904788  76.4367272  60.7783469
 117.5406824  86.5136814  57.1969288 117.4630854  87.4644639  57.2757769
 116.9368468  86.1682686  57.8544215 120.0324054  73.6864679  69.8530655
 119.2557388  74.2458599  69.8433520 120.6714617  74.1721462  70.3745525
 118.2870426  76.4950132  69.4148622 119.0285111  77.0335176  69.1383446
 117.5807412  77.1216421  69.5720174 120.1156836  73.5751880  65.3854341
 120.9618031  73.9991293  65.5288990 120.0555474  72.9185504  66.0792904
 119.6382542  78.9354872  59.0323158 120.1020888  79.2142575  58.2427780
 119.3739341  78.0338316  58.8496248 116.5306624  78.4826353  61.9702921
 117.1007981  78.9113621  61.3320405 117.1214735  78.2008938  62.6687107
 118.5751429  75.0578024  55.8412723 119.2775472  75.5099068  56.3086649
 118.2432057  74.4161843  56.4692616 117.0231790  73.6489781  70.2163932
 116.3930451  74.3306061  70.4499329 116.9167878  73.5372862  69.2717070
 112.3176762  73.3161577  61.1429856 111.5275816  73.5719105  60.6669967
 112.8088010  74.1309914  61.2481897 114.2691508  73.6806156  58.1013333
 113.4722671  73.7924850  58.6196829 114.0417100  74.0192808  57.2354224
 120.0997175  80.2050859  66.0495848 120.1641608  80.6671266  66.8854020
 119.3908099  79.5748224  66.1778158 110.6014465  73.5692067  63.5744847
 110.8522504  74.4539077  63.8402423 111.1374014  73.3896669  62.8019939
 119.8145193  81.8718967  55.9174828 119.6790868  82.7170502  56.3459676
 120.3555006  82.0738244  55.1540762 116.3012533  67.9510546  72.5789183
 115.9079478  67.3976745  73.2536827 117.1178673  68.2621125  72.9695701
 113.2674591  79.3894405  56.4902753 113.7799111  80.1837655  56.6408318
 113.9197303  78.6920695  56.4236355 115.0769475  82.5060161  58.5725506
 115.2536104  83.4278126  58.3846490 115.8726309  82.1918580  59.0019886
 119.2180494  69.3668426  70.1709440 119.9590207  69.9675579  70.0913902
 119.4498417  68.6246063  69.6127482 114.3621832  74.5524793  68.4487669
 114.2475347  73.6510050  68.7494768 113.5066350  74.7988490  68.0972486
 116.2000791  84.0238335  64.5735849 116.7508216  83.8955398  63.8012843
 115.3612267  84.3233224  64.2230741 119.9967962  80.2889463  68.9180080
 120.5296299  79.5277751  68.6879388 119.4682043  79.9963114  69.6604234
 111.2323507  77.7183059  57.2662324 112.0698729  78.1280067  57.0496031
 111.4101775  76.7782501  57.2362517 120.7135050  70.2307840  58.0131395
 119.8576647  69.8414691  57.8337034 121.1262002  70.3099801  57.1531180
 118.4877083  67.8492913  61.4189136 119.3530080  67.6535722  61.0595026
 118.5554592  67.6203265  62.3458493 121.3620674  79.4175455  56.4298892
 120.8342036  78.6828215  56.1172129 120.8608177  80.1950131  56.1838860
 116.0939402  70.0795121  58.7905503 116.6683154  69.8570303  58.0578696
 116.6810385  70.1483816  59.5434105 116.4208989  72.1099582  52.8101389
 115.5846301  72.4474269  53.1310663 116.2813759  71.9748562  51.8728525
 118.3962070  66.9536370  57.5180573 117.7426482  66.6385387  56.8937187
 118.3542544  66.3312111  58.2440396 119.5073275  77.2355665  49.4333865
 118.6000336  77.0044919  49.6325014 120.0044307  76.4393284  49.6207846
 120.6861508  77.3368260  53.9557855 119.7772727  77.0527293  54.0530325
 120.7156592  77.7567339  53.0961162 111.2549678  75.0573774  57.9373057
 111.0574078  74.4643135  57.2124124 110.6996342  74.7525984  58.6548996
 119.2346402  74.9496881  60.0567650 119.2895012  73.9970717  59.9810127
 118.4237604  75.1056320  60.5408949 120.3837596  78.8777004  51.2945933
 119.9457026  78.1612863  50.8351571 121.1248037  79.1053119  50.7331025
 117.1738762  73.5673940  57.8158029 116.3606628  73.8668111  58.2223221
 117.6697756  73.1729629  58.5332511 119.3247340  83.5631697  59.7492294
 119.2823519  83.7892544  58.8200826 120.2410039  83.3295072  59.8978095
 116.6652837  71.1392296  63.4319264 117.3052216  70.9981055  62.7342227
 115.8330367  70.8526809  63.0557866 117.4413141  80.4394726  59.5454256
 118.2353739  79.9445047  59.3436831 116.7304833  79.9112590  59.1821962
 113.7495904  74.5837808  55.6214009 112.8193492  74.5222264  55.8383971
 113.8453376  74.0613761  54.8250650 113.6681453  71.1092621  58.2092251
 113.9288271  72.0237954  58.1001411 114.4898626  70.6417064  58.3588864
 115.1406379  72.5230378  65.3791075 115.8129432  72.3147740  64.7303724
 114.3136165  72.3252464  64.9396308 120.0184417  81.0123748  63.2252094
 119.8795502  80.6442533  64.0978032 119.2299013  81.5271388  63.0536051
 120.6132569  86.1132845  54.5677630 120.7884324  85.6420888  55.3823253
 119.9265357  86.7398611  54.7958891 121.5689632  80.3905351  60.6140931
 121.2339464  80.3506121  61.5098581 121.0693578  79.7250067  60.1411342
 115.5433876  75.7972981  66.1393513 115.4053674  75.0653220  66.7405052
 116.4538799  75.7081881  65.8577700 118.1716176  75.5092940  65.6277192
 118.8815795  74.8686133  65.5863811 118.1285485  75.7605835  66.5503373
 116.8845110  72.4958158  67.4472832 116.3482467  72.0448897  68.0994428
 116.2961819  72.6304067  66.7043296 115.1793654  89.2622208  61.3417490
 115.4190252  89.8940732  62.0196509 114.3362850  88.9110248  61.6282850
 116.2947369  71.9546810  50.0099295 115.4176836  71.8335611  49.6461542
 116.7705122  71.1632888  49.7578184 107.8149510  76.7423969  60.1040802
 108.5020549  76.4285699  59.5161818 107.6597638  77.6465334  59.8308054
 112.6184232  71.6314166  64.5325826 112.5342420  71.0239836  63.7976236
 111.7966938  72.1223184  64.5335322 119.6921516  85.0701330  63.7458994
 119.6191687  85.8756302  64.2578299 119.2498909  85.2693296  62.9207016
 119.4811295  84.3073100  57.2561816 118.6978817  84.8494780  57.3500040
 120.1804041  84.8247080  57.6556057 119.3742914  72.2585113  59.6267706
 119.0040702  71.7056153  60.3148611 119.8702007  71.6543246  59.0742706
 117.2032113  82.7182608  66.7222724 117.9041572  83.3519091  66.8752118
 116.7327228  83.0597339  65.9618363 112.7999831  82.2518963  63.6553826
 113.3853268  81.5062651  63.7881731 112.6024669  82.5622919  64.5390490
 115.6538486  85.2870210  58.6716269 114.9848861  85.7716338  58.1880309
 115.5151356  85.5339430  59.5859647 107.3917486  74.8224563  62.3758270
 107.4301585  74.2888154  63.1695388 106.8857778  74.2959768  61.7569247
 119.7943755  87.3213954  65.2698927 120.3462063  87.4845575  66.0348012
 120.1349948  87.9118391  64.5978952 114.7708248  69.6689103  65.8720812
 114.8349574  70.5303934  65.4598210 114.7075368  69.0563105  65.1393170
 114.2460520  71.7412236  69.5193846 114.8732559  71.3589313  70.1331370
 113.3888439  71.5226438  69.8849539 111.0226063  73.5488665  55.4512201
 111.3179504  72.6399343  55.3979255 110.1214099  73.5276404  55.1293203
 114.5520310  71.6244662  61.4339750 113.8306896  72.2380629  61.2947223
 115.3413566  72.1602426  61.3556395 117.3546624  68.9599088  67.7080401
 117.8781026  69.2061385  68.4706711 117.1358957  69.7919123  67.2883539
 112.7513905  71.2302763  55.5751526 112.4226611  70.3500142  55.3926632
 113.1053276  71.1750431  56.4627915 115.8655728  71.5175732  55.9427004
 116.2051800  72.0461654  55.2205612 116.3127848  71.8556139  56.7185570
 118.5599169  69.9012783  65.3930072 118.2195989  69.1020596  65.7950752
 117.8538175  70.2014494  64.8206905 119.2115641  66.9862096  63.8457395
 120.0341710  66.5122574  63.7236285 119.4553704  67.7652579  64.3456081
 117.8523875  70.0150354  54.1420297 118.5732238  70.3931607  53.6384013
 117.2289179  70.7339231  54.2455274 116.7354219  73.6781216  61.6549373
 116.5898800  73.9921519  62.5473655 116.2579423  74.2966117  61.1020272
 118.5950602  70.6683764  61.7030263 118.5812171  69.7724858  61.3662561
 119.3123030  70.6754428  62.3368549 120.4476733  71.1021104  63.7483390
 120.1894511  72.0238175  63.7467721 119.9161773  70.7051539  64.4383855
 111.2099882  76.2186561  64.5937035 110.6653350  76.9946369  64.7257309
 112.0879231  76.5657365  64.4356156 117.9987498  69.5498144  56.9717833
 118.1203409  68.6214791  57.1708721 117.7089541  69.5636830  56.0596149
 120.8678689  67.2353055  60.1084553 120.8900385  67.2992388  59.1536533
 121.2846748  66.3957564  60.3025059 111.9965903  75.3456457  67.4867192
 111.2547639  75.4939092  68.0731822 111.6758648  75.6064722  66.6233941
 119.9409566  84.8872435  67.2847582 120.2496693  84.6421582  68.1570281
 120.7385048  85.0919074  66.7966452 119.9630178  87.0410345  59.5152958
 119.5235168  86.5486723  60.2085815 120.7138295  86.4983312  59.2745033
 112.4422517  83.2321886  59.5177586 113.2680537  82.9325657  59.1376230
 112.0916569  82.4629508  59.9667375 117.4104050  82.5848354  61.5875260
 116.7884060  81.9219059  61.2877488 118.0808917  82.6109486  60.9048908
 110.6431122  81.1508212  60.4766520 109.8063030  80.7230386  60.2950521
 110.6154768  81.3440655  61.4137311 117.4828578  71.0630142  71.1807766
 117.5316733  71.9392265  70.7985535 118.0251092  70.5207535  70.6079409
 116.9717557  81.1352277  55.0633720 117.1205678  81.8187742  54.4100393
 117.7784001  81.1157367  55.5783176 119.7127866  71.8161514  67.9354124
 118.8431176  72.1095080  67.6636713 119.9487347  72.4001959  68.6561388
 114.7270190  77.1617455  56.0694789 114.4816232  76.2579785  56.2674999
 114.8966105  77.1634605  55.1274267 113.9965838  72.8945812  53.5680951
 113.3035083  72.9690167  52.9120987 113.7517590  72.1306156  54.0902468
 120.4712963  83.6300408  52.5345468 119.8986930  84.2490595  52.0815940
 121.0445756  84.1799769  53.0685390 119.0402678  72.8911197  49.8116405
 118.1334134  72.5944309  49.8879119 119.3178659  72.5941015  48.9450692
 109.9580619  74.2117560  60.2615452 109.6383403  73.3582868  59.9689826
 109.4114047  74.4266138  61.0173419 113.7360526  76.9280001  63.9784958
 113.9546536  77.8597109  63.9972992 114.1486300  76.5687976  64.7639762
 120.6564744  67.4348086  55.9660647 119.8465472  67.0895171  56.3415893
 121.3449161  67.1255630  56.5548258 118.6088392  72.5013207  73.3687707
 118.5085118  73.4507564  73.2999798 118.3909934  72.1731446  72.4963777
 117.8101463  69.7498132  49.9528385 118.6720627  70.0753030  50.2124202
 117.9951807  68.9629628  49.4401450 109.8268879  77.8320472  62.2308573
 109.1332350  77.4174424  61.7178528 110.5741870  77.8741008  61.6341992
 118.4719662  75.9310346  72.1852769 117.9886743  76.7310706  72.3916658
 118.5580601  75.9418291  71.2320213 111.7405621  77.7638725  60.1074588
 111.7176309  77.8626413  59.1556471 112.0506258  78.6103876  60.4291754
 114.3992999  79.8214880  64.2221203 115.3536253  79.7898823  64.1551134
 114.2005523  79.3605504  65.0371429 114.9892381  78.3915997  66.7892000
 115.8085270  78.8860075  66.8126838 115.2629189  77.4747965  66.7609568
 112.7543228  85.3634500  61.2391401 112.6197696  84.6034901  60.6729399
 112.3375290  86.0875400  60.7720189 115.9112354  86.2603817  61.4509843
 115.7944738  87.2049249  61.3488533 115.0904800  85.9577379  61.8395642
 110.2427295  72.7254130  67.4884197 110.8886159  72.2153084  67.9771423
 110.0344447  73.4622812  68.0627623 118.7630906  66.9894175  53.2408094
 118.7509576  67.9336015  53.3976364 119.6554328  66.8064320  52.9467555
 116.9366868  86.9132079  64.6665772 117.8394115  86.9455689  64.9832267
 116.7104238  85.9832530  64.6812107 118.6920470  85.6663065  61.3275850
 117.7416101  85.6664927  61.2140223 118.9952956  84.9195800  60.8111885
 114.5824786  69.8721747  71.5859212 115.4456248  69.5158552  71.7962536
 114.0090197  69.5335642  72.2734616 118.6543264  92.0715887  60.1040802
 119.3414304  91.7577617  59.5161818 118.4991393  92.9757252  59.8308054
 118.2311240  90.1516480  62.3758270 118.2695340  89.6180071  63.1695388
 117.7251533  89.6251686  61.7569247 121.4824877  96.4800130  60.4766520
 120.6456785  96.0522304  60.2950521 121.4548522  96.6732573  61.4137311
 120.7974373  89.5409478  60.2615452 120.4777158  88.6874786  59.9689826
 120.2507801  89.7558056  61.0173419 120.6662633  93.1612389  62.2308573
 119.9726105  92.7466342  61.7178528 121.4135624  93.2032926  61.6341992
  74.1831808   2.2031266  43.9214595  74.1055837   3.1539091  44.0003075
  73.5793451   1.8577138  44.5789521  71.8218637   4.9516660  48.0662797
  72.0615235   5.5835184  48.7441815  70.9787834   4.6004700  48.3528156
  72.2963469   0.9764662  45.3961575  71.6273845   1.4610790  44.9125615
  72.1576339   1.2233882  46.3104954  76.4368738   3.0108405  51.9944234
  76.9887046   3.1740027  52.7593319  76.7774931   3.6012843  51.3224259
  69.3968211   1.0528952  47.9636707  69.2622679   0.2929353  47.3974705
  68.9800273   1.7769852  47.4965496  72.5537337   1.9498269  48.1755150
  72.4369721   2.8943701  48.0733840  71.7329783   1.6471830  48.5640949
  73.5791851   2.6026531  51.3911078  74.4819098   2.6350141  51.7077573
  73.3529221   1.6726982  51.4057414  87.8787853   7.1445484  49.0528444
  87.5406365   7.0286548  48.1648979  88.7477621   6.7436649  49.0329450
  83.7374669   8.9980960  45.0425335  83.1739534   8.9070897  44.2741623
  83.6227064   8.1780865  45.5227827  88.3607636   8.2980336  55.0114650
  88.3496277   7.9033134  54.1395153  88.5228275   7.5646408  55.6048421
  81.2839101  10.4932152  47.8809555  82.0760393  10.1522976  47.4655855
  81.5235751  10.6027127  48.8011709  89.3174227  12.6651928  40.3539800
  88.6662207  13.2506008  39.9673814  90.1118590  13.1958123  40.4134837
  83.2429855   9.7541065  40.7526934  84.0160731   9.2070052  40.6139810
  83.5955253  10.6185314  40.9641396  85.0814897  11.0817447  53.9593834
  84.7904763  11.9863078  53.8440500  85.7171881  11.1233975  54.6737903
  86.0071104   8.4594296  50.5495193  86.6034676   8.2350318  49.8352156
  86.0646076   7.7179041  51.1520641  90.7949493  10.3542360  40.8908784
  90.1595326  10.4276986  41.6029689  90.4646899  10.9435959  40.2127863
  85.2992421   7.8161837  40.5869759  85.1828679   7.1406741  41.2550843
  85.4094681   7.3294211  39.7701912  87.6423962   7.2771984  44.2916448
  87.2782169   6.7502605  45.0029370  88.4991078   6.8870453  44.1182934
  90.0404782  10.7678863  50.9543627  89.7405505  11.6703902  50.8459434
  89.6955842  10.5011046  51.8064780  83.4917264   7.2192660  46.9880332
  82.5667760   7.0868874  47.1958023  83.7401677   7.9986879  47.4850274
  80.8526075   6.8625933  47.8224121  80.9818456   7.1160412  48.7363532
  80.1723526   7.4553641  47.5028776  85.0225562  17.5323183  43.9214595
  84.9449592  18.4831008  44.0003075  84.4187206  17.1869056  44.5789521
  85.7689164   7.5136502  56.1393929  86.5103848   8.0521546  55.8628752
  85.0626150   8.1402791  56.2965481  91.2444504   9.6565642  54.7366090
  91.6527860   9.2148053  53.9920723  90.5221765   9.0818270  54.9900283
  91.5673318  10.2166833  48.4918379  90.9382181  10.3812547  47.7894447
  91.1798980  10.6308443  49.2629343  95.4462550  11.1521271  45.8462743
  94.7613588  11.5320172  45.2959776  95.5306400  11.7616598  46.5794691
  92.7013482   8.7981230  52.4458086  92.9130377   9.4412990  51.7692468
  92.6543230   7.9643546  51.9780017  87.1201280   9.9541241  45.7568464
  87.5839626  10.2328944  44.9673087  86.8558078   9.0524686  45.5741555
  84.0125361   9.5012723  48.6948228  84.5826718   9.9299991  48.0565712
  84.6033473   9.2195307  49.3932413  79.7995500   4.3347946  47.8675163
  79.0094554   4.5905475  47.3915274  80.2906748   5.1496284  47.9727204
  93.8159310  11.6753185  50.6180444  94.6376754  11.2733373  50.3363125
  93.8121713  11.5721420  51.5696560  81.7510246   4.6992525  44.8258640
  80.9541409   4.8111220  45.3442135  81.5235838   5.0379178  43.9599530
  87.5815913  11.2237229  52.7741154  87.6460346  11.6857636  53.6099326
  86.8726837  10.5934594  52.9023464  78.0833203   4.5878437  50.2990154
  78.3341242   5.4725447  50.5647730  78.6192752   4.4083038  49.5265246
  87.2963931  12.8905336  42.6420135  87.1609606  13.7356872  43.0704982
  87.8373743  13.0924614  41.8786068  80.7493328  10.4080774  43.2148060
  81.2617849  11.2024024  43.3653624  81.4016041   9.7107065  43.1481661
  82.5588213  13.5246530  45.2970813  82.7354841  14.4464495  45.1091797
  83.3545047  13.2104950  45.7265193  81.8440570   5.5711162  55.1732976
  81.7294085   4.6696420  55.4740075  80.9885087   5.8174859  54.8217793
  88.9232407  13.5128903  56.7720477  88.4796262  12.7265281  56.4541381
  89.5849621  13.7008053  56.1064367  83.6819528  15.0424704  51.2981155
  84.2326954  14.9141768  50.5258149  82.8431004  15.3419593  50.9476048
  91.0213645  13.7931703  54.8001878  91.0032121  14.6140584  54.3082147
  91.9433565  13.6685778  55.0252019  87.4786700  11.3075832  55.6425386
  88.0115036  10.5464120  55.4124694  86.9500781  11.0149484  56.3849541
  78.7142245   8.7369428  43.9907630  79.5517467   9.1466437  43.7741338
  78.8920513   7.7968871  43.9607824  88.8439412  10.4361825  43.1544198
  88.3160774   9.7014584  42.8417436  88.3426915  11.2136501  42.9084167
  93.8232258   8.6310845  48.2711245  93.1655933   9.3210106  48.3591373
  94.6272657   9.0207277  48.6145231  86.9892012   8.2542035  36.1579171
  86.0819074   8.0231288  36.3570320  87.4863044   7.4579654  36.3453153
  89.8960091  16.9639542  39.0775858  89.2221790  17.2671239  39.6860815
  90.2825913  17.7668622  38.7281315  88.1680246   8.3554630  40.6803161
  87.2591465   8.0713662  40.7775631  88.1975330   8.7753708  39.8206468
  93.3999513  11.9661219  44.4494329  92.9461840  11.1252129  44.5059520
  92.7693480  12.6022618  44.7869109  91.8432453  13.8037716  45.3844147
  92.1355427  14.3642773  44.6656513  92.3531073  14.0966277  46.1397306
  78.7368416   6.0760144  44.6618364  78.5392816   5.4829505  43.9369430
  78.1815080   5.7712354  45.3794302  87.8656334   9.8963373  38.0191240
  87.4275764   9.1799232  37.5596877  88.6066775  10.1239488  37.4576331
  86.8066078  14.5818067  46.4737600  86.7642257  14.8078913  45.5446132
  87.7228777  14.3481442  46.6223402  96.0098828  10.2397097  49.0878830
  96.4435335  10.1472386  49.9361884  96.7230409  10.2154598  48.4498846
  84.9231878  11.4581096  46.2699563  85.7172477  10.9631416  46.0682138
  84.2123571  10.9298959  45.9067269  89.7426723  13.8399192  50.6211931
  89.7963745  14.4090128  51.3889647  88.8741504  14.0101077  50.2565968
  81.2314642   5.6024178  42.3459316  80.3012230   5.5408633  42.5629278
  81.3272114   5.0800130  41.5495957  96.8714378  10.2820798  51.6211716
  97.0650268  11.1866609  51.8670990  96.7714996   9.8228217  52.4550301
  91.9329486  10.4327541  57.1952596  91.7814993  10.2038092  56.2782680
  91.9234166  11.3898142  57.2083941  88.7014823   8.0059454  52.1798863
  89.6306883   8.1570613  52.0067830  88.2805853   8.0943474  51.3247509
  87.5003154  12.0310118  49.9497400  87.3614240  11.6628902  50.8223338
  86.7117751  12.5457757  49.7781358  88.0951306  17.1319214  41.2922937
  88.2703062  16.6607258  42.1068559  87.4084094  17.7584981  41.5204197
  89.0508370  11.4091721  47.3386238  88.7158202  11.3692491  48.2343888
  88.5512315  10.7436437  46.8656648  83.0252614   6.8159351  52.8638819
  82.8872412   6.0839590  53.4650358  83.9357537   6.7268251  52.5823007
  91.9867561   8.7547755  37.6123298  91.3696732   8.0294583  37.5156350
  91.5184050   9.5157115  37.2690372  85.6534914   6.5279310  52.3522499
  86.3634533   5.8872502  52.3109117  85.6104222   6.7792205  53.2748680
  93.6421693  13.4646663  55.2729078  93.5834239  12.7805883  54.6059661
  94.0441211  14.2065653  54.8209704  82.6612392  20.2808577  48.0662797
  82.9008990  20.9127101  48.7441815  81.8181588  19.9296617  48.3528156
  93.6439100  11.4286247  53.5043058  92.7565879  11.0912169  53.6269457
  94.2137651  10.6969279  53.7411823  75.2968247   7.7610339  46.8286109
  75.9839287   7.4472069  46.2407124  75.1416376   8.6651704  46.5553360
  87.1740254  16.0887700  50.4704301  87.1010425  16.8942671  50.9823605
  86.7317647  16.2879665  49.6452322  86.9630033  15.3259470  43.9807122
  86.1797555  15.8681150  44.0745347  87.6622778  15.8433449  44.3801364
  89.6338937  15.9874534  52.6262460  90.3466909  16.6221998  52.5538361
  89.1428966  16.0838400  51.8102461  91.3556464   9.8925786  44.1979751
  90.4212743  10.0127249  44.0284456  91.5333132   8.9898253  43.9339761
  84.6850851  13.7368977  53.4468030  85.3860310  14.3705460  53.5997425
  84.2145966  14.0783709  52.6863670  92.8105246  12.0786927  41.7315937
  93.0865090  11.9643521  42.6409811  91.9409745  11.6804412  41.6928110
  89.4459310  16.3273278  45.3748751  89.6281705  15.5094934  45.8376503
  90.2692297  16.5440970  44.9373641  89.7801476  15.2541463  42.6363799
  90.3089242  14.7433917  42.0233962  90.0429696  14.9383993  43.5009333
  88.5339710   7.0333396  57.7586618  87.8580347   6.9327525  58.4288993
  89.3567344   6.8772609  58.2222615  80.2818569  13.2705332  50.3799133
  80.8672006  12.5249020  50.5127037  80.0843407  13.5809289  51.2635797
  83.1357224  16.3056580  45.3961575  82.4667599  16.7902707  44.9125615
  82.9970094  16.5525800  46.3104954  74.8736223   5.8410932  49.1003576
  74.9120323   5.3074523  49.8940694  74.3676516   5.3146138  48.4814553
  87.2762493  18.3400323  51.9944234  87.8280801  18.5031945  52.7593319
  87.6168686  18.9304761  51.3224259  92.1273367  13.1661581  57.8492888
  92.6713271  13.7791539  57.3547843  91.5460212  13.7241159  58.3659901
  78.5044801   4.5675035  42.1757508  78.7998242   3.6585713  42.1224561
  77.6032837   4.5462774  41.8538510  90.4130880  16.2882299  48.9807916
  90.2882019  15.4872038  48.4718861  91.0709971  16.7828492  48.4921886
  92.4765788  14.0891319  50.6087466  91.5296124  13.9696670  50.5365793
  92.8248561  13.2013817  50.6913727  89.4812221  13.8844035  46.8091818
  89.3337184  12.9560742  46.9899388  90.3065715  13.9064126  46.3248894
  93.0846343  14.7072594  47.8956691  94.0092891  14.5015455  47.7581142
  92.9161647  14.4588995  48.8046033  92.8741660  15.2258261  43.2518782
  93.0478537  14.6604684  42.4992635  93.3670551  16.0259156  43.0698272
  78.6918619   7.2372930  51.3182341  78.1472087   8.0132738  51.4502616
  79.5697969   7.5843735  51.1601463  93.8616832  14.5425026  40.3515681
  94.5567737  15.1631718  40.5702995  94.2039982  13.6920377  40.6268059
  79.4784641   6.3642826  54.2112498  78.7366377   6.5125462  54.7977129
  79.1577385   6.6251092  53.3479248  95.7608255  11.9924731  41.8803012
  96.2859579  12.3312004  41.1552332  95.6730608  11.0571746  41.6966146
  87.4228304  15.9058805  54.0092888  87.7315430  15.6607951  54.8815588
  88.2203786  16.1105443  53.5211758  87.4448916  18.0596714  46.2398265
  87.0053906  17.5673093  46.9331121  88.1957033  17.5169682  45.9990340
  79.9241255  14.2508255  46.2422893  80.7499275  13.9512027  45.8621536
  79.5735307  13.4815878  46.6912681  84.8922788  13.6034723  48.3120566
  84.2702797  12.9405428  48.0122794  85.5627655  13.6295855  47.6294214
  78.1249860  12.1694582  47.2011826  77.2881768  11.7416756  47.0195828
  78.0973505  12.3627025  48.1382618  95.4502161  12.6257635  57.1854209
  94.6597705  12.6081774  56.6458709  95.2135516  13.1645928  57.9403246
  84.4536295  12.1538647  41.7879027  84.6024415  12.8374111  41.1345700
  85.2602738  12.1343737  42.3028483  97.0718233  11.8947043  54.7428960
  96.7803041  12.2577023  55.5792421  96.4590364  11.1814051  54.5642292
  82.2088928   8.1803824  42.7940096  81.9634970   7.2766154  42.9920306
  82.3784842   8.1820975  41.8519574  87.9531700  14.6486777  39.2590774
  87.3805668  15.2676964  38.8061246  88.5264494  15.1986139  39.7930696
  91.1728960  14.9323927  40.3899357  92.1059633  14.8669489  40.5932232
  91.0852173  15.7680194  39.9313889  93.8016977  14.2489798  37.3503304
  93.7230608  13.9149661  38.2439062  94.6226644  14.7411566  37.3494777
  88.2217192  10.0365336  58.0607484  89.1420201  10.2143935  58.2547530
  88.1866775   9.0921381  57.9087183  77.4399357   5.2303930  46.9860758
  77.1202141   4.3769238  46.6935132  76.8932785   5.4452508  47.7418726
  81.2179264   7.9466371  50.7030265  81.4365274   8.8783479  50.7218299
  81.6305038   7.5874345  51.4885069  77.3087617   8.8506841  48.9553880
  76.6151088   8.4360794  48.4423834  78.0560608   8.8927378  48.3587299
  85.9538399   6.9496715  58.9098076  85.4705481   7.7497075  59.1161965
  86.0399338   6.9604660  57.9565520  79.2224359   8.7825095  46.8319895
  79.1995047   8.8812782  45.8801778  79.5324996   9.6290246  47.1537061
  81.8811737  10.8401250  50.9466509  82.8354990  10.8085192  50.8796441
  81.6824260  10.3791874  51.7616735  82.4711119   9.4102366  53.5137307
  83.2904008   9.9046445  53.5372144  82.7447927   8.4934334  53.4854875
  80.2361966  16.3820870  47.9636707  80.1016434  15.6221270  47.3974705
  79.8194028  17.1061769  47.4965496  91.3720929  11.5657793  36.9713283
  92.0756779  11.7707796  37.5870938  90.6483577  12.1334555  37.2362366
  83.3931092  17.2790187  48.1755150  83.2763476  18.2235619  48.0733840
  82.5723538  16.9763748  48.5640949  93.2807626  12.0040322  39.0211743
  94.1153230  11.5721521  38.8389217  93.1191969  11.8322336  39.9488637
  92.9353518   8.5072436  40.3868082  92.8802322   8.3416707  39.4456526
  92.3099574   9.2148468  40.5430272  77.7246033   3.7440500  54.2129504
  78.3704897   3.2339454  54.7016729  77.5163184   4.4809182  54.7872929
  90.2499425  10.8121347  59.7121645  91.1190585  10.9862000  59.3508280
  89.7706177  11.6315764  59.5897374  84.4185606  17.9318448  51.3911078
  85.3212852  17.9642059  51.7077573  84.1922976  17.0018899  51.4057414
  86.1739208  16.6849435  48.0521157  85.2234839  16.6851297  47.9385529
  86.4771694  15.9382170  47.5357192 101.9091901  22.5209973  49.1166919
 102.5470311  22.4016721  48.4130259 101.7912744  23.4690817  49.1754871
  98.7181607  22.4737401  49.0528444  98.3800119  22.3578466  48.1648979
  99.5871376  22.0728567  49.0329450  99.2001390  23.6272253  55.0114650
  99.1890031  23.2325051  54.1395153  99.3622030  22.8938326  55.6048421
  96.4189887  21.2425649  38.3845384  96.6715408  20.7207170  37.6228847
  95.4814446  21.0791794  38.4872068 101.4633170  20.2461427  46.1920127
 102.2496259  19.8280850  45.8410544 101.7271874  21.1507519  46.3601776
 101.6343247  25.6834278  40.8908784 100.9989080  25.7568904  41.6029689
 101.3040653  26.2727876  40.2127863 106.8641597  20.1836660  47.0953106
 107.5966769  19.6135877  47.3290935 106.1080953  19.7958261  47.5359611
  96.1386176  23.1453755  40.5869759  96.0222434  22.4698658  41.2550843
  96.2488436  22.6586129  39.7701912  98.4817717  22.6063902  44.2916448
  98.1175924  22.0794523  45.0029370  99.3384832  22.2162371  44.1182934
 104.3867017  13.8958235  51.5547714 104.0550342  14.7653645  51.3308929
 103.7912631  13.5794519  52.2341745  98.1223204  17.6353802  39.2877797
  98.2897606  18.5034038  39.6548268  97.9320373  17.7981083  38.3639086
 100.8798537  26.0970781  50.9543627 100.5799260  26.9995819  50.8459434
 100.5349596  25.8302964  51.8064780  94.3311018  22.5484577  46.9880332
  93.4061515  22.4160791  47.1958023  94.5795431  23.3278797  47.4850274
 104.2795681  18.6153321  48.6341065 103.3712558  18.5468729  48.3399825
 104.2283276  19.0925266  49.4622890  98.1012424  20.0911459  40.2724464
  97.9812050  20.5368510  41.1109944  97.4065013  20.4396777  39.7138002
  91.6919829  22.1917851  47.8224121  91.8212210  22.4452330  48.7363532
  91.0117281  22.7845559  47.5028776  98.3536546  20.0342966  56.5775962
  97.5769880  20.5936886  56.5678826  98.9927109  20.5199749  57.0990832
 106.1457327  16.8169759  50.4118938 105.5031707  17.1102292  49.7658733
 105.6412255  16.7022679  51.2172135 103.7997491  20.5632932  41.1004798
 104.7115347  20.7960319  40.9252495 103.2907138  21.1469976  40.5379876
  96.6082919  22.8428420  56.1393929  97.3497603  23.3813464  55.8628752
  95.9019904  23.4694708  56.2965481 102.0838258  24.9857560  54.7366090
 102.4921614  24.5439971  53.9920723 101.3615520  24.4110188  54.9900283
  98.4369328  19.9230167  52.1099647  99.2830523  20.3469580  52.2534296
  98.3767966  19.2663791  52.8038210 102.4067073  25.5458751  48.4918379
 101.7775935  25.7104465  47.7894447 102.0192735  25.9600360  49.2629343
 106.2856305  26.4813189  45.8462743 105.6007343  26.8612090  45.2959776
 106.3700154  27.0908515  46.5794691 101.5868774  17.5834535  53.7680821
 101.3429705  18.3376596  53.2315097 101.8628704  17.9619883  54.6028068
 103.5407236  24.1273148  52.4458086 103.7524132  24.7704908  51.7692468
 103.4936985  23.2935464  51.9780017 101.1433465  16.7390968  49.3494659
 100.2817944  17.0372222  49.6411396 101.1695900  16.9561367  48.4175691
  96.8963921  21.4056311  42.5658029  97.5987964  21.8577355  43.0331956
  96.5644549  20.7640130  43.1937923  95.3444282  19.9968068  56.9409239
  94.7142943  20.6784349  57.1744636  95.2380370  19.8851149  55.9962377
  90.6389255  19.6639864  47.8675163  89.8488309  19.9197392  47.3915274
  91.1300502  20.4788202  47.9727204 104.6553064  27.0045103  50.6180444
 105.4770508  26.6025290  50.3363125 104.6515467  26.9013337  51.5696560
  92.5904000  20.0284443  44.8258640  91.7935163  20.1403137  45.3442135
  92.3629592  20.3671095  43.9599530  98.4209668  26.5529146  52.7741154
  98.4854100  27.0149554  53.6099326  97.7120592  25.9226511  52.9023464
  88.9226958  19.9170354  50.2990154  89.1734996  20.8017364  50.5647730
  89.4586506  19.7374956  49.5265246 112.7459057  23.3483852  46.9665415
 111.9922766  22.7791250  46.8109420 112.8806599  23.3146516  47.9136050
  94.6225025  14.2988834  59.3034490  94.2291971  13.7455032  59.9782134
  95.4391165  14.6099412  59.6941007  97.5392986  15.7146713  56.8954746
  98.2802699  16.3153866  56.8159209  97.7710909  14.9724351  56.3372789
  92.6834324  20.9003080  55.1732976  92.5687839  19.9988337  55.4740075
  91.8278842  21.1466777  54.8217793  99.7626162  28.8420820  56.7720477
  99.3190016  28.0557199  56.4541381 100.4243375  29.0299971  56.1064367
 101.8607400  29.1223620  54.8001878 101.8425875  29.9432501  54.3082147
 102.7827320  28.9977695  55.0252019  98.3180454  26.6367750  55.6425386
  98.8508791  25.8756038  55.4124694  97.7894535  26.3441402  56.3849541
 101.4850149  11.7427816  51.1719028 101.1414418  12.6329457  51.0958139
 101.8529112  11.5529473  50.3088613 101.4500432  21.7336427  39.6791463
 100.9347055  22.5041031  39.9179851 101.1777740  21.0601563  40.3024525
  99.0347543  16.5786128  44.7376702  98.1789139  16.1892978  44.5582340
  99.4474495  16.6578088  43.8776487 100.5646689  14.1132471  49.1368261
 100.0611485  14.0762606  48.3236067 100.8577296  15.0225214  49.1964918
  96.8089575  14.1971201  48.1434443  97.6742572  14.0014009  47.7840333
  96.8767084  13.9681552  49.0703800 106.4234706  24.4868781  41.6144637
 105.6464149  24.1479941  41.1699799 107.1026187  24.4921405  40.9399602
 101.2386735  19.6063519  41.5051244 100.9336870  19.9209668  42.3561388
 102.1917177  19.6844939  41.5478577 104.6626013  23.9602763  48.2711245
 104.0049687  24.6502024  48.3591373 105.4666412  24.3499195  48.6145231
  94.4151894  16.4273409  45.5150810  94.9895646  16.2048590  44.7824003
  95.0022877  16.4962103  46.2679411 103.4731472  22.3147135  46.3215186
 103.9863353  22.9477127  46.8236896 104.1232695  21.7148331  45.9558546
  94.7421481  18.4577870  39.5346695  93.9058794  18.7952556  39.8555970
  94.6026251  18.3226849  38.5973832  96.7174562  13.3014657  44.2425879
  96.0638974  12.9863675  43.6182494  96.6755036  12.6790398  44.9685702
  97.8285767  23.5833952  36.1579171  96.9212829  23.3523206  36.3570320
  98.3256799  22.7871572  36.3453153  99.9512302  19.7896591  48.5673527
  99.0334864  20.0111538  48.4095215 100.3672446  19.8642901  47.7085234
 100.7347350  21.1888007  43.6976207 101.4819169  21.7009404  43.3883329
 101.0038940  20.8672059  44.5580601  99.0074000  23.6846547  40.6803161
  98.0985220  23.4005580  40.7775631  99.0369084  24.1045626  39.8206468
 104.2393268  27.2953137  44.4494329 103.7855595  26.4544047  44.5059520
 103.6087234  27.9314535  44.7869109 103.1826187  18.2245123  45.6794996
 102.4448944  17.7122509  46.0105239 103.4352961  17.7845504  44.8678273
  97.5558894  21.2975168  46.7812957  97.6107504  20.3449004  46.7055433
  96.7450096  21.4534607  47.2654255  98.7050088  25.2255291  38.0191240
  98.2669518  24.5091150  37.5596877  99.4460529  25.4531406  37.4576331
  95.4951254  19.9152228  44.5403336  94.6819120  20.2146398  44.9468528
  95.9910248  19.5207916  45.2577818 101.0925466  20.3794052  53.3718230
 101.4474854  20.6065525  54.2312695 101.7397597  20.7112429  52.7495485
 106.8223203  23.5012488  44.0767559 106.6841102  23.6914084  43.1488748
 106.4659422  24.2631871  44.5335610  94.9865329  17.4870583  50.1564571
  95.6264708  17.3459342  49.4587534  94.1542860  17.2005097  49.7803173
 106.8492583  25.5689015  49.0878830 107.2829089  25.4764304  49.9361884
 107.5624163  25.5446516  48.4498846 100.5820477  29.1691109  50.6211931
 100.6357500  29.7382045  51.3889647  99.7135259  29.3392994  50.2565968
  91.9893945  17.4570908  44.9337557  92.2500763  18.3716241  44.8246718
  92.8111118  16.9895351  45.0834170  93.4618871  18.8708665  52.1036382
  94.1341924  18.6626028  51.4549031  92.6348657  18.6730751  51.6641614
 107.7108132  25.6112716  51.6211716 107.9044022  26.5158526  51.8670990
 107.6108750  25.1520135  52.4550301  99.3644443  15.4970606  54.1202043
  98.7172358  16.1960556  54.0266519 100.1345458  15.9306750  54.4878291
 102.7723241  25.7619458  57.1952596 102.6208747  25.5330010  56.2782680
 102.7627920  26.7190060  57.2083941  99.5408577  23.3351371  52.1798863
 100.4700637  23.4862531  52.0067830  99.1199607  23.4235392  51.3247509
  98.3396909  27.3602036  49.9497400  98.2007995  26.9920820  50.8223338
  97.5511505  27.8749675  49.7781358 102.8261316  24.0839673  37.6123298
 102.2090486  23.3586501  37.5156350 102.3577804  24.8449033  37.2690372
  96.4928669  21.8571228  52.3522499  97.2028287  21.2164420  52.3109117
  96.4497977  22.1084123  53.2748680 104.4815447  28.7938581  55.2729078
 104.4227994  28.1097801  54.6059661 104.8834966  29.5357571  54.8209704
  95.2057603  18.8436446  54.1718138  94.6694960  18.3927184  54.8239735
  94.6174311  18.9782354  53.4288603  94.6159862  18.3025097  36.7344602
  93.7389328  18.1813898  36.3706849  95.0917615  17.5111175  36.4823491
 104.4832855  26.7578165  53.5043058 103.5959633  26.4204087  53.6269457
 105.0531406  26.0261196  53.7411823  90.9396724  17.9792453  51.2571133
  90.8554913  17.3718123  50.5221543  90.1179430  18.4701472  51.2580629
 101.1120438  16.4646017  46.6241328 101.6089137  15.7115979  46.3042398
 100.3407419  16.5010333  46.0584537 108.9650195  22.1686382  48.2659619
 108.9540071  23.0511098  47.8953552 108.0967575  21.8157933  48.0714156
 100.4732692  31.3166451  52.6262460 101.1860664  31.9513916  52.5538361
  99.9822720  31.4130317  51.8102461 102.1950219  25.2217704  44.1979751
 101.2606497  25.3419166  44.0284456 102.3726887  24.3190171  43.9339761
  97.6955407  18.6063400  46.3513012  97.3253194  18.0534440  47.0393918
  98.1914499  18.0021533  45.7988012 105.5822770  21.0635023  44.7329785
 106.0483222  21.8963015  44.6590088 106.0330270  20.5980005  45.4375044
 103.6499001  27.4078845  41.7315937 103.9258845  27.2935439  42.6409811
 102.7803500  27.0096329  41.6928110 103.5539433  13.4315610  48.7720687
 102.6402512  13.6619837  48.9402894 103.9832534  13.5154054  49.6234719
 103.3245891  21.6205502  51.2720581 102.6717341  21.8681410  50.6173033
 103.7026271  20.8069640  50.9383058  99.3733464  22.3625313  57.7586618
  98.6974101  22.2619443  58.4288993 100.1961098  22.2064527  58.2222615
  85.7129978  21.1702850  49.1003576  85.7514077  20.6366441  49.8940694
  85.2070271  20.6438056  48.4814553  93.0920740  16.0167391  52.5966118
  93.1562067  16.8782221  52.1843516  93.0287860  15.4041392  51.8638477
  92.5673013  18.0890523  56.2439153  93.1945052  17.7067600  56.8576677
  91.7100932  17.8704725  56.6094845 102.9667121  28.4953498  57.8492888
 103.5107025  29.1083457  57.3547843 102.3853966  29.0533077  58.3659901
  89.3438556  19.8966952  42.1757508  89.6391997  18.9877631  42.1224561
  88.4426591  19.8754692  41.8538510 101.2524634  31.6174216  48.9807916
 101.1275774  30.8163956  48.4718861 101.9103725  32.1120410  48.4921886
  92.8732803  17.9722949  48.1585056  92.1519388  18.5858916  48.0192529
  93.6626058  18.5080714  48.0801702 103.3159543  29.4183236  50.6087466
 102.3689878  29.2988588  50.5365793 103.6642316  28.5305734  50.6913727
  95.6759116  15.3077375  54.4325708  96.1993518  15.5539672  55.1952017
  95.4571449  16.1397410  54.0128845  91.0726397  17.5781050  42.2996833
  90.7439103  16.6978429  42.1171939  91.4265768  17.5228719  43.1873222
  94.1868220  17.8654020  42.6672310  94.5264293  18.3939941  41.9450919
  94.6340341  18.2034426  43.4430877 103.9240098  30.0364511  47.8956691
 104.8486645  29.8307373  47.7581142 103.7555401  29.7880912  48.8046033
  96.8811661  16.2491070  52.1175378  96.5408481  15.4498883  52.5196058
  96.1750667  16.5492781  51.5452212  97.5328133  13.3340383  50.5702701
  98.3554202  12.8600861  50.4481592  97.7766196  14.1130867  51.0701388
  96.1736367  16.3628641  40.8665603  96.8944730  16.7409894  40.3629320
  95.5501672  17.0817518  40.9700581 100.3167490  17.0673790  41.8023936
 100.5331105  17.9498428  41.5012764  99.8361557  16.6760004  41.0729577
  95.0566712  20.0259503  48.3794680  94.9111292  20.3399807  49.2718962
  94.5791915  20.6444404  47.8265579  96.9163095  17.0162051  48.4275570
  96.9024663  16.1203145  48.0907868  97.6335523  17.0232715  49.0613856
  98.7689225  17.4499392  50.4728697  98.5107003  18.3716462  50.4713028
  98.2374266  17.0529826  51.1629161  96.3199990  15.8976432  43.6963140
  96.4415902  14.9693078  43.8954027  96.0302033  15.9115118  42.7841455
  99.1891181  13.5831342  46.8329860  99.2112878  13.6470675  45.8781839
  99.6059240  12.7435851  47.0270366 109.5674805  23.3186602  44.8709082
 110.0105951  22.5693927  44.4728205 108.6901315  23.3096738  44.4882814
 104.7010587  29.8716943  40.3515681 105.3961491  30.4923636  40.5702995
 105.0433737  29.0212294  40.6268059  90.3178396  21.6934744  54.2112498
  89.5760132  21.8417379  54.7977129  89.9971140  21.9543010  53.3479248
 106.6002010  27.3216649  41.8803012 107.1253334  27.6603921  41.1552332
 106.5124362  26.3863664  41.6966146  95.8041070  17.4108429  57.9053072
  95.8529225  18.2870552  57.5230842  96.3463584  16.8685822  57.3324716
 106.2895916  27.9549552  57.1854209 105.4991459  27.9373691  56.6458709
 106.0529270  28.4937846  57.9403246 106.4093791  24.8042019  54.4986938
 106.4591796  24.6392026  55.4402461 106.3007714  23.9369278  54.1084819
 103.6997553  20.7872947  55.8146245 104.6007416  20.6479412  55.5230243
 103.7745528  20.9527402  56.7544422  98.0340358  18.1639802  54.6599431
  97.1643668  18.4573368  54.3882020  98.2699839  18.7480246  55.3806695
 107.9111988  27.2238960  54.7428960 107.6196796  27.5868941  55.5792421
 107.2984119  26.5105969  54.5642292 109.1107670  24.7891840  47.2631530
 109.9454561  25.2281644  47.4269090 109.2466799  24.3130493  46.4439776
 106.1599176  22.3471575  53.2109018 106.6353297  22.5399221  52.4027869
 105.2364741  22.4030761  52.9652401 100.7379392  14.3819418  52.1764851
 101.2561336  15.1180445  51.8511340 100.3834525  14.6883412  53.0111611
 104.8600845  19.2237335  51.4437323 105.8118268  19.3235433  51.4649547
 104.6904295  18.4315604  51.9535408 102.8815224  16.3092918  51.6296724
 102.2865156  16.5897931  50.9343213 102.5964921  16.7986819  52.4013465
 104.6410731  29.5781715  37.3503304 104.5624363  29.2441579  38.2439062
 105.4620398  30.0703483  37.3494777 107.3388923  22.4443455  50.5579623
 107.3065243  21.5059455  50.7439307 107.9489546  22.5227491  49.8245448
  99.1772253  21.3139508  36.6006827 100.1231358  21.1845716  36.6695245
  98.7986498  20.5754170  37.0776255 107.4883411  19.2354498  50.6037906
 106.9722460  18.4512955  50.4167835 108.3723360  18.9073215  50.7684425
 105.1494138  12.9795514  46.5633719 104.9518959  12.6710602  47.4477051
 105.7593844  13.7057153  46.6931649 113.1565472  23.5059461  49.6985660
 113.8868861  23.2444750  50.2593363 112.5472418  22.7688183  49.7387728
 111.2380770  21.6467324  50.2960111 110.5113933  21.5123289  49.6876602
 110.8228056  21.9544153  51.1016829  99.0610946  25.3657254  58.0607484
  99.9813955  25.5435853  58.2547530  99.0260529  24.4213299  57.9087183
  97.3615171  19.2389484  36.5361712  96.4546626  18.9422597  36.6124426
  97.6391152  18.9419302  35.6695998  98.9777236  13.7826374  42.6905953
  98.1677965  13.4373459  43.0661199  99.6661653  13.4733917  43.2793565
 100.9067785  12.8604421  44.3130250 101.4598823  13.2799874  44.9720273
 101.1437871  11.9340169  44.3553206  96.9300884  18.8491494  60.0933014
  96.8297611  19.7985851  60.0245105  96.7122426  18.5209733  59.2209084
  96.1313955  16.0976419  36.6773691  96.9933119  16.4231318  36.9369509
  96.3164299  15.3107915  36.1646757 104.2846592  14.9704946  43.8208914
 103.7045261  15.6289750  43.4386967 104.0182524  14.1482290  43.4096332
 102.7350158  14.3710003  46.0230235 103.2349936  14.4826538  45.2144553
 103.3785766  14.0671056  46.6631043  96.7932154  22.2788633  58.9098076
  96.3099236  23.0788993  59.1161965  96.8793093  22.2896578  57.9565520
 103.0671470  17.1305036  42.8765263 102.1797325  17.4154687  42.6585457
 103.4825459  16.9698799  42.0292539 106.4186006  17.1551557  46.5919602
 107.1946396  17.6448009  46.8644219 105.6934140  17.5809611  47.0491471
 108.8558564  17.8679176  47.6493542 109.4503055  17.6274912  46.9386851
 108.9285148  17.1486307  48.2767079 102.2114683  26.8949711  36.9713283
 102.9150533  27.0999713  37.5870938 101.4877332  27.4626473  37.2362366
 103.0412493  22.6459572  43.0915553 102.9847695  23.1028123  42.2523185
 103.5940836  21.8850257  42.9138395 106.8517299  18.4349304  43.9165672
 106.5954234  18.0345940  44.7473880 106.2270167  19.1493098  43.7915811
 111.1629637  21.1745377  46.4236964 110.6029195  21.2438566  47.1968526
 110.5573141  20.9986362  45.7036460 104.1201381  27.3332240  39.0211743
 104.9546985  26.9013438  38.8389217 103.9585724  27.1614254  39.9488637
 103.7747273  23.8364353  40.3868082 103.7196077  23.6708625  39.4456526
 103.1493328  24.5440386  40.5430272  88.5639788  19.0732418  54.2129504
  89.2098651  18.5631372  54.7016729  88.3556939  19.8101099  54.7872929
 101.0893180  26.1413265  59.7121645 101.9584340  26.3153917  59.3508280
 100.6099931  26.9607682  59.5897374  97.0843398  13.3372462  39.9653400
  97.0722068  14.2814302  40.1221671  97.9766820  13.1542608  39.6712861
  92.9037279  16.2200035  58.3104518  93.7668740  15.8636840  58.5207843
  92.3302689  15.8813930  58.9979923 112.7485656  37.8501891  49.1166919
 113.3864066  37.7308638  48.4130259 112.6306499  38.7982735  49.1754871
 109.5575362  37.8029319  49.0528444 109.2193874  37.6870384  48.1648979
 110.4265130  37.4020484  49.0329450 105.4162178  39.6564796  45.0425335
 104.8527043  39.5654733  44.2741623 105.3014573  38.8364700  45.5227827
 110.0395145  38.9564171  55.0114650 110.0283786  38.5616969  54.1395153
 110.2015784  38.2230243  55.6048421 102.9626610  41.1515987  47.8809555
 103.7547902  40.8106812  47.4655855 103.2023260  41.2610962  48.8011709
 110.9961736  43.3235763  40.3539800 110.3449716  43.9089844  39.9673814
 111.7906099  43.8541958  40.4134837 104.9217364  40.4124900  40.7526934
 105.6948240  39.8653887  40.6139810 105.2742762  41.2769150  40.9641396
 106.7602406  41.7401283  53.9593834 106.4692272  42.6446914  53.8440500
 107.3959390  41.7817810  54.6737903 107.6858613  39.1178131  50.5495193
 108.2822185  38.8934154  49.8352156 107.7433585  38.3762877  51.1520641
 107.2583641  36.5717567  38.3845384 107.5109162  36.0499088  37.6228847
 106.3208200  36.4083712  38.4872068 112.3026924  35.5753345  46.1920127
 113.0890013  35.1572768  45.8410544 112.5665629  36.4799437  46.3601776
 112.4737002  41.0126195  40.8908784 111.8382835  41.0860822  41.6029689
 112.1434408  41.6019794  40.2127863 117.7035351  35.5128578  47.0953106
 118.4360523  34.9427795  47.3290935 116.9474707  35.1250179  47.5359611
 106.9779930  38.4745672  40.5869759 106.8616188  37.7990576  41.2550843
 107.0882190  37.9878046  39.7701912 109.3211471  37.9355820  44.2916448
 108.9569678  37.4086441  45.0029370 110.1778587  37.5454289  44.1182934
 115.2260772  29.2250152  51.5547714 114.8944096  30.0945563  51.3308929
 114.6306385  28.9086436  52.2341745 108.9616958  32.9645719  39.2877797
 109.1291360  33.8325956  39.6548268 108.7714127  33.1273001  38.3639086
 111.7192291  41.4262698  50.9543627 111.4193014  42.3287737  50.8459434
 111.3743351  41.1594881  51.8064780 105.1704773  37.8776495  46.9880332
 104.2455269  37.7452709  47.1958023 105.4189186  38.6570714  47.4850274
 115.1189435  33.9445238  48.6341065 114.2106312  33.8760647  48.3399825
 115.0677031  34.4217183  49.4622890 108.9406179  35.4203377  40.2724464
 108.8205804  35.8660428  41.1109944 108.2458767  35.7688694  39.7138002
 102.5313584  37.5209769  47.8224121 102.6605965  37.7744248  48.7363532
 101.8511035  38.1137477  47.5028776 106.7013071  48.1907019  43.9214595
 106.6237101  49.1414844  44.0003075 106.0974715  47.8452891  44.5789521
 109.1930301  35.3634884  56.5775962 108.4163635  35.9228804  56.5678826
 109.8320864  35.8491667  57.0990832 116.9851081  32.1461677  50.4118938
 116.3425462  32.4394210  49.7658733 116.4806010  32.0314597  51.2172135
 114.6391245  35.8924850  41.1004798 115.5509101  36.1252237  40.9252495
 114.1300892  36.4761894  40.5379876 107.4476673  38.1720337  56.1393929
 108.1891357  38.7105381  55.8628752 106.7413659  38.7986626  56.2965481
 112.9232013  40.3149478  54.7366090 113.3315369  39.8731888  53.9920723
 112.2009274  39.7402105  54.9900283 109.2763083  35.2522085  52.1099647
 110.1224278  35.6761498  52.2534296 109.2161720  34.5955709  52.8038210
 113.2460827  40.8750668  48.4918379 112.6169690  41.0396383  47.7894447
 112.8586489  41.2892278  49.2629343 117.1250059  41.8105106  45.8462743
 116.4401097  42.1904008  45.2959776 117.2093909  42.4200433  46.5794691
 112.4262528  32.9126453  53.7680821 112.1823460  33.6668513  53.2315097
 112.7022459  33.2911801  54.6028068 114.3800991  39.4565065  52.4458086
 114.5917886  40.0996825  51.7692468 114.3330739  38.6227382  51.9780017
 111.9827220  32.0682886  49.3494659 111.1211699  32.3664140  49.6411396
 112.0089654  32.2853285  48.4175691 108.7988789  40.6125077  45.7568464
 109.2627135  40.8912779  44.9673087 108.5345587  39.7108521  45.5741555
 105.6912870  40.1596558  48.6948228 106.2614227  40.5883826  48.0565712
 106.2820982  39.8779143  49.3932413 107.7357675  36.7348229  42.5658029
 108.4381719  37.1869273  43.0331956 107.4038304  36.0932048  43.1937923
 106.1838037  35.3259986  56.9409239 105.5536697  36.0076266  57.1744636
 106.0774125  35.2143067  55.9962377 115.4946819  42.3337021  50.6180444
 116.3164263  41.9317208  50.3363125 115.4909222  42.2305255  51.5696560
 109.2603422  41.8821064  52.7741154 109.3247855  42.3441471  53.6099326
 108.5514346  41.2518429  52.9023464 108.9751440  43.5489172  42.6420135
 108.8397115  44.3940707  43.0704982 109.5161252  43.7508449  41.8786068
 105.4618780  29.6280751  59.3034490 105.0685725  29.0746950  59.9782134
 106.2784920  29.9391330  59.6941007 104.2375722  44.1830366  45.2970813
 104.4142350  45.1048331  45.1091797 105.0332556  43.8688785  45.7265193
 108.3786741  31.0438630  56.8954746 109.1196454  31.6445784  56.8159209
 108.6104663  30.3016268  56.3372789 103.5228079  36.2294998  55.1732976
 103.4081594  35.3280255  55.4740075 102.6672596  36.4758694  54.8217793
 110.6019916  44.1712738  56.7720477 110.1583770  43.3849117  56.4541381
 111.2637130  44.3591889  56.1064367 105.3607037  45.7008540  51.2981155
 105.9114463  45.5725603  50.5258149 104.5218513  46.0003429  50.9476048
 112.7001154  44.4515538  54.8001878 112.6819630  45.2724419  54.3082147
 113.6221074  44.3269613  55.0252019 109.1574209  41.9659667  55.6425386
 109.6902545  41.2047956  55.4124694 108.6288290  41.6733319  56.3849541
 112.3243903  27.0719733  51.1719028 111.9808173  27.9621375  51.0958139
 112.6922866  26.8821391  50.3088613 112.2894186  37.0628344  39.6791463
 111.7740810  37.8332949  39.9179851 112.0171495  36.3893481  40.3024525
 109.8741297  31.9078045  44.7376702 109.0182894  31.5184896  44.5582340
 110.2868249  31.9870006  43.8776487 111.4040444  29.4424389  49.1368261
 110.9005239  29.4054524  48.3236067 111.6971051  30.3517131  49.1964918
 107.6483330  29.5263118  48.1434443 108.5136327  29.3305927  47.7840333
 107.7160839  29.2973470  49.0703800 117.2628460  39.8160699  41.6144637
 116.4857903  39.4771859  41.1699799 117.9419941  39.8213322  40.9399602
 112.0780489  34.9355437  41.5051244 111.7730625  35.2501586  42.3561388
 113.0310932  35.0136856  41.5478577 110.5226921  41.0945660  43.1544198
 109.9948283  40.3598419  42.8417436 110.0214424  41.8720336  42.9084167
 115.5019767  39.2894680  48.2711245 114.8443442  39.9793942  48.3591373
 116.3060166  39.6791112  48.6145231 105.2545649  31.7565326  45.5150810
 105.8289401  31.5340508  44.7824003 105.8416631  31.8254021  46.2679411
 114.3125226  37.6439053  46.3215186 114.8257108  38.2769045  46.8236896
 114.9626450  37.0440249  45.9558546 105.5815236  33.7869787  39.5346695
 104.7452548  34.1244474  39.8555970 105.4420006  33.6518767  38.5973832
 107.5568317  28.6306575  44.2425879 106.9032729  28.3155592  43.6182494
 107.5148791  28.0082316  44.9685702 108.6679521  38.9125870  36.1579171
 107.7606583  38.6815124  36.3570320 109.1650553  38.1163489  36.3453153
 111.5747600  47.6223377  39.0775858 110.9009299  47.9255074  39.6860815
 111.9613422  48.4252458  38.7281315 110.7906057  35.1188509  48.5673527
 109.8728618  35.3403456  48.4095215 111.2066201  35.1934819  47.7085234
 111.5741105  36.5179924  43.6976207 112.3212924  37.0301322  43.3883329
 111.8432694  36.1963977  44.5580601 109.8467755  39.0138465  40.6803161
 108.9378974  38.7297498  40.7775631 109.8762839  39.4337544  39.8206468
 115.0787022  42.6245055  44.4494329 114.6249349  41.7835964  44.5059520
 114.4480989  43.2606453  44.7869109 114.0219942  33.5537041  45.6794996
 113.2842699  33.0414427  46.0105239 114.2746715  33.1137422  44.8678273
 113.5219961  44.4621551  45.3844147 113.8142936  45.0226608  44.6656513
 114.0318582  44.7550112  46.1397306 114.1231569  26.3313293  46.2736766
 114.4290446  25.4710656  45.9862681 114.8484174  26.9230913  46.0735760
 108.3952649  36.6267086  46.7812957 108.4501259  35.6740922  46.7055433
 107.5843851  36.7826525  47.2654255 109.5443843  40.5547209  38.0191240
 109.1063273  39.8383068  37.5596877 110.2854284  40.7823324  37.4576331
 106.3345009  35.2444145  44.5403336 105.5212874  35.5438316  44.9468528
 106.8304003  34.8499834  45.2577818 108.4853587  45.2401902  46.4737600
 108.4429765  45.4662749  45.5446132 109.4016286  45.0065277  46.6223402
 111.9319220  35.7085970  53.3718230 112.2868608  35.9357443  54.2312695
 112.5791352  36.0404347  52.7495485 117.6616957  38.8304406  44.0767559
 117.5234856  39.0206002  43.1488748 117.3053176  39.5923789  44.5335610
 105.8259084  32.8162501  50.1564571 106.4658463  32.6751260  49.4587534
 104.9936614  32.5297014  49.7803173 117.6886337  40.8980933  49.0878830
 118.1222844  40.8056222  49.9361884 118.4017918  40.8738433  48.4498846
 106.6019387  42.1164931  46.2699563 107.3959986  41.6215251  46.0682138
 105.8911080  41.5882794  45.9067269 111.4214232  44.4983027  50.6211931
 111.4751254  45.0673963  51.3889647 110.5529013  44.6684912  50.2565968
 104.3012625  34.2000583  52.1036382 104.9735679  33.9917945  51.4549031
 103.4742412  34.0022669  51.6641614 118.5501887  40.9404633  51.6211716
 118.7437777  41.8450444  51.8670990 118.4502505  40.4812052  52.4550301
 110.2038197  30.8262524  54.1202043 109.5566112  31.5252474  54.0266519
 110.9739213  31.2598668  54.4878291 113.6116995  41.0911376  57.1952596
 113.4602502  40.8621928  56.2782680 113.6021675  42.0481978  57.2083941
 110.3802332  38.6643289  52.1798863 111.3094392  38.8154449  52.0067830
 109.9593362  38.7527310  51.3247509 109.1790663  42.6893953  49.9497400
 109.0401749  42.3212738  50.8223338 108.3905260  43.2041593  49.7781358
 109.7738815  47.7903050  41.2922937 109.9490571  47.3191093  42.1068559
 109.0871603  48.4168816  41.5204197 110.7295879  42.0675556  47.3386238
 110.3945711  42.0276326  48.2343888 110.2299824  41.4020272  46.8656648
 104.7040123  37.4743186  52.8638819 104.5659921  36.7423425  53.4650358
 105.6145046  37.3852086  52.5823007 113.6655070  39.4131590  37.6123298
 113.0484241  38.6878419  37.5156350 113.1971559  40.1740951  37.2690372
 107.3322423  37.1863145  52.3522499 108.0422042  36.5456338  52.3109117
 107.2891731  37.4376040  53.2748680 115.3209202  44.1230499  55.2729078
 115.2621748  43.4389719  54.6059661 115.7228720  44.8649489  54.8209704
 106.0451357  34.1728363  54.1718138 105.5088714  33.7219102  54.8239735
 105.4568066  34.3074272  53.4288603 104.3399901  50.9392413  48.0662797
 104.5796499  51.5710937  48.7441815 103.4969097  50.5880453  48.3528156
 105.4553616  33.6317015  36.7344602 104.5783082  33.5105815  36.3706849
 105.9311369  32.8403093  36.4823491 115.3226609  42.0870083  53.5043058
 114.4353388  41.7496004  53.6269457 115.8925160  41.3553114  53.7411823
 101.7790478  33.3084371  51.2571133 101.6948667  32.7010040  50.5221543
 100.9573185  33.7993389  51.2580629 108.8527763  46.7471535  50.4704301
 108.7797934  47.5526506  50.9823605 108.4105156  46.9463501  49.6452322
 108.6417542  45.9843305  43.9807122 107.8585064  46.5264985  44.0745347
 109.3410287  46.5017285  44.3801364 111.9514192  31.7937934  46.6241328
 112.4482892  31.0407897  46.3042398 111.1801174  31.8302251  46.0584537
 119.8043950  37.4978300  48.2659619 119.7933826  38.3803015  47.8953552
 118.9361329  37.1449851  48.0714156 111.3126446  46.6458369  52.6262460
 112.0254418  47.2805834  52.5538361 110.8216475  46.7422235  51.8102461
 113.0343973  40.5509622  44.1979751 112.1000252  40.6711084  44.0284456
 113.2120641  39.6482088  43.9339761 108.5349161  33.9355317  46.3513012
 108.1646949  33.3826358  47.0393918 109.0308254  33.3313451  45.7988012
 116.4216524  36.3926941  44.7329785 116.8876977  37.2254933  44.6590088
 116.8724025  35.9271923  45.4375044 106.3638360  44.3952812  53.4468030
 107.0647819  45.0289295  53.5997425 105.8933475  44.7367544  52.6863670
 114.4892755  42.7370762  41.7315937 114.7652599  42.6227357  42.6409811
 113.6197254  42.3388247  41.6928110 114.3933187  28.7607528  48.7720687
 113.4796267  28.9911755  48.9402894 114.8226289  28.8445972  49.6234719
 114.1639646  36.9497420  51.2720581 113.5111096  37.1973327  50.6173033
 114.5420025  36.1361558  50.9383058 111.1246819  46.9857113  45.3748751
 111.3069214  46.1678769  45.8376503 111.9479805  47.2024805  44.9373641
 111.4588985  45.9125298  42.6363799 111.9876751  45.4017753  42.0233962
 111.7217205  45.5967828  43.5009333 110.2127219  37.6917231  57.7586618
 109.5367856  37.5911360  58.4288993 111.0354853  37.5356445  58.2222615
 101.9606078  43.9289168  50.3799133 102.5459515  43.1832855  50.5127037
 101.7630916  44.2393124  51.2635797 104.8144733  46.9640415  45.3961575
 104.1455108  47.4486543  44.9125615 104.6757603  47.2109635  46.3104954
 108.9550002  48.9984158  51.9944234 109.5068310  49.1615780  52.7593319
 109.2956195  49.5888596  51.3224259 103.9314495  31.3459308  52.5966118
 103.9955821  32.2074139  52.1843516 103.8681615  30.7333310  51.8638477
 103.4066767  33.4182441  56.2439153 104.0338806  33.0359518  56.8576677
 102.5494686  33.1996643  56.6094845 113.8060876  43.8245416  57.8492888
 114.3500780  44.4375374  57.3547843 113.2247721  44.3824994  58.3659901
 112.0918389  46.9466134  48.9807916 111.9669528  46.1455874  48.4718861
 112.7497480  47.4412327  48.4921886 103.7126557  33.3014866  48.1585056
 102.9913143  33.9150834  48.0192529 104.5019813  33.8372631  48.0801702
 114.1553297  44.7475154  50.6087466 113.2083633  44.6280505  50.5365793
 114.5036070  43.8597652  50.6913727 106.5152871  30.6369293  54.4325708
 107.0387272  30.8831590  55.1952017 106.2965204  31.4689328  54.0128845
 111.1599730  44.5427870  46.8091818 111.0124693  43.6144578  46.9899388
 111.9853224  44.5647961  46.3248894 105.0261975  33.1945937  42.6672310
 105.3658047  33.7231859  41.9450919 105.4734095  33.5326343  43.4430877
 114.7633852  45.3656429  47.8956691 115.6880400  45.1599290  47.7581142
 114.5949156  45.1172830  48.8046033 107.7205416  31.5782988  52.1175378
 107.3802236  30.7790801  52.5196058 107.0144422  31.8784699  51.5452212
 108.3721887  28.6632300  50.5702701 109.1947957  28.1892779  50.4481592
 108.6159951  29.4422784  51.0701388 107.0130122  31.6920559  40.8665603
 107.7338484  32.0701812  40.3629320 106.3895426  32.4109436  40.9700581
 111.1561245  32.3965708  41.8023936 111.3724859  33.2790346  41.5012764
 110.6755312  32.0051921  41.0729577 105.8960466  35.3551421  48.3794680
 105.7505047  35.6691724  49.2718962 105.4185670  35.9736321  47.8265579
 107.7556849  32.3453969  48.4275570 107.7418418  31.4495062  48.0907868
 108.4729277  32.3524633  49.0613856 109.6082980  32.7791309  50.4728697
 109.3500758  33.7008380  50.4713028 109.0768020  32.3821744  51.1629161
 114.5529169  45.8842096  43.2518782 114.7266046  45.3188519  42.4992635
 115.0458060  46.6842991  43.0698272 107.1593745  31.2268349  43.6963140
 107.2809656  30.2984996  43.8954027 106.8695787  31.2407035  42.7841455
 110.0284935  28.9123260  46.8329860 110.0506632  28.9762593  45.8781839
 110.4452994  28.0727768  47.0270366 120.4068560  38.6478519  44.8709082
 120.8499706  37.8985845  44.4728205 119.5295070  38.6388656  44.4882814
 115.5404341  45.2008861  40.3515681 116.2355246  45.8215554  40.5702995
 115.8827491  44.3504212  40.6268059 101.1572150  37.0226662  54.2112498
 100.4153886  37.1709297  54.7977129 100.8364894  37.2834927  53.3479248
 117.4395764  42.6508566  41.8803012 117.9647088  42.9895839  41.1552332
 117.3518117  41.7155582  41.6966146 109.1015813  46.5642640  54.0092888
 109.4102939  46.3191787  54.8815588 109.8991295  46.7689278  53.5211758
 109.1236425  48.7180550  46.2398265 108.6841415  48.2256928  46.9331121
 109.8744542  48.1753517  45.9990340 101.6028764  44.9092091  46.2422893
 102.4286784  44.6095862  45.8621536 101.2522816  44.1399713  46.6912681
 106.5710297  44.2618559  48.3120566 105.9490306  43.5989264  48.0122794
 107.2415164  44.2879691  47.6294214 106.6434825  32.7400347  57.9053072
 106.6922980  33.6162470  57.5230842 107.1857339  32.1977740  57.3324716
 117.1289670  43.2841470  57.1854209 116.3385214  43.2665609  56.6458709
 116.8923025  43.8229764  57.9403246 117.2487545  40.1333936  54.4986938
 117.2985550  39.9683944  55.4402461 117.1401469  39.2661195  54.1084819
 106.1323804  42.8122482  41.7879027 106.2811924  43.4957946  41.1345700
 106.9390247  42.7927572  42.3028483 114.5391308  36.1164864  55.8146245
 115.4401170  35.9771329  55.5230243 114.6139282  36.2819319  56.7544422
 108.8734113  33.4931719  54.6599431 108.0037422  33.7865285  54.3882020
 109.1093593  34.0772164  55.3806695 118.7505742  42.5530878  54.7428960
 118.4590550  42.9160858  55.5792421 118.1377873  41.8397886  54.5642292
 119.9501424  40.1183758  47.2631530 120.7848316  40.5573562  47.4269090
 120.0860553  39.6422411  46.4439776 116.9992930  37.6763493  53.2109018
 117.4747052  37.8691139  52.4027869 116.0758496  37.7322678  52.9652401
 111.5773147  29.7111336  52.1764851 112.0955091  30.4472363  51.8511340
 111.2228280  30.0175329  53.0111611 111.8285741  26.1311619  47.6965748
 112.1087495  25.4634808  48.3226175 112.6136348  26.3240714  47.1840412
 109.6319209  45.3070613  39.2590774 109.0593177  45.9260800  38.8061246
 110.2052003  45.8569974  39.7930696 115.6994599  34.5529253  51.4437323
 116.6512022  34.6527350  51.4649547 115.5298050  33.7607521  51.9535408
 113.7208979  31.6384836  51.6296724 113.1258911  31.9189849  50.9343213
 113.4358675  32.1278737  52.4013465 112.8516469  45.5907763  40.3899357
 113.7847142  45.5253324  40.5932232 112.7639682  46.4264030  39.9313889
 115.4804486  44.9073633  37.3503304 115.4018117  44.5733497  38.2439062
 116.3014153  45.3995401  37.3494777 118.1782677  37.7735372  50.5579623
 118.1458997  36.8351373  50.7439307 118.7883301  37.8519409  49.8245448
 110.0166008  36.6431425  36.6006827 110.9625113  36.5137633  36.6695245
 109.6380253  35.9046087  37.0776255 118.3277166  34.5646416  50.6037906
 117.8116214  33.7804872  50.4167835 119.2117114  34.2365132  50.7684425
 115.9887892  28.3087431  46.5633719 115.7912714  28.0002520  47.4477051
 116.5987598  29.0349070  46.6931649 109.9004700  40.6949171  58.0607484
 110.8207710  40.8727770  58.2547530 109.8654284  39.7505217  57.9087183
 108.2008925  34.5681402  36.5361712 107.2940381  34.2714514  36.6124426
 108.4784906  34.2711220  35.6695998 102.8966773  38.6050206  50.7030265
 103.1152783  39.5367314  50.7218299 103.3092547  38.2458180  51.4885069
 109.8170991  29.1118291  42.6905953 109.0071719  28.7665376  43.0661199
 110.5055408  28.8025835  43.2793565 111.7461539  28.1896338  44.3130250
 112.2992578  28.6091792  44.9720273 111.9831625  27.2632086  44.3553206
 107.7694638  34.1783412  60.0933014 107.6691365  35.1277769  60.0245105
 107.5516180  33.8501651  59.2209084 106.9707710  31.4268337  36.6773691
 107.8326874  31.7523235  36.9369509 107.1558054  30.6399833  36.1646757
 115.1240346  30.2996863  43.8208914 114.5439015  30.9581667  43.4386967
 114.8576279  29.4774208  43.4096332 113.5743913  29.7001921  46.0230235
 114.0743691  29.8118456  45.2144553 114.2179521  29.3962974  46.6631043
 107.6325908  37.6080551  58.9098076 107.1492990  38.4080911  59.1161965
 107.7186847  37.6188496  57.9565520 103.5599246  41.4985085  50.9466509
 104.5142499  41.4669028  50.8796441 103.3611769  41.0375709  51.7616735
 104.1498628  40.0686201  53.5137307 104.9691517  40.5630280  53.5372144
 104.4235436  39.1518170  53.4854875 113.9065224  32.4596954  42.8765263
 113.0191079  32.7446604  42.6585457 114.3219213  32.2990717  42.0292539
 117.2579760  32.4843475  46.5919602 118.0340150  32.9739927  46.8644219
 116.5327895  32.9101529  47.0491471 119.6952319  33.1971094  47.6493542
 120.2896810  32.9566830  46.9386851 119.7678903  32.4778225  48.2767079
 101.9149475  47.0404705  47.9636707 101.7803943  46.2805106  47.3974705
 101.4981537  47.7645605  47.4965496 113.0508438  42.2241628  36.9713283
 113.7544288  42.4291631  37.5870938 112.3271086  42.7918390  37.2362366
 113.8806248  37.9751490  43.0915553 113.8241449  38.4320041  42.2523185
 114.4334590  37.2142174  42.9138395 117.6911054  33.7641222  43.9165672
 117.4347988  33.3637857  44.7473880 117.0663922  34.4785015  43.7915811
 105.0718601  47.9374022  48.1755150 104.9550985  48.8819454  48.0733840
 104.2511047  47.6347583  48.5640949 114.9595135  42.6624158  39.0211743
 115.7940739  42.2305356  38.8389217 114.7979478  42.4906171  39.9488637
 114.6141027  39.1656271  40.3868082 114.5589831  39.0000542  39.4456526
 113.9887083  39.8732304  40.5430272 107.9237153  28.6664380  39.9653400
 107.9115823  29.6106220  40.1221671 108.8160575  28.4834525  39.6712861
 106.0973115  48.5902284  51.3911078 107.0000361  48.6225894  51.7077573
 105.8710485  47.6602735  51.4057414 107.8526717  47.3433270  48.0521157
 106.9022348  47.3435132  47.9385529 108.1559203  46.5966005  47.5357192
 111.7389272  25.2607157  44.2199337 110.9721668  24.7065643  44.3656019
 112.1499977  25.3329025  45.0813489 103.7431033  31.5491952  58.3104518
 104.6062495  31.1928757  58.5207843 103.1696444  31.2105847  58.9979923
 120.3969116  53.1321237  49.0528444 120.0587628  53.0162302  48.1648979
 121.2658885  52.7312402  49.0329450 116.2555932  54.9856713  45.0425335
 115.6920797  54.8946650  44.2741623 116.1408327  54.1656618  45.5227827
 120.8788899  54.2856089  55.0114650 120.8677540  53.8908887  54.1395153
 121.0409539  53.5522161  55.6048421 113.8020364  56.4807905  47.8809555
 114.5941656  56.1398729  47.4655855 114.0417014  56.5902880  48.8011709
 115.7611118  55.7416818  40.7526934 116.5341994  55.1945805  40.6139810
 116.1136517  56.6061067  40.9641396 117.5996161  57.0693200  53.9593834
 117.3086027  57.9738831  53.8440500 118.2353145  57.1109728  54.6737903
 118.5252367  54.4470049  50.5495193 119.1215940  54.2226071  49.8352156
 118.5827339  53.7054794  51.1520641 118.0977396  51.9009484  38.3845384
 118.3502917  51.3791005  37.6228847 117.1601955  51.7375630  38.4872068
 117.8173685  53.8037590  40.5869759 117.7009943  53.1282494  41.2550843
 117.9275944  53.3169964  39.7701912 120.1605226  53.2647737  44.2916448
 119.7963433  52.7378358  45.0029370 121.0172341  52.8746206  44.1182934
 119.8010713  48.2937637  39.2877797 119.9685115  49.1617873  39.6548268
 119.6107882  48.4564919  38.3639086 116.0098527  53.2068413  46.9880332
 115.0849024  53.0744627  47.1958023 116.2582940  53.9862632  47.4850274
 119.7799933  50.7495294  40.2724464 119.6599559  51.1952345  41.1109944
 119.0852522  51.0980612  39.7138002 113.3707338  52.8501686  47.8224121
 113.4999719  53.1036165  48.7363532 112.6904790  53.4429394  47.5028776
 117.5406825  63.5198936  43.9214595 117.4630855  64.4706761  44.0003075
 116.9368469  63.1744809  44.5789521 120.0324055  50.6926802  56.5775962
 119.2557389  51.2520722  56.5678826 120.6714618  51.1783585  57.0990832
 118.2870428  53.5012255  56.1393929 119.0285112  54.0397299  55.8628752
 117.5807413  54.1278544  56.2965481 120.1156837  50.5814002  52.1099647
 120.9618032  51.0053416  52.2534296 120.0555475  49.9247627  52.8038210
 119.6382544  55.9416994  45.7568464 120.1020889  56.2204697  44.9673087
 119.3739342  55.0400439  45.5741555 116.5306625  55.4888476  48.6948228
 117.1007982  55.9175744  48.0565712 117.1214737  55.2071060  49.3932413
 118.5751430  52.0640147  42.5658029 119.2775473  52.5161190  43.0331956
 118.2432058  51.4223965  43.1937923 117.0231791  50.6551903  56.9409239
 116.3930452  51.3368184  57.1744636 116.9167879  50.5434985  55.9962377
 112.3176764  50.3223699  47.8675163 111.5275818  50.5781228  47.3915274
 112.8088011  51.1372037  47.9727204 114.2691509  50.6868278  44.8258640
 113.4722672  50.7986973  45.3442135 114.0417101  51.0254931  43.9599530
 120.0997177  57.2112982  52.7741154 120.1641609  57.6733389  53.6099326
 119.3908101  56.5810347  52.9023464 110.6014467  50.5754190  50.2990154
 110.8522505  51.4601200  50.5647730 111.1374015  50.3958791  49.5265246
 119.8145194  58.8781089  42.6420135 119.6790869  59.7232625  43.0704982
 120.3555007  59.0800367  41.8786068 116.3012534  44.9572669  59.3034490
 115.9079480  44.4038868  59.9782134 117.1178674  45.2683248  59.6941007
 113.2674592  56.3956527  43.2148060 113.7799112  57.1899777  43.3653624
 113.9197305  55.6982818  43.1481661 115.0769477  59.5122283  45.2970813
 115.2536105  60.4340248  45.1091797 115.8726310  59.1980703  45.7265193
 119.2180495  46.3730548  56.8954746 119.9590208  46.9737701  56.8159209
 119.4498418  45.6308186  56.3372789 114.3621833  51.5586915  55.1732976
 114.2475348  50.6572173  55.4740075 113.5066351  51.8050612  54.8217793
 116.2000792  61.0300457  51.2981155 116.7508217  60.9017521  50.5258149
 115.3612268  61.3295346  50.9476048 119.9967963  57.2951585  55.6425386
 120.5296300  56.5339873  55.4124694 119.4682044  57.0025237  56.3849541
 111.2323509  54.7245182  43.9907630 112.0698731  55.1342190  43.7741338
 111.4101776  53.7844624  43.9607824 120.7135052  47.2369963  44.7376702
 119.8576648  46.8476813  44.5582340 121.1262003  47.3161924  43.8776487
 118.4877084  44.8555036  48.1434443 119.3530081  44.6597845  47.7840333
 118.5554593  44.6265388  49.0703800 121.3620676  56.4237578  43.1544198
 120.8342037  55.6890337  42.8417436 120.8608178  57.2012254  42.9084167
 116.0939403  47.0857244  45.5150810 116.6683155  46.8632425  44.7824003
 116.6810386  47.1545938  46.2679411 116.4208990  49.1161705  39.5346695
 115.5846303  49.4536391  39.8555970 116.2813760  48.9810685  38.5973832
 118.3962071  43.9598493  44.2425879 117.7426483  43.6447510  43.6182494
 118.3542545  43.3374233  44.9685702 119.5073276  54.2417788  36.1579171
 118.6000338  54.0107041  36.3570320 120.0044308  53.4455407  36.3453153
 120.6861509  54.3430383  40.6803161 119.7772729  54.0589416  40.7775631
 120.7156593  54.7629461  39.8206468 111.2549680  52.0635897  44.6618364
 111.0574080  51.4705258  43.9369430 110.6996344  51.7588107  45.3794302
 119.2346403  51.9559003  46.7812957 119.2895013  51.0032840  46.7055433
 118.4237605  52.1118442  47.2654255 120.3837597  55.8839126  38.0191240
 119.9457027  55.1674985  37.5596877 121.1248038  56.1115241  37.4576331
 117.1738763  50.5736063  44.5403336 116.3606629  50.8730234  44.9468528
 117.6697757  50.1791752  45.2577818 119.3247341  60.5693820  46.4737600
 119.2823520  60.7954666  45.5446132 120.2410040  60.3357195  46.6223402
 116.6652838  48.1454419  50.1564571 117.3052217  48.0043178  49.4587534
 115.8330369  47.8588932  49.7803173 117.4413142  57.4456849  46.2699563
 118.2353740  56.9507169  46.0682138 116.7304834  56.9174712  45.9067269
 113.7495905  51.5899931  42.3459316 112.8193494  51.5284386  42.5629278
 113.8453377  51.0675883  41.5495957 113.6681454  48.1154744  44.9337557
 113.9288272  49.0300077  44.8246718 114.4898627  47.6479186  45.0834170
 115.1406380  49.5292501  52.1036382 115.8129433  49.3209863  51.4549031
 114.3136166  49.3314587  51.6641614 120.0184418  58.0185871  49.9497400
 119.8795504  57.6504655  50.8223338 119.2299014  58.5333510  49.7781358
 120.6132570  63.1194967  41.2922937 120.7884326  62.6483011  42.1068559
 119.9265358  63.7460734  41.5204197 121.5689633  57.3967474  47.3386238
 121.2339466  57.3568244  48.2343888 121.0693579  56.7312190  46.8656648
 115.5433877  52.8035104  52.8638819 115.4053675  52.0715343  53.4650358
 116.4538801  52.7144004  52.5823007 118.1716178  52.5155063  52.3522499
 118.8815796  51.8748255  52.3109117 118.1285486  52.7667958  53.2748680
 116.8845112  49.5020281  54.1718138 116.3482469  49.0511019  54.8239735
 116.2961820  49.6366190  53.4288603 115.1793655  66.2684330  48.0662797
 115.4190253  66.9002854  48.7441815 114.3362852  65.9172370  48.3528156
 116.2947371  48.9608932  36.7344602 115.4176837  48.8397733  36.3706849
 116.7705124  48.1695011  36.4823491 107.8149511  53.7486092  46.8286109
 108.5020551  53.4347822  46.2407124 107.6597639  54.6527457  46.5553360
 112.6184233  48.6376289  51.2571133 112.5342422  48.0301958  50.5221543
 111.7966939  49.1285307  51.2580629 119.6921517  62.0763453  50.4704301
 119.6191689  62.8818424  50.9823605 119.2498910  62.2755418  49.6452322
 119.4811297  61.3135223  43.9807122 118.6978819  61.8556903  44.0745347
 120.1804042  61.8309202  44.3801364 119.3742916  49.2647235  46.3513012
 119.0040703  48.7118276  47.0393918 119.8702008  48.6605369  45.7988012
 117.2032114  59.7244730  53.4468030 117.9041574  60.3581213  53.5997425
 116.7327229  60.0659462  52.6863670 112.7999832  59.2581085  50.3799133
 113.3853269  58.5124773  50.5127037 112.6024671  59.5685042  51.2635797
 115.6538487  62.2932333  45.3961575 114.9848863  62.7778460  44.9125615
 115.5151357  62.5401553  46.3104954 107.3917487  51.8286685  49.1003576
 107.4301586  51.2950276  49.8940694 106.8857780  51.3021891  48.4814553
 119.7943756  64.3276076  51.9944234 120.3462064  64.4907698  52.7593319
 120.1349949  64.9180514  51.3224259 114.7708249  46.6751226  52.5966118
 114.8349576  47.5366057  52.1843516 114.7075369  46.0625228  51.8638477
 114.2460522  48.7474358  56.2439153 114.8732561  48.3651436  56.8576677
 113.3888441  48.5288560  56.6094845 111.0226065  50.5550788  42.1757508
 111.3179506  49.6461466  42.1224561 110.1214100  50.5338527  41.8538510
 114.5520312  48.6306784  48.1585056 113.8306897  49.2442752  48.0192529
 115.3413567  49.1664549  48.0801702 117.3546625  45.9661211  54.4325708
 117.8781027  46.2123507  55.1952017 117.1358958  46.7981245  54.0128845
 112.7513906  48.2364885  42.2996833 112.4226612  47.3562264  42.1171939
 113.1053277  48.1812554  43.1873222 115.8655729  48.5237855  42.6672310
 116.2051802  49.0523776  41.9450919 116.3127850  48.8618261  43.4430877
 118.5599170  46.9074906  52.1175378 118.2195990  46.1082719  52.5196058
 117.8538176  47.2076617  51.5452212 119.2115642  43.9924218  50.5702701
 120.0341711  43.5184696  50.4481592 119.4553705  44.7714702  51.0701388
 117.8523876  47.0212477  40.8665603 118.5732239  47.3993729  40.3629320
 117.2289181  47.7401353  40.9700581 116.7354221  50.6843339  48.3794680
 116.5898801  50.9983642  49.2718962 116.2579424  51.3028239  47.8265579
 118.5950604  47.6745887  48.4275570 118.5812172  46.7786980  48.0907868
 119.3123032  47.6816551  49.0613856 120.4476734  48.1083227  50.4728697
 120.1894512  49.0300298  50.4713028 119.9161775  47.7113662  51.1629161
 111.2099883  53.2248683  51.3182341 110.6653351  54.0008491  51.4502616
 112.0879233  53.5719488  51.1601463 117.9987499  46.5560267  43.6963140
 118.1203411  45.6276913  43.8954027 117.7089542  46.5698953  42.7841455
 120.8678690  44.2415178  46.8329860 120.8900387  44.3054511  45.8781839
 121.2846749  43.4019686  47.0270366 111.9965905  52.3518579  54.2112498
 111.2547641  52.5001215  54.7977129 111.6758649  52.6126845  53.3479248
 119.9409567  61.8934558  54.0092888 120.2496694  61.6483704  54.8815588
 120.7385049  62.0981196  53.5211758 119.9630179  64.0472467  46.2398265
 119.5235170  63.5548846  46.9331121 120.7138296  63.5045435  45.9990340
 112.4422518  60.2384008  46.2422893 113.2680538  59.9387780  45.8621536
 112.0916570  59.4691631  46.6912681 117.4104052  59.5910476  48.3120566
 116.7884061  58.9281181  48.0122794 118.0808918  59.6171608  47.6294214
 110.6431123  58.1570335  47.2011826 109.8063032  57.7292509  47.0195828
 110.6154769  58.3502778  48.1382618 117.4828579  48.0692264  57.9053072
 117.5316734  48.9454387  57.5230842 118.0251093  47.5269657  57.3324716
 116.9717558  58.1414400  41.7879027 117.1205679  58.8249864  41.1345700
 117.7784002  58.1219490  42.3028483 119.7127867  48.8223637  54.6599431
 118.8431177  49.1157203  54.3882020 119.9487348  49.4064082  55.3806695
 114.7270191  54.1679577  42.7940096 114.4816233  53.2641907  42.9920306
 114.8966106  54.1696728  41.8519574 113.9965839  49.9007935  40.2926257
 113.3035084  49.9752290  39.6366293 113.7517591  49.1368279  40.8147774
 120.4712964  60.6362530  39.2590774 119.8986931  61.2552717  38.8061246
 121.0445758  61.1861892  39.7930696 119.0402680  49.8973319  36.5361712
 118.1334135  49.6006432  36.6124426 119.3178661  49.6003137  35.6695998
 109.9580620  51.2179683  46.9860758 109.6383404  50.3644991  46.6935132
 109.4114048  51.4328261  47.7418726 113.7360528  53.9342124  50.7030265
 113.9546537  54.8659232  50.7218299 114.1486301  53.5750098  51.4885069
 120.6564745  44.4410209  42.6905953 119.8465474  44.0957294  43.0661199
 121.3449162  44.1317753  43.2793565 118.6088393  49.5075330  60.0933014
 118.5085120  50.4569686  60.0245105 118.3909935  49.1793568  59.2209084
 117.8101464  46.7560255  36.6773691 118.6720628  47.0815153  36.9369509
 117.9951808  45.9691750  36.1646757 109.8268880  54.8382594  48.9553880
 109.1332351  54.4236547  48.4423834 110.5741871  54.8803131  48.3587299
 118.4719663  52.9372468  58.9098076 117.9886745  53.7372828  59.1161965
 118.5580602  52.9480413  57.9565520 111.7405623  54.7700848  46.8319895
 111.7176311  54.8688535  45.8801778 112.0506259  55.6165999  47.1537061
 114.3993000  56.8277003  50.9466509 115.3536254  56.7960945  50.8796441
 114.2005524  56.3667627  51.7616735 114.9892383  55.3978119  53.5137307
 115.8085272  55.8922198  53.5372144 115.2629190  54.4810087  53.4854875
 112.7543229  62.3696623  47.9636707 112.6197697  61.6097023  47.3974705
 112.3375291  63.0937522  47.4965496 115.9112355  63.2665940  48.1755150
 115.7944739  64.2111372  48.0733840 115.0904801  62.9639501  48.5640949
 110.2427297  49.7316253  54.2129504 110.8886160  49.2215207  54.7016729
 110.0344448  50.4684935  54.7872929 118.7630907  43.9956298  39.9653400
 118.7509577  44.9398138  40.1221671 119.6554329  43.8126443  39.6712861
 116.9366869  63.9194201  51.3911078 117.8394116  63.9517812  51.7077573
 116.7104239  62.9894652  51.4057414 118.6920471  62.6725188  48.0521157
 117.7416102  62.6727050  47.9385529 118.9952957  61.9257923  47.5357192
 114.5824788  46.8783870  58.3104518 115.4456249  46.5220675  58.5207843
 114.0090198  46.5397765  58.9979923 118.6543265  69.0778010  46.8286109
 119.3414305  68.7639740  46.2407124 118.4991394  69.9819374  46.5553360
 118.2311241  67.1578603  49.1003576 118.2695341  66.6242194  49.8940694
 117.7251534  66.6313809  48.4814553 121.4824878  73.4862252  47.2011826
 120.6456786  73.0584427  47.0195828 121.4548523  73.6794696  48.1382618
 120.7974374  66.5471600  46.9860758 120.4777159  65.6936909  46.6935132
 120.2507803  66.7620179  47.7418726 120.6662634  70.1674512  48.9553880
 119.9726106  69.7528465  48.4423834 121.4135625  70.2095048  48.3587299
  95.8619318   9.8677223  30.6459902  95.7843347  10.8185049  30.7248382
  95.2580961   9.5223096  31.3034828  93.5006147  12.6162617  34.7908104
  93.7402746  13.2481142  35.4687122  92.6575344  12.2650657  35.0773463
  93.9750980   8.6410620  32.1206882  93.3061355   9.1256747  31.6370922
  93.8363849   8.8879840  33.0350261  98.1156248  10.6754363  38.7189540
  98.6674556  10.8385985  39.4838626  98.4562442  11.2658801  38.0469565
  91.0755721   8.7174910  34.6882014  90.9410189   7.9575311  34.1220012
  90.6587784   9.4415810  34.2210803  94.2324847   9.6144227  34.9000457
  94.1157231  10.5589659  34.7979147  93.4117294   9.3117788  35.2886256
  95.2579361  10.2672489  38.1156385  96.1606608  10.2996099  38.4322880
  95.0316732   9.3372940  38.1302721 109.5575363  14.8091442  35.7773751
 109.2193875  14.6932506  34.8894286 110.4265131  14.4082607  35.7574757
 105.4162179  16.6626918  31.7670642 104.8527044  16.5716855  30.9986929
 105.3014574  15.8426823  32.2473134 110.0395146  15.9626293  41.7359956
 110.0283787  15.5679092  40.8640460 110.2015786  15.2292366  42.3293728
 102.9626611  18.1578110  34.6054862 103.7547903  17.8168934  34.1901161
 103.2023261  18.2673085  35.5257015 110.9961738  20.3297886  27.0785107
 110.3449717  20.9151966  26.6919120 111.7906100  20.8604081  27.1380144
 104.9217365  17.4187023  27.4772241 105.6948241  16.8716010  27.3385117
 105.2742764  18.2831272  27.6886702 106.7602407  18.7463405  40.6839140
 106.4692273  19.6509036  40.5685806 107.3959392  18.7879933  41.3983210
 107.6858614  16.1240254  37.2740500 108.2822186  15.8996276  36.5597463
 107.7433586  15.3824999  37.8765948 106.9779931  15.4807795  27.3115066
 106.8616189  14.8052698  27.9796150 107.0882191  14.9940169  26.4947219
 109.3211472  14.9417942  31.0161755 108.9569680  14.4148563  31.7274676
 110.1778588  14.5516411  30.8428240 111.7192292  18.4324821  37.6788934
 111.4193016  19.3349860  37.5704741 111.3743352  18.1657004  38.5310087
 105.1704774  14.8838618  33.7125638 104.2455270  14.7514832  33.9203330
 105.4189187  15.6632837  34.2095581 102.5313585  14.5271891  34.5469427
 102.6605966  14.7806370  35.4608839 101.8511036  15.1199599  34.2274082
 106.7013072  25.1969141  30.6459902 106.6237102  26.1476966  30.7248382
 106.0974716  24.8515014  31.3034828 107.4476674  15.1782460  42.8639235
 108.1891359  15.7167504  42.5874059 106.7413660  15.8048749  43.0210787
 112.9232014  17.3211600  41.4611397 113.3315370  16.8794011  40.7166029
 112.2009275  16.7464228  41.7145590 113.2460829  17.8812791  35.2163686
 112.6169691  18.0458505  34.5139754 112.8586491  18.2954401  35.9874650
 117.1250061  18.8167229  32.5708050 116.4401099  19.1966130  32.0205083
 117.2093910  19.4262556  33.3039997 114.3800992  16.4627188  39.1703393
 114.5917887  17.1058948  38.4937774 114.3330740  15.6289504  38.7025323
 108.7988790  17.6187199  32.4813771 109.2627136  17.8974902  31.6918393
 108.5345589  16.7170644  32.2986862 105.6912872  17.1658681  35.4193534
 106.2614229  17.5945949  34.7811019 106.2820983  16.8841265  36.1177720
 101.4783011  11.9993904  34.5920470 100.6882064  12.2551433  34.1160580
 101.9694258  12.8142242  34.6972510 115.4946820  19.3399143  37.3425750
 116.3164264  18.9379331  37.0608432 115.4909223  19.2367377  38.2941866
 103.4297756  12.3638483  31.5503946 102.6328919  12.4757178  32.0687442
 103.2023348  12.7025136  30.6844837 109.2603424  18.8883187  39.4986461
 109.3247856  19.3503594  40.3344633 108.5514347  18.2580552  39.6268771
  99.7620713  12.2524395  37.0235460 100.0128752  13.1371404  37.2893036
 100.2980262  12.0728996  36.2510552 108.9751441  20.5551294  29.3665441
 108.8397116  21.4002830  29.7950289 109.5161254  20.7570572  28.6031375
 102.4280839  18.0726732  29.9393366 102.9405359  18.8669982  30.0898931
 103.0803551  17.3753023  29.8726968 104.2375723  21.1892488  32.0216120
 104.4142352  22.1110453  31.8337103 105.0332557  20.8750908  32.4510499
 103.5228080  13.2357120  41.8978283 103.4081595  12.3342378  42.1985382
 102.6672598  13.4820817  41.5463099 110.6019918  21.1774861  43.4965783
 110.1583772  20.3911239  43.1786688 111.2637131  21.3654011  42.8309674
 105.3607039  22.7070662  38.0226462 105.9114464  22.5787726  37.2503456
 104.5218515  23.0065551  37.6721355 112.7001156  21.4577661  41.5247185
 112.6819631  22.2786542  41.0327454 113.6221076  21.3331736  41.7497326
 109.1574210  18.9721790  42.3670693 109.6902547  18.2110078  42.1370001
 108.6288291  18.6795442  43.1094847 100.3929755  16.4015386  30.7152937
 101.2304977  16.8112395  30.4986645 100.5708023  15.4614829  30.6853131
 110.5226922  18.1007782  29.8789505 109.9948284  17.3660542  29.5662742
 110.0214425  18.8782459  29.6329473 115.5019768  16.2956803  34.9956551
 114.8443443  16.9856064  35.0836680 116.3060168  16.6853235  35.3390538
 111.5747602  24.6285500  25.8021164 110.9009300  24.9317197  26.4106122
 111.9613424  25.4314580  25.4526621 115.0787024  19.6307177  31.1739636
 114.6249351  18.7898087  31.2304826 114.4480990  20.2668575  31.5114416
 113.5219963  21.4683674  32.1089454 113.8142937  22.0288731  31.3901819
 114.0318583  21.7612235  32.8642613 100.4155926  13.7406102  31.3863670
 100.2180326  13.1475462  30.6614737  99.8602590  13.4358312  32.1039609
 108.4853588  22.2464025  33.1982907 108.4429767  22.4724871  32.2691439
 109.4016287  22.0127399  33.3468708 117.6886338  17.9043055  35.8124137
 118.1222845  17.8118344  36.6607191 118.4017919  17.8800556  35.1744153
 106.6019389  19.1227054  32.9944870 107.3959987  18.6277374  32.7927445
 105.8911081  18.5944917  32.6312575 111.4214233  21.5045149  37.3457237
 111.4751255  22.0736086  38.1134953 110.5529015  21.6747034  36.9811275
 102.9102152  13.2670136  29.0704622 101.9799740  13.2054591  29.2874585
 103.0059624  12.7446088  28.2741264 118.5501888  17.9466756  38.3457022
 118.7437778  18.8512566  38.5916297 118.4502506  17.4874175  39.1795607
 113.6116997  18.0973499  43.9197903 113.4602503  17.8684050  43.0027986
 113.6021676  19.0544100  43.9329248 110.3802333  15.6705411  38.9044169
 111.3094393  15.8216571  38.7313137 109.9593363  15.7589432  38.0492816
 109.1790665  19.6956076  36.6742707 109.0401750  19.3274860  37.5468645
 108.3905261  20.2103715  36.5026665 109.7738817  24.7965172  28.0168243
 109.9490572  24.3253216  28.8313866 109.0871605  25.4230939  28.2449504
 110.7295880  19.0737679  34.0631545 110.3945712  19.0338449  34.9589195
 110.2299826  18.4082395  33.5901955 104.7040124  14.4805309  39.5884126
 104.5659922  13.7485547  40.1895665 105.6145047  14.3914209  39.3068314
 107.3322424  14.1925268  39.0767805 108.0422043  13.5518460  39.0354424
 107.2891733  14.4438163  39.9993986 115.3209203  21.1292621  41.9974385
 115.2621749  20.4451841  41.3304968 115.7228722  21.8711611  41.5455011
 104.3399902  27.9454535  34.7908104 104.5796500  28.5773059  35.4687122
 103.4969098  27.5942575  35.0773463 115.3226610  19.0932205  40.2288364
 114.4353389  18.7558127  40.3514763 115.8925162  18.3615236  40.4657130
  96.9755758  15.4256297  33.5531416  97.6626797  15.1118027  32.9652431
  96.8203886  16.3297662  33.2798667 108.8527764  23.7533658  37.1949608
 108.7797935  24.5588629  37.7068912 108.4105157  23.9525623  36.3697629
 108.6417543  22.9905428  30.7052429 107.8585065  23.5327108  30.7990654
 109.3410289  23.5079407  31.1046670 111.3126447  23.6520492  39.3507766
 112.0254420  24.2867956  39.2783668 110.8216476  23.7484358  38.5347768
 113.0343974  17.5571744  30.9225058 112.1000253  17.6773207  30.7529762
 113.2120643  16.6544211  30.6585068 106.3638361  21.4014935  40.1713337
 107.0647820  22.0351418  40.3242731 105.8933476  21.7429667  39.4108976
 111.1246821  23.9919236  32.0994058 111.3069215  23.1740892  32.5621810
 111.9479807  24.2086928  31.6618948 111.4588986  22.9187421  29.3609106
 111.9876753  22.4079875  28.7479268 111.7217206  22.6029951  30.2254639
 110.2127220  14.6979354  44.4831924 109.5367857  14.5973483  45.1534300
 111.0354854  14.5418567  44.9467922 101.9606079  20.9351290  37.1044440
 102.5459516  20.1894978  37.2372344 101.7630917  21.2455247  37.9881104
 104.8144734  23.9702538  32.1206882 104.1455109  24.4548665  31.6370922
 104.6757604  24.2171758  33.0350261  96.5523734  13.5056890  35.8248883
  96.5907833  12.9720481  36.6186001  96.0464027  12.9792096  35.2059860
 108.9550003  26.0046281  38.7189540 109.5068311  26.1677903  39.4838626
 109.2956196  26.5950719  38.0469565 113.8060877  20.8307539  44.5738195
 114.3500781  21.4437497  44.0793150 113.2247722  21.3887117  45.0905208
 100.1832311  12.2320992  28.9002814 100.4785752  11.3231671  28.8469868
  99.2820347  12.2108732  28.5783817 112.0918390  23.9528257  35.7053223
 111.9669529  23.1517996  35.1964168 112.7497481  24.4474450  35.2167193
 114.1553298  21.7537277  37.3332773 113.2083634  21.6342628  37.2611099
 114.5036072  20.8659775  37.4159034 111.1599732  21.5489993  33.5337125
 111.0124694  20.6206700  33.7144695 111.9853225  21.5710084  33.0494200
 114.7633854  22.3718552  34.6201998 115.6880401  22.1661413  34.4826449
 114.5949157  22.1234953  35.5291339 114.5529170  22.8904219  29.9764089
 114.7266047  22.3250642  29.2237942 115.0458061  23.6905114  29.7943579
 100.3706130  14.9018888  38.0427648  99.8259598  15.6778696  38.1747922
 101.2485479  15.2489693  37.8846769 101.1572151  14.0288784  40.9357805
 100.4153887  14.1771420  41.5222435 100.8364896  14.2897050  40.0724554
 109.1015814  23.5704763  40.7338195 109.4102941  23.3253909  41.6060894
 109.8991296  23.7751401  40.2457065 109.1236426  25.7242672  32.9643571
 108.6841416  25.2319051  33.6576428 109.8744543  25.1815640  32.7235647
 101.6028765  21.9154213  32.9668199 102.4286785  21.6157985  32.5866843
 101.2522817  21.1461836  33.4157988 106.5710298  21.2680681  35.0365873
 105.9490308  20.6051386  34.7368101 107.2415165  21.2941813  34.3539521
  99.8037370  19.8340540  33.9257133  98.9669278  19.4062714  33.7441134
  99.7761016  20.0272983  34.8627924 117.1289671  20.2903593  43.9099516
 116.3385215  20.2727731  43.3704016 116.8923026  20.8291886  44.6648553
 106.1323805  19.8184605  28.5124334 106.2811926  20.5020069  27.8591006
 106.9390249  19.7989695  29.0273789 118.7505743  19.5593001  41.4674266
 118.4590552  19.9222981  42.3037727 118.1377875  18.8460009  41.2887598
 103.8876438  15.8449782  29.5185402 103.6422480  14.9412112  29.7165613
 104.0572353  15.8466933  28.5764880 109.6319211  22.3132735  25.9836081
 109.0593178  22.9322922  25.5306553 110.2052004  22.8632097  26.5176003
 109.9004702  17.7011294  44.7852790 110.8207711  17.8789893  44.9792837
 109.8654285  16.7567339  44.6332490  99.1186867  12.8949888  33.7106065
  98.7989651  12.0415196  33.4180439  98.5720295  13.1098466  34.4664032
 102.8966774  15.6112329  37.4275572 103.1152784  16.5429436  37.4463605
 103.3092548  15.2520303  38.2130375  98.9875127  16.5152799  35.6799187
  98.2938598  16.1006752  35.1669141  99.7348118  16.5573336  35.0832606
 107.6325910  14.6142673  45.6343382 107.1492991  15.4143033  45.8407271
 107.7186849  14.6250618  44.6810826 100.9011869  16.4471053  33.5565202
 100.8782557  16.5458740  32.6047085 101.2112506  17.2936204  33.8782368
 103.5599247  18.5047208  37.6711816 104.5142501  18.4731150  37.6041748
 103.3611771  18.0437832  38.4862042 104.1498629  17.0748324  40.2382614
 104.9691518  17.5692403  40.2617451 104.4235437  16.1580292  40.2100181
 101.9149476  24.0466827  34.6882014 101.7803944  23.2867228  34.1220012
 101.4981538  24.7707727  34.2210803 105.0718602  24.9436144  34.9000457
 104.9550986  25.8881577  34.7979147 104.2511048  24.6409706  35.2886256
  99.4033544  11.4086458  40.9374811 100.0492407  10.8985412  41.4262036
  99.1950695  12.1455140  41.5118236 111.9286936  18.4767305  46.4366951
 112.7978095  18.6507958  46.0753586 111.4493687  19.2961722  46.3142681
 106.0973116  25.5964406  38.1156385 107.0000363  25.6288017  38.4322880
 105.8710486  24.6664857  38.1302721 107.8526718  24.3495393  34.7766464
 106.9022349  24.3497255  34.6630836 108.1559204  23.6028127  34.2602498
 120.3969118  30.1383359  35.7773751 120.0587629  30.0224424  34.8894286
 121.2658886  29.7374525  35.7574757 116.2555933  31.9918836  31.7670642
 115.6920799  31.9008773  30.9986929 116.1408328  31.1718740  32.2473134
 120.8788901  31.2918211  41.7359956 120.8677541  30.8971009  40.8640460
 121.0409540  30.5584284  42.3293728 113.8020365  33.4870027  34.6054862
 114.5941657  33.1460852  34.1901161 114.0417016  33.5965002  35.5257015
 115.7611119  32.7478941  27.4772241 116.5341995  32.2007928  27.3385117
 116.1136518  33.6123190  27.6886702 117.5996162  34.0755323  40.6839140
 117.3086028  34.9800954  40.5685806 118.2353146  34.1171851  41.3983210
 118.5252369  31.4532171  37.2740500 119.1215941  31.2288194  36.5597463
 118.5827340  30.7116917  37.8765948 117.8173686  30.8099713  27.3115066
 117.7009944  30.1344616  27.9796150 117.9275946  30.3232087  26.4947219
 120.1605227  30.2709860  31.0161755 119.7963434  29.7440481  31.7274676
 121.0172343  29.8808329  30.8428240 116.0098528  30.2130535  33.7125638
 115.0849025  30.0806749  33.9203330 116.2582942  30.9924755  34.2095581
 113.3707339  29.8563809  34.5469427 113.4999721  30.1098288  35.4608839
 112.6904791  30.4491517  34.2274082 117.5406827  40.5261059  30.6459902
 117.4630856  41.4768884  30.7248382 116.9368470  40.1806931  31.3034828
 120.0324057  27.6988924  43.3021268 119.2557391  28.2582844  43.2924133
 120.6714620  28.1845707  43.8236139 118.2870429  30.5074378  42.8639235
 119.0285113  31.0459422  42.5874059 117.5807414  31.1340666  43.0210787
 120.1156839  27.5876125  38.8344954 120.9618034  28.0115538  38.9779603
 120.0555476  26.9309749  39.5283517 119.6382545  32.9479117  32.4813771
 120.1020891  33.2266820  31.6918393 119.3739343  32.0462561  32.2986862
 116.5306626  32.4950598  35.4193534 117.1007983  32.9237867  34.7811019
 117.1214738  32.2133183  36.1177720 118.5751431  29.0702269  29.2903336
 119.2775474  29.5223313  29.7577262 118.2432060  28.4286088  29.9183229
 117.0231793  27.6614026  43.6654545 116.3930453  28.3430307  43.8989942
 116.9167880  27.5497107  42.7207684 112.3176765  27.3285822  34.5920470
 111.5275819  27.5843350  34.1160580 112.8088012  28.1434160  34.6972510
 114.2691510  27.6930401  31.5503946 113.4722674  27.8049095  32.0687442
 114.0417103  28.0317053  30.6844837 120.0997178  34.2175104  39.4986461
 120.1641611  34.6795512  40.3344633 119.3908102  33.5872469  39.6268771
 110.6014468  27.5816312  37.0235460 110.8522506  28.4663322  37.2893036
 111.1374016  27.4020914  36.2510552 119.8145196  35.8843212  29.3665441
 119.6790870  36.7294747  29.7950289 120.3555008  36.0862489  28.6031375
 116.3012535  21.9634792  46.0279796 115.9079481  21.4100990  46.7027441
 117.1178676  22.2745370  46.4186314 113.2674593  33.4018650  29.9393366
 113.7799114  34.1961900  30.0898931 113.9197306  32.7044940  29.8726968
 115.0769478  36.5184406  32.0216120 115.2536106  37.4402371  31.8337103
 115.8726311  36.2042825  32.4510499 119.2180496  23.3792671  43.6200053
 119.9590210  23.9799824  43.5404516 119.4498419  22.6370309  43.0618096
 114.3621834  28.5649038  41.8978283 114.2475349  27.6634295  42.1985382
 113.5066352  28.8112735  41.5463099 116.2000793  38.0362580  38.0226462
 116.7508218  37.9079643  37.2503456 115.3612269  38.3357469  37.6721355
 119.9967964  34.3013708  42.3670693 120.5296301  33.5401996  42.1370001
 119.4682045  34.0087360  43.1094847 111.2323510  31.7307304  30.7152937
 112.0698732  32.1404312  30.4986645 111.4101778  30.7906746  30.6853131
 118.4877085  21.8617159  34.8679750 119.3530082  21.6659967  34.5085639
 118.5554594  21.6327510  35.7949106 121.3620677  33.4299700  29.8789505
 120.8342039  32.6952460  29.5662742 120.8608180  34.2074377  29.6329473
 116.0939405  24.0919366  32.2396117 116.6683156  23.8694548  31.5069309
 116.6810387  24.1608061  32.9924718 111.2549681  29.0698019  31.3863670
 111.0574081  28.4767380  30.6614737 110.6996345  28.7650230  32.1039609
 119.2346405  28.9621126  33.5058263 119.2895014  28.0094962  33.4300740
 118.4237607  29.1180565  33.9899562 117.1738765  27.5798186  31.2648642
 116.3606630  27.8792356  31.6713834 117.6697759  27.1853874  31.9823125
 119.3247342  37.5755943  33.1982907 119.2823521  37.8016789  32.2691439
 120.2410041  37.3419317  33.3468708 116.6652839  25.1516541  36.8809877
 117.3052219  25.0105300  36.1832841 115.8330370  24.8651055  36.5048479
 117.4413143  34.4518972  32.9944870 118.2353742  33.9569292  32.7927445
 116.7304836  33.9236835  32.6312575 113.7495907  28.5962053  29.0704622
 112.8193495  28.5346509  29.2874585 113.8453379  28.0738006  28.2741264
 113.6681456  25.1216866  31.6582864 113.9288273  26.0362199  31.5492025
 114.4898628  24.6541309  31.8079477 115.1406381  26.5354623  38.8281689
 115.8129434  26.3271985  38.1794338 114.3136168  26.3376709  38.3886921
 120.0184419  35.0247994  36.6742707 119.8795505  34.6566778  37.5468645
 119.2299015  35.5395633  36.5026665 120.6132571  40.1257090  28.0168243
 120.7884327  39.6545133  28.8313866 119.9265359  40.7522856  28.2449504
 121.5689634  34.4029596  34.0631545 121.2339467  34.3630366  34.9589195
 121.0693580  33.7374312  33.5901955 115.5433878  29.8097226  39.5884126
 115.4053676  29.0777465  40.1895665 116.4538802  29.7206126  39.3068314
 118.1716179  29.5217186  39.0767805 118.8815798  28.8810378  39.0354424
 118.1285487  29.7730080  39.9993986 116.8845113  26.5082404  40.8963445
 116.3482470  26.0573142  41.5485041 116.2961821  26.6428312  40.1533909
 115.1793656  43.2746453  34.7908104 115.4190255  43.9064977  35.4687122
 114.3362853  42.9234493  35.0773463 107.8149512  30.7548215  33.5531416
 108.5020552  30.4409945  32.9652431 107.6597641  31.6589579  33.2798667
 112.6184234  25.6438411  37.9816439 112.5342423  25.0364081  37.2466849
 111.7966941  26.1347430  37.9825936 119.6921518  39.0825575  37.1949608
 119.6191690  39.8880547  37.7068912 119.2498911  39.2817541  36.3697629
 119.4811298  38.3197345  30.7052429 118.6978820  38.8619025  30.7990654
 120.1804043  38.8371325  31.1046670 119.3742917  26.2709358  33.0758319
 119.0040704  25.7180398  33.7639225 119.8702009  25.6667491  32.5233319
 117.2032115  36.7306853  40.1713337 117.9041575  37.3643336  40.3242731
 116.7327230  37.0721584  39.4108976 112.7999833  36.2643208  37.1044440
 113.3853270  35.5186896  37.2372344 112.6024672  36.5747165  37.9881104
 115.6538489  39.2994455  32.1206882 114.9848864  39.7840583  31.6370922
 115.5151358  39.5463676  33.0350261 107.3917488  28.8348808  35.8248883
 107.4301588  28.3012399  36.6186001 106.8857781  28.3084014  35.2059860
 119.7943757  41.3338199  38.7189540 120.3462065  41.4969820  39.4838626
 120.1349951  41.9242637  38.0469565 114.7708250  23.6813349  39.3211425
 114.8349577  24.5428179  38.9088823 114.7075371  23.0687350  38.5883784
 114.2460523  25.7536481  42.9684459 114.8732562  25.3713558  43.5821984
 113.3888442  25.5350683  43.3340152 111.0226066  27.5612910  28.9002814
 111.3179507  26.6523589  28.8469868 110.1214102  27.5400650  28.5783817
 114.5520313  25.6368907  34.8830363 113.8306899  26.2504874  34.7437836
 115.3413569  26.1726672  34.8047009 117.3546626  22.9723333  41.1571015
 117.8781028  23.2185630  41.9197324 117.1358960  23.8043368  40.7374152
 112.7513907  25.2427008  29.0242139 112.4226613  24.3624387  28.8417245
 113.1053278  25.1874677  29.9118529 115.8655731  25.5299978  29.3917617
 116.2051803  26.0585899  28.6696225 116.3127851  25.8680384  30.1676184
 118.5599171  23.9137028  38.8420685 118.2195992  23.1144841  39.2441365
 117.8538178  24.2138739  38.2697518 119.2115643  20.9986341  37.2948008
 120.0341712  20.5246819  37.1726898 119.4553707  21.7776825  37.7946694
 116.7354222  27.6905461  35.1039987 116.5898803  28.0045764  35.9964268
 116.2579426  28.3090362  34.5510885 118.5950605  24.6808009  35.1520876
 118.5812174  23.7849103  34.8153174 119.3123033  24.6878673  35.7859162
 120.4476736  25.1145350  37.1974004 120.1894513  26.0362420  37.1958334
 119.9161776  24.7175784  37.8874468 111.2099884  30.2310806  38.0427648
 110.6653352  31.0070614  38.1747922 112.0879234  30.5781610  37.8846769
 111.9965906  29.3580702  40.9357805 111.2547642  29.5063337  41.5222435
 111.6758650  29.6188968  40.0724554 119.9409569  38.8996680  40.7338195
 120.2496695  38.6545827  41.6060894 120.7385051  39.1043319  40.2457065
 119.9630181  41.0534590  32.9643571 119.5235171  40.5610969  33.6576428
 120.7138298  40.5107558  32.7235647 112.4422520  37.2446131  32.9668199
 113.2680540  36.9449903  32.5866843 112.0916572  36.4753753  33.4157988
 117.4104053  36.5972599  35.0365873 116.7884062  35.9343304  34.7368101
 118.0808920  36.6233731  34.3539521 110.6431125  35.1632457  33.9257133
 109.8063033  34.7354632  33.7441134 110.6154770  35.3564901  34.8627924
 117.4828580  25.0754387  44.6298379 117.5316736  25.9516510  44.2476149
 118.0251094  24.5331780  44.0570022 116.9717560  35.1476522  28.5124334
 117.1205680  35.8311987  27.8591006 117.7784003  35.1281612  29.0273789
 119.7127869  25.8285759  41.3844738 118.8431178  26.1219326  41.1127326
 119.9487349  26.4126204  42.1052001 114.7270193  31.1741700  29.5185402
 114.4816235  30.2704030  29.7165613 114.8966107  31.1758850  28.5764880
 113.9965840  26.9070058  27.0171564 113.3035085  26.9814413  26.3611600
 113.7517592  26.1430401  27.5393081 120.4712965  37.6424653  25.9836081
 119.8986932  38.2614840  25.5306553 121.0445759  38.1924014  26.5176003
 109.9580621  28.2241805  33.7106065 109.6383406  27.3707114  33.4180439
 109.4114049  28.4390384  34.4664032 113.7360529  30.9404246  37.4275572
 113.9546539  31.8721354  37.4463605 114.1486303  30.5812221  38.2130375
 118.6088394  26.5137452  46.8178321 118.5085121  27.4631809  46.7490412
 118.3909936  26.1855691  45.9454391 109.8268881  31.8444717  35.6799187
 109.1332353  31.4298670  35.1669141 110.5741872  31.8865253  35.0832606
 118.4719664  29.9434591  45.6343382 117.9886746  30.7434951  45.8407271
 118.5580603  29.9542536  44.6810826 111.7405624  31.7762971  33.5565202
 111.7176312  31.8750658  32.6047085 112.0506260  32.6228121  33.8782368
 114.3993002  33.8339126  37.6711816 115.3536255  33.8023068  37.6041748
 114.2005525  33.3729749  38.4862042 114.9892384  32.4040242  40.2382614
 115.8085273  32.8984320  40.2617451 115.2629191  31.4872210  40.2100181
 112.7543230  39.3758745  34.6882014 112.6197698  38.6159146  34.1220012
 112.3375293  40.0999645  34.2210803 115.9112356  40.2728062  34.9000457
 115.7944740  41.2173495  34.7979147 115.0904803  39.9701624  35.2886256
 110.2427298  26.7378376  40.9374811 110.8886162  26.2277330  41.4262036
 110.0344449  27.4747057  41.5118236 116.9366870  40.9256324  38.1156385
 117.8394117  40.9579934  38.4322880 116.7104240  39.9956775  38.1302721
 118.6920472  39.6787311  34.7766464 117.7416103  39.6789172  34.6630836
 118.9952959  38.9320045  34.2602498 114.5824789  23.8845993  45.0349825
 115.4456251  23.5282797  45.2453150 114.0090200  23.5459887  45.7225229
 118.6543267  46.0840132  33.5531416 119.3414306  45.7701862  32.9652431
 118.4991395  46.9881497  33.2798667 118.2311243  44.1640726  35.8248883
 118.2695342  43.6304316  36.6186001 117.7251535  43.6375931  35.2059860
 121.4824879  50.4924375  33.9257133 120.6456787  50.0646549  33.7441134
 121.4548525  50.6856818  34.8627924 120.7974376  43.5533723  33.7106065
 120.4777160  42.6999031  33.4180439 120.2507804  43.7682301  34.4664032
 120.6662636  47.1736635  35.6799187 119.9726107  46.7590587  35.1669141
 121.4135627  47.2157171  35.0832606   3.1810049  55.2869341 105.4549321
   2.5071748  55.5901037 106.0634279   3.5675871  56.0898421 105.1054778
   7.1466790  52.8654824 106.7289144   7.8417694  53.4861517 106.9476459
   7.4889940  52.0150175 107.0041522   1.2381658  52.9716576 105.6364238
   0.6655625  53.5906763 105.1834710   1.8114452  53.5215938 106.1704160
   4.4578918  53.2553726 106.7672820   5.3909591  53.1899288 106.9705696
   4.3702131  54.0909993 106.3087353   7.0866935  52.5719596 103.7276768
   7.0080566  52.2379460 104.6212526   7.9076602  53.0641364 103.7268240
   4.6570887  49.8887592 103.3486746   5.3606737  50.0937594 103.9644402
   3.9333535  50.4564354 103.6135830   6.5657584  50.3270121 105.3985206
   7.4003188  49.8951319 105.2162681   6.4041927  50.1552135 106.3262101
  15.1941859  60.8439772 115.4940383  15.8320269  60.7246519 114.7903723
  15.0762702  61.7920616 115.5528335   7.8618381  62.6502677 111.4198799
   7.2983246  62.5592613 110.6515086   7.7470776  61.8302581 111.9001291
  13.4417940  66.3173644 106.7313264  12.7905919  66.9027725 106.3447277
  14.2362302  66.8479839 106.7908301   7.3673567  63.4062781 107.1300398
   8.1404443  62.8591768 106.9913274   7.7198966  64.2707031 107.3414859
   9.7039845  59.5655447 104.7618848   9.9565365  59.0436969 104.0002311
   8.7664404  59.4021593 104.8645531  14.7483127  58.5691226 112.5693591
  15.5346217  58.1510649 112.2184008  15.0121832  59.4737318 112.7375239
  14.9193205  64.0064076 107.2682248  14.2839038  64.0798703 107.9803153
  14.5890611  64.5957675 106.5901327  20.1491555  58.5066459 113.4726570
  20.8816727  57.9365676 113.7064399  19.3930910  58.1188060 113.9133075
   9.4236133  61.4683553 106.9643223   9.3072392  60.7928457 107.6324307
   9.5338393  60.9815927 106.1475376  11.7667674  60.9293701 110.6689912
  11.4025882  60.4024322 111.3802834  12.6234790  60.5392170 110.4956397
  11.4073161  55.9583600 105.6651261  11.5747564  56.8263837 106.0321732
  11.2170330  56.1210882 104.7412550  11.3862382  58.4141258 106.6497927
  11.2662007  58.8598309 107.4883408  10.6914971  58.7626575 106.0911466
   9.1469274  71.1844900 110.2988059   9.0693304  72.1352725 110.3776539
   8.5430918  70.8390772 110.9562985  17.0847448  58.8862731 107.4778261
  17.9965304  59.1190118 107.3025959  16.5757095  59.4699775 106.9153340
  15.6917031  63.8688549 114.8691843  15.0625893  64.0334264 114.1667911
  15.3042693  64.2830159 115.6402807  19.5706263  64.8042987 112.2236207
  18.8857301  65.1841889 111.6733240  19.6550112  65.4138314 112.9568154
  11.2444993  63.6062957 112.1341928  11.7083338  63.8850660 111.3446550
  10.9801791  62.7046402 111.9515019  10.1813879  59.7286110 108.9431493
  10.8837922  60.1807154 109.4105420   9.8494507  59.0869929 109.5711386
  17.9403022  65.3274902 116.9953908  18.7620466  64.9255089 116.7136589
  17.9365425  65.2243136 117.9470023  26.0309015  61.6713650 113.3438879
  25.2772724  61.1021048 113.1882883  26.1656556  61.6376315 114.2909514
  11.4207643  66.5427052 109.0193598  11.2853318  67.3878588 109.4478446
  11.9617456  66.7446330 108.2559532   4.8737041  64.0602490 109.5921523
   5.3861561  64.8545741 109.7427088   5.5259753  63.3628781 109.5255125
   6.6831925  67.1768247 111.6744277   6.8598554  68.0986211 111.4865261
   7.4788759  66.8626666 112.1038656   2.8385957  62.3891145 110.3681094
   3.6761179  62.7988153 110.1514802   3.0164225  61.4490587 110.3381288
  14.7350389  60.0566225 106.0564927  14.2197013  60.8270830 106.2953314
  14.4627698  59.3831362 106.6797988  12.3197501  54.9015926 111.1150165
  11.4639097  54.5122777 110.9355804  12.7324452  54.9807887 110.2549951
  19.7084664  62.8098580 107.9918100  18.9314106  62.4709740 107.5473262
  20.3876145  62.8151203 107.3173065  14.5236693  57.9293318 107.8824708
  14.2186828  58.2439467 108.7334851  15.4767135  58.0074737 107.9252041
  12.9683125  64.0883541 109.5317662  12.4404486  63.3536300 109.2190900
  12.4670627  64.8658217 109.2857630  17.9475971  62.2832561 114.6484708
  17.2899645  62.9731823 114.7364837  18.7516370  62.6728993 114.9918695
  16.7581429  60.6376934 112.6988650  17.2713311  61.2706926 113.2010360
  17.4082653  60.0378130 112.3332010   8.0271439  56.7807668 105.9120159
   7.1908751  57.1182355 106.2329434   7.8876209  56.6456648 104.9747296
  11.1135725  61.9063751 102.5352635  10.2062786  61.6753005 102.7343784
  11.6106757  61.1101370 102.7226617  14.0203804  70.6161258 105.4549321
  13.3465502  70.9192955 106.0634279  14.4069626  71.4190339 105.1054778
  14.0197308  59.5117805 110.0749671  14.7669127  60.0239202 109.7656793
  14.2888898  59.1901858 110.9354064  12.2923958  62.0076346 107.0576625
  11.3835177  61.7235379 107.1549095  12.3219042  62.4275425 106.1979932
  17.5243226  65.6182935 110.8267793  17.0705553  64.7773845 110.8832983
  16.8937192  66.2544334 111.1642573  16.4676145  56.5474922 112.0568460
  15.7298902  56.0352308 112.3878703  16.7202919  56.1075303 111.2451737
  15.9676165  67.4559432 111.7617611  16.2599139  68.0164489 111.0429977
  16.4774785  67.7487993 112.5170770  10.8408852  59.6204967 113.1586421
  10.8957462  58.6678803 113.0828897  10.0300054  59.7764406 113.6427719
  11.9900046  63.5485090 104.3964704  11.5519476  62.8320949 103.9370341
  12.7310487  63.7761204 103.8349795   8.7801212  58.2382026 110.9176799
   7.9669078  58.5376197 111.3241992   9.2760206  57.8437715 111.6351282
  10.9309790  68.2339783 112.8511064  10.8885969  68.4600630 111.9219596
  11.8472489  68.0003158 112.9996865  20.1073161  61.8242287 110.4541022
  19.9691059  62.0143883 109.5262212  19.7509380  62.5861670 110.9109073
  20.1342540  63.8918814 115.4652294  20.5679047  63.7994103 116.3135348
  20.8474121  63.8676314 114.8272310   9.0475591  65.1102812 112.6473027
   9.8416189  64.6153132 112.4455602   8.3367283  64.5820675 112.2840732
   5.3558354  59.2545894 108.7232780   4.4255942  59.1930350 108.9402742
   5.4515826  58.7321847 107.9269421  20.9958090  63.9342514 117.9985179
  21.1893980  64.8388325 118.2444454  20.8958708  63.4749933 118.8323764
  12.2195019  70.7840931 107.6696400  12.3946774  70.3128974 108.4842023
  11.5327807  71.4106697 107.8977661  13.1752082  65.0613437 113.7159702
  12.8401915  65.0214207 114.6117352  12.6756028  64.3958153 113.2430112
  16.1111274  62.4069471 103.9896761  15.4940444  61.6816299 103.8929814
  15.6427762  63.1678832 103.6463836   7.9009819  56.6254896 103.1118066
   7.0239286  56.5043696 102.7480312   8.3767573  55.8340974 102.8596954
  11.0873745  68.9781186 110.3580586  10.3041267  69.5202866 110.4518811
  11.7866491  69.4955166 110.7574827  22.2500153  60.4916181 114.6433083
  22.2390029  61.3740896 114.2727016  21.3817532  60.1387732 114.4487620
  15.4800176  63.5447503 110.5753215  14.5456455  63.6648965 110.4057919
  15.6576845  62.6419969 110.3113225  18.8672728  59.3864822 111.1103249
  19.3333180  60.2192814 111.0363552  19.3180228  58.9209804 111.8148508
  16.9348959  65.7308643 108.1089401  17.2108803  65.6165238 109.0183275
  16.0653457  65.3326128 108.0701574  13.5703023  69.9794994 111.7522215
  13.7525417  69.1616650 112.2149967  14.3936009  70.1962686 111.3147105
  13.9045188  68.9063179 109.0137263  14.4332955  68.3955634 108.4007425
  14.1673408  68.5905709 109.8782796   2.6288513  58.2196751 108.5530971
   2.9241954  57.3107429 108.4998025   1.7276549  58.1984490 108.2311974
  14.5374592  69.9404015 115.3581380  14.4125732  69.1393755 114.8492325
  15.1953683  70.4350208 114.8695350  16.6009500  67.7413035 116.9860930
  15.6539836  67.6218386 116.9139257  16.9492274  66.8535533 117.0687191
  13.6055934  67.5365751 113.1865282  13.4580896  66.6082459 113.3672852
  14.4309427  67.5585842 112.7022357   7.4718178  56.1883818 109.0445774
   7.8114251  56.7169740 108.3224383   7.9190299  56.5264224 109.8204341
  17.2090056  68.3594310 114.2730155  18.1336603  68.1537171 114.1354606
  17.0405359  68.1110711 115.1819496   9.4586325  54.6858440 107.2439067
  10.1794688  55.0639693 106.7402784   8.8351629  55.4047317 107.3474045
  13.6017448  55.3903589 108.1797399  13.8181062  56.2728227 107.8786227
  13.1211515  54.9989802 107.4503041  16.9985372  68.8779977 109.6292246
  17.1722249  68.3126400 108.8766099  17.4914263  69.6780872 109.4471736
  22.8524763  61.6416400 111.2482546  23.2955909  60.8923726 110.8501669
  21.9751273  61.6326537 110.8656278  17.9860544  68.1946742 106.7289144
  18.6811449  68.8153434 106.9476459  18.3283694  67.3442093 107.0041522
  19.8851967  65.6446447 108.2576475  20.4103292  65.9833720 107.5325795
  19.7974320  64.7093463 108.0739610   8.5780007  65.8060363 108.1652491
   8.7268128  66.4895827 107.5119163   9.3846451  65.7865453 108.6801946
  22.3957628  63.1121639 113.6404994  23.2304519  63.5511443 113.8042554
  22.5316756  62.6360292 112.8213239   6.3332640  61.8325541 109.1713560
   6.0878682  60.9287871 109.3693770   6.5028555  61.8342691 108.2293038
   5.6028288  57.5653898 106.6699721   4.9097533  57.6398253 106.0139757
   5.3580040  56.8014242 107.1921238  12.0775413  68.3008493 105.6364238
  11.5049380  68.9198681 105.1834710  12.6508206  68.8507855 106.1704160
  15.2972673  68.5845644 106.7672820  16.2303346  68.5191205 106.9705696
  15.2095885  69.4201910 106.3087353  17.9260689  67.9011514 103.7276768
  17.8474321  67.5671378 104.6212526  18.7470356  68.3933282 103.7268240
  20.6238880  60.7673253 116.9353087  20.5915200  59.8289254 117.1212770
  21.2339504  60.8457290 116.2018911  12.4622211  59.6369306 102.9780291
  13.4081316  59.5075514 103.0468709  12.0836456  58.8983968 103.4549719
  26.4415430  61.8289260 116.0759123  27.1718819  61.5674548 116.6366827
  25.8322376  61.0917982 116.1161191  24.5230727  59.9697123 116.6733575
  23.7963891  59.8353088 116.0650066  24.1078014  60.2773951 117.4790293
  10.6465128  57.5619283 102.9135176   9.7396584  57.2652395 102.9897889
  10.9241109  57.2649101 102.0469462  12.2627194  52.1056172 109.0679417
  11.4527922  51.7603257 109.4434663  12.9511611  51.7963716 109.6567029
   9.4163913  54.4206218 103.0547155  10.2783077  54.7461116 103.3142972
   9.6014257  53.6337714 102.5420221  17.5696549  53.2934744 110.1982378
  16.9895219  53.9519548 109.8160430  17.3032482  52.4712089 109.7869796
  16.3521428  55.4534835 109.2538726  15.4647283  55.7384485 109.0358921
  16.7675417  55.2928598 108.4066003  19.7035964  55.4781356 112.9693066
  20.4796354  55.9677808 113.2417682  18.9784098  55.9039410 113.4264935
  22.1408522  56.1908975 114.0267006  22.7353013  55.9504711 113.3160314
  22.2135106  55.4716105 114.6540542  15.4964641  65.2179509 103.3486746
  16.2000491  65.4229512 103.9644402  14.7727290  65.7856271 103.6135830
  16.3262451  60.9689371 109.4689016  16.2697653  61.4257922 108.6296649
  16.8790794  60.2080055 109.2911859  20.1367257  56.7579102 110.2939136
  19.8804191  56.3575738 111.1247344  19.5120125  57.4722896 110.1689275
  24.4479595  59.4975176 112.8010427  23.8879153  59.5668365 113.5741989
  23.8423098  59.3216160 112.0809924  17.4051338  65.6562039 105.3985206
  18.2396942  65.2243237 105.2162681  17.2435681  65.4844052 106.3262101
  17.0597231  62.1594152 106.7641546  17.0046034  61.9938423 105.8229990
  16.4343286  62.8670185 106.9203735  10.3693356  51.6602261 106.3426864
  10.3572026  52.6044101 106.4995135  11.2616778  51.4772406 106.0486325
  26.0335613  76.1731690 115.4940383  26.6714023  76.0538437 114.7903723
  25.9156456  77.1212534 115.5528335  22.8425320  76.1259118 115.4301908
  22.5043831  76.0100182 114.5422443  23.7115088  75.7250283 115.4102914
  18.7012135  77.9794594 111.4198799  18.1377001  77.8884531 110.6515086
  18.5864531  77.1594499 111.9001291  24.2811694  81.6465562 106.7313264
  23.6299674  82.2319642 106.3447277  25.0756057  82.1771757 106.7908301
  18.2067321  78.7354699 107.1300398  18.9798197  78.1883686 106.9913274
  18.5592720  79.5998948 107.3414859  20.9708571  77.4407930 116.9268657
  21.5672143  77.2163952 116.2125620  21.0283542  76.6992675 117.5294105
  20.5433599  74.8947365 104.7618848  20.7959120  74.3728886 104.0002311
  19.6058158  74.7313511 104.8645531  25.5876882  73.8983144 112.5693591
  26.3739971  73.4802567 112.2184008  25.8515586  74.8029236 112.7375239
  25.7586959  79.3355994 107.2682248  25.1232792  79.4090620 107.9803153
  25.4284366  79.9249593 106.5901327  30.9885309  73.8358377 113.4726570
  31.7210481  73.2657594 113.7064399  30.2324665  73.4479977 113.9133075
  20.2629888  76.7975471 106.9643223  20.1466146  76.1220375 107.6324307
  20.3732148  76.3107845 106.1475376  22.6061429  76.2585618 110.6689912
  22.2419636  75.7316239 111.3802834  23.4628545  75.8684087 110.4956397
  28.5110729  67.5479951 117.9321178  28.1794054  68.4175362 117.7082393
  27.9156343  67.2316235 118.6115209  22.2466916  71.2875518 105.6651261
  22.4141318  72.1555754 106.0321732  22.0564085  71.4502800 104.7412550
  25.0042249  79.7492497 117.3317091  24.7042972  80.6517536 117.2232898
  24.6593309  79.4824680 118.1838244  18.4554730  76.2006294 113.3653795
  17.5305227  76.0682508 113.5731487  18.7039144  76.9800513 113.8623738
  28.4039393  72.2675037 115.0114528  27.4956270  72.1990445 114.7173289
  28.3526989  72.7446982 115.8396354  22.2256137  73.7433175 106.6497927
  22.1055762  74.1890226 107.4883408  21.5308725  74.0918493 106.0911466
  19.9863029  86.5136817 110.2988059  19.9087058  87.4644642 110.3776539
  19.3824672  86.1682690 110.9562985  30.2701039  70.4691475 116.7892402
  29.6275419  70.7624009 116.1432197  29.7655968  70.3544396 117.5945599
  27.9241203  74.2154649 107.4778261  28.8359059  74.4482035 107.3025959
  27.4150850  74.7991693 106.9153340  22.5613041  73.5751883 118.4873111
  23.4074236  73.9991297 118.6307760  22.5011678  72.9185508 119.1811674
  26.5310785  79.1980467 114.8691843  25.9019648  79.3626181 114.1667911
  26.1436447  79.6122077 115.6402807  30.4100017  80.1334905 112.2236207
  29.7251055  80.5133806 111.6733240  30.4943866  80.7430232 112.9568154
  25.7112486  71.2356252 120.1454285  25.4673418  71.9898312 119.6088560
  25.9872416  71.6141599 120.9801532  27.6650949  77.7794864 118.8231550
  27.8767844  78.4226624 118.1465931  27.6180697  76.9457180 118.3553480
  25.2677178  70.3912685 115.7268122  24.4061657  70.6893938 116.0184860
  25.2939612  70.6083083 114.7949155  22.0838747  78.9354875 112.1341928
  22.5477093  79.2142578 111.3446550  21.8195545  78.0338320 111.9515019
  18.9762828  78.4826357 115.0721691  19.5464185  78.9113625 114.4339176
  19.5670940  78.2008941 115.7705877  21.0207633  75.0578028 108.9431493
  21.7231676  75.5099071 109.4105420  20.6888262  74.4161846 109.5711386
  14.7632967  73.3161580 114.2448627  13.9732021  73.5719109 113.7688737
  15.2544214  74.1309918 114.3500667  28.7796777  80.6566819 116.9953908
  29.6014220  80.2547007 116.7136589  28.7759179  80.5535054 117.9470023
  16.7147712  73.6806159 111.2032103  15.9178876  73.7924854 111.7215599
  16.4873305  74.0192812 110.3372994  36.8702770  77.0005568 113.3438879
  36.1166478  76.4312966 113.1882883  37.0050311  76.9668232 114.2909514
  22.2601398  81.8718970 109.0193598  22.1247072  82.7170506 109.4478446
  22.8011210  82.0738248 108.2559532  15.7130795  79.3894408 109.5921523
  16.2255316  80.1837658 109.7427088  16.3653508  78.6920699 109.5255125
  17.5225680  82.5060164 111.6744277  17.6992308  83.4278129 111.4865261
  18.3182513  82.1918584 112.1038656  25.6093861  65.3949532 117.5492492
  25.2658131  66.2851174 117.4731602  25.9772824  65.2051190 116.6862077
  13.6779712  77.7183062 110.3681094  14.5154934  78.1280071 110.1514802
  13.8557980  76.7782505 110.3381288  25.5744144  75.3858143 106.0564927
  25.0590767  76.1562748 106.2953314  25.3021452  74.7123279 106.6797988
  23.1591255  70.2307844 111.1150165  22.3032851  69.8414694 110.9355804
  23.5718207  70.3099805 110.2549951  24.6890402  67.7654187 115.5141725
  24.1855197  67.7284322 114.7009530  24.9821009  68.6746930 115.5738382
  20.9333288  67.8492917 114.5207907  21.7986284  67.6535726 114.1613796
  21.0010796  67.6203269 115.4477264  30.5478418  78.1390498 107.9918100
  29.7707861  77.8001657 107.5473262  31.2269899  78.1443121 107.3173065
  25.3630447  73.2585235 107.8824708  25.0580583  73.5731384 108.7334851
  26.3160889  73.3366655 107.9252041  23.8076879  79.4175459 109.5317662
  23.2798241  78.6828218 109.2190900  23.3064382  80.1950135 109.2857630
  28.7869725  77.6124479 114.6484708  28.1293399  78.3023740 114.7364837
  29.5910124  78.0020911 114.9918695  18.5395607  70.0795125 111.8924274
  19.1139359  69.8570306 111.1597467  19.1266589  70.1483819 112.6452875
  27.5975184  75.9668852 112.6988650  28.1107066  76.5998844 113.2010360
  28.2476408  75.3670047 112.3332010  18.8665194  72.1099586 105.9120159
  18.0302506  72.4474272 106.2329434  18.7269963  71.9748566 104.9747296
  20.8418274  66.9536374 110.6199343  20.1882687  66.6385391 109.9955958
  20.7998748  66.3312114 111.3459166  21.9529479  77.2355669 102.5352635
  21.0456541  77.0044922 102.7343784  22.4500511  76.4393288 102.7226617
  24.8597558  85.9453176 105.4549321  24.1859257  86.2484873 106.0634279
  25.2463380  86.7482256 105.1054778  24.0756015  73.4418307 114.9446991
  23.1578576  73.6633254 114.7868679  24.4916158  73.5164618 114.0858698
  24.8591062  74.8409723 110.0749671  25.6062881  75.3531120 109.7656793
  25.1282652  74.5193776 110.9354064  23.1317713  77.3368264 107.0576625
  22.2228932  77.0527296 107.1549095  23.1612796  77.7567342 106.1979932
  28.3636980  80.9474853 110.8267793  27.9099307  80.1065763 110.8832983
  27.7330947  81.5836252 111.1642573  27.3069900  71.8766839 112.0568460
  26.5692656  71.3644225 112.3878703  27.5596673  71.4367221 111.2451737
  26.8069919  82.7851350 111.7617611  27.0992894  83.3456407 111.0429977
  27.3168540  83.0779911 112.5170770  27.4081527  64.6543091 112.6510230
  27.7140404  63.7940455 112.3636145  28.1334132  65.2460711 112.4509223
  13.7005883  75.0573778 111.0391827  13.5030283  74.4643138 110.3142894
  13.1452547  74.7525988 111.7567766  21.6802607  74.9496884 113.1586421
  21.7351216  73.9970721 113.0828897  20.8693809  75.1056323 113.6427719
  22.8293800  78.8777007 104.3964704  22.3913230  78.1612866 103.9370341
  23.5704241  79.1053122 103.8349795  19.6194967  73.5673944 110.9176799
  18.8062832  73.8668115 111.3241992  20.1153961  73.1729633 111.6351282
  21.7703544  83.5631701 112.8511064  21.7279723  83.7892547 111.9219596
  22.6866243  83.3295076 112.9996865  25.2169178  74.0315768 119.7491693
  25.5718566  74.2587242 120.6086159  25.8641309  74.3634145 119.1268949
  30.9466915  77.1534204 110.4541022  30.8084814  77.3435800 109.5262212
  30.5903134  77.9153587 110.9109073  19.1109041  71.1392300 116.5338034
  19.7508421  70.9981059 115.8360998  18.2786572  70.8526813 116.1576636
  30.9736295  79.2210731 115.4652294  31.4072801  79.1286020 116.3135348
  31.6867876  79.1968232 114.8272310  19.8869345  80.4394730 112.6473027
  20.6809944  79.9445050 112.4455602  19.1761038  79.9112593 112.2840732
  16.1952109  74.5837812 108.7232780  15.2649697  74.5222267 108.9402742
  16.2909581  74.0613764 107.9269421  16.1137658  71.1092625 111.3111021
  16.3744475  72.0237958 111.2020182  16.9354830  70.6417067 111.4607634
  31.8351844  79.2634432 117.9985179  32.0287734  80.1680243 118.2444454
  31.7352463  78.8041851 118.8323764  23.4888155  69.1492323 120.4975507
  22.8416070  69.8482272 120.4039983  24.2589171  69.5828467 120.8651755
  23.6652289  76.9873088 118.5572326  24.5944349  77.1384247 118.3841294
  23.2443319  77.0757108 117.7020973  23.0588773  86.1132848 107.6696400
  23.2340529  85.6420892 108.4842023  22.3721561  86.7398615 107.8977661
  24.0145836  80.3905355 113.7159702  23.6795669  80.3506125 114.6117352
  23.5149782  79.7250071 113.2430112  26.9505028  77.7361389 103.9896761
  26.3334199  77.0108217 103.8929814  26.4821517  78.4970749 103.6463836
  18.7403574  71.9546813 103.1118066  17.8633040  71.8335614 102.7480312
  19.2161327  71.1632892 102.8596954  28.6076567  80.4099881 119.8816521
  27.7203346  80.0725803 120.0042920  29.1775118  79.6782913 120.1185287
  21.9267500  84.3073104 110.3580586  21.1435022  84.8494784 110.4518811
  22.6260245  84.8247083 110.7574827  25.2364150  70.1167733 113.0014792
  25.7332850  69.3637695 112.6815862  24.4651132  70.1532050 112.4358001
  33.0893908  75.8208099 114.6433083  33.0783784  76.7032814 114.2727016
  32.2211287  75.4679649 114.4487620  26.3193931  78.8739420 110.5753215
  25.3850210  78.9940883 110.4057919  26.4970599  77.9711887 110.3113225
  21.8199119  72.2585116 112.7286476  21.4496906  71.7056156 113.4167382
  22.3158211  71.6543250 112.1761476  29.7066482  74.7156740 111.1103249
  30.1726934  75.5484731 111.0363552  30.1573983  74.2501721 111.8148508
  27.7742713  81.0600561 108.1089401  28.0502557  80.9457155 109.0183275
  26.9047212  80.6618046 108.0701574  27.6783145  67.0837327 115.1494150
  26.7646225  67.3141553 115.3176357  28.1076246  67.1675771 116.0008183
  27.4489603  75.2727219 117.6494044  26.7961054  75.5203126 116.9946497
  27.8269983  74.4591357 117.3156522  24.4096777  85.3086912 111.7522215
  24.5919172  84.4908568 112.2149967  25.2329763  85.5254604 111.3147105
  24.7438943  84.2355097 109.0137263  25.2726709  83.7247551 108.4007425
  25.0067162  83.9197627 109.8782796  17.2164453  69.6689107 118.9739582
  17.2805779  70.5303938 118.5616980  17.1531573  69.0563109 118.2411941
  13.4682268  73.5488669 108.5530971  13.7635709  72.6399347 108.4998025
  12.5670304  73.5276408 108.2311974  25.3768347  85.2695933 115.3581380
  25.2519486  84.4685672 114.8492325  26.0347438  85.7642126 114.8695350
  16.9976515  71.6244665 114.5358520  16.2763101  72.2380633 114.3965993
  17.7869771  72.1602430 114.4575166  27.4403255  83.0704953 116.9860930
  26.4933590  82.9510304 116.9139257  27.7886028  82.1827451 117.0687191
  19.8002828  68.9599092 120.8099172  20.3237230  69.2061388 121.5725481
  19.5815162  69.7919126 120.3902309  15.1970109  71.2302766 108.6770296
  14.8682816  70.3500145 108.4945402  15.5509480  71.1750435 109.5646686
  24.4449688  82.8657669 113.1865282  24.2974651  81.9374376 113.3672852
  25.2703182  82.8877760 112.7022357  18.3111933  71.5175736 109.0445774
  18.6508005  72.0461657 108.3224383  18.7584053  71.8556142 109.8204341
  28.0483810  83.6886228 114.2730155  28.9730358  83.4829089 114.1354606
  27.8799113  83.4402629 115.1819496  21.0055373  69.9012787 118.4948842
  20.6652194  69.1020600 118.8969522  20.2994380  70.2014498 117.9225675
  21.6571845  66.9862099 116.9476165  22.4797915  66.5122577 116.8255056
  21.9009909  67.7652583 117.4474852  20.2980080  70.0150358 107.2439067
  21.0188442  70.3931610 106.7402784  19.6745384  70.7339234 107.3474045
  24.4411203  70.7195507 108.1797399  24.6574817  71.6020144 107.8786227
  23.9605270  70.3281720 107.4503041  19.1810424  73.6781220 114.7568144
  19.0355005  73.9921523 115.6492425  18.7035628  74.2966120 114.2039042
  21.0406807  70.6683768 114.8049033  21.0268376  69.7724861 114.4681331
  21.7579235  70.6754432 115.4387319  22.8932938  71.1021108 116.8502161
  22.6350715  72.0238179 116.8486491  22.3617978  70.7051543 117.5402625
  27.8379126  84.2071895 109.6292246  28.0116004  83.6418318 108.8766099
  28.3308018  85.0072790 109.4471736  20.4443703  69.5498148 110.0736604
  20.5659614  68.6214794 110.2727491  20.1545745  69.5636834 109.1614919
  23.3134893  67.2353058 113.2103323  23.3356590  67.2992392 112.2555303
  23.7302952  66.3957567 113.4043830  33.6918517  76.9708318 111.2482546
  34.1349664  76.2215643 110.8501669  32.8145028  76.9618454 110.8656278
  28.8254299  83.5238659 106.7289144  29.5205203  84.1445352 106.9476459
  29.1677449  82.6734011 107.0041522  30.7245722  80.9738365 108.2576475
  31.2497046  81.3125638 107.5325795  30.6368074  80.0385380 108.0739610
  30.5337503  78.4563735 120.8760402  30.5835508  78.2913742 121.8175925
  30.4251426  77.5890994 120.4858283  19.4173762  81.1352281 108.1652491
  19.5661882  81.8187745 107.5119163  20.2240205  81.1157371 108.6801946
  27.8241265  74.4394663 122.1919708  28.7251128  74.3001128 121.9003706
  27.8989240  74.6049118 123.1317886  22.1584071  71.8161518 121.0372895
  21.2887380  72.1095084 120.7655483  22.3943551  72.4001963 121.7580158
  32.0355700  80.8760677 121.1202423  31.7440508  81.2390657 121.9565884
  31.4227831  80.1627685 120.9415755  33.2351382  78.4413556 113.6404994
  34.0698274  78.8803360 113.8042554  33.3710511  77.9652210 112.8213239
  30.2842888  75.9993291 119.5882481  30.7597010  76.1920937 118.7801333
  29.3608453  76.0552477 119.3425865  17.1726395  77.1617458 109.1713560
  16.9272437  76.2579788 109.3693770  17.3422309  77.1634609 108.2293038
  24.8623105  68.0341135 118.5538315  25.3805048  68.7702162 118.2284804
  24.5078237  68.3405128 119.3885074  16.4422042  72.8945816 106.6699721
  15.7491287  72.9690171 106.0139757  16.1973794  72.1306160 107.1921238
  25.1135699  64.4541417 114.0739212  25.3937453  63.7864606 114.6999638
  25.8986306  64.6470513 113.5613876  22.9169167  83.6300411 105.6364238
  22.3443134  84.2490598 105.1834710  23.4901961  84.1799773 106.1704160
  28.9844557  72.8759051 117.8210787  29.9361980  72.9757149 117.8423011
  28.8148008  72.0837320 118.3308871  27.0058937  69.9614634 118.0070188
  26.4108869  70.2419647 117.3116676  26.7208633  70.4508535 118.7786929
  26.1366427  83.9137561 106.7672820  27.0697100  83.8483123 106.9705696
  26.0489640  84.7493828 106.3087353  28.7654444  83.2303432 103.7276768
  28.6868075  82.8963295 104.6212526  29.5864110  83.7225200 103.7268240
  31.4632635  76.0965171 116.9353087  31.4308955  75.1581172 117.1212770
  32.0733259  76.1749208 116.2018911  23.3015966  74.9661224 102.9780291
  24.2475070  74.8367432 103.0468709  22.9230211  74.2275886 103.4549719
  31.6127123  72.8876214 116.9811370  31.0966172  72.1034671 116.7941299
  32.4967072  72.5594931 117.1457889  29.2737850  66.6317230 112.9407182
  29.0762671  66.3232318 113.8250514  29.8837556  67.3578869 113.0705112
  37.2809185  77.1581178 116.0759123  38.0112573  76.8966466 116.6366827
  36.6716130  76.4209900 116.1161191  35.3624482  75.2989040 116.6733575
  34.6357645  75.1645005 116.0650066  34.9471769  75.6065869 117.4790293
  21.4858883  72.8911200 102.9135176  20.5790338  72.5944313 102.9897889
  21.7634864  72.5941018 102.0469462  23.1020949  67.4348090 109.0679417
  22.2921677  67.0895175 109.4434663  23.7905366  67.1255634 109.6567029
  25.0311497  66.5126137 110.6903714  25.5842536  66.9321590 111.3493737
  25.2681583  65.5861885 110.7326670  20.2557668  69.7498136 103.0547155
  21.1176832  70.0753034 103.3142972  20.4408012  68.9629631 102.5420221
  28.4090304  68.6226662 110.1982378  27.8288973  69.2811466 109.8160430
  28.1426237  67.8004007 109.7869796  26.8593870  68.0231720 112.4003698
  27.3593649  68.1348254 111.5918017  27.5029478  67.7192773 113.0404507
  27.1915182  70.7826752 109.2538726  26.3041037  71.0676403 109.0358921
  27.6069171  70.6220516 108.4066003  30.5429718  70.8073273 112.9693066
  31.3190108  71.2969726 113.2417682  29.8177852  71.2331328 113.4264935
  32.9802277  71.5200893 114.0267006  33.5746768  71.2796629 113.3160314
  33.0528860  70.8008023 114.6540542  26.3358395  80.5471427 103.3486746
  27.0394246  80.7521430 103.9644402  25.6121044  81.1148189 103.6135830
  27.1656206  76.2981288 109.4689016  27.1091407  76.7549840 108.6296649
  27.7184548  75.5371973 109.2911859  30.9761012  72.0871020 110.2939136
  30.7197946  71.6867656 111.1247344  30.3513880  72.8014814 110.1689275
  35.2873350  74.8267093 112.8010427  34.7272908  74.8960283 113.5741989
  34.6816853  74.6508078 112.0809924  28.2445093  80.9853956 105.3985206
  29.0790697  80.5535155 105.2162681  28.0829436  80.8135970 106.3262101
  27.8990985  77.4886070 106.7641546  27.8439789  77.3230341 105.8229990
  27.2737040  78.1962102 106.9203735  21.2087111  66.9894179 106.3426864
  21.1965780  67.9336018 106.4995135  22.1010532  66.8064324 106.0486325
  25.0239230  63.5836955 110.5972801  24.2571626  63.0295442 110.7429483
  25.4349935  63.6558824 111.4586952  36.8729368  91.5023607 115.4940383
  37.5107778  91.3830355 114.7903723  36.7550211  92.4504451 115.5528335
  33.6819074  91.4551035 115.4301908  33.3437586  91.3392100 114.5422443
  34.5508842  91.0542201 115.4102914  29.5405890  93.3086512 111.4198799
  28.9770755  93.2176449 110.6515086  29.4258285  92.4886416 111.9001291
  35.1205449  96.9757480 106.7313264  34.4693428  97.5611560 106.3447277
  35.9149811  97.5063674 106.7908301  29.0461076  94.0646617 107.1300398
  29.8191952  93.5175604 106.9913274  29.3986475  94.9290866 107.3414859
  31.8102325  92.7699848 116.9268657  32.4065897  92.5455870 116.2125620
  31.8677297  92.0284593 117.5294105  31.3827354  90.2239283 104.7618848
  31.6352874  89.7020804 104.0002311  30.4451913  90.0605428 104.8645531
  36.4270636  89.2275061 112.5693591  37.2133726  88.8094484 112.2184008
  36.6909341  90.1321153 112.7375239  36.5980714  94.6647912 107.2682248
  35.9626547  94.7382538 107.9803153  36.2678120  95.2541510 106.5901327
  41.8279064  89.1650294 113.4726570  42.5604236  88.5949511 113.7064399
  41.0718419  88.7771895 113.9133075  31.1023642  92.1267389 106.9643223
  30.9859900  91.4512292 107.6324307  31.2125902  91.6399763 106.1475376
  33.4455183  91.5877536 110.6689912  33.0813391  91.0608157 111.3802834
  34.3022299  91.1976005 110.4956397  39.3504484  82.8771869 117.9321178
  39.0187809  83.7467279 117.7082393  38.7550097  82.5608153 118.6115209
  33.0860670  86.6167436 105.6651261  33.2535073  87.4847672 106.0321732
  32.8957839  86.7794717 104.7412550  35.8436003  95.0784415 117.3317091
  35.5436727  95.9809453 117.2232898  35.4987063  94.8116598 118.1838244
  29.2948485  91.5298211 113.3653795  28.3698981  91.3974425 113.5731487
  29.5432898  92.3092431 113.8623738  39.2433147  87.5966955 115.0114528
  38.3350025  87.5282363 114.7173289  39.1920743  88.0738900 115.8396354
  33.0649891  89.0725093 106.6497927  32.9449516  89.5182144 107.4883408
  32.3702480  89.4210411 106.0911466  30.8256783 101.8428735 110.2988059
  30.7480813 102.7936560 110.3776539  30.2218427 101.4974607 110.9562985
  41.1094794  85.7983393 116.7892402  40.4669174  86.0915926 116.1432197
  40.6049722  85.6836313 117.5945599  38.7634957  89.5446566 107.4778261
  39.6752813  89.7773953 107.3025959  38.2544604  90.1283610 106.9153340
  33.4006795  88.9043801 118.4873111  34.2467990  89.3283214 118.6307760
  33.3405433  88.2477425 119.1811674  37.3704540  94.5272385 114.8691843
  36.7413402  94.6918099 114.1667911  36.9830202  94.9413994 115.6402807
  41.2493772  95.4626823 112.2236207  40.5644810  95.8425724 111.6733240
  41.3337621  96.0722149 112.9568154  36.5506240  86.5648169 120.1454285
  36.3067172  87.3190230 119.6088560  36.8266171  86.9433517 120.9801532
  38.5044703  93.1086782 118.8231550  38.7161598  93.7518542 118.1465931
  38.4574451  92.2749098 118.3553480  36.1070932  85.7204602 115.7268122
  35.2455411  86.0185856 116.0184860  36.1333367  85.9375001 114.7949155
  32.9232502  94.2646793 112.1341928  33.3870847  94.5434496 111.3446550
  32.6589300  93.3630237 111.9515019  29.8156583  93.8118274 115.0721691
  30.3857940  94.2405543 114.4339176  30.4064694  93.5300859 115.7705877
  31.8601388  90.3869945 108.9431493  32.5625431  90.8390989 109.4105420
  31.5282016  89.7453764 109.5711386  25.6026722  88.6453498 114.2448627
  24.8125776  88.9011026 113.7688737  26.0937969  89.4601836 114.3500667
  39.6190531  95.9858737 116.9953908  40.4407975  95.5838924 116.7136589
  39.6152934  95.8826971 117.9470023  27.5541467  89.0098077 111.2032103
  26.7572630  89.1216771 111.7215599  27.3267059  89.3484729 110.3372994
  47.7096524  92.3297486 113.3438879  46.9560233  91.7604884 113.1882883
  47.8444065  92.2960150 114.2909514  33.0995152  97.2010888 109.0193598
  32.9640827  98.0462424 109.4478446  33.6404965  97.4030165 108.2559532
  26.5524550  94.7186326 109.5921523  27.0649070  95.5129576 109.7427088
  27.2047262  94.0212616 109.5255125  28.3619434  97.8352082 111.6744277
  28.5386063  98.7570047 111.4865261  29.1576268  97.5210501 112.1038656
  36.4487616  80.7241450 117.5492492  36.1051885  81.6143091 117.4731602
  36.8166578  80.5343107 116.6862077  24.5173466  93.0474980 110.3681094
  25.3548688  93.4571989 110.1514802  24.6951734  92.1074422 110.3381288
  36.4137898  90.7150061 106.0564927  35.8984522  91.4854665 106.2953314
  36.1415207  90.0415197 106.6797988  33.9985010  85.5599762 111.1150165
  33.1426606  85.1706612 110.9355804  34.4111961  85.6391722 110.2549951
  35.5284156  83.0946105 115.5141725  35.0248952  83.0576240 114.7009530
  35.8214763  84.0038848 115.5738382  31.7727042  83.1784835 114.5207907
  32.6380039  82.9827643 114.1613796  31.8404551  82.9495186 115.4477264
  41.3872173  93.4682415 107.9918100  40.6101615  93.1293575 107.5473262
  42.0663654  93.4735039 107.3173065  36.2024202  88.5877153 107.8824708
  35.8974337  88.9023302 108.7334851  37.1554644  88.6658573 107.9252041
  34.6470634  94.7467376 109.5317662  34.1191995  94.0120136 109.2190900
  34.1458136  95.5242053 109.2857630  39.6263480  92.9416397 114.6484708
  38.9687154  93.6315658 114.7364837  40.4303879  93.3312829 114.9918695
  29.3789361  85.4087042 111.8924274  29.9533113  85.1862224 111.1597467
  29.9660344  85.4775737 112.6452875  38.4368938  91.2960769 112.6988650
  38.9500820  91.9290761 113.2010360  39.0870162  90.6961965 112.3332010
  29.7058948  87.4391504 105.9120159  28.8696260  87.7766190 106.2329434
  29.5663718  87.3040483 104.9747296  31.6812029  82.2828291 110.6199343
  31.0276441  81.9677309 109.9955958  31.6392503  81.6604032 111.3459166
  32.7923234  92.5647586 102.5352635  31.8850295  92.3336840 102.7343784
  33.2894266  91.7685206 102.7226617  35.6991313 101.2745094 105.4549321
  35.0253011 101.5776790 106.0634279  36.0857135 102.0774174 105.1054778
  34.9149769  88.7710225 114.9446991  33.9972331  88.9925172 114.7868679
  35.3309913  88.8456535 114.0858698  35.6984817  90.1701641 110.0749671
  36.4456636  90.6823038 109.7656793  35.9676406  89.8485693 110.9354064
  33.9711467  92.6660181 107.0576625  33.0622686  92.3819214 107.1549095
  34.0006551  93.0859260 106.1979932  39.2030735  96.2766771 110.8267793
  38.7493062  95.4357681 110.8832983  38.5724701  96.9128169 111.1642573
  38.1463654  87.2058757 112.0568460  37.4086411  86.6936143 112.3878703
  38.3990428  86.7659138 111.2451737  37.6463674  98.1143268 111.7617611
  37.9386648  98.6748325 111.0429977  38.1562294  98.4071829 112.5170770
  38.2475281  79.9835009 112.6510230  38.5534158  79.1232372 112.3636145
  38.9727886  80.5752629 112.4509223  24.5399638  90.3865695 111.0391827
  24.3424037  89.7935056 110.3142894  23.9846301  90.0817906 111.7567766
  32.5196361  90.2788802 113.1586421  32.5744971  89.3262638 113.0828897
  31.7087563  90.4348241 113.6427719  33.6687555  94.2068925 104.3964704
  33.2306985  93.4904784 103.9370341  34.4097996  94.4345040 103.8349795
  30.4588721  88.8965862 110.9176799  29.6456587  89.1960032 111.3241992
  30.9547715  88.5021550 111.6351282  32.6097299  98.8923619 112.8511064
  32.5673478  99.1184465 111.9219596  33.5259998  98.6586993 112.9996865
  36.0562933  89.3607686 119.7491693  36.4112320  89.5879159 120.6086159
  36.7035064  89.6926063 119.1268949  41.7860670  92.4826122 110.4541022
  41.6478568  92.6727718 109.5262212  41.4296889  93.2445505 110.9109073
  29.9502796  86.4684217 116.5338034  30.5902175  86.3272976 115.8360998
  29.1180326  86.1818731 116.1576636  41.8130049  94.5502649 115.4652294
  42.2466556  94.4577938 116.3135348  42.5261630  94.5260150 114.8272310
  30.7263100  95.7686648 112.6473027  31.5203698  95.2736968 112.4455602
  30.0154792  95.2404511 112.2840732  27.0345863  89.9129729 108.7232780
  26.1043451  89.8514185 108.9402742  27.1303335  89.3905682 107.9269421
  26.9531412  86.4384542 111.3111021  27.2138230  87.3529875 111.2020182
  27.7748585  85.9708985 111.4607634  42.6745599  94.5926350 117.9985179
  42.8681489  95.4972160 118.2444454  42.5746217  94.1333769 118.8323764
  34.3281910  84.4784240 120.4975507  33.6809825  85.1774190 120.4039983
  35.0982925  84.9120384 120.8651755  34.5046044  92.3165005 118.5572326
  35.4338104  92.4676165 118.3841294  34.0837074  92.4049026 117.7020973
  33.8982528 101.4424766 107.6696400  34.0734283 100.9712809 108.4842023
  33.2115316 102.0690532 107.8977661  34.8539591  95.7197272 113.7159702
  34.5189423  95.6798042 114.6117352  34.3543537  95.0541988 113.2430112
  37.7898783  93.0653307 103.9896761  37.1727953  92.3400135 103.8929814
  37.3215271  93.8262667 103.6463836  29.5797328  87.2838731 103.1118066
  28.7026795  87.1627532 102.7480312  30.0555082  86.4924809 102.8596954
  39.4470321  95.7391799 119.8816521  38.5597100  95.4017721 120.0042920
  40.0168873  95.0074830 120.1185287  32.7661254  99.6365021 110.3580586
  31.9828776 100.1786702 110.4518811  33.4654000 100.1539001 110.7574827
  36.0757905  85.4459651 113.0014792  36.5726604  84.6929613 112.6815862
  35.3044886  85.4823967 112.4358001  43.9287662  91.1500016 114.6433083
  43.9177538  92.0324732 114.2727016  43.0605041  90.7971567 114.4487620
  37.1587685  94.2031338 110.5753215  36.2243964  94.3232800 110.4057919
  37.3364354  93.3003805 110.3113225  32.6592873  87.5877034 112.7286476
  32.2890661  87.0348074 113.4167382  33.1551966  86.9835167 112.1761476
  40.5460237  90.0448657 111.1103249  41.0120689  90.8776649 111.0363552
  40.9967737  89.5793639 111.8148508  38.6136468  96.3892479 108.1089401
  38.8896312  96.2749073 109.0183275  37.7440966  95.9909963 108.0701574
  38.5176899  82.4129244 115.1494150  37.6039979  82.6433471 115.3176357
  38.9470001  82.4967688 116.0008183  38.2883358  90.6019136 117.6494044
  37.6354808  90.8495044 116.9946497  38.6663738  89.7883274 117.3156522
  35.2490532 100.6378829 111.7522215  35.4312926  99.8200485 112.2149967
  36.0723518 100.8546522 111.3147105  35.5832697  99.5647015 109.0137263
  36.1120464  99.0539469 108.4007425  35.8460917  99.2489545 109.8782796
  28.0558207  84.9981025 118.9739582  28.1199533  85.8595855 118.5616980
  27.9925327  84.3855026 118.2411941  24.3076022  88.8780586 108.5530971
  24.6029463  87.9691265 108.4998025  23.4064058  88.8568326 108.2311974
  36.2162101 100.5987850 115.3581380  36.0913241  99.7977590 114.8492325
  36.8741192 101.0934044 114.8695350  27.8370269  86.9536583 114.5358520
  27.1156855  87.5672550 114.3965993  28.6263525  87.4894348 114.4575166
  38.2797009  98.3996870 116.9860930  37.3327345  98.2802222 116.9139257
  38.6279783  97.5119368 117.0687191  30.6396583  84.2891009 120.8099172
  31.1630985  84.5353306 121.5725481  30.4208916  85.1211044 120.3902309
  26.0363864  86.5594684 108.6770296  25.7076570  85.6792063 108.4945402
  26.3903235  86.5042353 109.5646686  35.2843443  98.1949587 113.1865282
  35.1368405  97.2666294 113.3672852  36.1096936  98.2169677 112.7022357
  29.1505687  86.8467654 109.0445774  29.4901760  87.3753575 108.3224383
  29.5977808  87.1848060 109.8204341  38.8877565  99.0178145 114.2730155
  39.8124112  98.8121007 114.1354606  38.7192868  98.7694546 115.1819496
  31.8449128  85.2304704 118.4948842  31.5045948  84.4312517 118.8969522
  31.1388134  85.5306415 117.9225675  32.4965600  82.3154017 116.9476165
  33.3191669  81.8414495 116.8255056  32.7403663  83.0944501 117.4474852
  31.1373834  85.3442275 107.2439067  31.8582197  85.7223528 106.7402784
  30.5139138  86.0631152 107.3474045  35.2804957  86.0487424 108.1797399
  35.4968571  86.9312062 107.8786227  34.7999024  85.6573638 107.4503041
  30.0204178  89.0073137 114.7568144  29.8748759  89.3213441 115.6492425
  29.5429382  89.6258038 114.2039042  31.8800561  85.9975685 114.8049033
  31.8662130  85.1016779 114.4681331  32.5972989  86.0046349 115.4387319
  33.7326692  86.4313026 116.8502161  33.4744470  87.3530096 116.8486491
  33.2011732  86.0343460 117.5402625  38.6772881  99.5363813 109.6292246
  38.8509758  98.9710235 108.8766099  39.1701772 100.3364708 109.4471736
  31.2837457  84.8790066 110.0736604  31.4053368  83.9506712 110.2727491
  30.9939500  84.8928752 109.1614919  34.1528648  82.5644976 113.2103323
  34.1750344  82.6284309 112.2555303  34.5696707  81.7249485 113.4043830
  44.5312272  92.3000236 111.2482546  44.9743418  91.5507561 110.8501669
  43.6538782  92.2910372 110.8656278  39.6648053  98.8530577 106.7289144
  40.3598958  99.4737270 106.9476459  40.0071203  98.0025928 107.0041522
  41.5639476  96.3030283 108.2576475  42.0890800  96.6417555 107.5325795
  41.4761829  95.3677298 108.0739610  41.3731258  93.7855653 120.8760402
  41.4229262  93.6205660 121.8175925  41.2645181  92.9182912 120.4858283
  30.2567516  96.4644198 108.1652491  30.4055637  97.1479663 107.5119163
  31.0633960  96.4449288 108.6801946  38.6635020  89.7686581 122.1919708
  39.5644883  89.6293046 121.9003706  38.7382994  89.9341036 123.1317886
  32.9977825  87.1453435 121.0372895  32.1281135  87.4387002 120.7655483
  33.2337306  87.7293880 121.7580158  42.8749454  96.2052594 121.1202423
  42.5834263  96.5682575 121.9565884  42.2621586  95.4919603 120.9415755
  44.0745137  93.7705474 113.6404994  44.9092028  94.2095278 113.8042554
  44.2104265  93.2944127 112.8213239  41.1236643  91.3285209 119.5882481
  41.5990764  91.5212855 118.7801333  40.2002208  91.3844395 119.3425865
  28.0120149  92.4909376 109.1713560  27.7666191  91.5871706 109.3693770
  28.1816064  92.4926526 108.2293038  35.7016859  83.3633052 118.5538315
  36.2198803  84.0994079 118.2284804  35.3471992  83.6697046 119.3885074
  27.2815797  88.2237734 106.6699721  26.5885042  88.2982089 106.0139757
  27.0367549  87.4598077 107.1921238  35.9529453  79.7833335 114.0739212
  36.2331207  79.1156524 114.6999638  36.7380060  79.9762431 113.5613876
  33.7562922  98.9592329 105.6364238  33.1836889  99.5782516 105.1834710
  34.3295715  99.5091691 106.1704160  39.8238312  88.2050969 117.8210787
  40.7755734  88.3049067 117.8423011  39.6541762  87.4129237 118.3308871
  37.8452691  85.2906552 118.0070188  37.2502623  85.5711565 117.3116676
  37.5602388  85.7800453 118.7786929  36.9760182  99.2429479 106.7672820
  37.9090855  99.1775041 106.9705696  36.8883394 100.0785746 106.3087353
  39.6048198  98.5595349 103.7276768  39.5261830  98.2255213 104.6212526
  40.4257865  99.0517117 103.7268240  42.3026389  91.4257089 116.9353087
  42.2702709  90.4873089 117.1212770  42.9127013  91.5041125 116.2018911
  34.1409720  90.2953142 102.9780291  35.0868825  90.1659350 103.0468709
  33.7623965  89.5567804 103.4549719  42.4520878  88.2168132 116.9811370
  41.9359927  87.4326589 116.7941299  43.3360826  87.8886849 117.1457889
  40.1131605  81.9609148 112.9407182  39.9156426  81.6524236 113.8250514
  40.7231310  82.6870787 113.0705112  48.1202939  92.4873095 116.0759123
  48.8506328  92.2258384 116.6366827  47.5109885  91.7501817 116.1161191
  46.2018236  90.6280958 116.6733575  45.4751400  90.4936923 116.0650066
  45.7865523  90.9357787 117.4790293  32.3252637  88.2203118 102.9135176
  31.4184093  87.9236231 102.9897889  32.6028618  87.9232936 102.0469462
  33.9414703  82.7640008 109.0679417  33.1315431  82.4187093 109.4434663
  34.6299120  82.4547551 109.6567029  35.8705251  81.8418055 110.6903714
  36.4236290  82.2613508 111.3493737  36.1075338  80.9153803 110.7326670
  31.0951422  85.0790053 103.0547155  31.9570586  85.4044952 103.3142972
  31.2801766  84.2921549 102.5420221  39.2484058  83.9518580 110.1982378
  38.6682728  84.6103384 109.8160430  38.9819991  83.1295924 109.7869796
  37.6987625  83.3523637 112.4003698  38.1987403  83.4640172 111.5918017
  38.3423233  83.0484690 113.0404507  38.0308937  86.1118670 109.2538726
  37.1434792  86.3968321 109.0358921  38.4462926  85.9512433 108.4066003
  41.3823473  86.1365191 112.9693066  42.1583863  86.6261643 113.2417682
  40.6571607  86.5623245 113.4264935  43.8196031  86.8492810 114.0267006
  44.4140522  86.6088546 113.3160314  43.8922615  86.1299941 114.6540542
  37.1752150  95.8763345 103.3486746  37.8788000  96.0813347 103.9644402
  36.4514799  96.4440107 103.6135830  38.0049960  91.6273206 109.4689016
  37.9485162  92.0841757 108.6296649  38.5578303  90.8663891 109.2911859
  41.8154766  87.4162938 110.2939136  41.5591700  87.0159574 111.1247344
  41.1907634  88.1306732 110.1689275  46.1267104  90.1559011 112.8010427
  45.5666662  90.2252200 113.5741989  45.5210607  89.9799996 112.0809924
  39.0838847  96.3145874 105.3985206  39.9184451  95.8827072 105.2162681
  38.9223190  96.1427888 106.3262101  38.7384740  92.8177987 106.7641546
  38.6833543  92.6522259 105.8229990  38.1130795  93.5254020 106.9203735
  32.0480865  82.3186096 106.3426864  32.0359535  83.2627936 106.4995135
  32.9404287  82.1356242 106.0486325  35.8632984  78.9128873 110.5972801
  35.0965380  78.3587360 110.7429483  36.2743689  78.9850742 111.4586952
  40.3799644 108.6378430 111.4198799  39.8164510 108.5468366 110.6515086
  40.2652039 107.8178334 111.9001291  45.9599203 112.3049397 106.7313264
  45.3087183 112.8903478 106.3447277  46.7543566 112.8355592 106.7908301
  39.8854830 109.3938534 107.1300398  40.6585706 108.8467521 106.9913274
  40.2380229 110.2582784 107.3414859  42.2221108 105.5531201 104.7618848
  42.4746629 105.0312722 104.0002311  41.2845667 105.3897346 104.8645531
  47.2664391 104.5566979 112.5693591  48.0527480 104.1386402 112.2184008
  47.5303095 105.4613071 112.7375239  47.4374468 109.9939829 107.2682248
  46.8020301 110.0674456 107.9803153  47.1071875 110.5833428 106.5901327
  41.9417397 107.4559306 106.9643223  41.8253655 106.7804210 107.6324307
  42.0519657 106.9691680 106.1475376  44.2848938 106.9169454 110.6689912
  43.9207145 106.3900075 111.3802834  45.1416054 106.5267923 110.4956397
  43.9254425 101.9459353 105.6651261  44.0928827 102.8139590 106.0321732
  43.7351594 102.1086635 104.7412550  40.1342239 106.8590129 113.3653795
  39.2092736 106.7266343 113.5731487  40.3826653 107.6384348 113.8623738
  43.9043646 104.4017011 106.6497927  43.7843271 104.8474062 107.4883408
  43.2096234 104.7502328 106.0911466  49.6028712 104.8738484 107.4778261
  50.5146568 105.1065871 107.3025959  49.0938359 105.4575528 106.9153340
  46.9464687 101.0496520 115.7268122  46.0849166 101.3477773 116.0184860
  46.9727121 101.2666919 114.7949155  43.7626256 109.5938710 112.1341928
  44.2264602 109.8726413 111.3446550  43.4983054 108.6922155 111.9515019
  42.6995142 105.7161863 108.9431493  43.4019185 106.1682907 109.4105420
  42.3675771 105.0745682 109.5711386  36.4420476 103.9745416 114.2448627
  35.6519530 104.2302944 113.7688737  36.9331723 104.7893753 114.3500667
  38.3935221 104.3389995 111.2032103  37.5966385 104.4508689 111.7215599
  38.1660814 104.6776647 110.3372994  43.9388907 112.5302805 109.0193598
  43.8034581 113.3754341 109.4478446  44.4798719 112.7322083 108.2559532
  37.3918304 110.0478244 109.5921523  37.9042825 110.8421494 109.7427088
  38.0441017 109.3504534 109.5255125  39.2013189 113.1644000 111.6744277
  39.3779817 114.0861965 111.4865261  39.9970022 112.8502419 112.1038656
  47.2881370  96.0533367 117.5492492  46.9445640  96.9435009 117.4731602
  47.6560333  95.8635025 116.6862077  35.3567221 108.3766898 110.3681094
  36.1942443 108.7863906 110.1514802  35.5345489 107.4366340 110.3381288
  47.2531653 106.0441978 106.0564927  46.7378276 106.8146583 106.2953314
  46.9808961 105.3707115 106.6797988  44.8378764 100.8891679 111.1150165
  43.9820360 100.4998530 110.9355804  45.2505716 100.9683640 110.2549951
  46.3677911  98.4238023 115.5141725  45.8642706  98.3868158 114.7009530
  46.6608518  99.3330765 115.5738382  42.6120797  98.5076752 114.5207907
  43.4773793  98.3119561 114.1613796  42.6798305  98.2787104 115.4477264
  52.2265927 108.7974333 107.9918100  51.4495370 108.4585493 107.5473262
  52.9057408 108.8026956 107.3173065  47.0417956 103.9169071 107.8824708
  46.7368092 104.2315220 108.7334851  47.9948398 103.9950490 107.9252041
  45.4864388 110.0759294 109.5317662  44.9585750 109.3412053 109.2190900
  44.9851891 110.8533970 109.2857630  40.2183116 100.7378960 111.8924274
  40.7926868 100.5154142 111.1597467  40.8054098 100.8067655 112.6452875
  40.5452703 102.7683421 105.9120159  39.7090015 103.1058108 106.2329434
  40.4057472 102.6332401 104.9747296  42.5205783  97.6120209 110.6199343
  41.8670196  97.2969226 109.9955958  42.4786257  96.9895950 111.3459166
  43.6316988 107.8939504 102.5352635  42.7244050 107.6628758 102.7343784
  44.1288020 107.0977123 102.7226617  46.5385067 116.6037011 105.4549321
  45.8646766 116.9068708 106.0634279  46.9250889 117.4066092 105.1054778
  45.7543524 104.1002143 114.9446991  44.8366085 104.3217090 114.7868679
  46.1703667 104.1748453 114.0858698  46.5378571 105.4993558 110.0749671
  47.2850390 106.0114956 109.7656793  46.8070161 105.1777611 110.9354064
  44.8105222 107.9952099 107.0576625  43.9016441 107.7111132 107.1549095
  44.8400305 108.4151178 106.1979932  48.9857409 102.5350675 112.0568460
  48.2480165 102.0228061 112.3878703  49.2384182 102.0951056 111.2451737
  49.0869036  95.3126927 112.6510230  49.3927913  94.4524290 112.3636145
  49.8121641  95.9044547 112.4509223  35.3793392 105.7157613 111.0391827
  35.1817792 105.1226974 110.3142894  34.8240056 105.4109823 111.7567766
  43.3590116 105.6080720 113.1586421  43.4138725 104.6554556 113.0828897
  42.5481318 105.7640159 113.6427719  44.5081309 109.5360843 104.3964704
  44.0700739 108.8196702 103.9370341  45.2491750 109.7636958 103.8349795
  41.2982476 104.2257779 110.9176799  40.4850341 104.5251950 111.3241992
  41.7941470 103.8313468 111.6351282  52.6254424 107.8118040 110.4541022
  52.4872323 108.0019636 109.5262212  52.2690643 108.5737423 110.9109073
  40.7896550 101.7976135 116.5338034  41.4295930 101.6564894 115.8360998
  39.9574081 101.5110648 116.1576636  41.5656854 111.0978565 112.6473027
  42.3597453 110.6028885 112.4455602  40.8548547 110.5696428 112.2840732
  37.8739618 105.2421647 108.7232780  36.9437206 105.1806103 108.9402742
  37.9697090 104.7197600 107.9269421  37.7925167 101.7676460 111.3111021
  38.0531984 102.6821793 111.2020182  38.6142339 101.3000902 111.4607634
  44.7376282 116.7716684 107.6696400  44.9128038 116.3004727 108.4842023
  44.0509070 117.3982450 107.8977661  48.6292537 108.3945224 103.9896761
  48.0121708 107.6692053 103.8929814  48.1609025 109.1554585 103.6463836
  40.4191083 102.6130649 103.1118066  39.5420549 102.4919449 102.7480312
  40.8948836 101.8216727 102.8596954  46.9151659 100.7751568 113.0014792
  47.4120359 100.0221531 112.6815862  46.1438641 100.8115885 112.4358001
  47.9981440 109.5323256 110.5753215  47.0637719 109.6524718 110.4057919
  48.1758108 108.6295722 110.3113225  43.4986628 102.9168951 112.7286476
  43.1284415 102.3639992 113.4167382  43.9945720 102.3127085 112.1761476
  51.3853991 105.3740575 111.1103249  51.8514443 106.2068567 111.0363552
  51.8361492 104.9085557 111.8148508  49.4530222 111.7184396 108.1089401
  49.7290066 111.6040991 109.0183275  48.5834721 111.3201881 108.0701574
  49.3570654  97.7421162 115.1494150  48.4433734  97.9725389 115.3176357
  49.7863755  97.8259606 116.0008183  46.4226452 114.8938932 109.0137263
  46.9514218 114.3831387 108.4007425  46.6854671 114.5781462 109.8782796
  38.8951961 100.3272942 118.9739582  38.9593288 101.1887773 118.5616980
  38.8319082  99.7146944 118.2411941  35.1469777 104.2072504 108.5530971
  35.4423218 103.2983182 108.4998025  34.2457813 104.1860243 108.2311974
  38.6764024 102.2828500 114.5358520  37.9550610 102.8964468 114.3965993
  39.4657280 102.8186265 114.4575166  36.8757618 101.8886602 108.6770296
  36.5470325 101.0083980 108.4945402  37.2296989 101.8334270 109.5646686
  39.9899442 102.1759571 109.0445774  40.3295514 102.7045493 108.3224383
  40.4371562 102.5139977 109.8204341  42.6842882 100.5596622 118.4948842
  42.3439703  99.7604435 118.8969522  41.9781889 100.8598333 117.9225675
  43.3359354  97.6445934 116.9476165  44.1585423  97.1706413 116.8255056
  43.5797418  98.4236418 117.4474852  41.9767589 100.6734193 107.2439067
  42.6975951 101.0515446 106.7402784  41.3532893 101.3923070 107.3474045
  46.1198712 101.3779342 108.1797399  46.3362326 102.2603980 107.8786227
  45.6392779 100.9865555 107.4503041  40.8597933 104.3365055 114.7568144
  40.7142514 104.6505358 115.6492425  40.3823137 104.9549955 114.2039042
  42.7194316 101.3267603 114.8049033  42.7055885 100.4308696 114.4681331
  43.4366744 101.3338267 115.4387319  44.5720447 101.7604943 116.8502161
  44.3138224 102.6822014 116.8486491  44.0405487 101.3635378 117.5402625
  42.1231212 100.2081983 110.0736604  42.2447123  99.2798630 110.2727491
  41.8333254 100.2220669 109.1614919  44.9922402  97.8936894 113.2103323
  45.0144099  97.9576227 112.2555303  45.4090461  97.0541402 113.4043830
  50.5041808 114.1822495 106.7289144  51.1992712 114.8029188 106.9476459
  50.8464958 113.3317846 107.0041522  52.4033231 111.6322200 108.2576475
  52.9284555 111.9709473 107.5325795  52.3155583 110.6969216 108.0739610
  41.0961271 111.7936116 108.1652491  41.2449391 112.4771580 107.5119163
  41.9027714 111.7741206 108.6801946  38.8513904 107.8201294 109.1713560
  38.6059946 106.9163624 109.3693770  39.0209818 107.8218444 108.2293038
  38.1209551 103.5529651 106.6699721  37.4278796 103.6274006 106.0139757
  37.8761303 102.7889995 107.1921238  46.7923208  95.1125253 114.0739212
  47.0724962  94.4448442 114.6999638  47.5773815  95.3054348 113.5613876
  44.5956676 114.2884247 105.6364238  44.0230643 114.9074434 105.1834710
  45.1689470 114.8383608 106.1704160  47.8153936 114.5721397 106.7672820
  48.7484609 114.5066958 106.9705696  47.7277149 115.4077664 106.3087353
  50.4441953 113.8887267 103.7276768  50.3655584 113.5547131 104.6212526
  51.2651619 114.3809035 103.7268240  44.9803475 105.6245059 102.9780291
  45.9262579 105.4951267 103.0468709  44.6017720 104.8859721 103.4549719
  50.9525359  97.2901065 112.9407182  50.7550180  96.9816153 113.8250514
  51.5625065  98.0162704 113.0705112  43.1646392 103.5495036 102.9135176
  42.2577847 103.2528148 102.9897889  43.4422373 103.2524854 102.0469462
  44.7808458  98.0931925 109.0679417  43.9709186  97.7479010 109.4434663
  45.4692875  97.7839469 109.6567029  46.7099006  97.1709972 110.6903714
  47.2630045  97.5905426 111.3493737  46.9469092  96.2445720 110.7326670
  41.9345177 100.4081971 103.0547155  42.7964341 100.7336869 103.3142972
  42.1195521  99.6213467 102.5420221  50.0877813  99.2810497 110.1982378
  49.5076482  99.9395301 109.8160430  49.8213746  98.4587842 109.7869796
  48.5381379  98.6815555 112.4003698  49.0381158  98.7932090 111.5918017
  49.1816987  98.3776608 113.0404507  48.8702691 101.4410588 109.2538726
  47.9828546 101.7260238 109.0358921  49.2856680 101.2804351 108.4066003
  52.2217227 101.4657109 112.9693066  52.9977617 101.9553561 113.2417682
  51.4965361 101.8915163 113.4264935  48.0145904 111.2055262 103.3486746
  48.7181755 111.4105265 103.9644402  47.2908553 111.7732024 103.6135830
  48.8443715 106.9565124 109.4689016  48.7878916 107.4133675 108.6296649
  49.3972057 106.1955808 109.2911859  52.6548521 102.7454856 110.2939136
  52.3985455 102.3451491 111.1247344  52.0301389 103.4598649 110.1689275
  49.9232602 111.6437792 105.3985206  50.7578206 111.2118990 105.2162681
  49.7616945 111.4719805 106.3262101  49.5778494 108.1469905 106.7641546
  49.5227298 107.9814176 105.8229990  48.9524549 108.8545938 106.9203735
  42.8874620  97.6478014 106.3426864  42.8753289  98.5919854 106.4995135
  43.7798041  97.4648159 106.0486325  46.7026739  94.2420791 110.5972801
  45.9359135  93.6879277 110.7429483  47.1137444  94.3142659 111.4586952
  51.3846457 118.0975339 105.9120159  50.5483769 118.4350025 106.2329434
  51.2451227 117.9624319 104.9747296  51.2584837 117.9422566 103.1118066
  50.3814304 117.8211367 102.7480312  51.7342590 117.1508645 102.8596954
  48.9603306 118.8821569 106.6699721  48.2672551 118.9565924 106.0139757
  48.7155058 118.1181913 107.1921238  54.0040146 118.8786953 102.9135176
  53.0971602 118.5820066 102.9897889  54.2816127 118.5816771 102.0469462
  52.7738931 115.7373889 103.0547155  53.6358095 116.0628787 103.3142972
  52.9589275 114.9505384 102.5420221  53.7268374 112.9769932 106.3426864
  53.7147044 113.9211772 106.4995135  54.6191796 112.7940077 106.0486325
   3.1810050  32.2931463  92.1794628   2.5071749  32.5963160  92.7879586
   3.5675872  33.0960544  91.8300085   7.1466791  29.8716947  93.4534451
   7.8417696  30.4923639  93.6721766   7.4889941  29.0212298  93.7286829
   1.2381660  29.9778698  92.3609545   0.6655627  30.5968886  91.9080017
   1.8114453  30.5278060  92.8949467   4.4578919  30.2615849  93.4918127
   5.3909592  30.1961410  93.6951003   4.3702132  31.0972115  93.0332660
   7.0866936  29.5781719  90.4522075   7.0080568  29.2441582  91.3457832
   7.9076603  30.0703487  90.4513547   4.6570888  26.8949714  90.0732053
   5.3606738  27.0999717  90.6889708   3.9333537  27.4626476  90.3381136
   6.5657585  27.3332243  92.1230513   7.4003189  26.9013442  91.9407988
   6.4041928  27.1614257  93.0507407  15.1941860  37.8501895 102.2185690
  15.8320270  37.7308642 101.5149030  15.0762703  38.7982739 102.2773642
   7.8618382  39.6564799  98.1444105   7.2983247  39.5654736  97.3760393
   7.7470777  38.8364704  98.6246598  13.4417941  43.3235767  93.4558570
  12.7905921  43.9089847  93.0692584  14.2362304  43.8541962  93.5153608
   7.3673568  40.4124904  93.8545705   8.1404444  39.8653891  93.7158580
   7.7198967  41.2769153  94.0660166   9.7039846  36.5717570  91.4864154
   9.9565367  36.0499091  90.7247617   8.7664405  36.4083716  91.5890838
  14.7483129  35.5753348  99.2938898  15.5346218  35.1572772  98.9429315
  15.0121833  36.4799441  99.4620546  14.9193206  41.0126199  93.9927555
  14.2839039  41.0860825  94.7048459  14.5890613  41.6019798  93.3146634
  20.1491556  35.5128582 100.1971876  20.8816728  34.9427798 100.4309706
  19.3930912  35.1250182 100.6378382   9.4236135  38.4745676  93.6888529
   9.3072393  37.7990579  94.3569614   9.5338395  37.9878050  92.8720682
  11.7667676  37.9355823  97.3935219  11.4025883  37.4086444  98.1048140
  12.6234792  37.5454292  97.2201704  11.4073163  32.9645723  92.3896567
  11.5747565  33.8325959  92.7567038  11.2170332  33.1273005  91.4657856
  11.3862383  35.4203380  93.3743234  11.2662009  35.8660431  94.2128714
  10.6914972  35.7688698  92.8156772   9.1469276  48.1907022  97.0233365
   9.0693305  49.1414847  97.1021846   8.5430919  47.8452895  97.6808292
  17.0847450  35.8924854  94.2023568  17.9965306  36.1252240  94.0271266
  16.5757097  36.4761898  93.6398647  15.6917032  40.8750672 101.5937150
  15.0625894  41.0396386 100.8913217  15.3042694  41.2892282 102.3648114
  19.5706264  41.8105110  98.9481513  18.8857302  42.1904011  98.3978547
  19.6550113  42.4200436  99.6813461  11.2444994  40.6125080  98.8587235
  11.7083339  40.8912783  98.0691857  10.9801792  39.7108525  98.6760325
  10.1813880  36.7348232  95.6676800  10.8837923  37.1869276  96.1350726
   9.8494508  36.0932051  96.2956693  17.9403023  42.3337024 103.7199214
  18.7620467  41.9317212 103.4381896  17.9365426  42.2305258 104.6715330
  26.0309016  38.6775773 100.0684186  25.2772725  38.1083171  99.9128190
  26.1656558  38.6438437 101.0154820  11.4207644  43.5489175  95.7438905
  11.2853319  44.3940711  96.1723753  11.9617457  43.7508453  94.9804839
   4.8737042  41.0664613  96.3166830   5.3861562  41.8607863  96.4672395
   5.5259755  40.3690904  96.2500432   6.6831927  44.1830369  98.3989583
   6.8598555  45.1048334  98.2110567   7.4788760  43.8688789  98.8283963
   7.8063242  45.7008543 104.3999926   8.3570667  45.5725607 103.6276920
   6.9674718  46.0003432 104.0494818   2.8385959  39.3953267  97.0926401
   3.6761181  39.8050276  96.8760108   3.0164226  38.4552710  97.0626594
  14.7350391  37.0628348  92.7810234  14.2197014  37.8332953  93.0198621
  14.4627699  36.3893484  93.4043295  12.3197502  31.9078049  97.8395472
  11.4639098  31.5184899  97.6601111  12.7324454  31.9870010  96.9795257
  19.7084665  39.8160703  94.7163407  18.9314108  39.4771862  94.2718569
  20.3876146  39.8213326  94.0418372  14.5236694  34.9355440  94.6070015
  14.2186830  35.2501589  95.4580158  15.4767136  35.0136860  94.6497348
  12.9683126  41.0945663  96.2562969  12.4404487  40.3598423  95.9436206
  12.4670629  41.8720340  96.0102937  17.9475972  39.2894684 101.3730015
  17.2899646  39.9793945 101.4610144  18.7516371  39.6791116 101.7164001
  16.7581431  37.6439057  99.4233957  17.2713312  38.2769048  99.9255667
  17.4082654  37.0440252  99.0577317   8.0271440  33.7869791  92.6365466
   7.1908753  34.1244477  92.9574740   7.8876210  33.6518771  91.6992602
  11.1135726  38.9125874  89.2597942  10.2062788  38.6815127  89.4589091
  11.6106758  38.1163493  89.4471923  14.0203805  47.6223381  92.1794628
  13.3465504  47.9255078  92.7879586  14.4069627  48.4252461  91.8300085
  14.0197309  36.5179928  96.7994978  14.7669128  37.0301325  96.4902100
  14.2888899  36.1963981  97.6599371  12.2923959  39.0138469  93.7821932
  11.3835179  38.7297501  93.8794402  12.3219043  39.4337547  92.9225239
  17.5243227  42.6245058  97.5513099  17.0705554  41.7835968  97.6078290
  16.8937194  43.2606456  97.8887880  16.4676146  33.5537044  98.7813767
  15.7298903  33.0414430  99.1124009  16.7202920  33.1137426  97.9697044
  15.9676166  44.4621555  98.4862918  16.2599140  45.0226612  97.7675283
  16.4774787  44.7550116  99.2416077  10.8408853  36.6267089  99.8831727
  10.8957463  35.6740926  99.8074204  10.0300055  36.7826528 100.3673026
  11.9900047  40.5547212  91.1210010  11.5519477  39.8383071  90.6615648
  12.7310488  40.7823327  90.5595102   8.7801213  35.2444149  97.6422106
   7.9669079  35.5438319  98.0487298   9.2760208  34.8499838  98.3596588
  10.9309791  45.2401906  99.5756371  10.8885970  45.4662752  98.6464903
  11.8472490  45.0065280  99.7242172  20.1073162  38.8304409  97.1786329
  19.9691061  39.0206005  96.2507518  19.7509381  39.5923792  97.6354380
  20.1342542  40.8980936 102.1897601  20.5679048  40.8056225 103.0380655
  20.8474122  40.8738437 101.5517617   9.0475592  42.1164935  99.3718333
   9.8416191  41.6215255  99.1700908   8.3367284  41.5882798  99.0086039
  13.8670436  44.4983030 103.7230701  13.9207459  45.0673967 104.4908417
  12.9985218  44.6684915 103.3584738   5.3558355  36.2608017  95.4478086
   4.4255944  36.1992472  95.6648048   5.4515827  35.7383969  94.6514727
  20.9958091  40.9404637 104.7230486  21.1893981  41.8450447 104.9689761
  20.8958709  40.4812056 105.5569071  11.6246868  42.6893957 103.0516171
  11.4857954  42.3212741 103.9242109  10.8361464  43.2041596 102.8800128
  12.2195020  47.7903053  94.3941707  12.3946776  47.3191097  95.2087330
  11.5327808  48.4168820  94.6222968  13.1752083  42.0675560 100.4405008
  12.8401916  42.0276330 101.3362658  12.6756029  41.4020275  99.9675419
  16.1111275  39.4131594  90.7142068  15.4940445  38.6878422  90.6175121
  15.6427763  40.1740954  90.3709142   6.7856105  50.9392416 101.1681567
   7.0252703  51.5710940 101.8460586   5.9425302  50.5880456 101.4546927
   7.9009821  33.6317018  89.8363372   7.0239287  33.5105819  89.4725619
   8.3767574  32.8403097  89.5842261  11.2983967  46.7471539 103.5723071
  11.2254139  47.5526510 104.0842376  10.8561360  46.9463504 102.7471093
  11.0873747  45.9843309  97.0825893  10.3041269  46.5264989  97.1764117
  11.7866492  46.5017288  97.4820134  22.2500154  37.4978304 101.3678390
  22.2390031  38.3803019 100.9972323  21.3817534  37.1449854 101.1732927
  13.7582651  46.6458373 105.7281230  14.4710623  47.2805837 105.6557131
  13.2672679  46.7422239 104.9121232  15.4800178  40.5509625  97.2998522
  14.5456456  40.6711088  97.1303226  15.6576846  39.6482092  97.0358531
  18.8672729  36.3926945  97.8348556  19.3333181  37.2254936  97.7608858
  19.3180229  35.9271926  98.5393814  16.9348960  42.7370766  94.8334708
  17.2108804  42.6227360  95.7428582  16.0653459  42.3388251  94.7946881
  13.5703024  46.9857117  98.4767521  13.7525419  46.1678773  98.9395274
  14.3936010  47.2024809  98.0392411  13.9045190  45.9125302  95.7382570
  14.4332956  45.4017756  95.1252732  14.1673409  45.5967832  96.6028103
   7.2600937  46.9640418  98.4980346   6.5911313  47.4486546  98.0144386
   7.1213807  47.2109639  99.4123724  11.4006206  48.9984162 105.0963004
  11.9524514  49.1615783 105.8612089  11.7412400  49.5888600 104.4243029
   2.6288515  35.2258873  95.2776278   2.9241956  34.3169552  95.2243332
   1.7276550  35.2046613  94.9557280  14.5374593  46.9466138 102.0826686
  14.4125733  46.1455877 101.5737632  15.1953684  47.4412331 101.5940656
  16.6009502  44.7475158 103.7106236  15.6539837  44.6280509 103.6384563
  16.9492275  43.8597656 103.7932498  13.6055935  44.5427874  99.9110589
  13.4580897  43.6144581 100.0918159  14.4309429  44.5647965  99.4267664
   7.4718179  33.1945941  95.7691081   7.8114252  33.7231862  95.0469689
   7.9190300  33.5326347  96.5449647  17.2090057  45.3656433 100.9975461
  18.1336604  45.1599294 100.8599913  17.0405360  45.1172834 101.9064803
   9.4586326  31.6920562  93.9684374  10.1794689  32.0701815  93.4648090
   8.8351631  32.4109439  94.0719352  13.6017449  32.3965711  94.9042706
  13.8181064  33.2790349  94.6031534  13.1211516  32.0051925  94.1748348
  16.9985373  45.8842100  96.3537553  17.1722251  45.3188522  95.6011405
  17.4914264  46.6842995  96.1717043  22.8524764  38.6478523  97.9727853
  23.2955910  37.8985848  97.5746976  21.9751275  38.6388659  97.5901585
  17.9860546  45.2008864  93.4534451  18.6811450  45.8215557  93.6721766
  18.3283696  44.3504216  93.7286829  19.8851969  42.6508570  94.9821782
  20.4103293  42.9895843  94.2571102  19.7974321  41.7155585  94.7984917
  11.5692629  48.7180553  99.3417035  11.1297620  48.2256932 100.0349892
  12.3200746  48.1753521  99.1009110   4.0484968  44.9092094  99.3441663
   4.8742988  44.6095866  98.9640307   3.6979020  44.1399717  99.7931452
   9.0166502  44.2618562 101.4139337   8.3946511  43.5989267 101.1141565
   9.6871368  44.2879694 100.7312985   8.5780008  42.8122486  94.8897797
   8.7268129  43.4957950  94.2364470   9.3846452  42.7927576  95.4047253
  22.3957629  40.1183761 100.3650300  23.2304520  40.5573565 100.5287861
  22.5316758  39.6422414  99.5458546   6.3332641  38.8387663  95.8958866
   6.0878683  37.9349993  96.0939076   6.5028556  38.8404814  94.9538344
   5.6028289  34.5716021  93.3945028   4.9097534  34.6460376  92.7385064
   5.3580041  33.8076364  93.9166545  12.0775414  45.3070616  92.3609545
  11.5049381  45.9260803  91.9080017  12.6508208  45.8569978  92.8949467
  15.2972674  45.5907766  93.4918127  16.2303347  45.5253328  93.6951003
  15.2095887  46.4264033  93.0332660  17.9260690  44.9073637  90.4522075
  17.8474322  44.5733500  91.3457832  18.7470357  45.3995404  90.4513547
  20.6238882  37.7735376 103.6598393  20.5915202  36.8351377 103.8458077
  21.2339505  37.8519413 102.9264218  12.4622213  36.6431429  89.7025597
  13.4081317  36.5137637  89.7714015  12.0836457  35.9046091  90.1795025
  26.4415431  38.8351383 102.8004430  27.1718820  38.5736671 103.3612133
  25.8322377  38.0980105 102.8406498  24.5230729  36.9759245 103.3978881
  23.7963892  36.8415210 102.7895373  24.1078015  37.2836074 104.2035599
  10.6465130  34.5681405  89.6380482   9.7396585  34.2714518  89.7143196
  10.9241111  34.2711223  88.7714769  12.2627195  29.1118295  95.7924724
  11.4527924  28.7665380  96.1679970  12.9511612  28.8025839  96.3812335
   9.4163914  31.4268340  89.7792462  10.2783078  31.7523239  90.0388279
   9.6014258  30.6399836  89.2665527  17.5696551  30.2996867  96.9227685
  16.9895220  30.9581671  96.5405737  17.3032483  29.4774212  96.5115102
  16.3521429  32.4596957  95.9784033  15.4647284  32.7446608  95.7604228
  16.7675418  32.2990721  95.1311310  19.7035965  32.4843478  99.6938372
  20.4796355  32.9739931  99.9662989  18.9784099  32.9101532 100.1510242
  22.1408524  33.1971097 100.7512313  22.7353014  32.9566833 100.0405621
  22.2135107  32.4778228 101.3785849   4.3605679  47.0404708 101.0655478
   4.2260147  46.2805109 100.4993476   3.9437742  47.7645608 100.5984266
  15.4964642  42.2241632  90.0732053  16.2000492  42.4291634  90.6889708
  14.7727291  42.7918394  90.3381136  16.3262453  37.9751493  96.1934323
  16.2697654  38.4320045  95.3541955  16.8790795  37.2142178  96.0157166
  20.1367258  33.7641225  97.0184443  19.8804193  33.3637861  97.8492650
  19.5120126  34.4785019  96.8934582  24.4479596  36.5037298  99.5255734
  23.8879154  36.5730488 100.2987296  23.8423100  36.3278283  98.8055230
   7.5174805  47.9374025 101.2773920   7.4007189  48.8819458 101.1752610
   6.6967251  47.6347587 101.6659719  17.4051340  42.6624161  92.1230513
  18.2396944  42.2305360  91.9407988  17.2435683  42.4906175  93.0507407
  17.0597232  39.1656274  93.4886852  17.0046036  39.0000546  92.5475296
  16.4343287  39.8732307  93.6449042  10.3693357  28.6664383  93.0672171
  10.3572027  29.6106223  93.2240441  11.2616779  28.4834529  92.7731632
   8.5429319  48.5902287 104.4929849   9.4456566  48.6225898 104.8096344
   8.3166689  47.6602738 104.5076184  10.2982921  47.3433274 101.1539927
   9.3478552  47.3435135 101.0404300  10.6015407  46.5966008 100.6375962
  26.0335615  53.1793812 102.2185690  26.6714025  53.0600560 101.5149030
  25.9156458  54.1274656 102.2773642  22.8425321  53.1321240 102.1547214
  22.5043833  53.0162305 101.2667749  23.7115089  52.7312405 102.1348221
  18.7012137  54.9856717  98.1444105  18.1377002  54.8946654  97.3760393
  18.5864532  54.1656621  98.6246598  23.3245104  54.2856092 108.1133420
  23.3133745  53.8908890 107.2413924  23.4865743  53.5522165 108.7067191
  16.2476569  56.4807908 100.9828326  17.0397861  56.1398733 100.5674625
  16.4873219  56.5902883 101.9030479  24.2811695  58.6527684  93.4558570
  23.6299675  59.2381765  93.0692584  25.0756058  59.1833879  93.5153608
  18.2067323  55.7416822  93.8545705  18.9798199  55.1945809  93.7158580
  18.5592721  56.6061071  94.0660166  20.0452365  57.0693204 107.0612604
  19.7542231  57.9738835 106.9459270  20.6809350  57.1109732 107.7756673
  20.9708572  54.4470052 103.6513964  21.5672144  54.2226075 102.9370926
  21.0283544  53.7054798 104.2539411  20.5433600  51.9009488  91.4864154
  20.7959121  51.3791009  90.7247617  19.6058160  51.7375633  91.5890838
  25.5876883  50.9045266  99.2938898  26.3739972  50.4864689  98.9429315
  25.8515588  51.8091358  99.4620546  25.7586961  56.3418116  93.9927555
  25.1232794  56.4152743  94.7048459  25.4284367  56.9311715  93.3146634
  20.2629889  53.8037594  93.6888529  20.1466147  53.1282497  94.3569614
  20.3732149  53.3169968  92.8720682  22.6061430  53.2647741  97.3935219
  22.2419637  52.7378362  98.1048140  23.4628546  52.8746210  97.2201704
  28.5110731  44.5542073 104.6566485  28.1794055  45.4237484 104.4327700
  27.9156344  44.2378357 105.3360515  22.2466917  48.2937641  92.3896567
  22.4141319  49.1617877  92.7567038  22.0564086  48.4564922  91.4657856
  25.0042250  56.7554619 104.0562398  24.7042973  57.6579658 103.9478205
  24.6593310  56.4886803 104.9083550  18.4554732  53.2068416 100.0899102
  17.5305228  53.0744630 100.2976794  18.7039145  53.9862636 100.5869044
  28.4039394  49.2737160 101.7359835  27.4956271  49.2052568 101.4418596
  28.3526990  49.7509105 102.5641660  22.2256138  50.7495298  93.3743234
  22.1055763  51.1952349  94.2128714  21.5308726  51.0980616  92.8156772
  15.8163543  52.8501690 100.9242891  15.9455924  53.1036169 101.8382303
  15.1360994  53.4429398 100.6047546  19.9863030  63.5198940  97.0233365
  19.9087060  64.4706765  97.1021846  19.3824674  63.1744812  97.6808292
  22.4780260  50.6926805 109.6794732  21.7013594  51.2520725 109.6697597
  23.1170823  51.1783588 110.2009602  30.2701040  47.4753598 103.5137709
  29.6275421  47.7686131 102.8677503  29.7655969  47.3606518 104.3190905
  27.9241204  51.2216771  94.2023568  28.8359060  51.4544158  94.0271266
  27.4150851  51.8053815  93.6398647  20.7326632  53.5012259 109.2412699
  21.4741316  54.0397303 108.9647523  20.0263618  54.1278547 109.3984251
  26.2081972  55.6441399 107.8384861  26.6165328  55.2023810 107.0939493
  25.4859233  55.0694027 108.0919054  22.5613042  50.5814006 105.2118418
  23.4074237  51.0053419 105.3553067  22.5011679  49.9247630 105.9056981
  26.5310786  56.2042590 101.5937150  25.9019649  56.3688304 100.8913217
  26.1436448  56.6184199 102.3648114  30.4100018  57.1397028  98.9481513
  29.7251056  57.5195929  98.3978547  30.4943868  57.7492354  99.6813461
  25.7112487  48.2418374 106.8699591  25.4673419  48.9960435 106.3333867
  25.9872418  48.6203722 107.7046838  27.6650950  54.7856987 105.5476857
  27.8767845  55.4288746 104.8711238  27.6180698  53.9519303 105.0798787
  25.2677179  47.3974807 102.4513429  24.4061658  47.6956061 102.7430167
  25.2939614  47.6145206 101.5194462  22.0838748  55.9416998  98.8587235
  22.5477094  56.2204701  98.0691857  21.8195546  55.0400442  98.6760325
  18.9762829  55.4888479 101.7966998  19.5464186  55.9175748 101.1584482
  19.5670941  55.2071064 102.4951184  21.0207634  52.0640150  95.6676800
  21.7231678  52.5161194  96.1350726  20.6888263  51.4223969  96.2956693
  19.4687996  50.6551907 110.0428009  18.8386656  51.3368188 110.2763406
  19.3624084  50.5434988 109.0981147  14.7632968  50.3223703 100.9693933
  13.9732022  50.5781231 100.4934044  15.2544216  51.1372041 101.0745974
  28.7796778  57.6628942 103.7199214  29.6014222  57.2609129 103.4381896
  28.7759181  57.5597176 104.6715330  16.7147714  50.6868282  97.9277410
  15.9178877  50.7986976  98.4460906  16.4873306  51.0254934  97.0618301
  22.5453381  57.2112985 105.8759925  22.6097814  57.6733392 106.7118097
  21.8364305  56.5810350 106.0042235  13.0470671  50.5754193 103.4008924
  13.2978710  51.4601203 103.6666500  13.5830220  50.3958795 102.6284016
  22.2601399  58.8781093  95.7438905  22.1247074  59.7232628  96.1723753
  22.8011211  59.0800370  94.9804839  15.7130796  56.3956531  96.3166830
  16.2255317  57.1899781  96.4672395  16.3653509  55.6982821  96.2500432
  17.5225681  59.5122287  98.3989583  17.6992309  60.4340252  98.2110567
  18.3182515  59.1980706  98.8283963  21.6636700  46.3730552 109.9973517
  22.4046413  46.9737705 109.9177979  21.8954622  45.6308189 109.4391559
  16.8078038  51.5586919 108.2751746  16.6931553  50.6572176 108.5758845
  15.9522555  51.8050616 107.9236563  23.8869875  59.5004659 109.8739247
  23.4433730  58.7141038 109.5560152  24.5487089  59.6883810 109.2083138
  18.6456997  61.0300461 104.3999926  19.1964422  60.9017524 103.6276920
  17.8068472  61.3295350 104.0494818  25.9851113  59.7807459 107.9020648
  25.9669589  60.6016340 107.4100918  26.9071033  59.6561534 108.1270790
  22.4424168  57.2951589 108.7444157  22.9752504  56.5339877 108.5143465
  21.9138249  57.0025240 109.4868311  25.6093863  42.4011655 104.2737798
  25.2658132  43.2913296 104.1976909  25.9772825  42.2113312 103.4107383
  13.6779713  54.7245185  97.0926401  14.5154935  55.1342193  96.8760108
  13.8557981  53.7844627  97.0626594  25.5744145  52.3920266  92.7810234
  25.0590769  53.1624870  93.0198621  25.3021454  51.7185402  93.4043295
  23.1591256  47.2369967  97.8395472  22.3032853  46.8476817  97.6601111
  23.5718208  47.3161927  96.9795257  24.6890403  44.7716310 102.2387032
  24.1855199  44.7346445 101.4254837  24.9821010  45.6809052 102.2983688
  20.9333289  44.8555039 101.2453213  21.7986286  44.6597848 100.8859103
  21.0010798  44.6265391 102.1722570  25.3630448  50.2647358  94.6070015
  25.0580584  50.5793507  95.4580158  26.3160891  50.3428778  94.6497348
  23.8076880  56.4237581  96.2562969  23.2798242  55.6890341  95.9436206
  23.3064383  57.2012257  96.0102937  28.7869726  54.6186602 101.3730015
  28.1293401  55.3085863 101.4610144  29.5910126  55.0083034 101.7164001
  18.5395608  47.0857247  98.6169580  19.1139360  46.8632429  97.8842773
  19.1266590  47.1545942  99.3698182  27.5975185  52.9730974  99.4233957
  28.1107067  53.6060966  99.9255667  28.2476409  52.3732170  99.0577317
  18.8665195  49.1161708  92.6365466  18.0302507  49.4536395  92.9574740
  18.7269965  48.9810688  91.6992602  20.8418276  43.9598496  97.3444650
  20.1882688  43.6447513  96.7201264  20.7998750  43.3374237  98.0704473
  21.9529480  54.2417791  89.2597942  21.0456542  54.0107045  89.4589091
  22.4500512  53.4455411  89.4471923  24.8597559  62.9515299  92.1794628
  24.1859258  63.2546995  92.7879586  25.2463381  63.7544379  91.8300085
  24.0756016  50.4480430 101.6692297  23.1578577  50.6695377 101.5113985
  24.4916160  50.5226740 100.8104005  24.8591064  51.8471846  96.7994978
  25.6062883  52.3593243  96.4902100  25.1282653  51.5255898  97.6599371
  23.1317714  54.3430386  93.7821932  22.2228933  54.0589419  93.8794402
  23.1612798  54.7629465  92.9225239  28.3636981  57.9536976  97.5513099
  27.9099308  57.1127886  97.6078290  27.7330948  58.5898374  97.8887880
  27.3069901  48.8828962  98.7813767  26.5692658  48.3706348  99.1124009
  27.5596674  48.4429343  97.9697044  26.8069921  59.7913472  98.4862918
  27.0992895  60.3518530  97.7675283  27.3168541  60.0842033  99.2416077
  27.4081528  41.6605214  99.3755536  27.7140405  40.8002577  99.0881451
  28.1334133  42.2522834  99.1754530  13.7005884  52.0635900  97.7637134
  13.5030284  51.4705261  97.0388201  13.1452548  51.7588111  98.4813073
  21.6802608  51.9559007  99.8831727  21.7351218  51.0032843  99.8074204
  20.8693810  52.1118446 100.3673026  22.8293802  55.8839130  91.1210010
  22.3913232  55.1674989  90.6615648  23.5704243  56.1115245  90.5595102
  19.6194968  50.5736067  97.6422106  18.8062833  50.8730237  98.0487298
  20.1153962  50.1791755  98.3596588  21.7703546  60.5693824  99.5756371
  21.7279725  60.7954670  98.6464903  22.6866245  60.3357198  99.7242172
  25.2169180  51.0377891 106.4737000  25.5718567  51.2649364 107.3331466
  25.8641311  51.3696268 105.8514255  19.1109043  48.1454422 103.2583341
  19.7508422  48.0043181 102.5606304  18.2786573  47.8588936 102.8821943
  30.9736296  56.2272854 102.1897601  31.4072803  56.1348143 103.0380655
  31.6867877  56.2030354 101.5517617  19.8869347  57.4456853  99.3718333
  20.6809945  56.9507173  99.1700908  19.1761039  56.9174716  99.0086039
  24.7064191  59.8274948 103.7230701  24.7601213  60.3965884 104.4908417
  23.8378972  59.9976833 103.3584738  16.1952110  51.5899934  95.4478086
  15.2649698  51.5284390  95.6648048  16.2909582  51.0675887  94.6514727
  16.1137659  48.1154747  98.0356328  16.3744476  49.0300080  97.9265488
  16.9354831  47.6479190  98.1852941  17.5862584  49.5292504 105.2055152
  18.2585638  49.3209866 104.5567801  16.7592371  49.3314590 104.7660385
  31.8351846  56.2696555 104.7230486  32.0287736  57.1742365 104.9689761
  31.7352464  55.8103974 105.5569071  23.4888156  46.1554445 107.2220813
  22.8416071  46.8544395 107.1285290  24.2589172  46.5890589 107.5897061
  26.8966954  56.4203297 110.2971367  26.7452461  56.1913849 109.3801450
  26.8871634  57.3773899 110.3102712  23.6652291  53.9935210 105.2817633
  24.5944351  54.1446370 105.1086600  23.2443321  54.0819231 104.4266279
  22.4640623  58.0185875 103.0516171  22.3251708  57.6504659 103.9242109
  21.6755219  58.5333514 102.8800128  23.0588774  63.1194971  94.3941707
  23.2340530  62.6483014  95.2087330  22.3721563  63.7460737  94.6222968
  24.0145838  57.3967477 100.4405008  23.6795670  57.3568247 101.3362658
  23.5149783  56.7312193  99.9675419  17.9890082  52.8035107 105.9657590
  17.8509880  52.0715346 106.5669129  18.8995005  52.7144007 105.6841777
  20.6172382  52.5155067 105.4541269  21.3272001  51.8748259 105.4127888
  20.5741690  52.7667961 106.3767450  28.6059161  59.4522420 108.3747848
  28.5471707  58.7681640 107.7078431  29.0078679  60.1941410 107.9228474
  19.3301316  49.5020284 107.2736909  18.7938673  49.0511023 107.9258505
  18.7418025  49.6366193 106.5307373  17.6249860  66.2684334 101.1681567
  17.8646458  66.9002858 101.8460586  16.7819056  65.9172374 101.4546927
  18.7403575  48.9608936  89.8363372  17.8633042  48.8397737  89.4725619
  19.2161328  48.1695014  89.5842261  28.6076568  57.4162004 106.6061828
  27.7203347  57.0787926 106.7288227  29.1775119  56.6845035 106.8430593
  10.2605715  53.7486096  99.9304879  10.9476755  53.4347826  99.3425895
  10.1053844  54.6527460  99.6572131  15.0640437  48.6376292 104.3589903
  14.9798626  48.0301962 103.6240313  14.2423144  49.1285310 104.3599399
  22.1377722  62.0763456 103.5723071  22.0647893  62.8818428 104.0842376
  21.6955115  62.2755422 102.7471093  21.9267501  61.3135226  97.0825893
  21.1435023  61.8556906  97.1764117  22.6260246  61.8309206  97.4820134
  25.2364151  47.1229856  99.7260098  25.7332851  46.3699818  99.4061168
  24.4651133  47.1594172  99.1603308  24.5976405  61.9750290 105.7281230
  25.3104377  62.6097755 105.6557131  24.1066434  62.0714156 104.9121232
  26.3193932  55.8801543  97.2998522  25.3850211  56.0003005  97.1303226
  26.4970601  54.9774010  97.0358531  21.8199120  49.2647239  99.4531783
  21.4496908  48.7118279 100.1412688  22.3158213  48.6605372  98.9006783
  19.6488319  59.7244734 106.5486801  20.3497778  60.3581217 106.7016195
  19.1783434  60.0659465 105.7882440  27.6783146  44.0899449 101.8739457
  26.7646226  44.3203676 102.0421664  28.1076248  44.1737893 102.7253489
  27.4489605  52.2789341 104.3739351  26.7961055  52.5265249 103.7191804
  27.8269985  51.4653479 104.0401828  24.4096779  62.3149034  98.4767521
  24.5919173  61.4970690  98.9395274  25.2329765  62.5316727  98.0392411
  24.7438944  61.2417219  95.7382570  25.2726710  60.7309674  95.1252732
  25.0067164  60.9259750  96.6028103  23.4977178  53.0209152 110.8605388
  22.8217815  52.9203282 111.5307763  24.3204812  52.8648366 111.3241385
  15.2456037  59.2581089 103.4817903  15.8309474  58.5124777 103.6145808
  15.0480875  59.5685045 104.3654567  18.0994692  62.2932336  98.4980346
  17.4305067  62.7778464  98.0144386  17.9607562  62.5401557  99.4123724
   9.8373691  51.8286689 102.2022347   9.8757791  51.2950280 102.9959465
   9.3313984  51.3021894 101.5833324  22.2399961  64.3276080 105.0963004
  22.7918269  64.4907701 105.8612089  22.5806154  64.9180517 104.4243029
  17.2164454  46.6751229 105.6984889  17.2805780  47.5366060 105.2862287
  17.1531574  46.0625231 104.9657247  27.0910835  59.1537337 110.9511659
  27.6350739  59.7667295 110.4566613  26.5097680  59.7116916 111.4678672
  13.4682269  50.5550791  95.2776278  13.7635710  49.6461470  95.2243332
  12.5670305  50.5338531  94.9557280  25.3768348  62.2758055 102.0826686
  25.2519487  61.4747795 101.5737632  26.0347439  62.7704249 101.5940656
  16.9976516  48.6306788 101.2603827  16.2763102  49.2442755 101.1211300
  17.7869772  49.1664553 101.1820472  19.8002830  45.9661214 107.5344478
  20.3237231  46.2123511 108.2970788  19.5815163  46.7981249 107.1147616
  15.1970111  48.2364889  95.4015603  14.8682817  47.3562268  95.2190709
  15.5509481  48.1812557  96.2891992  24.4449690  59.8719792  99.9110589
  24.2974652  58.9436499 100.0918159  25.2703183  59.8939882  99.4267664
  18.3111934  48.5237859  95.7691081  18.6508006  49.0523780  95.0469689
  18.7584054  48.8618265  96.5449647  28.0483811  60.6948350 100.9975461
  28.9730359  60.4891212 100.8599913  27.8799115  60.4464751 101.9064803
  21.0055375  46.9074909 105.2194149  20.6652195  46.1082722 105.6214829
  20.2994381  47.2076620 104.6470982  21.6571846  43.9924222 103.6721472
  22.4797916  43.5184700 103.5500362  21.9009910  44.7714705 104.1720158
  20.2980081  47.0212480  93.9684374  21.0188443  47.3993733  93.4648090
  19.6745385  47.7401357  94.0719352  24.4411204  47.7257629  94.9042706
  24.6574818  48.6082267  94.6031534  23.9605271  47.3343843  94.1748348
  19.1810425  50.6843342 101.4813450  19.0355006  50.9983645 102.3737732
  18.7035629  51.3028243 100.9284349  21.0406808  47.6745890 101.5294340
  21.0268377  46.7786984 101.1926638  21.7579236  47.6816554 102.1632626
  22.8932939  48.1083231 103.5747467  22.6350717  49.0300301 103.5731798
  22.3617979  47.7113665 104.2647932  27.8379128  61.2134018  96.3537553
  28.0116005  60.6480440  95.6011405  28.3308019  62.0134913  96.1717043
  13.6556087  53.2248687 104.4201112  13.1109555  54.0008495 104.5521386
  14.5335437  53.5719491 104.2620233  20.4443704  46.5560271  96.7981910
  20.5659615  45.6276917  96.9972798  20.1545746  46.5698957  95.8860226
  23.3134894  44.2415181  99.9348630  23.3356591  44.3054514  98.9800610
  23.7302953  43.4019690 100.1289136  14.4422109  52.3518583 107.3131269
  13.7003845  52.5001218 107.8995899  14.1214854  52.6126849 106.4498018
  22.3865772  61.8934561 107.1111659  22.6952898  61.6483708 107.9834358
  23.1841254  62.0981200 106.6230529  22.4086384  64.0472471  99.3417035
  21.9691374  63.5548850 100.0349892  23.1594501  63.5045439  99.1009110
  14.8878723  60.2384012  99.3441663  15.7136743  59.9387784  98.9640307
  14.5372775  59.4691634  99.7931452  19.8560256  59.5910480 101.4139337
  19.2340265  58.9281185 101.1141565  20.5265123  59.6171612 100.7312985
  13.0887328  58.1570338 100.3030597  12.2519236  57.7292513 100.1214598
  13.0610973  58.3502782 101.2401388  30.4139629  58.6133391 110.2872980
  29.6235173  58.5957530 109.7477479  30.1772984  59.1521685 111.0422016
  30.5337504  55.4625858 107.6005708  30.5835509  55.2975865 108.5421231
  30.4251428  54.5953117 107.2103589  19.4173763  58.1414403  94.8897797
  19.5661883  58.8249868  94.2364470  20.2240206  58.1219493  95.4047253
  27.8241267  51.4456786 108.9165015  28.7251129  51.3063251 108.6249013
  27.8989241  51.6111240 109.8563193  22.1584072  48.8223640 107.7618201
  21.2887381  49.1157206 107.4900790  22.3943552  49.4064085 108.4825465
  32.0355701  57.8822799 107.8447730  31.7440509  58.2452780 108.6811191
  31.4227832  57.1689807 107.6661062  30.2842889  53.0055414 106.3127788
  30.7597011  53.1983060 105.5046639  29.3608455  53.0614600 106.0671172
  17.1726396  54.1679581  95.8958866  16.9272438  53.2641911  96.0939076
  17.3422310  54.1696731  94.9538344  24.8623106  45.0403257 105.2783622
  25.3805050  45.7764284 104.9530110  24.5078239  45.3467251 106.1130381
  16.4422043  49.9007939  93.3945028  15.7491288  49.9752294  92.7385064
  16.1973795  49.1368282  93.9166545  25.1135700  41.4603540 100.7984518
  25.3937454  40.7926729 101.4244945  25.8986307  41.6532635 100.2859182
  22.9169169  60.6362534  92.3609545  22.3443136  61.2552721  91.9080017
  23.4901962  61.1861895  92.8949467  28.9844558  49.8821174 104.5456094
  29.9361981  49.9819272 104.5668318  28.8148009  49.0899442 105.0554178
  27.0058938  46.9676757 104.7315494  26.4108870  47.2481770 104.0361983
  26.7208635  47.4570658 105.5032236  26.1366428  60.9199684  93.4918127
  27.0697101  60.8545246  93.6951003  26.0489641  61.7555951  93.0332660
  28.7654445  60.2365554  90.4522075  28.6868076  59.9025418  91.3457832
  29.5864112  60.7287322  90.4513547  31.4632636  53.1027294 103.6598393
  31.4308956  52.1643294 103.8458077  32.0733260  53.1811330 102.9264218
  23.3015967  51.9723347  89.7025597  24.2475072  51.8429555  89.7714015
  22.9230212  51.2338008  90.1795025  31.6127125  49.8938337 103.7056676
  31.0966173  49.1096794 103.5186605  32.4967073  49.5657054 103.8703196
  29.2737852  43.6379353  99.6652489  29.0762673  43.3294441 100.5495821
  29.8837557  44.3640991  99.7950419  35.3624483  52.3051163 103.3978881
  34.6357647  52.1707128 102.7895373  34.9471770  52.6127992 104.2035599
  23.1854660  56.0241093 111.1626254  24.1057669  56.2019692 111.3566301
  23.1504243  55.0797138 111.0105953  21.4858884  49.8973323  89.6380482
  20.5790340  49.6006436  89.7143196  21.7634865  49.6003141  88.7714769
  12.4036825  51.2179686 100.0879529  12.0839609  50.3644995  99.7953903
  11.8570253  51.4328264 100.8437496  16.1816732  53.9342127 103.8049035
  16.4002742  54.8659235 103.8237069  16.5942506  53.5750102 104.5903839
  23.1020950  44.4410213  95.7924724  22.2921678  44.0957298  96.1679970
  23.7905367  44.1317756  96.3812335  25.0311498  43.5188259  97.4149020
  25.5842537  43.9383713  98.0739043  25.2681585  42.5924008  97.4571976
  20.2557669  46.7560258  89.7792462  21.1176833  47.0815156  90.0388279
  20.4408013  45.9691754  89.2665527  12.2725085  54.8382598 102.0572650
  11.5788556  54.4236551 101.5442605  13.0198076  54.8803134 101.4606069
  28.4090305  45.6288785  96.9227685  27.8288974  46.2873589  96.5405737
  28.1426238  44.8066129  96.5115102  26.8593872  45.0293842  99.1249005
  27.3593650  45.1410377  98.3163324  27.5029480  44.7254895  99.7649813
  20.9175867  52.9372472 112.0116846  20.4342949  53.7372832 112.2180735
  21.0036806  52.9480417 111.0584290  14.1861827  54.7700852  99.9338665
  14.1632515  54.8688539  98.9820548  14.4962464  55.6166002 100.2555831
  16.8449205  56.8277007 104.0485280  17.7992458  56.7960949 103.9815211
  16.6461729  56.3667630 104.8635506  17.4348587  55.3978123 106.6156077
  18.2541476  55.8922201 106.6390915  17.7085395  54.4810091 106.5873645
  27.1915183  47.7888875  95.9784033  26.3041038  48.0738526  95.7604228
  27.6069172  47.6282638  95.1311310  15.1999434  62.3696626 101.0655478
  15.0653902  61.6097027 100.4993476  14.7831496  63.0937526 100.5984266
  27.1656207  53.3043411  96.1934323  27.1091408  53.7611962  95.3541955
  27.7184549  52.5434096  96.0157166  18.3568560  63.2665943 101.2773920
  18.2400944  64.2111376 101.1752610  17.5361006  62.9639505 101.6659719
  27.8990986  54.4948192  93.4886852  27.8439790  54.3292464  92.5475296
  27.2737042  55.2024225  93.6449042  12.6883501  49.7316257 107.3148274
  13.3342365  49.2215211 107.8035500  12.4800652  50.4684938 107.8891700
  25.2136894  56.7997104 112.8140415  26.0828053  56.9737756 112.4527050
  24.7343645  57.6191521 112.6916144  21.2087112  43.9956301  93.0672171
  21.1965782  44.9398141  93.2240441  22.1010534  43.8126447  92.7731632
  19.3823074  63.9194205 104.4929849  20.2850320  63.9517815 104.8096344
  19.1560444  62.9894656 104.5076184  21.1376676  62.6725192 101.1539927
  20.1872307  62.6727053 101.0404300  21.4409162  61.9257926 100.6375962
  25.0239231  40.5899078  97.3218107  24.2571627  40.0357564  97.4674790
  25.4349936  40.6620947  98.1832259  27.0870323  71.8099826 100.9828326
  27.8791615  71.4690651 100.5674625  27.3266973  71.9194801 101.9030479
  26.6557297  68.1793607 100.9242891  26.7849678  68.4328086 101.8382303
  25.9754749  68.7721315 100.6047546  33.3174014  66.0218723 109.6794732
  32.5407348  66.5812643 109.6697597  33.9564577  66.5075506 110.2009602
  31.5720387  68.8304176 109.2412699  32.3135071  69.3689220 108.9647523
  30.8657372  69.4570465 109.3984251  36.5506242  63.5710292 106.8699591
  36.3067174  64.3252352 106.3333867  36.8266172  63.9495639 107.7046838
  30.3081750  65.9843824 110.0428009  29.6780411  66.6660105 110.2763406
  30.2017838  65.8726906 109.0981147  25.6026723  65.6515620 100.9693933
  24.8125777  65.9073149 100.4934044  26.0937970  66.4663958 101.0745974
  23.8864426  65.9046111 103.4008924  24.1372464  66.7893121 103.6666500
  24.4223974  65.7250712 102.6284016  29.5862493  60.2864590 112.4053260
  29.1929439  59.7330789 113.0800904  30.4028633  60.5975169 112.7959778
  28.3619436  74.8414205  98.3989583  28.5386064  75.7632169  98.2110567
  29.1576269  74.5272624  98.8283963  32.5030454  61.7022469 109.9973517
  33.2440167  62.3029622 109.9177979  32.7348377  60.9600107 109.4391559
  27.6471792  66.8878837 108.2751746  27.5325307  65.9864094 108.5758845
  26.7916310  67.1342533 107.9236563  33.2817922  72.6243506 108.7444157
  33.8146259  71.8631795 108.5143465  32.7532003  72.3317158 109.4868311
  24.5173468  70.0537103  97.0926401  25.3548690  70.4634111  96.8760108
  24.6951735  69.1136545  97.0626594  24.5399639  67.3927818  97.7637134
  24.3424039  66.7997179  97.0388201  23.9846303  67.0880028  98.4813073
  27.0345864  66.9191852  95.4478086  26.1043453  66.8576307  95.6648048
  27.1303336  66.3967805  94.6514727  26.9531414  63.4446665  98.0356328
  27.2138231  64.3591998  97.9265488  27.7748586  62.9771107  98.1852941
  28.4256339  64.8584422 105.2055152  29.0979392  64.6501784 104.5567801
  27.5986125  64.6606508 104.7660385  34.3281911  61.4846363 107.2220813
  33.6809826  62.1836313 107.1285290  35.0982926  61.9182507 107.5897061
  28.8283836  68.1327025 105.9657590  28.6903634  67.4007264 106.5669129
  29.7388760  68.0435925 105.6841777  30.1695071  64.8312202 107.2736909
  29.6332428  64.3802941 107.9258505  29.5811779  64.9658111 106.5307373
  28.4643614  81.5976251 101.1681567  28.7040212  82.2294776 101.8460586
  27.6212811  81.2464291 101.4546927  29.5797330  64.2900854  89.8363372
  28.7026796  64.1689654  89.4725619  30.0555083  63.4986932  89.5842261
  21.0999470  69.0778013  99.9304879  21.7870510  68.7639743  99.3425895
  20.9447599  69.9819378  99.6572131  25.9034192  63.9668210 104.3589903
  25.8192381  63.3593879 103.6240313  25.0816898  64.4577228 104.3599399
  34.3370932  68.3501070 110.8605388  33.6611569  68.2495199 111.5307763
  35.1598566  68.1940284 111.3241385  26.0849791  74.5873006 103.4817903
  26.6703228  73.8416694 103.6145808  25.8874630  74.8976963 104.3654567
  20.6767446  67.1578607 102.2022347  20.7151545  66.6242197 102.9959465
  20.1707739  66.6313812 101.5833324  27.5310481  64.0766280 109.3457923
  28.1582520  63.6943357 109.9595447  26.6738400  63.8580482 109.7113616
  24.3076024  65.8842709  95.2776278  24.6029465  64.9753387  95.2243332
  23.4064059  65.8630448  94.9557280  30.6396584  61.2953132 107.5344478
  31.1630986  61.5415428 108.2970788  30.4208917  62.1273167 107.1147616
  26.0363865  63.5656806  95.4015603  25.7076571  62.6854185  95.2190709
  26.3903236  63.5104475  96.2891992  24.4949842  68.5540604 104.4201112
  23.9503310  69.3300412 104.5521386  25.3729192  68.9011409 104.2620233
  25.2815864  67.6810501 107.3131269  24.5397600  67.8293136 107.8995899
  24.9608608  67.9418766 106.4498018  25.7272477  75.5675929  99.3441663
  26.5530497  75.2679701  98.9640307  25.3766529  74.7983552  99.7931452
  23.9281082  73.4862256 100.3030597  23.0912991  73.0584430 100.1214598
  23.9004728  73.6794699 101.2401388  30.7678538  63.3984186 111.0071843
  30.8166694  64.2746308 110.6249612  31.3101052  62.8561579 110.4343486
  32.9977826  64.1515558 107.7618201  32.1281136  64.4449124 107.4900790
  33.2337307  64.7356003 108.4825465  35.7016860  60.3695175 105.2783622
  36.2198804  61.1056202 104.9530110  35.3471993  60.6759168 106.1130381
  27.2815798  65.2299856  93.3945028  26.5885043  65.3044211  92.7385064
  27.0367550  64.4660200  93.9166545  34.0248414  71.3533010 111.1626254
  34.9451423  71.5311609 111.3566301  33.9897997  70.4089056 111.0105953
  23.2430579  66.5471604 100.0879529  22.9233363  65.6936912  99.7953903
  22.6964007  66.7620182 100.8437496  27.0210487  69.2634045 103.8049035
  27.2396496  70.1951153 103.8237069  27.4336260  68.9042019 104.5903839
  31.8938352  64.8367251 113.1951784  31.7935079  65.7861608 113.1263875
  31.6759894  64.5085490 112.3227854  31.0951423  62.0852176  89.7792462
  31.9570587  62.4107074  90.0388279  31.2801767  61.2983672  89.2665527
  23.1118839  70.1674515 102.0572650  22.4182310  69.7528468 101.5442605
  23.8591830  70.2095052 101.4606069  31.7569622  68.2664390 112.0116846
  31.2736704  69.0664750 112.2180735  31.8430561  68.2772334 111.0584290
  25.0255582  70.0992769  99.9338665  25.0026270  70.1980457  98.9820548
  25.3356218  70.9457920 100.2555831  27.6842959  72.1568924 104.0485280
  28.6386213  72.1252867 103.9815211  27.4855483  71.6959548 104.8635506
  28.2742342  70.7270040 106.6156077  29.0935231  71.2214119 106.6390915
  28.5479149  69.8102008 106.5873645  26.0393188  77.6988544 101.0655478
  25.9047656  76.9388945 100.4993476  25.6225250  78.4229444 100.5984266
  29.1962314  78.5957861 101.2773920  29.0794698  79.5403293 101.1752610
  28.3754760  78.2931422 101.6659719  23.5277256  65.0608174 107.3148274
  24.1736119  64.5507128 107.8035500  23.3194407  65.7976856 107.8891700
  36.0530648  72.1289022 112.8140415  36.9221808  72.3029674 112.4527050
  35.5737399  72.9483439 112.6916144  30.2216828  79.2486123 104.4929849
  31.1244075  79.2809733 104.8096344  29.9954198  78.3186574 104.5076184
  27.8674747  62.2075791 111.4123289  28.7306208  61.8512596 111.6226613
  27.2940157  61.8689686 112.0998693  47.7123124  83.8377648 102.2185690
  48.3501534  83.7184395 101.5149030  47.5943967  84.7858492 102.2773642
  44.5212830  83.7905076 102.1547214  44.1831342  83.6746140 101.2667749
  45.3902598  83.3896241 102.1348221  40.3799646  85.6440552  98.1444105
  39.8164511  85.5530489  97.3760393  40.2652041  84.8240457  98.6246598
  45.0032613  84.9439927 108.1133420  44.9921254  84.5492726 107.2413924
  45.1653252  84.2106000 108.7067191  37.9264078  87.1391744 100.9828326
  38.7185370  86.7982568 100.5674625  38.1660728  87.2486719 101.9030479
  45.9599204  89.3111520  93.4558570  45.3087184  89.8965600  93.0692584
  46.7543567  89.8417715  93.5153608  39.8854832  86.4000657  93.8545705
  40.6585708  85.8529644  93.7158580  40.2380230  87.2644906  94.0660166
  41.7239874  87.7277039 107.0612604  41.4329740  88.6322670 106.9459270
  42.3596858  87.7693567 107.7756673  42.6496081  85.1053888 103.6513964
  43.2459653  84.8809910 102.9370926  42.7071053  84.3638633 104.2539411
  42.2221109  82.5593323  91.4864154  42.4746630  82.0374844  90.7247617
  41.2845668  82.3959469  91.5890838  47.2664392  81.5629101  99.2938898
  48.0527481  81.1448525  98.9429315  47.5303097  82.4675194  99.4620546
  47.4374470  87.0001952  93.9927555  46.8020303  87.0736578  94.7048459
  47.1071876  87.5895551  93.3146634  52.6672819  81.5004335 100.1971876
  53.3997991  80.9303551 100.4309706  51.9112175  81.1125935 100.6378382
  41.9417398  84.4621429  93.6888529  41.8253656  83.7866332  94.3569614
  42.0519658  83.9753803  92.8720682  44.2848939  83.9231576  97.3935219
  43.9207146  83.3962197  98.1048140  45.1416055  83.5330045  97.2201704
  50.1898240  75.2125909 104.6566485  49.8581564  76.0821320 104.4327700
  49.5943853  74.8962193 105.3360515  43.9254426  78.9521476  92.3896567
  44.0928828  79.8201712  92.7567038  43.7351595  79.1148758  91.4657856
  46.6829759  87.4138455 104.0562398  46.3830482  88.3163494 103.9478205
  46.3380819  87.1470638 104.9083550  40.1342241  83.8652252 100.0899102
  39.2092737  83.7328466 100.2976794  40.3826654  84.6446471 100.5869044
  50.0826903  79.9320995 101.7359835  49.1743780  79.8636403 101.4418596
  50.0314499  80.4092940 102.5641660  43.9043647  81.4079133  93.3743234
  43.7843272  81.8536184  94.2128714  43.2096235  81.7564451  92.8156772
  37.4951052  83.5085525 100.9242891  37.6243433  83.7620004 101.8382303
  36.8148503  84.1013233 100.6047546  41.6650539  94.1782775  97.0233365
  41.5874569  95.1290600  97.1021846  41.0612183  93.8328648  97.6808292
  44.1567769  81.3510641 109.6794732  43.3801103  81.9104561 109.6697597
  44.7958332  81.8367424 110.2009602  51.9488549  78.1337433 103.5137709
  51.3062930  78.4269967 102.8677503  51.4443478  78.0190354 104.3190905
  49.6028713  81.8800607  94.2023568  50.5146569  82.1127993  94.0271266
  49.0938360  82.4637651  93.6398647  42.4114141  84.1596094 109.2412699
  43.1528825  84.6981138 108.9647523  41.7051127  84.7862383 109.3984251
  47.8869481  86.3025234 107.8384861  48.2952837  85.8607645 107.0939493
  47.1646742  85.7277862 108.0919054  44.2400551  81.2397841 105.2118418
  45.0861746  81.6637255 105.3553067  44.1799188  80.5831465 105.9056981
  48.2098295  86.8626425 101.5937150  47.5807158  87.0272139 100.8913217
  47.8223957  87.2768035 102.3648114  52.0887527  87.7980863  98.9481513
  51.4038565  88.1779764  98.3978547  52.1731377  88.4076190  99.6813461
  47.3899996  78.9002210 106.8699591  47.1460928  79.6544270 106.3333867
  47.6659927  79.2787557 107.7046838  49.3438459  85.4440822 105.5476857
  49.5555354  86.0872582 104.8711238  49.2968207  84.6103138 105.0798787
  43.7626257  86.6000833  98.8587235  44.2264603  86.8788536  98.0691857
  43.4983055  85.6984278  98.6760325  40.6550338  86.1472315 101.7966998
  41.2251695  86.5759583 101.1584482  41.2458450  85.8654899 102.4951184
  42.6995143  82.7223985  95.6676800  43.4019187  83.1745029  96.1350726
  42.3675772  82.0807804  96.2956693  41.1475505  81.3135742 110.0428009
  40.5174165  81.9952023 110.2763406  41.0411593  81.2018824 109.0981147
  50.4584287  88.3212777 103.7199214  51.2801731  87.9192965 103.4381896
  50.4546690  88.2181011 104.6715330  38.3935223  81.3452117  97.9277410
  37.5966386  81.4570812  98.4460906  38.1660815  81.6838770  97.0618301
  44.2240890  87.8696821 105.8759925  44.2885323  88.3317228 106.7118097
  43.5151814  87.2394186 106.0042235  58.5490280  84.6651526 100.0684186
  57.7953988  84.0958924  99.9128190  58.6837821  84.6314190 101.0154820
  43.9388908  89.5364928  95.7438905  43.8034583  90.3816464  96.1723753
  44.4798720  89.7384206  94.9804839  37.3918305  87.0540366  96.3166830
  37.9042826  87.8483616  96.4672395  38.0441018  86.3566657  96.2500432
  39.2013190  90.1706122  98.3989583  39.3779818  91.0924087  98.2110567
  39.9970024  89.8564542  98.8283963  43.3424209  77.0314387 109.9973517
  44.0833922  77.6321540 109.9177979  43.5742131  76.2892025 109.4391559
  38.4865547  82.2170754 108.2751746  38.3719062  81.3156012 108.5758845
  37.6310064  82.4634451 107.9236563  45.5657384  90.1588495 109.8739247
  45.1221239  89.3724873 109.5560152  46.2274598  90.3467645 109.2083138
  40.3244506  91.6884296 104.3999926  40.8751931  91.5601360 103.6276920
  39.4855981  91.9879185 104.0494818  47.6638622  90.4391295 107.9020648
  47.6457098  91.2600176 107.4100918  48.5858542  90.3145370 108.1270790
  44.1211677  87.9535424 108.7444157  44.6540013  87.1923712 108.5143465
  43.5925758  87.6609076 109.4868311  35.3567222  85.3829020  97.0926401
  36.1942444  85.7926029  96.8760108  35.5345490  84.4428463  97.0626594
  47.2531654  83.0504101  92.7810234  46.7378278  83.8208706  93.0198621
  46.9808963  82.3769237  93.4043295  52.2265928  85.8036456  94.7163407
  51.4495371  85.4647615  94.2718569  52.9057409  85.8089079  94.0418372
  47.0417957  80.9231193  94.6070015  46.7368093  81.2377342  95.4580158
  47.9948400  81.0012613  94.6497348  45.4864389  87.0821416  96.2562969
  44.9585751  86.3474176  95.9436206  44.9851892  87.8596093  96.0102937
  50.4657235  85.2770437 101.3730015  49.8080910  85.9669698 101.4610144
  51.2697634  85.6666869 101.7164001  49.2762694  83.6314810  99.4233957
  49.7894576  84.2644802  99.9255667  49.9263918  83.0316005  99.0577317
  40.5452704  79.7745544  92.6365466  39.7090016  80.1120230  92.9574740
  40.4057474  79.6394524  91.6992602  43.6316989  84.9001627  89.2597942
  42.7244051  84.6690880  89.4589091  44.1288021  84.1039246  89.4471923
  46.5385068  93.6099134  92.1794628  45.8646767  93.9130831  92.7879586
  46.9250890  94.4128214  91.8300085  46.5378573  82.5055681  96.7994978
  47.2850392  83.0177078  96.4902100  46.8070162  82.1839734  97.6599371
  44.8105223  85.0014222  93.7821932  43.9016442  84.7173254  93.8794402
  44.8400307  85.4213300  92.9225239  50.0424490  88.6120811  97.5513099
  49.5886817  87.7711721  97.6078290  49.4118457  89.2482209  97.8887880
  48.9857410  79.5412797  98.7813767  48.2480167  79.0290183  99.1124009
  49.2384183  79.1013179  97.9697044  48.4857430  90.4497308  98.4862918
  48.7780404  91.0102365  97.7675283  48.9956050  90.7425869  99.2416077
  44.5081311  86.5422965  91.1210010  44.0700741  85.8258824  90.6615648
  45.2491752  86.7699080  90.5595102  41.2982477  81.2319902  97.6422106
  40.4850342  81.5314073  98.0487298  41.7941471  80.8375591  98.3596588
  43.4491055  91.2277659  99.5756371  43.4067234  91.4538505  98.6464903
  44.3653754  90.9941033  99.7242172  46.8956689  81.6961726 106.4737000
  47.2506076  81.9233200 107.3331466  47.5428820  82.0280103 105.8514255
  52.6254425  84.8180162  97.1786329  52.4872324  85.0081758  96.2507518
  52.2690644  85.5799545  97.6354380  52.6523805  86.8856689 102.1897601
  53.0860312  86.7931978 103.0380655  53.3655386  86.8614190 101.5517617
  41.5656855  88.1040688  99.3718333  42.3597454  87.6091008  99.1700908
  40.8548548  87.5758551  99.0086039  46.3851700  90.4858783 103.7230701
  46.4388722  91.0549720 104.4908417  45.5166481  90.6560668 103.3584738
  37.8739619  82.2483770  95.4478086  36.9437207  82.1868225  95.6648048
  37.9697091  81.7259722  94.6514727  53.5139355  86.9280390 104.7230486
  53.7075245  87.8326200 104.9689761  53.4139973  86.4687809 105.5569071
  48.5754463  87.0787133 110.2971367  48.4239970  86.8497684 109.3801450
  48.5659143  88.0357734 110.3102712  45.3439800  84.6519045 105.2817633
  46.2731860  84.8030205 105.1086600  44.9230830  84.7403066 104.4266279
  44.1428131  88.6769710 103.0516171  44.0039217  88.3088494 103.9242109
  43.3542728  89.1917349 102.8800128  44.7376283  93.7778806  94.3941707
  44.9128039  93.3066850  95.2087330  44.0509071  94.4044573  94.6222968
  45.6933347  88.0551313 100.4405008  45.3583179  88.0152083 101.3362658
  45.1937292  87.3896029  99.9675419  39.6677591  83.4618943 105.9657590
  39.5297389  82.7299181 106.5669129  40.5782514  83.3727843 105.6841777
  48.6292538  85.4007347  90.7142068  48.0121709  84.6754175  90.6175121
  48.1609027  86.1616707  90.3709142  42.2959891  83.1738902 105.4541269
  43.0059510  82.5332094 105.4127888  42.2529199  83.4251797 106.3767450
  50.2846670  90.1106255 108.3747848  50.2259216  89.4265475 107.7078431
  50.6866188  90.8525245 107.9228474  41.0088825  80.1604120 107.2736909
  40.4726182  79.7094858 107.9258505  40.4205534  80.2950029 106.5307373
  39.3037369  96.9268169 101.1681567  39.5433967  97.5586693 101.8460586
  38.4606565  96.5756209 101.4546927  40.4191084  79.6192771  89.8363372
  39.5420551  79.4981572  89.4725619  40.8948837  78.8278850  89.5842261
  50.2864077  88.0745839 106.6061828  49.3990856  87.7371761 106.7288227
  50.8562628  87.3428870 106.8430593  31.9393224  84.4069931  99.9304879
  32.6264264  84.0931661  99.3425895  31.7841353  85.3111296  99.6572131
  43.8165231  92.7347292 103.5723071  43.7435402  93.5402263 104.0842376
  43.3742624  92.9339257 102.7471093  43.6055010  91.9719062  97.0825893
  42.8222532  92.5140742  97.1764117  44.3047755  92.4893041  97.4820134
  54.7681418  83.4854057 101.3678390  54.7571294  84.3678772 100.9972323
  53.8998797  83.1325607 101.1732927  46.2763914  92.6334126 105.7281230
  46.9891886  93.2681590 105.6557131  45.7853943  92.7297992 104.9121232
  47.9981441  86.5385378  97.2998522  47.0637720  86.6586841  97.1303226
  48.1758109  85.6357845  97.0358531  51.3853992  82.3802698  97.8348556
  51.8514445  83.2130689  97.7608858  51.8361493  81.9147679  98.5393814
  41.3275828  90.3828569 106.5486801  42.0285287  91.0165052 106.7016195
  40.8570943  90.7243301 105.7882440  49.4530223  88.7246519  94.8334708
  49.7290067  88.6103113  95.7428582  48.5834722  88.3264004  94.7946881
  49.1277114  82.9373177 104.3739351  48.4748564  83.1849084 103.7191804
  49.5057494  82.1237315 104.0401828  46.0884288  92.9732870  98.4767521
  46.2706682  92.1554526  98.9395274  46.9117274  93.1900562  98.0392411
  46.4226453  91.9001055  95.7382570  46.9514219  91.3893509  95.1252732
  46.6854673  91.5843585  96.6028103  45.1764687  83.6792988 110.8605388
  44.5005324  83.5787117 111.5307763  45.9992321  83.5232201 111.3241385
  36.9243546  89.9164924 103.4817903  37.5096983  89.1708612 103.6145808
  36.7268384  90.2268881 104.3654567  39.7782201  92.9516172  98.4980346
  39.1092576  93.4362299  98.0144386  39.6395071  93.1985392  99.4123724
  31.5161200  82.4870524 102.2022347  31.5545300  81.9534115 102.9959465
  31.0101493  81.9605730 101.5833324  43.9187470  94.9859915 105.0963004
  44.4705778  95.1491537 105.8612089  44.2593663  95.5764353 104.4243029
  38.3704235  79.4058197 109.3457923  38.9976274  79.0235275 109.9595447
  37.5132154  79.1872399 109.7113616  48.7698344  89.8121173 110.9511659
  49.3138248  90.4251131 110.4566613  48.1885189  90.3700751 111.4678672
  47.0555857  92.9341891 102.0826686  46.9306996  92.1331630 101.5737632
  47.7134948  93.4288084 101.5940656  49.1190765  90.7350911 103.7106236
  48.1721101  90.6156262 103.6384563  49.4673538  89.8473409 103.7932498
  46.1237198  90.5303627  99.9110589  45.9762161  89.6020334 100.0918159
  46.9490692  90.5523718  99.4267664  39.9899443  79.1821694  95.7691081
  40.3295515  79.7107615  95.0469689  40.4371563  79.5202100  96.5449647
  49.7271320  91.3532186 100.9975461  50.6517868  91.1475047 100.8599913
  49.5586624  91.1048587 101.9064803  46.1198713  78.3841464  94.9042706
  46.3362327  79.2666102  94.6031534  45.6392780  77.9927678  94.1748348
  49.5166637  91.8717853  96.3537553  49.6903514  91.3064276  95.6011405
  50.0095528  92.6718748  96.1717043  35.3343596  83.8832522 104.4201112
  34.7897064  84.6592330 104.5521386  36.2122946  84.2303327 104.2620233
  55.3706028  84.6354276  97.9727853  55.8137174  83.8861601  97.5746976
  54.4932538  84.6264412  97.5901585  50.5041809  91.1884617  93.4534451
  51.1992714  91.8091310  93.6721766  50.8464959  90.3379969  93.7286829
  36.1209618  83.0102418 107.3131269  35.3791354  83.1585054 107.8995899
  35.8002362  83.2710684 106.4498018  52.4033232  88.6384323  94.9821782
  52.9284556  88.9771596  94.2571102  52.3155585  87.7031338  94.7984917
  44.0653281  92.5518397 107.1111659  44.3740407  92.3067543 107.9834358
  44.8628763  92.7565035 106.6230529  44.0873893  94.7056306  99.3417035
  43.6478883  94.2132685 100.0349892  44.8382010  94.1629274  99.1009110
  36.5666232  90.8967847  99.3441663  37.3924252  90.5971619  98.9640307
  36.2160284  90.1275470  99.7931452  41.5347765  90.2494315 101.4139337
  40.9127774  89.5865020 101.1141565  42.2052632  90.2755447 100.7312985
  34.7674837  88.8154174 100.3030597  33.9306745  88.3876348 100.1214598
  34.7398482  89.0086617 101.2401388  41.6072293  78.7276103 111.0071843
  41.6560448  79.6038226 110.6249612  42.1494807  78.1853496 110.4343486
  52.0927138  89.2717227 110.2872980  51.3022682  89.2541365 109.7477479
  51.8560493  89.8105520 111.0422016  52.2125013  86.1209693 107.6005708
  52.2623018  85.9559700 108.5421231  52.1038937  85.2536952 107.2103589
  41.0961272  88.7998239  94.8897797  41.2449392  89.4833703  94.2364470
  41.9027715  88.7803329  95.4047253  49.5028776  82.1040621 108.9165015
  50.4038638  81.9647086 108.6249013  49.5776750  82.2695076 109.8563193
  43.8371581  79.4807476 107.7618201  42.9674890  79.7741042 107.4900790
  44.0731061  80.0647921 108.4825465  53.7143210  88.5406634 107.8447730
  53.4228018  88.9036615 108.6811191  53.1015341  87.8273643 107.6661062
  54.9138892  86.1059514 100.3650300  55.7485784  86.5449318 100.5287861
  55.0498021  85.6298167  99.5458546  51.9630398  83.6639249 106.3127788
  52.4384520  83.8566895 105.5046639  51.0395964  83.7198435 106.0671172
  38.8513905  84.8263416  95.8958866  38.6059947  83.9225746  96.0939076
  39.0209819  84.8280567  94.9538344  44.5956677  91.2946369  92.3609545
  44.0230645  91.9136556  91.9080017  45.1689471  91.8445731  92.8949467
  50.6632067  80.5405009 104.5456094  51.6149490  80.6403107 104.5668318
  50.4935518  79.7483278 105.0554178  48.6846447  77.6260592 104.7315494
  48.0896379  77.9065605 104.0361983  48.3996144  78.1154493 105.5032236
  47.8153937  91.5783519  93.4918127  48.7484610  91.5129081  93.6951003
  47.7277150  92.4139786  93.0332660  50.4441954  90.8949390  90.4522075
  50.3655585  90.5609253  91.3457832  51.2651621  91.3871158  90.4513547
  53.1420145  83.7611129 103.6598393  53.1096465  82.8227130 103.8458077
  53.7520769  83.8395166 102.9264218  44.9803476  82.6307182  89.7025597
  45.9262581  82.5013390  89.7714015  44.6017721  81.8921844  90.1795025
  53.2914634  80.5522172 103.7056676  52.7753682  79.7680629 103.5186605
  54.1754582  80.2240889 103.8703196  58.9596695  84.8227136 102.8004430
  59.6900083  84.5612424 103.3612133  58.3503640  84.0855858 102.8406498
  57.0411992  82.9634998 103.3978881  56.3145156  82.8290963 102.7895373
  56.6259279  83.2711827 104.2035599  44.8642169  86.6824928 111.1626254
  45.7845178  86.8603527 111.3566301  44.8291752  85.7380973 111.0105953
  43.1646393  80.5557158  89.6380482  42.2577849  80.2590271  89.7143196
  43.4422374  80.2586976  88.7714769  37.8604241  84.5925963 103.8049035
  38.0790251  85.5243070 103.8237069  38.2730015  84.2333937 104.5903839
  42.7332106  80.1659168 113.1951784  42.6328833  81.1153525 113.1263875
  42.5153648  79.8377407 112.3227854  41.9345178  77.4144093  89.7792462
  42.7964342  77.7398992  90.0388279  42.1195522  76.6275589  89.2665527
  33.9512594  85.4966433 102.0572650  33.2576065  85.0820386 101.5442605
  34.6985585  85.5386970 101.4606069  42.5963376  83.5956307 112.0116846
  42.1130458  84.3956667 112.2180735  42.6824315  83.6064252 111.0584290
  35.8649336  85.4284687  99.9338665  35.8420024  85.5272374  98.9820548
  36.1749973  86.2749838 100.2555831  38.5236714  87.4860842 104.0485280
  39.4779967  87.4544784 103.9815211  38.3249238  87.0251466 104.8635506
  39.1136096  86.0561958 106.6156077  39.9328985  86.5506037 106.6390915
  39.3872904  85.1393926 106.5873645  52.2217228  78.4719231  99.6938372
  52.9977619  78.9615684  99.9662989  51.4965363  78.8977285 100.1510242
  54.6589787  79.1846851 100.7512313  55.2534278  78.9442586 100.0405621
  54.7316371  78.4653981 101.3785849  36.8786943  93.0280461 101.0655478
  36.7441411  92.2680862 100.4993476  36.4619005  93.7521361 100.5984266
  48.0145906  88.2117385  90.0732053  48.7181756  88.4167387  90.6889708
  47.2908554  88.7794147  90.3381136  48.8443716  83.9627246  96.1934323
  48.7878917  84.4195798  95.3541955  49.3972058  83.2017931  96.0157166
  52.6548522  79.7516978  97.0184443  52.3985456  79.3513614  97.8492650
  52.0301390  80.4660772  96.8934582  56.9660860  82.4913051  99.5255734
  56.4060418  82.5606241 100.2987296  56.3604363  82.3154036  98.8055230
  40.0356069  93.9249778 101.2773920  39.9188453  94.8695211 101.1752610
  39.2148515  93.6223340 101.6659719  49.9232603  88.6499914  92.1230513
  50.7578207  88.2181113  91.9407988  49.7616946  88.4781928  93.0507407
  49.5778495  85.1532028  93.4886852  49.5227299  84.9876299  92.5475296
  48.9524551  85.8608060  93.6449042  34.3671010  80.3900092 107.3148274
  35.0129874  79.8799046 107.8035500  34.1588161  81.1268774 107.8891700
  46.8924402  87.4580939 112.8140415  47.7615562  87.6321592 112.4527050
  46.4131154  88.2775356 112.6916144  41.0610583  94.5778040 104.4929849
  41.9637829  94.6101651 104.8096344  40.8347953  93.6478491 104.5076184
  42.8164185  93.3309027 101.1539927  41.8659816  93.3310889 101.0404300
  43.1196671  92.5841761 100.6375962  58.5516878  99.1669565 102.2185690
  59.1895288  99.0476313 101.5149030  58.4337721 100.1150409 102.2773642
  55.3606585  99.1196993 102.1547214  55.0225096  99.0038058 101.2667749
  56.2296353  98.7188159 102.1348221  51.2193400 100.9732470  98.1444105
  50.6558265 100.8822407  97.3760393  51.1045795 100.1532374  98.6246598
  55.8426367 100.2731845 108.1133420  55.8315008  99.8784643 107.2413924
  56.0047007  99.5397918 108.7067191  48.7657832 102.4683661 100.9828326
  49.5579124 102.1274486 100.5674625  49.0054482 102.5778636 101.9030479
  56.7992959 104.6403438  93.4558570  56.1480939 105.2257518  93.0692584
  57.5937322 105.1709632  93.5153608  50.7248586 101.7292575  93.8545705
  51.4979462 101.1821562  93.7158580  51.0773985 102.5936824  94.0660166
  52.5633629 103.0568957 107.0612604  52.2723495 103.9614588 106.9459270
  53.1990613 103.0985485 107.7756673  53.4889835 100.4345805 103.6513964
  54.0853408 100.2101828 102.9370926  53.5464807  99.6930551 104.2539411
  53.0614864  97.8885241  91.4864154  53.3140385  97.3666762  90.7247617
  52.1239423  97.7251386  91.5890838  58.1058147  96.8921019  99.2938898
  58.8921236  96.4740442  98.9429315  58.3696851  97.7967111  99.4620546
  58.2768224 102.3293869  93.9927555  57.6414057 102.4028496  94.7048459
  57.9465630 102.9187468  93.3146634  63.5066574  96.8296252 100.1971876
  64.2391746  96.2595469 100.4309706  62.7505930  96.4417853 100.6378382
  52.7811153  99.7913347  93.6888529  52.6647411  99.1158250  94.3569614
  52.8913413  99.3045721  92.8720682  55.1242694  99.2523494  97.3935219
  54.7600901  98.7254115  98.1048140  55.9809809  98.8621963  97.2201704
  61.0291994  90.5417826 104.6566485  60.6975319  91.4113237 104.4327700
  60.4337608  90.2254110 105.3360515  54.7648181  94.2813394  92.3896567
  54.9322583  95.1493630  92.7567038  54.5745350  94.4440675  91.4657856
  57.5223514 102.7430372 104.0562398  57.2224237 103.6455411 103.9478205
  57.1774573 102.4762556 104.9083550  50.9735995  99.1944169 100.0899102
  50.0486492  99.0620383 100.2976794  51.2220408  99.9738389 100.5869044
  60.9220658  95.2612913 101.7359835  60.0137535  95.1928321 101.4418596
  60.8708253  95.7384858 102.5641660  54.7437401  96.7371051  93.3743234
  54.6237027  97.1828102  94.2128714  54.0489990  97.0856369  92.8156772
  48.3344806  98.8377443 100.9242891  48.4637187  99.0911922 101.8382303
  47.6542258  99.4305151 100.6047546  52.5044294 109.5074693  97.0233365
  52.4268323 110.4582518  97.1021846  51.9005937 109.1620565  97.6808292
  54.9961523  96.6802558 109.6794732  54.2194857  97.2396478 109.6697597
  55.6352086  97.1659341 110.2009602  62.7882304  93.4629351 103.5137709
  62.1456684  93.7561884 102.8677503  62.2837232  93.3482271 104.3190905
  60.4422468  97.2092524  94.2023568  61.3540324  97.4419911  94.0271266
  59.9332115  97.7929568  93.6398647  53.2507896  99.4888012 109.2412699
  53.9922580 100.0273056 108.9647523  52.5444881 100.1154300 109.3984251
  58.7263235 101.6317152 107.8384861  59.1346591 101.1899563 107.0939493
  58.0040497 101.0569780 108.0919054  55.0794305  96.5689759 105.2118418
  55.9255500  96.9929172 105.3553067  55.0192943  95.9123383 105.9056981
  59.0492050 102.1918343 101.5937150  58.4200912 102.3564057 100.8913217
  58.6617712 102.6059952 102.3648114  62.9281282 103.1272781  98.9481513
  62.2432320 103.5071682  98.3978547  63.0125131 103.7368107  99.6813461
  58.2293751  94.2294127 106.8699591  57.9854682  94.9836188 106.3333867
  58.5053681  94.6079475 107.7046838  60.1832213 100.7732740 105.5476857
  60.3949109 101.4164499 104.8711238  60.1361962  99.9395056 105.0798787
  57.7858442  93.3850560 102.4513429  56.9242921  93.6831814 102.7430167
  57.8120877  93.6020959 101.5194462  54.6020012 101.9292751  98.8587235
  55.0658357 102.2080454  98.0691857  54.3376810 101.0276195  98.6760325
  51.4944093 101.4764232 101.7966998  52.0645450 101.9051501 101.1584482
  52.0852205 101.1946817 102.4951184  53.5388898  98.0515903  95.6676800
  54.2412941  98.5036947  96.1350726  53.2069526  97.4099722  96.2956693
  51.9869259  96.6427660 110.0428009  51.3567920  97.3243941 110.2763406
  51.8805347  96.5310741 109.0981147  47.2814232  96.3099456 100.9693933
  46.4913286  96.5656984 100.4934044  47.7725479  97.1247794 101.0745974
  61.2978041 103.6504695 103.7199214  62.1195485 103.2484882 103.4381896
  61.2940444 103.5472929 104.6715330  49.2328977  96.6744035  97.9277410
  48.4360140  96.7862729  98.4460906  49.0054569  97.0130687  97.0618301
  55.0634645 103.1988738 105.8759925  55.1279077 103.6609146 106.7118097
  54.3545569 102.5686103 106.0042235  45.5651935  96.5629946 103.4008924
  45.8159973  97.4476956 103.6666500  46.1011483  96.3834548 102.6284016
  69.3884034  99.9943443 100.0684186  68.6347743  99.4250842  99.9128190
  69.5231576  99.9606108 101.0154820  54.7782662 104.8656846  95.7438905
  54.6428337 105.7108381  96.1723753  55.3192475 105.0676123  94.9804839
  51.2650002  90.9448426 112.4053260  50.8716948  90.3914624 113.0800904
  52.0816142  91.2559004 112.7959778  48.2312060 102.3832284  96.3166830
  48.7436580 103.1775534  96.4672395  48.8834773 101.6858574  96.2500432
  50.0406945 105.4998040  98.3989583  50.2173573 106.4216005  98.2110567
  50.8363778 105.1856459  98.8283963  54.1817963  92.3606305 109.9973517
  54.9227676  92.9613458 109.9177979  54.4135886  91.6183942 109.4391559
  49.3259301  97.5462672 108.2751746  49.2112816  96.6447929 108.5758845
  48.4703819  97.7926369 107.9236563  56.4051139 105.4880412 109.8739247
  55.9614993 104.7016791 109.5560152  57.0668352 105.6759563 109.2083138
  51.1638260 107.0176214 104.3999926  51.7145685 106.8893277 103.6276920
  50.3249736 107.3171103 104.0494818  58.5032377 105.7683212 107.9020648
  58.4850852 106.5892093 107.4100918  59.4252297 105.6437287 108.1270790
  54.9605431 103.2827342 108.7444157  55.4933768 102.5215630 108.5143465
  54.4319512 102.9900993 109.4868311  58.1275126  88.3887408 104.2737798
  57.7839395  89.2789049 104.1976909  58.4954089  88.1989065 103.4107383
  46.1960977 100.7120938  97.0926401  47.0336199 101.1217946  96.8760108
  46.3739244  99.7720380  97.0626594  58.0925409  98.3796019  92.7810234
  57.5772032  99.1500623  93.0198621  57.8202717  97.7061155  93.4043295
  55.6772520  93.2245720  97.8395472  54.8214116  92.8352570  97.6601111
  56.0899472  93.3037680  96.9795257  57.2071666  90.7592063 102.2387032
  56.7036462  90.7222198 101.4254837  57.5002273  91.6684806 102.2983688
  53.4514552  90.8430793 101.2453213  54.3167549  90.6473601 100.8859103
  53.5192061  90.6141144 102.1722570  63.0659683 101.1328373  94.7163407
  62.2889126 100.7939533  94.2718569  63.7451164 101.1380997  94.0418372
  57.8811712  96.2523111  94.6070015  57.5761847  96.5669260  95.4580158
  58.8342154  96.3304531  94.6497348  56.3258144 102.4113334  96.2562969
  55.7979505 101.6766094  95.9436206  55.8245646 103.1888011  96.0102937
  61.3050990 100.6062355 101.3730015  60.6474664 101.2961616 101.4610144
  62.1091389 100.9958787 101.7164001  51.0576871  93.0733000  98.6169580
  51.6320623  92.8508182  97.8842773  51.6447854  93.1421695  99.3698182
  60.1156449  98.9606727  99.4233957  60.6288330  99.5936719  99.9255667
  60.7657672  98.3607923  99.0577317  51.3846458  95.1037461  92.6365466
  50.5483771  95.4412148  92.9574740  51.2451228  94.9686441  91.6992602
  53.3599539  89.9474249  97.3444650  52.7063951  89.6323267  96.7201264
  53.3180013  89.3249990  98.0704473  54.4710744 100.2293544  89.2597942
  53.5637806  99.9982798  89.4589091  54.9681776  99.4331164  89.4471923
  57.3778823 108.9391052  92.1794628  56.7040522 109.2422748  92.7879586
  57.7644645 109.7420132  91.8300085  56.5937279  96.4356183 101.6692297
  55.6759841  96.6571130 101.5113985  57.0097423  96.5102493 100.8104005
  57.3772327  97.8347599  96.7994978  58.1244146  98.3468996  96.4902100
  57.6463917  97.5131651  97.6599371  55.6498977 100.3306139  93.7821932
  54.7410197 100.0465172  93.8794402  55.6794061 100.7505218  92.9225239
  60.8818245 103.9412729  97.5513099  60.4280572 103.1003639  97.6078290
  60.2512211 104.5774127  97.8887880  59.8251164  94.8704715  98.7813767
  59.0873921  94.3582101  99.1124009  60.0777938  94.4305096  97.9697044
  59.3251184 105.7789225  98.4862918  59.6174158 106.3394283  97.7675283
  59.8349805 106.0717786  99.2416077  59.9262792  87.6480967  99.3755536
  60.2321668  86.7878330  99.0881451  60.6515396  88.2398587  99.1754530
  46.2187148  98.0511653  97.7637134  46.0211548  97.4581014  97.0388201
  45.6633812  97.7463864  98.4813073  54.1983871  97.9434760  99.8831727
  54.2532481  96.9908596  99.8074204  53.3875073  98.0994199 100.3673026
  55.3475065 101.8714883  91.1210010  54.9094495 101.1550742  90.6615648
  56.0885506 102.0990998  90.5595102  52.1376231  96.5611820  97.6422106
  51.3244097  96.8605990  98.0487298  52.6335226  96.1667508  98.3596588
  54.2884809 106.5569577  99.5756371  54.2460988 106.7830423  98.6464903
  55.2047508 106.3232951  99.7242172  57.7350443  97.0253644 106.4737000
  58.0899831  97.2525117 107.3331466  58.3822574  97.3572021 105.8514255
  63.4648180 100.1472080  97.1786329  63.3266079 100.3373676  96.2507518
  63.1084399 100.9091463  97.6354380  51.6290306  94.1330175 103.2583341
  52.2689685  93.9918934 102.5606304  50.7967837  93.8464689 102.8821943
  63.4917560 102.2148607 102.1897601  63.9254066 102.1223896 103.0380655
  64.2049140 102.1906107 101.5517617  52.4050610 103.4332606  99.3718333
  53.1991208 102.9382926  99.1700908  51.6942302 102.9050469  99.0086039
  57.2245454 105.8150701 103.7230701  57.2782477 106.3841637 104.4908417
  56.3560236 105.9852586 103.3584738  48.7133373  97.5775687  95.4478086
  47.7830962  97.5160143  95.6648048  48.8090845  97.0551640  94.6514727
  48.6318922  94.1030500  98.0356328  48.8925740  95.0175833  97.9265488
  49.4536095  93.6354943  98.1852941  50.1043848  95.5168257 105.2055152
  50.7766901  95.3085619 104.5567801  49.2773634  95.3190343 104.7660385
  64.3533109 102.2572308 104.7230486  64.5468999 103.1618118 104.9689761
  64.2533727 101.7979727 105.5569071  56.0069420  92.1430198 107.2220813
  55.3597335  92.8420148 107.1285290  56.7770435  92.5766342 107.5897061
  59.4148218 102.4079050 110.2971367  59.2633724 102.1789602 109.3801450
  59.4052897 103.3649652 110.3102712  56.1833554  99.9810963 105.2817633
  57.1125614 100.1322123 105.1086600  55.7624584 100.0694984 104.4266279
  54.9821886 104.0061628 103.0516171  54.8432972 103.6380412 103.9242109
  54.1936482 104.5209267 102.8800128  55.5770038 109.1070724  94.3941707
  55.7521794 108.6358767  95.2087330  54.8902826 109.7336490  94.6222968
  56.5327101 103.3843230 100.4405008  56.1976934 103.3444000 101.3362658
  56.0331047 102.7187946  99.9675419  50.5071345  98.7910860 105.9657590
  50.3691143  98.0591099 106.5669129  51.4176269  98.7019760 105.6841777
  59.4686293 100.7299265  90.7142068  58.8515463 100.0046093  90.6175121
  59.0002781 101.4908625  90.3709142  53.1353646  98.5030820 105.4541269
  53.8453264  97.8624012 105.4127888  53.0922954  98.7543714 106.3767450
  61.1240424 105.4398173 108.3747848  61.0652971 104.7557393 107.7078431
  61.5259943 106.1817163 107.9228474  51.8482580  95.4896038 107.2736909
  51.3119937  95.0386776 107.9258505  51.2599288  95.6241946 106.5307373
  50.1431123 112.2560087 101.1681567  50.3827721 112.8878611 101.8460586
  49.3000320 111.9048127 101.4546927  51.2584839  94.9484689  89.8363372
  50.3814305  94.8273490  89.4725619  51.7342592  94.1570767  89.5842261
  61.1257832 103.4037757 106.6061828  60.2384610 103.0663679 106.7288227
  61.6956383 102.6720788 106.8430593  42.7786979  99.7361849  99.9304879
  43.4658019  99.4223579  99.3425895  42.6235108 100.6403213  99.6572131
  47.5821701  94.6252045 104.3589903  47.4979890  94.0177715 103.6240313
  46.7604407  95.1161064 104.3599399  54.6558985 108.0639209 103.5723071
  54.5829157 108.8694181 104.0842376  54.2136378 108.2631175 102.7471093
  54.4448765 107.3010979  97.0825893  53.6616287 107.8432659  97.1764117
  55.1441510 107.8184959  97.4820134  57.7545415  93.1105609  99.7260098
  58.2514114  92.3575571  99.4061168  56.9832396  93.1469925  99.1603308
  65.6075172  98.8145974 101.3678390  65.5965048  99.6970690 100.9972323
  64.7392552  98.4617525 101.1732927  57.1157669 107.9626043 105.7281230
  57.8285641 108.5973508 105.6557131  56.6247697 108.0589909 104.9121232
  58.8375196 101.8677296  97.2998522  57.9031474 101.9878758  97.1303226
  59.0151864 100.9649763  97.0358531  54.3380384  95.2522992  99.4531783
  53.9678171  94.6994032 100.1412688  54.8339476  94.6481125  98.9006783
  62.2247747  97.7094615  97.8348556  62.6908199  98.5422607  97.7608858
  62.6755247  97.2439597  98.5393814  52.1669582 105.7120487 106.5486801
  52.8679042 106.3456970 106.7016195  51.6964697 106.0535218 105.7882440
  60.2923978 104.0538437  94.8334708  60.5683822 103.9395031  95.7428582
  59.4228477 103.6555921  94.7946881  60.1964410  90.0775202 101.8739457
  59.2827489  90.3079429 102.0421664  60.6257511  90.1613646 102.7253489
  59.9670868  98.2665094 104.3739351  59.3142318  98.5141002 103.7191804
  60.3451248  97.4529232 104.0401828  56.9278042 108.3024787  98.4767521
  57.1100437 107.4846443  98.9395274  57.7511028 108.5192480  98.0392411
  57.2620207 107.2292972  95.7382570  57.7907974 106.7185427  95.1252732
  57.5248427 106.9135503  96.6028103  56.0158441  99.0084905 110.8605388
  55.3399078  98.9079035 111.5307763  56.8386075  98.8524119 111.3241385
  47.7637300 105.2456842 103.4817903  48.3490737 104.5000530 103.6145808
  47.5662139 105.5560799 104.3654567  50.6175955 108.2808089  98.4980346
  49.9486331 108.7654217  98.0144386  50.4788825 108.5277310  99.4123724
  42.3554955  97.8162442 102.2022347  42.3939054  97.2826033 102.9959465
  41.8495248  97.2897648 101.5833324  54.7581224 110.3151833 105.0963004
  55.3099532 110.4783454 105.8612089  55.0987417 110.9056271 104.4243029
  49.7345717  92.6626983 105.6984889  49.7987044  93.5241813 105.2862287
  49.6712837  92.0500984 104.9657247  49.2097990  94.7350115 109.3457923
  49.8370029  94.3527192 109.9595447  48.3525909  94.5164317 109.7113616
  45.9863533  96.5426544  95.2776278  46.2816974  95.6337223  95.2243332
  45.0851568  96.5214284  94.9557280  57.8949611 108.2633808 102.0826686
  57.7700751 107.4623548 101.5737632  58.5528702 108.7580002 101.5940656
  49.5157780  94.6182541 101.2603827  48.7944365  95.2318508 101.1211300
  50.3051035  95.1540306 101.1820472  59.9584520 106.0642828 103.7106236
  59.0114855 105.9448179 103.6384563  60.3067293 105.1765326 103.7932498
  52.3184093  91.9536967 107.5344478  52.8418495  92.1999264 108.2970788
  52.0996426  92.7857002 107.1147616  47.7151374  94.2240642  95.4015603
  47.3864080  93.3438021  95.2190709  48.0690745  94.1688311  96.2891992
  56.9630953 105.8595545  99.9110589  56.8155915 104.9312252 100.0918159
  57.7884446 105.8815635  99.4267664  50.8293197  94.5113612  95.7691081
  51.1689270  95.0399533  95.0469689  51.2765318  94.8494018  96.5449647
  60.5665075 106.6824103 100.9975461  61.4911622 106.4766965 100.8599913
  60.3980378 106.4340504 101.9064803  53.5236638  92.8950662 105.2194149
  53.1833458  92.0958475 105.6214829  52.8175644  93.1952373 104.6470982
  54.1753110  89.9799975 103.6721472  54.9979179  89.5060453 103.5500362
  54.4191173  90.7590459 104.1720158  52.8161344  93.0088233  93.9684374
  53.5369707  93.3869486  93.4648090  52.1926649  93.7277110  94.0719352
  56.9592467  93.7133382  94.9042706  57.1756082  94.5958020  94.6031534
  56.4786534  93.3219596  94.1748348  51.6991689  96.6719095 101.4813450
  51.5536269  96.9859398 102.3737732  51.2216892  97.2903996 100.9284349
  53.5588072  93.6621643 101.5294340  53.5449640  92.7662737 101.1926638
  54.2760500  93.6692307 102.1632626  55.4114202  94.0958984 103.5747467
  55.1531980  95.0176054 103.5731798  54.8799243  93.6989418 104.2647932
  60.3560391 107.2009771  96.3537553  60.5297269 106.6356193  95.6011405
  60.8489282 108.0010666  96.1717043  46.1737351  99.2124440 104.4201112
  45.6290819  99.9884248 104.5521386  47.0516701  99.5595244 104.2620233
  52.9624967  92.5436024  96.7981910  53.0840879  91.6152670  96.9972798
  52.6727010  92.5574710  95.8860226  55.8316158  90.2290934  99.9348630
  55.8537855  90.2930267  98.9800610  56.2484217  89.3895443 100.1289136
  66.2099782  99.9646194  97.9727853  66.6530928  99.2153519  97.5746976
  65.3326292  99.9556330  97.5901585  61.3435564 106.5176535  93.4534451
  62.0386468 107.1383228  93.6721766  61.6858714 105.6671886  93.7286829
  46.9603373  98.3394336 107.3131269  46.2185109  98.4876971 107.8995899
  46.6396117  98.6002602 106.4498018  63.2426987 103.9676241  94.9821782
  63.7678311 104.3063513  94.2571102  63.1549339 103.0323256  94.7984917
  54.9047035 107.8810314 107.1111659  55.2134162 107.6359461 107.9834358
  55.7022517 108.0856953 106.6230529  54.9267647 110.0348224  99.3417035
  54.4872638 109.5424603 100.0349892  55.6775764 109.4921192  99.1009110
  47.4059986 106.2259765  99.3441663  48.2318006 105.9263537  98.9640307
  47.0554038 105.4567387  99.7931452  52.3741520 105.5786233 101.4139337
  51.7521529 104.9156938 101.1141565  53.0446386 105.6047365 100.7312985
  45.6068591 104.1446091 100.3030597  44.7700500 103.7168266 100.1214598
  45.5792237 104.3378535 101.2401388  52.4466047  94.0568021 111.0071843
  52.4954203  94.9330144 110.6249612  52.9888561  93.5145414 110.4343486
  63.0518768 101.4501611 107.6005708  63.1016773 101.2851618 108.5421231
  62.9432691 100.5828870 107.2103589  51.9355026 104.1290156  94.8897797
  52.0843147 104.8125621  94.2364470  52.7421470 104.1095246  95.4047253
  60.3422530  97.4332539 108.9165015  61.2432393  97.2939004 108.6249013
  60.4170505  97.5986994 109.8563193  54.6765335  94.8099393 107.7618201
  53.8068645  95.1032959 107.4900790  54.9124816  95.3939838 108.4825465
  64.5536965 103.8698552 107.8447730  64.2621773 104.2328533 108.6811191
  63.9409096 103.1565560 107.6661062  65.7532647 101.4351432 100.3650300
  66.5879538 101.8741236 100.5287861  65.8891776 100.9590085  99.5458546
  62.8024153  98.9931167 106.3127788  63.2778274  99.1858813 105.5046639
  61.8789718  99.0490353 106.0671172  49.6907659 100.1555334  95.8958866
  49.4453701  99.2517664  96.0939076  49.8603574 100.1572484  94.9538344
  57.3804369  91.0279010 105.2783622  57.8986313  91.7640037 104.9530110
  57.0259502  91.3343004 106.1130381  48.9603307  95.8883692  93.3945028
  48.2672552  95.9628047  92.7385064  48.7155059  95.1244035  93.9166545
  57.6316963  87.4479293 100.7984518  57.9118717  86.7802482 101.4244945
  58.4167570  87.6408389 100.2859182  55.4350432 106.6238287  92.3609545
  54.8624399 107.2428474  91.9080017  56.0083226 107.1737648  92.8949467
  61.5025822  95.8696927 104.5456094  62.4543245  95.9695025 104.5668318
  61.3329272  95.0775195 105.0554178  59.5240201  92.9552510 104.7315494
  58.9290133  93.2357523 104.0361983  59.2389898  93.4446411 105.5032236
  58.6547692 106.9075437  93.4918127  59.5878365 106.8420999  93.6951003
  58.5670905 107.7431704  93.0332660  61.2835708 106.2241307  90.4522075
  61.2049340 105.8901171  91.3457832  62.1045375 106.7163075  90.4513547
  63.9813900  99.0903047 103.6598393  63.9490220  98.1519047 103.8458077
  64.5914523  99.1687083 102.9264218  55.8197230  97.9599100  89.7025597
  56.7656335  97.8305308  89.7714015  55.4411475  97.2213761  90.1795025
  64.1308388  95.8814090 103.7056676  63.6147437  95.0972547 103.5186605
  65.0148337  95.5532807 103.8703196  61.7919115  89.6255106  99.6652489
  61.5943936  89.3170194 100.5495821  62.4018821  90.3516744  99.7950419
  69.7990449 100.1519053 102.8004430  70.5293838  99.8904342 103.3612133
  69.1897395  99.4147775 102.8406498  67.8805747  98.2926916 103.3978881
  67.1538910  98.1582881 102.7895373  67.4653033  98.6003745 104.2035599
  55.7035923 102.0116846 111.1626254  56.6238932 102.1895445 111.3566301
  55.6685506 101.0672891 111.0105953  54.0040148  95.8849076  89.6380482
  53.0971603  95.5882189  89.7143196  54.2816129  95.5878894  88.7714769
  44.9218088  97.2055439 100.0879529  44.6020872  96.3520748  99.7953903
  44.3751516  97.4204017 100.8437496  48.6997996  99.9217880 103.8049035
  48.9184005 100.8534988 103.8237069  49.1123769  99.5625855 104.5903839
  55.6202213  90.4285966  95.7924724  54.8102942  90.0833051  96.1679970
  56.3086630  90.1193509  96.3812335  57.5492762  89.5064012  97.4149020
  58.1023800  89.9259466  98.0739043  57.7862848  88.5799761  97.4571976
  53.5725861  95.4951086 113.1951784  53.4722588  96.4445443 113.1263875
  53.3547403  95.1669325 112.3227854  52.7738932  92.7436011  89.7792462
  53.6358096  93.0690909  90.0388279  52.9589276  91.9567507  89.2665527
  44.7906348 100.8258351 102.0572650  44.0969819 100.4112304 101.5442605
  45.5379339 100.8678887 101.4606069  60.9271569  91.6164538  96.9227685
  60.3470238  92.2749342  96.5405737  60.6607501  90.7941882  96.5115102
  59.3775135  91.0169595  99.1249005  59.8774913  91.1286130  98.3163324
  60.0210743  90.7130648  99.7649813  53.4357131  98.9248225 112.0116846
  52.9524213  99.7248585 112.2180735  53.5218070  98.9356170 111.0584290
  46.7043091 100.7576605  99.9338665  46.6813779 100.8564292  98.9820548
  47.0143727 101.6041755 100.2555831  49.3630468 102.8152760 104.0485280
  50.3173722 102.7836702 103.9815211  49.1642992 102.3543383 104.8635506
  49.9529851 101.3853876 106.6156077  50.7722740 101.8797954 106.6390915
  50.2266658 100.4685844 106.5873645  59.7096447  93.7764628  95.9784033
  58.8222302  94.0614279  95.7604228  60.1250436  93.6158391  95.1311310
  63.0610983  93.8011149  99.6938372  63.8371373  94.2907601  99.9662989
  62.3359117  94.2269203 100.1510242  65.4983541  94.5138768 100.7512313
  66.0928032  94.2734504 100.0405621  65.5710125  93.7945899 101.3785849
  47.7180697 108.3572379 101.0655478  47.5835165 107.5972780 100.4993476
  47.3012759 109.0813279 100.5984266  58.8539660 103.5409303  90.0732053
  59.5575510 103.7459305  90.6889708  58.1302309 104.1086065  90.3381136
  59.6837470  99.2919164  96.1934323  59.6272672  99.7487715  95.3541955
  60.2365813  98.5309849  96.0157166  63.4942276  95.0808896  97.0184443
  63.2379211  94.6805531  97.8492650  62.8695144  95.7952690  96.8934582
  67.8054614  97.8204969  99.5255734  67.2454172  97.8898158 100.2987296
  67.1998118  97.6445954  98.8055230  50.8749823 109.2541696 101.2773920
  50.7582207 110.1987129 101.1752610  50.0542269 108.9515258 101.6659719
  60.7626358 103.9791832  92.1230513  61.5971962 103.5473030  91.9407988
  60.6010701 103.8073846  93.0507407  60.4172250 100.4823945  93.4886852
  60.3621054 100.3168217  92.5475296  59.7918305 101.1899978  93.6449042
  45.2064765  95.7192010 107.3148274  45.8523628  95.2090964 107.8035500
  44.9981916  96.4560691 107.8891700  53.7268375  89.9832054  93.0672171
  53.7147045  90.9273894  93.2240441  54.6191797  89.8002200  92.7731632
  51.9004337 109.9069958 104.4929849  52.8031584 109.9393568 104.8096344
  51.6741707 108.9770409 104.5076184  53.6557939 108.6600945 101.1539927
  52.7053570 108.6602806 101.0404300  53.9590425 107.9133679 100.6375962
  57.5420495  86.5774831  97.3218107  56.7752891  86.0233318  97.4674790
  57.9531200  86.6496700  98.1832259  49.5462256  92.8659627 111.4123289
  50.4093717  92.5096431 111.6226613  48.9727666  92.5273521 112.0998693
  62.0587155 116.3024388  98.1444105  61.4952020 116.2114324  97.3760393
  61.9439550 115.4824292  98.6246598  59.6051587 117.7975579 100.9828326
  60.3972879 117.4566404 100.5674625  59.8448237 117.9070554 101.9030479
  67.6386713 119.9695355  93.4558570  66.9874693 120.5549436  93.0692584
  68.4331076 120.5001550  93.5153608  61.5642341 117.0584492  93.8545705
  62.3373217 116.5113479  93.7158580  61.9167739 117.9228742  94.0660166
  63.9008618 113.2177158  91.4864154  64.1534139 112.6958680  90.7247617
  62.9633177 113.0543304  91.5890838  68.9451901 112.2212937  99.2938898
  69.7314990 111.8032360  98.9429315  69.2090606 113.1259029  99.4620546
  69.1161979 117.6585787  93.9927555  68.4807812 117.7320414  94.7048459
  68.7859385 118.2479386  93.3146634  63.6204907 115.1205264  93.6888529
  63.5041165 114.4450168  94.3569614  63.7307167 114.6337638  92.8720682
  65.9636448 114.5815412  97.3935219  65.5994655 114.0546033  98.1048140
  66.8203564 114.1913881  97.2201704  65.6041935 109.6105311  92.3896567
  65.7716337 110.4785548  92.7567038  65.4139104 109.7732593  91.4657856
  61.8129750 114.5236087 100.0899102  60.8880246 114.3912301 100.2976794
  62.0614163 115.3030306 100.5869044  65.5831156 112.0662969  93.3743234
  65.4630781 112.5120019  94.2128714  64.8883744 112.4148286  92.8156772
  59.1738561 114.1669361 100.9242891  59.3030942 114.4203839 101.8382303
  58.4936012 114.7597069 100.6047546  71.2816222 112.5384442  94.2023568
  72.1934078 112.7711829  94.0271266  70.7725869 113.1221486  93.6398647
  68.6252197 108.7142478 102.4513429  67.7636676 109.0123731 102.7430167
  68.6514631 108.9312877 101.5194462  65.4413766 117.2584668  98.8587235
  65.9052112 117.5372371  98.0691857  65.1770564 116.3568113  98.6760325
  64.3782652 113.3807821  95.6676800  65.0806696 113.8328864  96.1350726
  64.0463281 112.7391640  96.2956693  58.1207986 111.6391373 100.9693933
  57.3307040 111.8948902 100.4934044  58.6119234 112.4539711 101.0745974
  60.0722732 112.0035953  97.9277410  59.2753895 112.1154647  98.4460906
  59.8448324 112.3422605  97.0618301  56.4045689 111.8921864 103.4008924
  56.6553728 112.7768874 103.6666500  56.9405238 111.7126465 102.6284016
  65.6176417 120.1948763  95.7438905  65.4822092 121.0400299  96.1723753
  66.1586229 120.3968041  94.9804839  59.0705814 117.7124201  96.3166830
  59.5830335 118.5067452  96.4672395  59.7228527 117.0150492  96.2500432
  60.8800699 120.8289958  98.3989583  61.0567327 121.7507922  98.2110567
  61.6757533 120.5148377  98.8283963  68.9668880 103.7179325 104.2737798
  68.6233150 104.6080967 104.1976909  69.3347843 103.5280983 103.4107383
  57.0354731 116.0412856  97.0926401  57.8729953 116.4509864  96.8760108
  57.2132999 115.1012298  97.0626594  68.9319163 113.7087936  92.7810234
  68.4165787 114.4792541  93.0198621  68.6596472 113.0353073  93.4043295
  66.5166274 108.5537637  97.8395472  65.6607871 108.1644488  97.6601111
  66.9293226 108.6329598  96.9795257  68.0465421 106.0883980 102.2387032
  67.5430216 106.0514116 101.4254837  68.3396028 106.9976723 102.2983688
  64.2908307 106.1722710 101.2453213  65.1561304 105.9765519 100.8859103
  64.3585816 105.9433062 102.1722570  73.9053437 116.4620291  94.7163407
  73.1282880 116.1231451  94.2718569  74.5844918 116.4672914  94.0418372
  68.7205466 111.5815029  94.6070015  68.4155602 111.8961178  95.4580158
  69.6735909 111.6596448  94.6497348  67.1651898 117.7405252  96.2562969
  66.6373260 117.0058011  95.9436206  66.6639401 118.5179928  96.0102937
  61.8970626 108.4024918  98.6169580  62.4714378 108.1800100  97.8842773
  62.4841608 108.4713613  99.3698182  62.2240213 110.4329379  92.6365466
  61.3877525 110.7704066  92.9574740  62.0844983 110.2978359  91.6992602
  64.1993294 105.2766167  97.3444650  63.5457706 104.9615184  96.7201264
  64.1573768 104.6541907  98.0704473  65.3104498 115.5585462  89.2597942
  64.4031560 115.3274716  89.4589091  65.8075530 114.7623081  89.4471923
  68.2172577 124.2682969  92.1794628  67.5434276 124.5714666  92.7879586
  68.6038399 125.0712050  91.8300085  67.4331034 111.7648101 101.6692297
  66.5153595 111.9863048 101.5113985  67.8491178 111.8394411 100.8104005
  68.2166082 113.1639516  96.7994978  68.9637901 113.6760913  96.4902100
  68.4857671 112.8423569  97.6599371  66.4892732 115.6598057  93.7821932
  65.5803951 115.3757090  93.8794402  66.5187816 116.0797136  92.9225239
  70.6644919 110.1996633  98.7813767  69.9267676 109.6874019  99.1124009
  70.9171692 109.7597014  97.9697044  70.7656546 102.9772885  99.3755536
  71.0715423 102.1170248  99.0881451  71.4909151 103.5690505  99.1754530
  57.0580902 113.3803571  97.7637134  56.8605302 112.7872932  97.0388201
  56.5027566 113.0755781  98.4813073  65.0377626 113.2726678  99.8831727
  65.0926236 112.3200514  99.8074204  64.2268828 113.4286117 100.3673026
  66.1868820 117.2006801  91.1210010  65.7488250 116.4842660  90.6615648
  66.9279261 117.4282915  90.5595102  62.9769986 111.8903737  97.6422106
  62.1637851 112.1897908  98.0487298  63.4728980 111.4959426  98.3596588
  74.3041934 115.4763998  97.1786329  74.1659833 115.6665594  96.2507518
  73.9478153 116.2383380  97.6354380  62.4684061 109.4622093 103.2583341
  63.1083440 109.3210852 102.5606304  61.6361591 109.1756606 102.8821943
  63.2444364 118.7624523  99.3718333  64.0384963 118.2674843  99.1700908
  62.5336057 118.2342386  99.0086039  59.5527128 112.9067605  95.4478086
  58.6224716 112.8452060  95.6648048  59.6484600 112.3843558  94.6514727
  59.4712677 109.4322418  98.0356328  59.7319494 110.3467751  97.9265488
  60.2929849 108.9646860  98.1852941  60.9437602 110.8460175 105.2055152
  61.6160656 110.6377537 104.5567801  60.1167389 110.6482261 104.7660385
  66.4163792 124.4362642  94.3941707  66.5915548 123.9650685  95.2087330
  65.7296580 125.0628408  94.6222968  70.3080047 116.0591182  90.7142068
  69.6909218 115.3338010  90.6175121  69.8396536 116.8200543  90.3709142
  62.0978593 110.2776607  89.8363372  61.2208059 110.1565407  89.4725619
  62.5736346 109.4862685  89.5842261  53.6180733 115.0653766  99.9304879
  54.3051773 114.7515496  99.3425895  53.4628862 115.9695131  99.6572131
  58.4215455 109.9543963 104.3589903  58.3373644 109.3469632 103.6240313
  57.5998162 110.4452981 104.3599399  68.5939169 108.4397526  99.7260098
  69.0907869 107.6867489  99.4061168  67.8226151 108.4761843  99.1603308
  69.6768950 117.1969214  97.2998522  68.7425229 117.3170676  97.1303226
  69.8545618 116.2941680  97.0358531  65.1774138 110.5814909  99.4531783
  64.8071926 110.0285950 100.1412688  65.6733231 109.9773043  98.9006783
  73.0641501 113.0386533  97.8348556  73.5301954 113.8714525  97.7608858
  73.5149002 112.5731514  98.5393814  71.1317732 119.3830354  94.8334708
  71.4077576 119.2686949  95.7428582  70.2622231 118.9847839  94.7946881
  71.0358164 105.4067120 101.8739457  70.1221244 105.6371347 102.0421664
  71.4651266 105.4905564 102.7253489  68.1013962 122.5584890  95.7382570
  68.6301728 122.0477345  95.1252732  68.3642182 122.2427420  96.6028103
  53.1948709 113.1454360 102.2022347  53.2332809 112.6117950 102.9959465
  52.6889002 112.6189565 101.5833324  60.5739472 107.9918900 105.6984889
  60.6380798 108.8533731 105.2862287  60.5106592 107.3792902 104.9657247
  56.8257287 111.8718462  95.2776278  57.1210728 110.9629140  95.2243332
  55.9245323 111.8506201  94.9557280  60.3551534 109.9474458 101.2603827
  59.6338120 110.5610426 101.1211300  61.1444790 110.4832223 101.1820472
  58.5545129 109.5532559  95.4015603  58.2257835 108.6729938  95.2190709
  58.9084499 109.4980228  96.2891992  61.6686952 109.8405529  95.7691081
  62.0083024 110.3691451  95.0469689  62.1159072 110.1785935  96.5449647
  64.3630393 108.2242580 105.2194149  64.0227213 107.4250393 105.6214829
  63.6569399 108.5244291 104.6470982  65.0146864 105.3091892 103.6721472
  65.8372934 104.8352371 103.5500362  65.2584928 106.0882376 104.1720158
  63.6555099 108.3380151  93.9684374  64.3763461 108.7161404  93.4648090
  63.0320403 109.0569028  94.0719352  67.7986222 109.0425300  94.9042706
  68.0149836 109.9249938  94.6031534  67.3180289 108.6511513  94.1748348
  62.5385443 112.0011013 101.4813450  62.3930024 112.3151316 102.3737732
  62.0610647 112.6195913 100.9284349  64.3981826 108.9913561 101.5294340
  64.3843395 108.0954654 101.1926638  65.1154254 108.9984225 102.1632626
  66.2507957 109.4250901 103.5747467  65.9925735 110.3467972 103.5731798
  65.7192997 109.0281336 104.2647932  57.0131105 114.5416357 104.4201112
  56.4684573 115.3176165 104.5521386  57.8910455 114.8887162 104.2620233
  63.8018722 107.8727941  96.7981910  63.9234633 106.9444588  96.9972798
  63.5120764 107.8866627  95.8860226  66.6709912 105.5582852  99.9348630
  66.6931609 105.6222185  98.9800610  67.0877971 104.7187360 100.1289136
  72.1829318 121.8468453  93.4534451  72.8780223 122.4675145  93.6721766
  72.5252468 120.9963804  93.7286829  74.0820741 119.2968158  94.9821782
  74.6072065 119.6355431  94.2571102  73.9943094 118.3615174  94.7984917
  58.2453741 121.5551682  99.3441663  59.0711761 121.2555454  98.9640307
  57.8947793 120.7859305  99.7931452  56.4462346 119.4738009 100.3030597
  55.6094254 119.0460183 100.1214598  56.4185991 119.6670452 101.2401388
  62.7748781 119.4582074  94.8897797  62.9236901 120.1417538  94.2364470
  63.5815224 119.4387164  95.4047253  60.5301414 115.4847252  95.8958866
  60.2847456 114.5809582  96.0939076  60.6997328 115.4864402  94.9538344
  59.7997061 111.2175609  93.3945028  59.1066306 111.2919964  92.7385064
  59.5548813 110.4535953  93.9166545  68.4710718 102.7771211 100.7984518
  68.7512472 102.1094400 101.4244945  69.2561325 102.9700306 100.2859182
  66.2744186 121.9530204  92.3609545  65.7018154 122.5720392  91.9080017
  66.8476980 122.5029566  92.8949467  69.4941446 122.2367355  93.4918127
  70.4272119 122.1712916  93.6951003  69.4064659 123.0723621  93.0332660
  72.1229463 121.5533225  90.4522075  72.0443094 121.2193089  91.3457832
  72.9439130 122.0454993  90.4513547  66.6590985 113.2891017  89.7025597
  67.6050090 113.1597225  89.7714015  66.2805230 112.5505679  90.1795025
  72.6312870 104.9547023  99.6652489  72.4337691 104.6462111 100.5495821
  73.2412575 105.6808662  99.7950419  64.8433902 111.2140994  89.6380482
  63.9365358 110.9174106  89.7143196  65.1209883 110.9170812  88.7714769
  55.7611842 112.5347357 100.0879529  55.4414627 111.6812665  99.7953903
  55.2145271 112.7495935 100.8437496  66.4595968 105.7577883  95.7924724
  65.6496696 105.4124968  96.1679970  67.1480385 105.4485427  96.3812335
  68.3886516 104.8355930  97.4149020  68.9417555 105.2551384  98.0739043
  68.6256602 103.9091678  97.4571976  63.6132687 108.0727929  89.7792462
  64.4751851 108.3982827  90.0388279  63.7983031 107.2859425  89.2665527
  55.6300102 116.1550269 102.0572650  54.9363574 115.7404221 101.5442605
  56.3773093 116.1970805 101.4606069  71.7665323 106.9456455  96.9227685
  71.1863992 107.6041259  96.5405737  71.5001256 106.1233800  96.5115102
  70.2168890 106.3461513  99.1249005  70.7168668 106.4578048  98.3163324
  70.8604498 106.0422566  99.7649813  57.5436845 116.0868522  99.9338665
  57.5207533 116.1856210  98.9820548  57.8537482 116.9333673 100.2555831
  70.5490201 109.1056546  95.9784033  69.6616056 109.3906196  95.7604228
  70.9644190 108.9450309  95.1311310  73.9004737 109.1303067  99.6938372
  74.6765127 109.6199519  99.9662989  73.1752872 109.5561121 100.1510242
  69.6933415 118.8701220  90.0732053  70.3969265 119.0751223  90.6889708
  68.9696063 119.4377982  90.3381136  70.5231225 114.6211082  96.1934323
  70.4666426 115.0779633  95.3541955  71.0759567 113.8601766  96.0157166
  74.3336031 110.4100813  97.0184443  74.0772965 110.0097449  97.8492650
  73.7088899 111.1244607  96.8934582  71.6020112 119.3083750  92.1230513
  72.4365716 118.8764948  91.9407988  71.4404455 119.1365763  93.0507407
  71.2566004 115.8115863  93.4886852  71.2014808 115.6460134  92.5475296
  70.6312060 116.5191896  93.6449042  56.0458519 111.0483927 107.3148274
  56.6917383 110.5382881 107.8035500  55.8375670 111.7852609 107.8891700
  64.5662130 105.3123972  93.0672171  64.5540800 106.2565812  93.2240441
  65.4585552 105.1294117  92.7731632  68.3814249 101.9066748  97.3218107
  67.6146645 101.3525235  97.4674790  68.7924954 101.9788617  98.1832259
  73.0633967 125.7621297  92.6365466  72.2271280 126.0995983  92.9574740
  72.9238737 125.6270277  91.6992602  72.9372348 125.6068524  89.8363372
  72.0601814 125.4857325  89.4725619  73.4130101 124.8154603  89.5842261
  70.6390816 126.5467527  93.3945028  69.9460061 126.6211882  92.7385064
  70.3942568 125.7827871  93.9166545  75.6827657 126.5432911  89.6380482
  74.7759112 126.2466024  89.7143196  75.9603638 126.2462729  88.7714769
  74.4526441 123.4019847  89.7792462  75.3145605 123.7274745  90.0388279
  74.6376785 122.6151342  89.2665527  75.4055884 120.6415890  93.0672171
  75.3934554 121.5857729  93.2240441  76.2979306 120.4586035  92.7731632
  15.1941862  14.8564017  88.9430996  15.8320271  14.7370765  88.2394336
  15.0762704  15.8044861  89.0018948   7.8618383  16.6626922  84.8689412
   7.2983249  16.5716859  84.1005700   7.7470779  15.8426826  85.3491904
  13.4417942  20.3297889  80.1803877  12.7905922  20.9151970  79.7937891
  14.2362305  20.8604084  80.2398914   7.3673569  17.4187027  80.5791011
   8.1404445  16.8716014  80.4403887   7.7198968  18.2831276  80.7905473
   9.7039847  13.5779693  78.2109461   9.9565368  13.0561214  77.4492924
   8.7664406  13.4145838  78.3136145  14.7483130  12.5815471  86.0184204
  15.5346219  12.1634894  85.6674621  15.0121834  13.4861563  86.1865853
  14.9193207  18.0188321  80.7172861  14.2839040  18.0922948  81.4293766
  14.5890614  18.6081920  80.0391940  20.1491557  12.5190704  86.9217183
  20.8816729  11.9489921  87.1555012  19.3930913  12.1312305  87.3623688
   9.4236136  15.4807799  80.4133836   9.3072394  14.8052702  81.0814920
   9.5338396  14.9940173  79.5965989  11.7667677  14.9417946  84.1180525
  11.4025884  14.4148567  84.8293447  12.6234793  14.5516415  83.9447011
  11.3862385  12.4265503  80.0988541  11.2662010  12.8722554  80.9374021
  10.6914973  12.7750821  79.5402079   9.1469277  25.1969145  83.7478672
   9.0693307  26.1476970  83.8267152   8.5430920  24.8515017  84.4053598
  17.0847451  12.8986976  80.9268875  17.9965307  13.1314363  80.7516572
  16.5757098  13.4824020  80.3643953  15.6917033  17.8812795  88.3182456
  15.0625896  18.0458509  87.6158524  15.3042695  18.2954404  89.0893420
  19.5706265  18.8167232  85.6726820  18.8857303  19.1966134  85.1223853
  19.6550114  19.4262559  86.4058768  11.2444995  17.6187203  85.5832541
  11.7083341  17.8974906  84.7937164  10.9801793  16.7170647  85.4005632
  10.1813881  13.7410355  82.3922106  10.8837924  14.1931399  82.8596033
   9.8494510  13.0994174  83.0202000  17.9403025  19.3399147  90.4444521
  18.7620468  18.9379334  90.1627202  17.9365427  19.2367381  91.3960637
  26.0309018  15.6837895  86.7929492  25.2772726  15.1145293  86.6373497
  26.1656559  15.6500560  87.7400127  11.4207646  20.5551298  82.4684212
  11.2853321  21.4002833  82.8969059  11.9617458  20.7570575  81.7050145
   4.8737043  18.0726736  83.0412137   5.3861564  18.8669986  83.1917701
   5.5259756  17.3753026  82.9745738   6.6831928  21.1892492  85.1234890
   6.8598556  22.1110457  84.9355874   7.4788761  20.8750911  85.5529270
   7.8063243  22.7070666  91.1245232   8.3570668  22.5787729  90.3522226
   6.9674719  23.0065555  90.7740125  14.7350392  14.0690471  79.5055540
  14.2197015  14.8395075  79.7443928  14.4627700  13.3955607  80.1288602
  19.7084666  16.8222825  81.4408714  18.9314109  16.4833985  80.9963876
  20.3876147  16.8275448  80.7663679  14.5236695  11.9417563  81.3315321
  14.2186831  12.2563712  82.1825465  15.4767137  12.0198983  81.3742654
  12.9683127  18.1007786  82.9808275  12.4404489  17.3660546  82.6681513
  12.4670630  18.8782462  82.7348244  17.9475973  16.2956807  88.0975322
  17.2899647  16.9856068  88.1855450  18.7516372  16.6853238  88.4409308
  16.7581432  14.6501179  86.1479263  17.2713314  15.2831171  86.6500973
  17.4082656  14.0502375  85.7822623  11.1135727  15.9187996  75.9843248
  10.2062789  15.6877250  76.1834397  11.6106759  15.1225616  76.1717230
  14.0203806  24.6285504  78.9039935  13.3465505  24.9317200  79.5124892
  14.4069628  25.4314584  78.5545392  14.0197310  13.5242050  83.5240284
  14.7669129  14.0363448  83.2147406  14.2888900  13.2026103  84.3844678
  12.2923961  16.0200591  80.5067238  11.3835180  15.7359624  80.6039708
  12.3219044  16.4399670  79.6470545  17.5243228  19.6307181  84.2758406
  17.0705555  18.7898091  84.3323597  16.8937195  20.2668579  84.6133186
  16.4676148  10.5599167  85.5059074  15.7298904  10.0476553  85.8369316
  16.7202921  10.1199548  84.6942350  15.9676167  21.4683677  85.2108224
  16.2599142  22.0288734  84.4920590  16.4774788  21.7612238  85.9661383
  10.8408855  13.6329212  86.6077034  10.8957464  12.6803048  86.5319510
  10.0300057  13.7888651  87.0918332  11.9900048  17.5609335  77.8455317
  11.5519478  16.8445194  77.3860954  12.7310489  17.7885450  77.2840408
  10.9309792  22.2464028  86.3001677  10.8885971  22.4724875  85.3710209
  11.8472491  22.0127403  86.4487479  20.1073163  15.8366532  83.9031636
  19.9691062  16.0268128  82.9752825  19.7509382  16.5985915  84.3599687
  20.1342543  17.9043059  88.9142907  20.5679050  17.8118348  89.7625961
  20.8474124  17.8800559  88.2762923   9.0475593  19.1227057  86.0963640
   9.8416192  18.6277378  85.8946215   8.3367286  18.5944921  85.7331346
  13.8670438  21.5045153  90.4476008  13.9207460  22.0736089  91.2153724
  12.9985219  21.6747038  90.0830045  20.9958092  17.9466760  91.4475793
  21.1893982  18.8512570  91.6935067  20.8958711  17.4874179  92.2814378
  11.6246869  19.6956079  89.7761477  11.4857955  19.3274864  90.6487415
  10.8361465  20.2103719  89.6045435  12.2195021  24.7965176  81.1187014
  12.3946777  24.3253219  81.9332636  11.5327809  25.4230942  81.3468274
  13.1752084  19.0737682  87.1650315  12.8401917  19.0338452  88.0607965
  12.6756030  18.4082398  86.6920725  16.1111276  16.4193716  77.4387375
  15.4940447  15.6940545  77.3420427  15.6427765  17.1803077  77.0954449
   6.7856107  27.9454539  87.8926874   7.0252705  28.5773063  88.5705892
   5.9425303  27.5942579  88.1792233  11.2983968  23.7533661  90.2968378
  11.2254140  24.5588633  90.8087682  10.8561361  23.9525627  89.4716399
  11.0873748  22.9905431  83.8071199  10.3041270  23.5327111  83.9009424
  11.7866493  23.5079411  84.2065441  22.2500156  14.5040426  88.0923696
  22.2390032  15.3865142  87.7217629  21.3817535  14.1511977  87.8978233
  13.7582652  23.6520495  92.4526537  14.4710624  24.2867960  92.3802438
  13.2672681  23.7484361  91.6366538  15.4800179  17.5571748  84.0243828
  14.5456458  17.6773210  83.8548533  15.6576847  16.6544215  83.7603838
  18.8672730  13.3989067  84.5593862  19.3333182  14.2317059  84.4854165
  19.3180231  12.9334049  85.2639121  16.9348961  19.7432888  81.5580014
  17.2108805  19.6289483  82.4673888  16.0653460  19.3450373  81.5192187
  13.5703025  23.9919239  85.2012828  13.7525420  23.1740895  85.6640580
  14.3936011  24.2086932  84.7637718  13.9045191  22.9187424  82.4627877
  14.4332957  22.4079879  81.8498039  14.1673410  22.6029955  83.3273410
   7.2600939  23.9702541  85.2225652   6.5911314  24.4548669  84.7389692
   7.1213808  24.2171762  86.1369031  11.4006207  26.0046285  91.8208311
  11.9524515  26.1677906  92.5857396  11.7412401  26.5950722  91.1488336
  14.5374595  23.9528260  88.8071993  14.4125734  23.1518000  88.2982938
  15.1953686  24.4474453  88.3185963  16.6009503  21.7537280  90.4351543
  15.6539839  21.6342631  90.3629870  16.9492276  20.8659778  90.5177804
  13.6055936  21.5489996  86.6355895  13.4580899  20.6206704  86.8163465
  14.4309430  21.5710087  86.1512971  17.2090058  22.3718555  87.7220768
  18.1336606  22.1661416  87.5845219  17.0405361  22.1234956  88.6310110
  16.9985374  22.8904223  83.0782859  17.1722252  22.3250645  82.3256712
  17.4914266  23.6905117  82.8962349  22.8524765  15.6540646  84.6973159
  23.2955912  14.9047971  84.2992282  21.9751276  15.6450782  84.3146891
  17.9860547  22.2070987  80.1779758  18.6811451  22.8277680  80.3967072
  18.3283697  21.3566338  80.4532136  19.8851970  19.6570693  81.7067089
  20.4103294  19.9957965  80.9816409  19.7974322  18.7217708  81.5230223
  11.5692631  25.7242676  86.0662342  11.1297621  25.2319055  86.7595198
  12.3200748  25.1815643  85.8254417   4.0484970  21.9154217  86.0686970
   4.8742990  21.6157989  85.6885613   3.6979022  21.1461839  86.5176758
   9.0166503  21.2680685  88.1384643   8.3946512  20.6051390  87.8386871
   9.6871370  21.2941817  87.4558291   8.5780010  19.8184608  81.6143104
   8.7268130  20.5020073  80.9609777   9.3846453  19.7989698  82.1292560
  22.3957630  17.1245884  87.0895607  23.2304522  17.5635688  87.2533167
  22.5316759  16.6484537  86.2703853   6.3332643  15.8449786  82.6204173
   6.0878685  14.9412116  82.8184383   6.5028557  15.8466936  81.6783651
  12.0775415  22.3132739  79.0854851  11.5049382  22.9322926  78.6325323
  12.6508209  22.8632100  79.6194773  15.2972675  22.5969889  80.2163434
  16.2303348  22.5315450  80.4196309  15.2095888  23.4326156  79.7577966
  17.9260692  21.9135759  77.1767381  17.8474323  21.5795623  78.0703139
  18.7470359  22.4057527  77.1758854  20.6238883  14.7797498  90.3843700
  20.5915203  13.8413499  90.5703384  21.2339507  14.8581535  89.6509525
  12.4622214  13.6493551  76.4270904  13.4081318  13.5199760  76.4959322
  12.0836459  12.9108213  76.9040332  26.4415433  15.8413505  89.5249737
  27.1718821  15.5798793  90.0857440  25.8322378  15.1042227  89.5651805
  24.5230730  13.9821368  90.1224188  23.7963893  13.8477333  89.5140679
  24.1078017  14.2898197  90.9280906  17.5696552   7.3058990  83.6472991
  16.9895221   7.9643794  83.2651044  17.3032485   6.4836334  83.2360409
  16.3521430   9.4659080  82.7029340  15.4647285   9.7508731  82.4849534
  16.7675419   9.3052843  81.8556616  19.7035966   9.4905601  86.4183679
  20.4796356   9.9802053  86.6908296  18.9784100   9.9163655  86.8755548
  22.1408525  10.2033220  87.4757619  22.7353016   9.9628956  86.7650928
  22.2135109   9.4840351  88.1031156   4.3605681  24.0466831  87.7900784
   4.2260148  23.2867232  87.2238782   3.9437743  24.7707731  87.3229573
  15.4964644  19.2303755  76.7977360  16.2000494  19.4353757  77.4135015
  14.7727292  19.7980516  77.0626443  16.3262454  14.9813616  82.9179630
  16.2697655  15.4382167  82.0787262  16.8790796  14.2204300  82.7402472
  20.1367260  10.7703348  83.7429749  19.8804194  10.3699983  84.5737957
  19.5120128  11.4847142  83.6179888  24.4479598  13.5099421  86.2501041
  23.8879156  13.5792610  87.0232603  23.8423101  13.3340406  85.5300537
   7.5174806  24.9436148  88.0019227   7.4007191  25.8881581  87.8997917
   6.6967253  24.6409710  88.3905026  17.4051341  19.6686284  78.8475820
  18.2396945  19.2367482  78.6653294  17.2435684  19.4968297  79.7752714
  17.0597233  16.1718397  80.2132159  17.0046037  16.0062669  79.2720603
  16.4343288  16.8794430  80.3694349   8.5429321  25.5964410  91.2175155
   9.4456567  25.6288020  91.5341650   8.3166691  24.6664861  91.2321491
  10.2982923  24.3495396  87.8785234   9.3478554  24.3497258  87.7649606
  10.6015409  23.6028131  87.3621269  26.0335616  30.1855935  88.9430996
  26.6714026  30.0662682  88.2394336  25.9156459  31.1336779  89.0018948
  22.8425322  30.1383363  88.8792521  22.5043834  30.0224428  87.9913056
  23.7115090  29.7374528  88.8593527  18.7012138  31.9918839  84.8689412
  18.1377003  31.9008776  84.1005700  18.5864533  31.1718744  85.3491904
  23.3245105  31.2918215  94.8378727  23.3133746  30.8971013  93.9659230
  23.4865745  30.5584287  95.4312498  16.2476570  33.4870031  87.7073632
  17.0397862  33.1460856  87.2919932  16.4873220  33.5965006  88.6275786
  24.2811697  35.6589807  80.1803877  23.6299676  36.2443888  79.7937891
  25.0756060  36.1896002  80.2398914  18.2067324  32.7478944  80.5791011
  18.9798200  32.2007931  80.4403887  18.5592723  33.6123194  80.7905473
  20.0452366  34.0755327  93.7857911  19.7542232  34.9800957  93.6704577
  20.6809351  34.1171854  94.5001980  20.9708573  31.4532175  90.3759270
  21.5672146  31.2288197  89.6616233  21.0283545  30.7116921  90.9784718
  20.5433602  28.9071610  78.2109461  20.7959122  28.3853132  77.4492924
  19.6058161  28.7437756  78.3136145  25.5876884  27.9107389  86.0184204
  26.3739974  27.4926812  85.6674621  25.8515589  28.8153481  86.1865853
  25.7586962  33.3480239  80.7172861  25.1232795  33.4214866  81.4293766
  25.4284368  33.9373838  80.0391940  30.9885312  27.8482622  86.9217183
  31.7210484  27.2781839  87.1555012  30.2324667  27.4604222  87.3623688
  20.2629890  30.8099716  80.4133836  20.1466149  30.1344620  81.0814920
  20.3732150  30.3232090  79.5965989  22.6061431  30.2709863  84.1180525
  22.2419639  29.7440484  84.8293447  23.4628547  29.8808332  83.9447011
  28.5110732  21.5604196  91.3811791  28.1794057  22.4299607  91.1573006
  27.9156345  21.2440480  92.0605822  22.2466918  25.2999763  79.1141874
  22.4141321  26.1680000  79.4812345  22.0564087  25.4627045  78.1903163
  25.0042251  33.7616742  90.7807704  24.7042975  34.6641781  90.6723511
  24.6593311  33.4948925  91.6328857  18.4554733  30.2130539  86.8144409
  17.5305229  30.0806753  87.0222100  18.7039146  30.9924758  87.3114351
  28.4039395  26.2799282  88.4605142  27.4956273  26.2114691  88.1663902
  28.3526991  26.7571227  89.2886967  22.2256139  27.7557421  80.0988541
  22.1055764  28.2014471  80.9374021  21.5308728  28.1042738  79.5402079
  15.8163544  29.8563812  87.6488198  15.9455925  30.1098291  88.5627609
  15.1360995  30.4491520  87.3292853  19.9863031  40.5261062  83.7478672
  19.9087061  41.4768887  83.8267152  19.3824675  40.1806935  84.4053598
  22.4780261  27.6988928  96.4040039  21.7013595  28.2582848  96.3942903
  23.1170824  28.1845711  96.9254909  30.2701042  24.4815721  90.2383015
  29.6275422  24.7748254  89.5922810  29.7655970  24.3668641  91.0436212
  27.9241205  28.2278894  80.9268875  28.8359061  28.4606281  80.7516572
  27.4150852  28.8115938  80.3643953  20.7326633  30.5074381  95.9658006
  21.4741318  31.0459425  95.6892829  20.0263619  31.1340670  96.1229558
  26.2081973  32.6503522  94.5630167  26.6165329  32.2085932  93.8184800
  25.4859235  32.0756149  94.8164360  22.5613043  27.5876128  91.9363724
  23.4074238  28.0115542  92.0798373  22.5011681  26.9309753  92.6302287
  26.5310788  33.2104712  88.3182456  25.9019650  33.3750426  87.6158524
  26.1436450  33.6246322  89.0893420  30.4100020  34.1459150  85.6726820
  29.7251058  34.5258051  85.1223853  30.4943869  34.7554477  86.4058768
  25.7112488  25.2480497  93.5944898  25.4673420  26.0022557  93.0579174
  25.9872419  25.6265844  94.4292145  27.6650951  31.7919109  92.2722163
  27.8767846  32.4350869  91.5956545  27.6180699  30.9581426  91.8044094
  25.2677180  24.4036930  89.1758736  24.4061659  24.7018183  89.4675473
  25.2939615  24.6207329  88.2439768  22.0838750  32.9479120  85.5832541
  22.5477095  33.2266823  84.7937164  21.8195548  32.0462565  85.4005632
  18.9762831  32.4950602  88.5212305  19.5464188  32.9237870  87.8829789
  19.5670942  32.2133187  89.2196490  21.0207636  29.0702273  82.3922106
  21.7231679  29.5223316  82.8596033  20.6888264  28.4286092  83.0202000
  19.4687997  27.6614029  96.7673316  18.8386658  28.3430310  97.0008713
  19.3624085  27.5497111  95.8226454  14.7632970  27.3285825  87.6939240
  13.9732024  27.5843354  87.2179351  15.2544217  28.1434163  87.7991281
  28.7796779  34.6691065  90.4444521  29.6014223  34.2671252  90.1627202
  28.7759182  34.5659299  91.3960637  16.7147715  27.6930405  84.6522717
  15.9178878  27.8049099  85.1706212  16.4873307  28.0317057  83.7863607
  22.5453383  34.2175108  92.6005231  22.6097815  34.6795515  93.4363403
  21.8364306  33.5872473  92.7287541  13.0470673  27.5816316  90.1254231
  13.2978711  28.4663326  90.3911807  13.5830221  27.4020917  89.3529323
  36.8702772  31.0129813  86.7929492  36.1166481  30.4437211  86.6373497
  37.0050313  30.9792478  87.7400127  22.2601400  35.8843215  82.4684212
  22.1247075  36.7294751  82.8969059  22.8011213  36.0862493  81.7050145
  15.7130798  33.4018653  83.0412137  16.2255318  34.1961904  83.1917701
  16.3653510  32.7044944  82.9745738  17.5225682  36.5184410  85.1234890
  17.6992311  37.4402374  84.9355874  18.3182516  36.2042829  85.5529270
  21.6636701  23.3792674  96.7218823  22.4046414  23.9799827  96.6423286
  21.8954624  22.6370312  96.1636866  16.8078039  28.5649042  94.9997053
  16.6931554  27.6634299  95.3004152  15.9522557  28.8112738  94.6481870
  23.8869877  36.5066782  96.5984554  23.4433731  35.7203160  96.2805458
  24.5487090  36.6945932  95.9328444  18.6456998  38.0362583  91.1245232
  19.1964423  37.9079647  90.3522226  17.8068474  38.3357472  90.7740125
  25.9851115  36.7869582  94.6265955  25.9669590  37.6078463  94.1346224
  26.9071035  36.6623657  94.8516096  22.4424169  34.3013711  95.4689463
  22.9752506  33.5401999  95.2388771  21.9138250  34.0087363  96.2113618
  25.6093864  19.4073777  90.9983105  25.2658133  20.2975419  90.9222216
  25.9772826  19.2175435  90.1352690  13.6779714  31.7307308  83.8171707
  14.5154936  32.1404316  83.6005415  13.8557982  30.7906750  83.7871901
  25.5744147  29.3982388  79.5055540  25.0590770  30.1686993  79.7443928
  25.3021455  28.7247524  80.1288602  23.1591258  24.2432089  84.5640779
  22.3032854  23.8538939  84.3846417  23.5718209  24.3224050  83.7040564
  24.6890404  21.7778432  88.9632338  24.1855200  21.7408568  88.1500144
  24.9821011  22.6871175  89.0228995  20.9333290  21.8617162  87.9698520
  21.7986287  21.6659971  87.6104410  21.0010799  21.6327514  88.8967877
  30.5478421  32.1514743  81.4408714  29.7707863  31.8125902  80.9963876
  31.2269902  32.1567366  80.7663679  25.3630450  27.2709480  81.3315321
  25.0580585  27.5855630  82.1825465  26.3160892  27.3490900  81.3742654
  23.8076882  33.4299704  82.9808275  23.2798243  32.6952463  82.6681513
  23.3064384  34.2074380  82.7348244  28.7869728  31.6248724  88.0975322
  28.1293402  32.3147986  88.1855450  29.5910127  32.0145156  88.4409308
  18.5395609  24.0919370  85.3414887  19.1139361  23.8694552  84.6088080
  19.1266592  24.1608065  86.0943488  27.5975186  29.9793097  86.1479263
  28.1107068  30.6123089  86.6500973  28.2476410  29.3794292  85.7822623
  18.8665196  26.1223831  79.3610772  18.0302509  26.4598518  79.6820047
  18.7269966  25.9872811  78.4237909  20.8418277  20.9660619  84.0689956
  20.1882689  20.6509636  83.4446571  20.7998751  20.3436359  84.7949779
  21.9529482  31.2479914  75.9843248  21.0456543  31.0169167  76.1834397
  22.4500514  30.4517533  76.1717230  24.8597561  39.9577421  78.9039935
  24.1859259  40.2609118  79.5124892  25.2463383  40.7606502  78.5545392
  24.0756017  27.4542552  88.3937604  23.1578579  27.6757499  88.2359292
  24.4916161  27.5288863  87.5349311  24.8591065  28.8533968  83.5240284
  25.6062884  29.3655365  83.2147406  25.1282655  28.5318021  84.3844678
  23.1317715  31.3492509  80.5067238  22.2228934  31.0651542  80.6039708
  23.1612799  31.7691587  79.6470545  28.3636983  34.9599098  84.2758406
  27.9099310  34.1190008  84.3323597  27.7330949  35.5960497  84.6133186
  27.3069902  25.8891084  85.5059074  26.5692659  25.3768471  85.8369316
  27.5596676  25.4491466  84.6942350  26.8069922  36.7975595  85.2108224
  27.0992896  37.3580652  84.4920590  27.3168542  37.0904156  85.9661383
  27.4081529  18.6667336  86.1000843  27.7140406  17.8064700  85.8126758
  28.1334134  19.2584957  85.8999837  13.7005886  29.0698023  84.4882441
  13.5030285  28.4767384  83.7633507  13.1452550  28.7650233  85.2058379
  21.6802609  28.9621129  86.6077034  21.7351219  28.0094966  86.5319510
  20.8693811  29.1180569  87.0918332  22.8293803  32.8901253  77.8455317
  22.3913233  32.1737111  77.3860954  23.5704244  33.1177367  77.2840408
  19.6194969  27.5798189  84.3667413  18.8062835  27.8792360  84.7732605
  20.1153963  27.1853878  85.0841895  21.7703547  37.5755946  86.3001677
  21.7279726  37.8016792  85.3710209  22.6866246  37.3419321  86.4487479
  25.2169181  28.0440014  93.1982307  25.5718569  28.2711487  94.0576772
  25.8641312  28.3758390  92.5759562  30.9466918  31.1658450  83.9031636
  30.8084816  31.3560046  82.9752825  30.5903137  31.9277832  84.3599687
  19.1109044  25.1516545  89.9828648  19.7508423  25.0105304  89.2851611
  18.2786574  24.8651058  89.6067250  30.9736297  33.2334977  88.9142907
  31.4072804  33.1410266  89.7625961  31.6867878  33.2092477  88.2762923
  19.8869348  34.4518975  86.0963640  20.6809946  33.9569295  85.8946215
  19.1761040  33.9236838  85.7331346  24.7064192  36.8337071  90.4476008
  24.7601215  37.4028007  91.2153724  23.8378974  37.0038956  90.0830045
  16.1952111  28.5962057  82.1723393  15.2649699  28.5346512  82.3893355
  16.2909583  28.0738010  81.3760034  16.1137660  25.1216870  84.7601634
  16.3744478  26.0362203  84.6510795  16.9354833  24.6541312  84.9098247
  17.5862586  26.5354627  91.9300459  18.2585639  26.3271989  91.2813108
  16.7592372  26.3376713  91.4905691  31.8351847  33.2758677  91.4475793
  32.0287737  34.1804488  91.6935067  31.7352465  32.8166096  92.2814378
  23.4888158  23.1616568  93.9466120  22.8416073  23.8606517  93.8530596
  24.2589173  23.5952712  94.3142368  26.8966956  33.4265420  97.0216673
  26.7452462  33.1975972  96.1046757  26.8871635  34.3836021  97.0348018
  23.6652292  30.9997333  92.0062940  24.5944352  31.1508492  91.8331907
  23.2443322  31.0881354  91.1511586  22.4640624  35.0247997  89.7761477
  22.3251709  34.6566782  90.6487415  21.6755220  35.5395637  89.6045435
  23.0588776  40.1257094  81.1187014  23.2340531  39.6545137  81.9332636
  22.3721564  40.7522860  81.3468274  24.0145839  34.4029600  87.1650315
  23.6795672  34.3630370  88.0607965  23.5149785  33.7374316  86.6920725
  17.9890083  29.8097230  92.6902896  17.8509881  29.0777469  93.2914435
  18.8995006  29.7206130  92.4087084  26.9505031  31.7485634  77.4387375
  26.3334201  31.0232462  77.3420427  26.4821519  32.5094994  77.0954449
  20.6172384  29.5217189  92.1786576  21.3272002  28.8810381  92.1373194
  20.5741692  29.7730084  93.1012757  28.6059162  36.4584543  95.0993155
  28.5471708  35.7743763  94.4323738  29.0078681  37.2003533  94.6473781
  19.3301318  26.5082407  93.9982215  18.7938675  26.0573146  94.6503812
  18.7418026  26.6428316  93.2552680  17.6249861  43.2746456  87.8926874
  17.8646459  43.9064981  88.5705892  16.7819057  42.9234496  88.1792233
  18.7403576  25.9671058  76.5608679  17.8633043  25.8459859  76.1970926
  19.2161330  25.1757137  76.3087568  28.6076569  34.4224126  93.3307135
  27.7203348  34.0850048  93.4533534  29.1775121  33.6907158  93.5675900
  10.2605717  30.7548218  86.6550186  10.9476756  30.4409948  86.0671201
  10.1053845  31.6589583  86.3817437  15.0640439  25.6438415  91.0835210
  14.9798627  25.0364084  90.3485620  14.2423145  26.1347433  91.0844706
  22.1377723  39.0825579  90.2968378  22.0647894  39.8880550  90.8087682
  21.6955116  39.2817545  89.4716399  21.9267503  38.3197349  83.8071199
  21.1435024  38.8619029  83.9009424  22.6260248  38.8371328  84.2065441
  25.2364153  24.1291978  86.4505405  25.7332852  23.3761941  86.1306475
  24.4651134  24.1656295  85.8848614  33.0893910  29.8332344  88.0923696
  33.0783786  30.7157059  87.7217629  32.2211289  29.4803895  87.8978233
  24.5976406  38.9812413  92.4526537  25.3104379  39.6159878  92.3802438
  24.1066435  39.0776279  91.6366538  26.3193933  32.8863666  84.0243828
  25.3850212  33.0065128  83.8548533  26.4970602  31.9836132  83.7603838
  21.8199121  26.2709361  86.1777089  21.4496909  25.7180402  86.8657995
  22.3158214  25.6667495  85.6252089  29.7066485  28.7280985  84.5593862
  30.1726937  29.5608976  84.4854165  30.1573985  28.2625966  85.2639121
  19.6488320  36.7306856  93.2732107  20.3497779  37.3643339  93.4261502
  19.1783435  37.0721588  92.5127747  27.7742716  35.0724806  81.5580014
  28.0502560  34.9581401  82.4673888  26.9047215  34.6742291  81.5192187
  27.6783147  21.0961572  88.5984764  26.7646227  21.3265799  88.7666971
  28.1076249  21.1800016  89.4498796  27.4489606  29.2851464  91.0984658
  26.7961056  29.5327371  90.4437110  27.8269986  28.4715602  90.7647135
  24.4096780  39.3211157  85.2012828  24.5919174  38.5032813  85.6640580
  25.2329766  39.5378849  84.7637718  24.7438945  38.2479342  82.4627877
  25.2726712  37.7371797  81.8498039  25.0067165  37.9321872  83.3273410
  23.4977179  30.0271275  97.5850695  22.8217816  29.9265404  98.2553070
  24.3204813  29.8710489  98.0486692  15.2456038  36.2643211  90.2063210
  15.8309475  35.5186899  90.3391114  15.0480876  36.5747168  91.0899874
  18.0994693  39.2994459  85.2225652  17.4305068  39.7840586  84.7389692
  17.9607563  39.5463679  86.1369031   9.8373693  28.8348812  88.9267653
   9.8757792  28.3012402  89.7204771   9.3313986  28.3084017  88.3078630
  22.2399962  41.3338202  91.8208311  22.7918270  41.4969824  92.5857396
  22.5806155  41.9242640  91.1488336  17.2164455  23.6813352  92.4230196
  17.2805782  24.5428183  92.0107593  17.1531575  23.0687354  91.6902554
  27.0910836  36.1599460  97.6756965  27.6350740  36.7729418  97.1811920
  26.5097681  36.7179038  98.1923978  13.4682270  27.5612914  82.0021585
  13.7635711  26.6523592  81.9488638  12.5670306  27.5400653  81.6802587
  25.3768349  39.2820178  88.8071993  25.2519489  38.4809918  88.2982938
  26.0347440  39.7766371  88.3185963  16.9976517  25.6368910  87.9849133
  16.2763103  26.2504878  87.8456606  17.7869773  26.1726675  87.9065779
  27.4403257  37.0829198  90.4351543  26.4933593  36.9634549  90.3629870
  27.7886031  36.1951696  90.5177804  19.8002831  22.9723337  94.2589785
  20.3237233  23.2185633  95.0216094  19.5815164  23.8043372  93.8392922
  15.1970112  25.2427011  82.1260910  14.8682818  24.3624390  81.9436016
  15.5509483  25.1874680  83.0137299  24.4449691  36.8781914  86.6355895
  24.2974653  35.9498622  86.8163465  25.2703184  36.9002005  86.1512971
  18.3111935  25.5299981  82.4936387  18.6508008  26.0585902  81.7714996
  18.7584056  25.8680387  83.2694954  28.0483813  37.7010473  87.7220768
  28.9730360  37.4953334  87.5845219  27.8799116  37.4526874  88.6310110
  21.0055376  23.9137032  91.9439455  20.6652196  23.1144845  92.3460135
  20.2994382  24.2138743  91.3716289  21.6571848  20.9986344  90.3966778
  22.4797917  20.5246823  90.2745669  21.9009911  21.7776828  90.8965465
  20.2980082  24.0274603  80.6929680  21.0188445  24.4055856  80.1893397
  19.6745386  24.7463480  80.7964658  24.4411205  24.7319752  81.6288013
  24.6574819  25.6144390  81.3276841  23.9605272  24.3405965  80.8993655
  19.1810426  27.6905465  88.2058757  19.0355007  28.0045768  89.0983039
  18.7035630  28.3090365  87.6529656  21.0406809  24.6808013  88.2539647
  21.0268378  23.7849106  87.9171945  21.7579237  24.6878677  88.8877933
  22.8932940  25.1145353  90.2992774  22.6350718  26.0362424  90.2977105
  22.3617980  24.7175788  90.9893238  27.8379129  38.2196140  83.0782859
  28.0116006  37.6542563  82.3256712  28.3308020  39.0197035  82.8962349
  13.6556089  30.2310809  91.1446418  13.1109557  31.0070617  91.2766693
  14.5335438  30.5781614  90.9865540  20.4443705  23.5622393  83.5227217
  20.5659616  22.6339039  83.7218104  20.1545748  23.5761079  82.6105532
  23.3134896  21.2477304  86.6593937  23.3356592  21.3116637  85.7045916
  23.7302955  20.4081812  86.8534443  33.6918520  30.9832563  84.6973159
  34.1349666  30.2339888  84.2992282  32.8145030  30.9742700  84.3146891
  28.8254301  37.5362905  80.1779758  29.5205206  38.1569597  80.3967072
  29.1677451  36.6858256  80.4532136  14.4422110  29.3580706  94.0376575
  13.7003847  29.5063341  94.6241206  14.1214855  29.6188971  93.1743325
  30.7245724  34.9862610  81.7067089  31.2497049  35.3249883  80.9816409
  30.6368077  34.0509626  81.5230223  22.3865773  38.8996684  93.8356965
  22.6952900  38.6545831  94.7079665  23.1841255  39.1043322  93.3475835
  22.4086385  41.0534593  86.0662342  21.9691375  40.5610972  86.7595198
  23.1594502  40.5107561  85.8254417  14.8878724  37.2446134  86.0686970
  15.7136744  36.9449906  85.6885613  14.5372776  36.4753757  86.5176758
  19.8560257  36.5972603  88.1384643  19.2340267  35.9343308  87.8386871
  20.5265124  36.6233734  87.4558291  13.0887329  35.1632461  87.0275903
  12.2519238  34.7354635  86.8459905  13.0610975  35.3564904  87.9646695
  30.4139630  35.6195514  97.0118286  29.6235174  35.6019653  96.4722786
  30.1772985  36.1583808  97.7667323  30.5337506  32.4687980  94.3251015
  30.5835510  32.3037988  95.2666538  30.4251429  31.6015239  93.9348896
  19.4173764  35.1476526  81.6143104  19.5661885  35.8311990  80.9609777
  20.2240208  35.1281616  82.1292560  27.8241268  28.4518908  95.6410322
  28.7251131  28.3125373  95.3494320  27.8989242  28.6173363  96.5808499
  22.1584073  25.8285763  94.4863508  21.2887383  26.1219329  94.2146097
  22.3943554  26.4126208  95.2070772  32.0355702  34.8884922  94.5693037
  31.7440511  35.2514902  95.4056498  31.4227834  34.1751930  94.3906369
  33.2351385  32.4537802  87.0895607  34.0698276  32.8927606  87.2533167
  33.3710513  31.9776455  86.2703853  30.2842891  30.0117536  93.0373095
  30.7597012  30.2045183  92.2291946  29.3608456  30.0676722  92.7916478
  17.1726397  31.1741704  82.6204173  16.9272439  30.2704034  82.8184383
  17.3422312  31.1758854  81.6783651  24.8623107  22.0465380  92.0028928
  25.3805051  22.7826407  91.6775417  24.5078240  22.3529373  92.8375688
  16.4422045  26.9070061  80.1190334  15.7491290  26.9814416  79.4630370
  16.1973797  26.1430405  80.6411851  25.1135701  18.4665662  87.5229825
  25.3937455  17.7988852  88.1490252  25.8986308  18.6594758  87.0104489
  22.9169170  37.6424656  79.0854851  22.3443137  38.2614844  78.6325323
  23.4901963  38.1924018  79.6194773  28.9844560  26.8883296  91.2701400
  29.9361983  26.9881394  91.2913624  28.8148010  26.0961565  91.7799485
  27.0058939  23.9738880  91.4560801  26.4108871  24.2543892  90.7607290
  26.7208636  24.4632781  92.2277542  26.1366430  37.9261806  80.2163434
  27.0697103  37.8607368  80.4196309  26.0489642  38.7618073  79.7577966
  28.7654446  37.2427677  77.1767381  28.6868078  36.9087540  78.0703139
  29.5864113  37.7349445  77.1758854  31.4632637  30.1089416  90.3843700
  31.4308958  29.1705417  90.5703384  32.0733261  30.1873453  89.6509525
  23.3015968  28.9785469  76.4270904  24.2475073  28.8491677  76.4959322
  22.9230213  28.2400131  76.9040332  31.6127126  26.9000460  90.4301983
  31.0966175  26.1158916  90.2431912  32.4967074  26.5719176  90.5948502
  29.2737853  20.6441475  86.3897796  29.0762674  20.3356563  87.2741128
  29.8837558  21.3703114  86.5195726  37.2809187  31.1705423  89.5249737
  38.0112576  30.9090711  90.0857440  36.6716133  30.4334145  89.5651805
  35.3624484  29.3113286  90.1224188  34.6357648  29.1769251  89.5140679
  34.9471771  29.6190114  90.9280906  23.1854661  33.0303215  97.8871561
  24.1057670  33.2081814  98.0811607  23.1504244  32.0859261  97.7351260
  21.4858885  26.9035446  76.3625789  20.5790341  26.6068558  76.4388503
  21.7634866  26.6065264  75.4960075  12.4036826  28.2241809  86.8124835
  12.0839610  27.3707117  86.5199209  11.8570254  28.4390387  87.5682803
  16.1816733  30.9404250  90.5294342  16.4002743  31.8721358  90.5482376
  16.5942507  30.5812224  91.3149146  23.1020951  21.4472335  82.5170030
  22.2921679  21.1019420  82.8925276  23.7905368  21.1379879  83.1057642
  25.0311499  20.5250382  84.1394327  25.5842538  20.9445835  84.7984350
  25.2681586  19.5986130  84.1817283  20.2557670  23.7622381  76.5037768
  21.1176834  24.0877279  76.7633586  20.4408014  22.9753877  75.9910834
  12.2725086  31.8444720  88.7817957  11.5788557  31.4298673  88.2687911
  13.0198077  31.8865257  88.1851376  28.4090307  22.6350907  83.6472991
  27.8288976  23.2935711  83.2651044  28.1426239  21.8128252  83.2360409
  26.8593873  22.0355965  85.8494312  27.3593651  22.1472499  85.0408630
  27.5029481  21.7317018  86.4895120  20.9175869  29.9434595  98.7362153
  20.4342950  30.7434955  98.9426042  21.0036808  29.9542539  97.7829597
  14.1861828  31.7762974  86.6583972  14.1632516  31.8750661  85.7065855
  14.4962465  32.6228125  86.9801138  16.8449206  33.8339129  90.7730586
  17.7992460  33.8023072  90.7060518  16.6461730  33.3729753  91.5880812
  17.4348588  32.4040245  93.3401384  18.2541477  32.8984324  93.3636221
  17.7085396  31.4872213  93.3118952  27.1915185  24.7950998  82.7029340
  26.3041040  25.0800648  82.4849534  27.6069174  24.6344761  81.8556616
  30.5429721  24.8197519  86.4183679  31.3190111  25.3093971  86.6908296
  29.8177855  25.2455573  86.8755548  32.9802279  25.5325138  87.4757619
  33.5746770  25.2920874  86.7650928  33.0528863  24.8132268  88.1031156
  15.1999435  39.3758749  87.7900784  15.0653903  38.6159150  87.2238782
  14.7831497  40.0999649  87.3229573  26.3358398  34.5595672  76.7977360
  27.0394248  34.7645675  77.4135015  25.6121047  35.1272434  77.0626443
  27.1656208  30.3105534  82.9179630  27.1091410  30.7674085  82.0787262
  27.7184551  29.5496218  82.7402472  30.9761014  26.0995265  83.7429749
  30.7197948  25.6991901  84.5737957  30.3513882  26.8139059  83.6179888
  35.2873352  28.8391339  86.2501041  34.7272910  28.9084528  87.0232603
  34.6816855  28.6632323  85.5300537  18.3568561  40.2728066  88.0019227
  18.2400945  41.2173498  87.8997917  17.5361007  39.9701627  88.3905026
  28.2445095  34.9978201  78.8475820  29.0790699  34.5659400  78.6653294
  28.0829438  34.8260215  79.7752714  27.8990988  31.5010315  80.2132159
  27.8439791  31.3354586  79.2720603  27.2737043  32.2086348  80.3694349
  12.6883503  26.7378379  94.0393581  13.3342366  26.2277333  94.5280806
  12.4800654  27.4747061  94.6137006  25.2136895  33.8059227  99.5385722
  26.0828054  33.9799879  99.1772357  24.7343646  34.6253643  99.4161451
  21.2087113  21.0018424  79.7917477  21.1965783  21.9460264  79.9485748
  22.1010535  20.8188569  79.4976938  19.3823075  40.9256328  91.2175155
  20.2850322  40.9579938  91.5341650  19.1560445  39.9956779  91.2321491
  21.1376677  39.6787314  87.8785234  20.1872308  39.6789176  87.7649606
  21.4409163  38.9320049  87.3621269  25.0239233  17.5961200  84.0463414
  24.2571628  17.0419687  84.1920096  25.4349937  17.6683069  84.9077566
  36.8729370  45.5147853  88.9430996  37.5107780  45.3954600  88.2394336
  36.7550213  46.4628697  89.0018948  33.6819077  45.4675281  88.8792521
  33.3437588  45.3516345  87.9913056  34.5508845  45.0666446  88.8593527
  29.5405892  47.3210757  84.8689412  28.9770758  47.2300694  84.1005700
  29.4258288  46.5010662  85.3491904  34.1638860  46.6210132  94.8378727
  34.1527501  46.2262931  93.9659230  34.3259499  45.8876205  95.4312498
  27.0870324  48.8161949  87.7073632  27.8791616  48.4752773  87.2919932
  27.3266975  48.9256924  88.6275786  35.1205451  50.9881725  80.1803877
  34.4693431  51.5735805  79.7937891  35.9149814  51.5187920  80.2398914
  29.0461078  48.0770862  80.5791011  29.8191954  47.5299849  80.4403887
  29.3986477  48.9415111  80.7905473  31.8102328  46.7824093  90.3759270
  32.4065900  46.5580115  89.6616233  31.8677299  46.0408838  90.9784718
  31.3827356  44.2363528  78.2109461  31.6352877  43.7145049  77.4492924
  30.4451915  44.0729673  78.3136145  36.4270639  43.2399306  86.0184204
  37.2133728  42.8218730  85.6674621  36.6909343  44.1445399  86.1865853
  36.5980716  48.6772157  80.7172861  35.9626549  48.7506783  81.4293766
  36.2678123  49.2665756  80.0391940  41.8279066  43.1774540  86.9217183
  42.5604238  42.6073756  87.1555012  41.0718422  42.7896140  87.3623688
  31.1023645  46.1391634  80.4133836  30.9859903  45.4636537  81.0814920
  31.2125905  45.6524008  79.5965989  33.4455186  45.6001781  84.1180525
  33.0813393  45.0732402  84.8293447  34.3022302  45.2100250  83.9447011
  39.3504486  36.8896114  91.3811791  39.0187811  37.7591525  91.1573006
  38.7550100  36.5732398  92.0605822  33.0860673  40.6291681  79.1141874
  33.2535075  41.4971917  79.4812345  32.8957842  40.7918962  78.1903163
  29.2948487  45.5422457  86.8144409  28.3698984  45.4098671  87.0222100
  29.5432901  46.3216676  87.3114351  39.2433150  41.6091200  88.4605142
  38.3350027  41.5406608  88.1663902  39.1920746  42.0863145  89.2886967
  33.0649894  43.0849338  80.0988541  32.9449519  43.5306389  80.9374021
  32.3702482  43.4334656  79.5402079  26.6557299  45.1855730  87.6488198
  26.7849680  45.4390209  88.5627609  25.9754750  45.7783438  87.3292853
  30.8256786  55.8552980  83.7478672  30.7480815  56.8060805  83.8267152
  30.2218429  55.5098853  84.4053598  33.3174016  43.0280845  96.4040039
  32.5407350  43.5874766  96.3942903  33.9564579  43.5137628  96.9254909
  41.1094796  39.8107638  90.2383015  40.4669176  40.1040171  89.5922810
  40.6049725  39.6960559  91.0436212  38.7634960  43.5570811  80.9268875
  39.6752816  43.7898198  80.7516572  38.2544607  44.1407856  80.3643953
  31.5720388  45.8366299  95.9658006  32.3135072  46.3751343  95.6892829
  30.8657373  46.4632588  96.1229558  33.4006798  42.9168046  91.9363724
  34.2467993  43.3407460  92.0798373  33.3405435  42.2601670  92.6302287
  41.2493774  49.4751068  85.6726820  40.5644812  49.8549969  85.1223853
  41.3337623  50.0846394  86.4058768  36.5506243  40.5772414  93.5944898
  36.3067175  41.3314475  93.0579174  36.8266173  40.9557762  94.4292145
  36.1070935  39.7328847  89.1758736  35.2455414  40.0310101  89.4675473
  36.1333369  39.9499246  88.2439768  32.9232504  48.2771038  85.5832541
  33.3870850  48.5558741  84.7937164  32.6589302  47.3754483  85.4005632
  29.8156585  47.8242520  88.5212305  30.3857942  48.2529788  87.8829789
  30.4064697  47.5425104  89.2196490  31.8601390  44.3994190  82.3922106
  32.5625433  44.8515234  82.8596033  31.5282019  43.7578009  83.0202000
  30.3081752  42.9905947  96.7673316  29.6780412  43.6722228  97.0008713
  30.2017840  42.8789029  95.8226454  25.6026724  42.6577743  87.6939240
  24.8125778  42.9135272  87.2179351  26.0937971  43.4726081  87.7991281
  27.5541469  43.0222322  84.6522717  26.7572633  43.1341017  85.1706212
  27.3267062  43.3608975  83.7863607  23.8864427  42.9108233  90.1254231
  24.1372465  43.7955243  90.3911807  24.4223975  42.7312835  89.3529323
  33.0995155  51.2135133  82.4684212  32.9640829  52.0586669  82.8969059
  33.6404967  51.4154411  81.7050145  29.5862494  37.2926713  99.1298567
  29.1929440  36.7392911  99.8046211  30.4028635  37.6037291  99.5205084
  26.5524552  48.7310571  83.0412137  27.0649073  49.5253821  83.1917701
  27.2047265  48.0336861  82.9745738  28.3619437  51.8476327  85.1234890
  28.5386065  52.7694292  84.9355874  29.1576270  51.5334747  85.5529270
  32.5030455  38.7084592  96.7218823  33.2440169  39.3091745  96.6423286
  32.7348378  37.9662230  96.1636866  27.6471793  43.8940959  94.9997053
  27.5325308  42.9926216  95.3004152  26.7916311  44.1404656  94.6481870
  36.4487618  34.7365695  90.9983105  36.1051888  35.6267337  90.9222216
  36.8166581  34.5467353  90.1352690  24.5173469  47.0599225  83.8171707
  25.3548691  47.4696234  83.6005415  24.6951737  46.1198668  83.7871901
  36.4137901  44.7274306  79.5055540  35.8984524  45.4978911  79.7443928
  36.1415209  44.0539442  80.1288602  33.9985012  39.5724007  84.5640779
  33.1426608  39.1830857  84.3846417  34.4111964  39.6515968  83.7040564
  35.5284159  37.1070350  88.9632338  35.0248954  37.0700485  88.1500144
  35.8214766  38.0163093  89.0228995  31.7727045  37.1909080  87.9698520
  32.6380041  36.9951888  87.6104410  31.8404553  36.9619432  88.8967877
  36.2024204  42.6001398  81.3315321  35.8974340  42.9147547  82.1825465
  37.1554646  42.6782818  81.3742654  34.6470636  48.7591621  82.9808275
  34.1191998  48.0244381  82.6681513  34.1458139  49.5366298  82.7348244
  29.3789364  39.4211288  85.3414887  29.9533116  39.1986469  84.6088080
  29.9660346  39.4899982  86.0943488  38.4368941  45.3085015  86.1479263
  38.9500823  45.9415006  86.6500973  39.0870165  44.7086210  85.7822623
  29.7058951  41.4515749  79.3610772  28.8696263  41.7890435  79.6820047
  29.5663720  41.3164729  78.4237909  31.6812031  36.2952537  84.0689956
  31.0276444  35.9801554  83.4446571  31.6392505  35.6728277  84.7949779
  32.7923236  46.5771832  75.9843248  31.8850298  46.3461085  76.1834397
  33.2894268  45.7809451  76.1717230  34.9149772  42.7834470  88.3937604
  33.9972333  43.0049417  88.2359292  35.3309915  42.8580781  87.5349311
  35.6984819  44.1825886  83.5240284  36.4456638  44.6947283  83.2147406
  35.9676409  43.8609939  84.3844678  33.9711470  46.6784427  80.5067238
  33.0622689  46.3943459  80.6039708  34.0006553  47.0983505  79.6470545
  39.2030737  50.2891016  84.2758406  38.7493064  49.4481926  84.3323597
  38.5724704  50.9252414  84.6133186  38.1463657  41.2183002  85.5059074
  37.4086413  40.7060388  85.8369316  38.3990430  40.7783384  84.6942350
  37.6463676  52.1267513  85.2108224  37.9386651  52.6872570  84.4920590
  38.1562297  52.4196074  85.9661383  38.2475284  33.9959254  86.1000843
  38.5534161  33.1356617  85.8126758  38.9727889  34.5876874  85.8999837
  24.5399640  44.3989941  84.4882441  24.3424040  43.8059301  83.7633507
  23.9846304  44.0942151  85.2058379  32.5196364  44.2913047  86.6077034
  32.5744973  43.3386884  86.5319510  31.7087566  44.4472486  87.0918332
  33.6687557  48.2193170  77.8455317  33.2306987  47.5029029  77.3860954
  34.4097998  48.4469285  77.2840408  30.4588724  42.9090107  84.3667413
  29.6456589  43.2084277  84.7732605  30.9547718  42.5145796  85.0841895
  36.0562935  43.3731931  93.1982307  36.4112323  43.6003404  94.0576772
  36.7035067  43.7050308  92.5759562  41.7860672  46.4950367  83.9031636
  41.6478571  46.6851963  82.9752825  41.4296891  47.2569750  84.3599687
  29.9502798  40.4808462  89.9828648  30.5902178  40.3397222  89.2851611
  29.1180329  40.1942976  89.6067250  30.7263102  49.7810893  86.0963640
  31.5203701  49.2861213  85.8946215  30.0154795  49.2528756  85.7331346
  27.0345866  43.9253975  82.1723393  26.1043454  43.8638430  82.3893355
  27.1303338  43.4029927  81.3760034  26.9531415  40.4508787  84.7601634
  27.2138232  41.3654121  84.6510795  27.7748587  39.9833230  84.9098247
  28.4256340  41.8646545  91.9300459  29.0979394  41.6563907  91.2813108
  27.5986127  41.6668631  91.4905691  34.3281912  38.4908485  93.9466120
  33.6809827  39.1898435  93.8530596  35.0982928  38.9244629  94.3142368
  37.7360710  48.7557338  97.0216673  37.5846216  48.5267889  96.1046757
  37.7265390  49.7127939  97.0348018  34.5046046  46.3289250  92.0062940
  35.4338106  46.4800410  91.8331907  34.0837076  46.4173271  91.1511586
  28.8283837  45.1389148  92.6902896  28.6903635  44.4069386  93.2914435
  29.7388761  45.0498048  92.4087084  37.7898785  47.0777552  77.4387375
  37.1727956  46.3524380  77.3420427  37.3215274  47.8386912  77.0954449
  31.4566138  44.8509107  92.1786576  32.1665757  44.2102299  92.1373194
  31.4135446  45.1022002  93.1012757  30.1695072  41.8374325  93.9982215
  29.6332429  41.3865063  94.6503812  29.5811780  41.9720234  93.2552680
  28.4643616  58.6038374  87.8926874  28.7040214  59.2356898  88.5705892
  27.6212812  58.2526414  88.1792233  29.5797331  41.2962976  76.5608679
  28.7026797  41.1751777  76.1970926  30.0555084  40.5049054  76.3087568
  21.0999471  46.0840136  86.6550186  21.7870511  45.7701866  86.0671201
  20.9447600  46.9881501  86.3817437  25.9034193  40.9730332  91.0835210
  25.8192382  40.3656002  90.3485620  25.0816900  41.4639351  91.0844706
  32.7661257  53.6489267  83.8071199  31.9828779  54.1910947  83.9009424
  33.4654002  54.1663246  84.2065441  36.0757907  39.4583896  86.4505405
  36.5726607  38.7053858  86.1306475  35.3044889  39.4948213  85.8848614
  37.1587688  48.2155583  84.0243828  36.2243967  48.3357046  83.8548533
  37.3364356  47.3128050  83.7603838  32.6592876  41.6001279  86.1777089
  32.2890663  41.0472319  86.8657995  33.1551968  40.9959412  85.6252089
  40.5460239  44.0572902  84.5593862  41.0120691  44.8900894  84.4854165
  40.9967740  43.5917884  85.2639121  38.5176902  36.4253489  88.5984764
  37.6039982  36.6557716  88.7666971  38.9470003  36.5091934  89.4498796
  38.2883360  44.6143381  91.0984658  37.6354811  44.8619289  90.4437110
  38.6663740  43.8007520  90.7647135  34.3370933  45.3563192  97.5850695
  33.6611570  45.2557322  98.2553070  35.1598567  45.2002406  98.0486692
  26.0849792  51.5935129  90.2063210  26.6703229  50.8478817  90.3391114
  25.8874631  51.9039086  91.0899874  28.9388448  54.6286376  85.2225652
  28.2698823  55.1132504  84.7389692  28.8001317  54.8755597  86.1369031
  20.6767447  44.1640729  88.9267653  20.7151547  43.6304320  89.7204771
  20.1707740  43.6375935  88.3078630  28.0558210  39.0105270  92.4230196
  28.1199536  39.8720101  92.0107593  27.9925330  38.3979271  91.6902554
  27.5310482  41.0828402  96.0703230  28.1582521  40.7005480  96.6840754
  26.6738401  40.8642604  96.4358922  24.3076025  42.8904831  82.0021585
  24.6029466  41.9815510  81.9488638  23.4064061  42.8692571  81.6802587
  27.8370272  40.9660828  87.9849133  27.1156858  41.5796796  87.8456606
  28.6263528  41.5018593  87.9065779  30.6396585  38.3015254  94.2589785
  31.1630987  38.5477551  95.0216094  30.4208919  39.1335289  93.8392922
  26.0363866  40.5718929  82.1260910  25.7076573  39.6916308  81.9436016
  26.3903237  40.5166598  83.0137299  29.1505690  40.8591899  82.4936387
  29.4901762  41.3877820  81.7714996  29.5977810  41.1972305  83.2694954
  31.8449130  39.2428950  91.9439455  31.5045951  38.4436763  92.3460135
  31.1388137  39.5430660  91.3716289  32.4965602  36.3278262  90.3966778
  33.3191672  35.8538740  90.2745669  32.7403666  37.1068746  90.8965465
  31.1373837  39.3566520  80.6929680  31.8582199  39.7347773  80.1893397
  30.5139141  40.0755397  80.7964658  35.2804960  40.0611669  81.6288013
  35.4968574  40.9436307  81.3276841  34.7999027  39.6697883  80.8993655
  30.0204181  43.0197383  88.2058757  29.8748762  43.3337686  89.0983039
  29.5429385  43.6382283  87.6529656  31.8800564  40.0099931  88.2539647
  31.8662133  39.1141024  87.9171945  32.5972992  40.0170594  88.8877933
  33.7326695  40.4437271  90.2992774  33.4744472  41.3654341  90.2977105
  33.2011735  40.0467705  90.9893238  24.4949843  45.5602727  91.1446418
  23.9503311  46.3362535  91.2766693  25.3729193  45.9073532  90.9865540
  31.2837460  38.8914311  83.5227217  31.4053371  37.9630957  83.7218104
  30.9939502  38.9052997  82.6105532  34.1528650  36.5769221  86.6593937
  34.1750347  36.6408554  85.7045916  34.5696709  35.7373730  86.8534443
  44.5312274  46.3124481  84.6973159  44.9743421  45.5631806  84.2992282
  43.6538785  46.3034617  84.3146891  25.2815865  44.6872623  94.0376575
  24.5397601  44.8355259  94.6241206  24.9608609  44.9480889  93.1743325
  25.7272479  52.5738052  86.0686970  26.5530499  52.2741824  85.6885613
  25.3766531  51.8045674  86.5176758  23.9281084  50.4924378  87.0275903
  23.0912992  50.0646553  86.8459905  23.9004729  50.6856822  87.9646695
  30.7678539  40.4046308  97.7317149  30.8166695  41.2808431  97.3494919
  31.3101054  39.8623701  97.1588793  30.2567519  50.4768444  81.6143104
  30.4055639  51.1603908  80.9609777  31.0633962  50.4573534  82.1292560
  38.6635022  43.7810826  95.6410322  39.5644885  43.6417291  95.3494320
  38.7382997  43.9465281  96.5808499  32.9977828  41.1577681  94.4863508
  32.1281137  41.4511247  94.2146097  33.2337308  41.7418126  95.2070772
  28.0120152  46.5033621  82.6204173  27.7666194  45.5995951  82.8184383
  28.1816066  46.5050772  81.6783651  35.7016862  37.3757298  92.0028928
  36.2198805  38.1118325  91.6775417  35.3471994  37.6821291  92.8375688
  27.2815799  42.2361979  80.1190334  26.5885044  42.3106334  79.4630370
  27.0367551  41.4722322  80.6411851  35.9529456  33.7957580  87.5229825
  36.2331210  33.1280769  88.1490252  36.7380063  33.9886676  87.0104489
  33.7562924  52.9716574  79.0854851  33.1836891  53.5906761  78.6325323
  34.3295718  53.5215936  79.6194773  39.8238314  42.2175214  91.2701400
  40.7755737  42.3173312  91.2913624  39.6541765  41.4253483  91.7799485
  37.8452694  39.3030797  91.4560801  37.2502626  39.5835810  90.7607290
  37.5602390  39.7924698  92.2277542  34.1409723  44.3077387  76.4270904
  35.0868827  44.1783595  76.4959322  33.7623968  43.5692049  76.9040332
  42.4520880  42.2292377  90.4301983  41.9359929  41.4450834  90.2431912
  43.3360829  41.9011094  90.5948502  40.1131607  35.9733393  86.3897796
  39.9156428  35.6648481  87.2741128  40.7231313  36.6995032  86.5195726
  32.3252640  42.2327363  76.3625789  31.4184095  41.9360476  76.4388503
  32.6028621  41.9357181  75.4960075  23.2430580  43.5533727  86.8124835
  22.9233365  42.6999035  86.5199209  22.6964008  43.7682305  87.5682803
  27.0210488  46.2696168  90.5294342  27.2396498  47.2013275  90.5482376
  27.4336262  45.9104142  91.3149146  33.9414706  36.7764253  82.5170030
  33.1315434  36.4311338  82.8925276  34.6299123  36.4671797  83.1057642
  35.8705254  35.8542300  84.1394327  36.4236293  36.2737753  84.7984350
  36.1075340  34.9278048  84.1817283  31.8938353  41.8429373  99.9197091
  31.7935080  42.7923730  99.8509182  31.6759895  41.5147612  99.0473161
  31.0951425  39.0914298  76.5037768  31.9570589  39.4169197  76.7633586
  31.2801769  38.3045794  75.9910834  23.1118840  47.1736638  88.7817957
  22.4182312  46.7590591  88.2687911  23.8591831  47.2157175  88.1851376
  39.2484061  37.9642825  83.6472991  38.6682730  38.6227629  83.2651044
  38.9819994  37.1420169  83.2360409  37.6987627  37.3647883  85.8494312
  38.1987406  37.4764417  85.0408630  38.3423235  37.0608935  86.4895120
  31.7569623  45.2726512  98.7362153  31.2736705  46.0726872  98.9426042
  31.8430562  45.2834457  97.7829597  25.0255583  47.1054892  86.6583972
  25.0026271  47.2042579  85.7065855  25.3356219  47.9520043  86.9801138
  27.6842961  49.1631047  90.7730586  28.6386214  49.1314989  90.7060518
  27.4855484  48.7021671  91.5880812  28.2742343  47.7332163  93.3401384
  29.0935232  48.2276242  93.3636221  28.5479151  46.8164131  93.3118952
  38.0308939  40.1242915  82.7029340  37.1434794  40.4092566  82.4849534
  38.4462928  39.9636679  81.8556616  41.3823475  40.1489436  86.4183679
  42.1583865  40.6385889  86.6908296  40.6571609  40.5747490  86.8755548
  43.8196034  40.8617055  87.4757619  44.4140525  40.6212791  86.7650928
  43.8922617  40.1424186  88.1031156  26.0393189  54.7050666  87.7900784
  25.9047657  53.9451067  87.2238782  25.6225252  55.4291566  87.3229573
  37.1752152  49.8887590  76.7977360  37.8788003  50.0937592  77.4135015
  36.4514801  50.4564352  77.0626443  38.0049963  45.6397451  82.9179630
  37.9485164  46.0966003  82.0787262  38.5578305  44.8788136  82.7402472
  41.8154769  41.4287183  83.7429749  41.5591703  41.0283819  84.5737957
  41.1907637  42.1430977  83.6179888  46.1267107  44.1683256  86.2501041
  45.5666665  44.2376446  87.0232603  45.5210610  43.9924241  85.5300537
  38.7384742  46.8302232  80.2132159  38.6833546  46.6646504  79.2720603
  38.1130797  47.5378265  80.3694349  23.5277257  42.0670297  94.0393581
  24.1736121  41.5569251  94.5280806  23.3194408  42.8038978  94.6137006
  32.0480868  36.3310341  79.7917477  32.0359537  37.2752181  79.9485748
  32.9404289  36.1480487  79.4976938  35.8632987  32.9253118  84.0463414
  35.0965383  32.3711605  84.1920096  36.2743692  32.9974987  84.9077566
  27.8674748  39.2137914  98.1368595  28.7306210  38.8574719  98.3471920
  27.2940159  38.8751809  98.8244000  50.1898241  52.2188031  91.3811791
  49.8581566  53.0883442  91.1573006  49.5943854  51.9024315  92.0605822
  50.0826904  56.9383118  88.4605142  49.1743782  56.8698526  88.1663902
  50.0314500  57.4155062  89.2886967  51.9488551  55.1399556  90.2383015
  51.3062931  55.4332089  89.5922810  51.4443479  55.0252476  91.0436212
  58.5490281  61.6713648  86.7929492  57.7953990  61.1021046  86.6373497
  58.6837822  61.6376313  87.7400127  42.6120799  52.5200997  87.9698520
  43.4773796  52.3243806  87.6104410  42.6798308  52.2911349  88.8967877
  49.0869038  49.3251172  86.1000843  49.3927915  48.4648535  85.8126758
  49.8121643  49.9168792  85.8999837  46.8956690  58.7023849  93.1982307
  47.2506077  58.9295322  94.0576772  47.5428821  59.0342226  92.5759562
  53.5139356  63.9342513  91.4475793  53.7075246  64.8388323  91.6935067
  53.4139974  63.4749932  92.2814378  48.5754465  64.0849255  97.0216673
  48.4239971  63.8559807  96.1046757  48.5659144  65.0419857  97.0348018
  50.2846671  67.1168378  95.0993155  50.2259217  66.4327598  94.4323738
  50.6866190  67.8587368  94.6473781  31.9393226  61.4132054  86.6550186
  32.6264265  61.0993784  86.0671201  31.7841354  62.3173418  86.3817437
  49.3570656  51.7545407  88.5984764  48.4433736  51.9849634  88.7666971
  49.7863758  51.8383851  89.4498796  48.7698345  66.8183295  97.6756965
  49.3138249  67.4313253  97.1811920  48.1885190  67.3762874  98.1923978
  44.9922405  51.9061139  86.6593937  45.0144101  51.9700472  85.7045916
  45.4090464  51.0665648  86.8534443  52.0927139  66.2779349  97.0118286
  51.3022683  66.2603488  96.4722786  51.8560494  66.8167643  97.7667323
  52.2125015  63.1271816  94.3251015  52.2623019  62.9621823  95.2666538
  52.1038938  62.2599075  93.9348896  49.5028777  59.1102744  95.6410322
  50.4038640  58.9709208  95.3494320  49.5776751  59.2757198  96.5808499
  53.7143211  65.5468757  94.5693037  53.4228020  65.9098738  95.4056498
  53.1015343  64.8335765  94.3906369  51.9630400  60.6701372  93.0373095
  52.4384521  60.8629018  92.2291946  51.0395965  60.7260558  92.7916478
  50.6632069  57.5467132  91.2701400  51.6149491  57.6465229  91.2913624
  50.4935519  56.7545400  91.7799485  58.9596696  61.8289258  89.5249737
  59.6900085  61.5674546  90.0857440  58.3503642  61.0917980  89.5651805
  57.0411993  59.9697121  90.1224188  56.3145157  59.8353086  89.5140679
  56.6259280  60.2773950  90.9280906  46.7099008  51.1834217  84.1394327
  47.2630047  51.6029671  84.7984350  46.9469095  50.2569965  84.1817283
  33.9512595  62.5028556  88.7817957  33.2576066  62.0882509  88.2687911
  34.6985586  62.5449092  88.1851376  46.7026741  48.2545036  84.0463414
  45.9359137  47.7003522  84.1920096  47.1137446  48.3266905  84.9077566
  55.8426369  77.2793968  94.8378727  55.8315010  76.8846766  93.9659230
  56.0047008  76.5460040  95.4312498  52.5633630  80.0631080  93.7857911
  52.2723496  80.9676710  93.6704577  53.1990614  80.1047607  94.5001980
  61.0291995  67.5479949  91.3811791  60.6975320  68.4175360  91.1573006
  60.4337609  67.2316233  92.0605822  57.5223515  79.7492495  90.7807704
  57.2224238  80.6517534  90.6723511  57.1774574  79.4824678  91.6328857
  60.9220659  72.2675035  88.4605142  60.0137536  72.1990444  88.1663902
  60.8708255  72.7446980  89.2886967  52.5044295  86.5136815  83.7478672
  52.4268324  87.4644640  83.8267152  51.9005938  86.1682688  84.4053598
  54.9961525  73.6864681  96.4040039  54.2194859  74.2458601  96.3942903
  55.6352088  74.1721464  96.9254909  62.7882305  70.4691474  90.2383015
  62.1456685  70.7624007  89.5922810  62.2837234  70.3544394  91.0436212
  58.7263236  78.6379275  94.5630167  59.1346593  78.1961685  93.8184800
  58.0040498  78.0631902  94.8164360  59.0492051  79.1980465  88.3182456
  58.4200914  79.3626179  87.6158524  58.6617713  79.6122075  89.0893420
  58.2293752  71.2356250  93.5944898  57.9854684  71.9898310  93.0579174
  58.5053682  71.6141597  94.4292145  60.1832215  77.7794862  92.2722163
  60.3949110  78.4226622  91.5956545  60.1361963  76.9457179  91.8044094
  61.2978043  80.6566818  90.4444521  62.1195486  80.2547005  90.1627202
  61.2940445  80.5535052  91.3960637  55.0634646  80.2050861  92.6005231
  55.1279079  80.6671268  93.4363403  54.3545570  79.5748226  92.7287541
  54.7782664  81.8718968  82.4684212  54.6428338  82.7170504  82.8969059
  55.3192476  82.0738246  81.7050145  51.2650003  67.9510548  99.1298567
  50.8716949  67.3976747  99.8046211  52.0816144  68.2621127  99.5205084
  50.0406946  82.5060163  85.1234890  50.2173574  83.4278127  84.9355874
  50.8363779  82.1918582  85.5529270  54.1817964  69.3668427  96.7218823
  54.9227678  69.9675580  96.6423286  54.4135887  68.6246065  96.1636866
  56.4051140  82.4942535  96.5984554  55.9614994  81.7078913  96.2805458
  57.0668354  82.6821685  95.9328444  51.1638261  84.0238336  91.1245232
  51.7145686  83.8955400  90.3522226  50.3249737  84.3233225  90.7740125
  58.5032378  82.7745335  94.6265955  58.4850853  83.5954216  94.1346224
  59.4252298  82.6499410  94.8516096  54.9605432  80.2889464  95.4689463
  55.4933769  79.5277752  95.2388771  54.4319513  79.9963116  96.2113618
  58.1275127  65.3949530  90.9983105  57.7839397  66.2851172  90.9222216
  58.4954090  65.2051188  90.1352690  59.9262793  64.6543089  86.1000843
  60.2321670  63.7940453  85.8126758  60.6515398  65.2460710  85.8999837
  54.2884810  83.5631699  86.3001677  54.2460989  83.7892545  85.3710209
  55.2047509  83.3295074  86.4487479  57.7350444  74.0315767  93.1982307
  58.0899832  74.2587240  94.0576772  58.3822575  74.3634143  92.5759562
  63.4917561  79.2210730  88.9142907  63.9254067  79.1286019  89.7625961
  64.2049142  79.1968230  88.2762923  57.2245456  82.8212824  90.4476008
  57.2782478  83.3903760  91.2153724  56.3560237  82.9914709  90.0830045
  64.3533110  79.2634430  91.4475793  64.5469000  80.1680241  91.6935067
  64.2533729  78.8041849  92.2814378  56.0069421  69.1492321  93.9466120
  55.3597336  69.8482270  93.8530596  56.7770437  69.5828465  94.3142368
  59.4148219  79.4141173  97.0216673  59.2633725  79.1851725  96.1046757
  59.4052899  80.3711774  97.0348018  54.9821887  81.0123750  89.7761477
  54.8432973  80.6442535  90.6487415  54.1936483  81.5271390  89.6045435
  55.5770039  86.1132847  81.1187014  55.7521795  85.6420890  81.9332636
  54.8902827  86.7398613  81.3468274  56.5327102  80.3905353  87.1650315
  56.1976935  80.3506123  88.0607965  56.0331048  79.7250069  86.6920725
  61.1240426  82.4460296  95.0993155  61.0652972  81.7619516  94.4323738
  61.5259944  83.1879286  94.6473781  50.1431124  89.2622209  87.8926874
  50.3827723  89.8940734  88.5705892  49.3000321  88.9110249  88.1792233
  61.1257833  80.4099879  93.3307135  60.2384612  80.0725801  93.4533534
  61.6956384  79.6782911  93.5675900  54.6558986  85.0701332  90.2968378
  54.5829158  85.8756303  90.8087682  54.2136379  85.2693298  89.4716399
  54.4448766  84.3073102  83.8071199  53.6616288  84.8494782  83.9009424
  55.1441511  84.8247082  84.2065441  57.1157670  84.9688166  92.4526537
  57.8285642  85.6035631  92.3802438  56.6247699  85.0652032  91.6366538
  52.1669583  82.7182609  93.2732107  52.8679043  83.3519092  93.4261502
  51.6964698  83.0597341  92.5127747  60.1964411  67.0837325  88.5984764
  59.2827491  67.3141552  88.7666971  60.6257512  67.1675769  89.4498796
  59.9670869  75.2727217  91.0984658  59.3142320  75.5203124  90.4437110
  60.3451249  74.4591355  90.7647135  56.9278043  85.3086910  85.2012828
  57.1100438  84.4908566  85.6640580  57.7511029  85.5254602  84.7637718
  57.2620209  84.2355095  82.4627877  57.7907975  83.7247550  81.8498039
  57.5248428  83.9197625  83.3273410  56.0158442  76.0147028  97.5850695
  55.3399079  75.9141157  98.2553070  56.8386076  75.8586242  98.0486692
  47.7637301  82.2518964  90.2063210  48.3490738  81.5062652  90.3391114
  47.5662140  82.5622921  91.0899874  50.6175957  85.2870212  85.2225652
  49.9486332  85.7716339  84.7389692  50.4788826  85.5339432  86.1369031
  54.7581225  87.3213955  91.8208311  55.3099533  87.4845577  92.5857396
  55.0987419  87.9118393  91.1488336  59.6092100  82.1475213  97.6756965
  60.1532004  82.7605171  97.1811920  59.0278944  82.7054791  98.1923978
  57.8949613  85.2695931  88.8071993  57.7700752  84.4685671  88.2982938
  58.5528704  85.7642124  88.3185963  59.9584521  83.0704951  90.4351543
  59.0114856  82.9510302  90.3629870  60.3067294  82.1827449  90.5177804
  52.3184094  68.9599090  94.2589785  52.8418496  69.2061386  95.0216094
  52.0996428  69.7919125  93.8392922  56.9630954  82.8657667  86.6355895
  56.8155917  81.9374375  86.8163465  57.7884448  82.8877758  86.1512971
  53.5236639  69.9012785  91.9439455  53.1833460  69.1020598  92.3460135
  52.8175646  70.2014496  91.3716289  54.1753111  66.9862097  90.3966778
  54.9979180  66.5122576  90.2745669  54.4191175  67.7652581  90.8965465
  54.9047037  84.8872437  93.8356965  55.2134163  84.6421584  94.7079665
  55.7022519  85.0919075  93.3475835  54.9267649  87.0410347  86.0662342
  54.4872639  86.5486725  86.7595198  55.6775766  86.4983314  85.8254417
  47.4059988  83.2321887  86.0686970  48.2318008  82.9325659  85.6885613
  47.0554040  82.4629510  86.5176758  52.3741521  82.5848356  88.1384643
  51.7521530  81.9219061  87.8386871  53.0446388  82.6109487  87.4558291
  45.6068593  81.1508214  87.0275903  44.7700501  80.7230388  86.8459905
  45.5792238  81.3440657  87.9646695  52.4466048  71.0630144  97.7317149
  52.4954204  71.9392266  97.3494919  52.9888562  70.5207537  97.1588793
  62.9320894  81.6071267  97.0118286  62.1416438  81.5895406  96.4722786
  62.6954249  82.1459561  97.7667323  63.0518769  78.4563733  94.3251015
  63.1016774  78.2913741  95.2666538  62.9432692  77.5890992  93.9348896
  60.3422531  74.4394661  95.6410322  61.2432394  74.3001126  95.3494320
  60.4170506  74.6049116  96.5808499  54.6765337  71.8161516  94.4863508
  53.8068646  72.1095082  94.2146097  54.9124817  72.4001961  95.2070772
  64.5536966  80.8760675  94.5693037  64.2621774  81.2390655  95.4056498
  63.9409097  80.1627683  94.3906369  62.8024154  75.9993289  93.0373095
  63.2778276  76.1920936  92.2291946  61.8789719  76.0552475  92.7916478
  57.3804371  68.0341133  92.0028928  57.8986314  68.7702160  91.6775417
  57.0259503  68.3405126  92.8375688  61.5025823  72.8759049  91.2701400
  62.4543246  72.9757147  91.2913624  61.3329273  72.0837318  91.7799485
  59.5240203  69.9614633  91.4560801  58.9290135  70.2419645  90.7607290
  59.2389899  70.4508534  92.2277542  63.9813901  76.0965169  90.3843700
  63.9490221  75.1581170  90.5703384  64.5914525  76.1749206  89.6509525
  64.1308389  72.8876213  90.4301983  63.6147438  72.1034669  90.2431912
  65.0148338  72.5594929  90.5948502  61.7919116  66.6317228  86.3897796
  61.5943937  66.3232316  87.2741128  62.4018822  67.3578867  86.5195726
  69.7990451  77.1581176  89.5249737  70.5293839  76.8966464  90.0857440
  69.1897396  76.4209898  89.5651805  55.7035924  79.0178968  97.8871561
  56.6238934  79.1957567  98.0811607  55.6685507  78.0735014  97.7351260
  53.5725862  72.5013209  99.9197091  53.4722589  73.4507566  99.8509182
  53.3547404  72.1731448  99.0473161  60.9271570  68.6226660  83.6472991
  60.3470239  69.2811464  83.2651044  60.6607503  67.8004005  83.2360409
  59.3775136  68.0231718  85.8494312  59.8774915  68.1348252  85.0408630
  60.0210744  67.7192771  86.4895120  53.4357132  75.9310348  98.7362153
  52.9524214  76.7310708  98.9426042  53.5218071  75.9418292  97.7829597
  59.7096448  70.7826751  82.7029340  58.8222303  71.0676401  82.4849534
  60.1250437  70.6220514  81.8556616  63.0610984  70.8073272  86.4183679
  63.8371374  71.2969724  86.6908296  62.3359118  71.2331326  86.8755548
  47.7180698  85.3634502  87.7900784  47.5835166  84.6034903  87.2238782
  47.3012761  86.0875402  87.3229573  50.8749824  86.2603819  88.0019227
  50.7582208  87.2049251  87.8997917  50.0542271  85.9577380  88.3905026
  57.7318158  79.7934980  99.5385722  58.6009318  79.9675632  99.1772357
  57.2524910  80.6129396  99.4161451  51.9004338  86.9132081  91.2175155
  52.8031585  86.9455691  91.5341650  51.6741709  85.9832532  91.2321491
  53.6557940  85.6663067  87.8785234  52.7053571  85.6664929  87.7649606
  53.9590427  84.9195802  87.3621269  69.3910634  91.5023606  88.9430996
  70.0289044  91.3830353  88.2394336  69.2731477  92.4504450  89.0018948
  66.2000340  91.4551034  88.8792521  65.8618852  91.3392098  87.9913056
  67.0690108  91.0542199  88.8593527  62.0587156  93.3086510  84.8689412
  61.4952021  93.2176447  84.1005700  61.9439551  92.4886415  85.3491904
  66.6820123  92.6085885  94.8378727  66.6708764  92.2138684  93.9659230
  66.8440763  91.8751958  95.4312498  59.6051588  94.8037702  87.7073632
  60.3972880  94.4628526  87.2919932  59.8448238  94.9132677  88.6275786
  67.6386715  96.9757478  80.1803877  66.9874694  97.5611558  79.7937891
  68.4331077  97.5063673  80.2398914  61.5642342  94.0646615  80.5791011
  62.3373218  93.5175602  80.4403887  61.9167741  94.9290864  80.7905473
  63.4027384  95.3922997  93.7857911  63.1117250  96.2968628  93.6704577
  64.0384369  95.4339525  94.5001980  64.3283591  92.7699846  90.3759270
  64.9247163  92.5455868  89.6616233  64.3858563  92.0284591  90.9784718
  63.9008620  90.2239281  78.2109461  64.1534140  89.7020802  77.4492924
  62.9633179  90.0605427  78.3136145  68.9451902  89.2275059  86.0184204
  69.7314992  88.8094483  85.6674621  69.2090607  90.1321152  86.1865853
  69.1161980  94.6647910  80.7172861  68.4807813  94.7382536  81.4293766
  68.7859386  95.2541509  80.0391940  74.3460330  89.1650293  86.9217183
  75.0785502  88.5949509  87.1555012  73.5899685  88.7771893  87.3623688
  63.6204908  92.1267387  80.4133836  63.5041166  91.4512290  81.0814920
  63.7307168  91.6399761  79.5965989  65.9636449  91.5877534  84.1180525
  65.5994657  91.0608155  84.8293447  66.8203565  91.1976003  83.9447011
  71.8685750  82.8771867  91.3811791  71.5369075  83.7467278  91.1573006
  71.2731363  82.5608151  92.0605822  68.3617269  95.0784413  90.7807704
  68.0617993  95.9809452  90.6723511  68.0168329  94.8116596  91.6328857
  61.8129751  91.5298210  86.8144409  60.8880247  91.3974424  87.0222100
  62.0614164  92.3092429  87.3114351  71.7614413  87.5966953  88.4605142
  70.8531291  87.5282361  88.1663902  71.7102009  88.0738898  89.2886967
  65.5831157  89.0725091  80.0988541  65.4630782  89.5182142  80.9374021
  64.8883746  89.4210409  79.5402079  59.1738562  91.1731483  87.6488198
  59.3030943  91.4265962  88.5627609  58.4936013  91.7659191  87.3292853
  63.3438049 101.8428733  83.7478672  63.2662079 102.7936558  83.8267152
  62.7399693 101.4974606  84.4053598  65.8355279  89.0156599  96.4040039
  65.0588613  89.5750519  96.3942903  66.4745842  89.5013381  96.9254909
  73.6276060  85.7983391  90.2383015  72.9850440  86.0915924  89.5922810
  73.1230988  85.6836312  91.0436212  71.2816223  89.5446565  80.9268875
  72.1934079  89.7773951  80.7516572  70.7725870  90.1283609  80.3643953
  64.0901651  91.8242052  95.9658006  64.8316336  92.3627096  95.6892829
  63.3838637  92.4508341  96.1229558  69.5656991  93.9671192  94.5630167
  69.9740347  93.5253603  93.8184800  68.8434252  93.3923820  94.8164360
  65.9188061  88.9043799  91.9363724  66.7649256  89.3283213  92.0798373
  65.8586699  88.2477423  92.6302287  69.8885806  94.5272383  88.3182456
  69.2594668  94.6918097  87.6158524  69.5011468  94.9413993  89.0893420
  73.7675038  95.4626821  85.6726820  73.0826076  95.8425722  85.1223853
  73.8518887  96.0722147  86.4058768  69.0687506  86.5648167  93.5944898
  68.8248438  87.3190228  93.0579174  69.3447437  86.9433515  94.4292145
  71.0225969  93.1086780  92.2722163  71.2342864  93.7518540  91.5956545
  70.9755717  92.2749096  91.8044094  68.6252198  85.7204600  89.1758736
  67.7636677  86.0185854  89.4675473  68.6514633  85.9374999  88.2439768
  65.4413768  94.2646791  85.5832541  65.9052113  94.5434494  84.7937164
  65.1770566  93.3630236  85.4005632  62.3337849  93.8118273  88.5212305
  62.9039206  94.2405541  87.8829789  62.9245960  93.5300857  89.2196490
  64.3782654  90.3869943  82.3922106  65.0806697  90.8390987  82.8596033
  64.0463282  89.7453762  83.0202000  62.8263015  88.9781700  96.7673316
  62.1961676  89.6597981  97.0008713  62.7199103  88.8664782  95.8226454
  58.1207988  88.6453496  87.6939240  57.3307042  88.9011025  87.2179351
  58.6119235  89.4601834  87.7991281  72.1371797  95.9858735  90.4444521
  72.9589241  95.5838923  90.1627202  72.1334200  95.8826969  91.3960637
  60.0722733  89.0098075  84.6522717  59.2753896  89.1216770  85.1706212
  59.8448325  89.3484728  83.7863607  65.9028401  95.5342779  92.6005231
  65.9672833  95.9963186  93.4363403  65.1939324  94.9040143  92.7287541
  56.4045691  88.8983987  90.1254231  56.6553729  89.7830996  90.3911807
  56.9405239  88.7188588  89.3529323  80.2277790  92.3297484  86.7929492
  79.4741499  91.7604882  86.6373497  80.3625331  92.2960148  87.7400127
  65.6176418  97.2010886  82.4684212  65.4822093  98.0462422  82.8969059
  66.1586231  97.4030164  81.7050145  62.1043758  83.2802466  99.1298567
  61.7110703  82.7268664  99.8046211  62.9209898  83.5913044  99.5205084
  59.0705816  94.7186324  83.0412137  59.5830336  95.5129574  83.1917701
  59.7228528  94.0212615  82.9745738  60.8800700  97.8352080  85.1234890
  61.0567329  98.7570045  84.9355874  61.6757534  97.5210500  85.5529270
  65.0211719  84.6960345  96.7218823  65.7621432  85.2967498  96.6423286
  65.2529642  83.9537983  96.1636866  60.1653057  89.8816712  94.9997053
  60.0506572  88.9801969  95.3004152  59.3097575  90.1280409  94.6481870
  67.2444895  97.8234453  96.5984554  66.8008749  97.0370831  96.2805458
  67.9062108  98.0113603  95.9328444  62.0032016  99.3530254  91.1245232
  62.5539441  99.2247317  90.3522226  61.1643492  99.6525143  90.7740125
  69.3426133  98.1037252  94.6265955  69.3244608  98.9246134  94.1346224
  70.2646053  97.9791328  94.8516096  65.7999187  95.6181382  95.4689463
  66.3327524  94.8569670  95.2388771  65.2713268  95.3255034  96.2113618
  68.9668882  80.7241448  90.9983105  68.6233151  81.6143090  90.9222216
  69.3347844  80.5343106  90.1352690  57.0354732  93.0474978  83.8171707
  57.8729954  93.4571987  83.6005415  57.2133000  92.1074421  83.7871901
  68.9319164  90.7150059  79.5055540  68.4165788  91.4854664  79.7443928
  68.6596473  90.0415195  80.1288602  66.5166276  85.5599760  84.5640779
  65.6607872  85.1706610  84.3846417  66.9293227  85.6391721  83.7040564
  68.0465422  83.0946103  88.9632338  67.5430218  83.0576238  88.1500144
  68.3396029  84.0038846  89.0228995  64.2908308  83.1784833  87.9698520
  65.1561305  82.9827641  87.6104410  64.3585817  82.9495185  88.8967877
  73.9053439  93.4682414  81.4408714  73.1282881  93.1293573  80.9963876
  74.5844920  93.4735037  80.7663679  68.7205468  88.5877151  81.3315321
  68.4155603  88.9023300  82.1825465  69.6735910  88.6658571  81.3742654
  67.1651899  94.7467374  82.9808275  66.6373261  94.0120134  82.6681513
  66.6639402  95.5242051  82.7348244  72.1444746  92.9416395  88.0975322
  71.4868420  93.6315656  88.1855450  72.9485145  93.3312827  88.4409308
  70.9550204  91.2960768  86.1479263  71.4682086  91.9290759  86.6500973
  71.6051428  90.6961963  85.7822623  65.3104500  92.5647585  75.9843248
  64.4031561  92.3336838  76.1834397  65.8075532  91.7685204  76.1717230
  68.2172579 101.2745092  78.9039935  67.5434277 101.5776789  79.5124892
  68.6038401 102.0774172  78.5545392  67.4331035  88.7710223  88.3937604
  66.5153597  88.9925170  88.2359292  67.8491179  88.8456534  87.5349311
  68.2166083  90.1701639  83.5240284  68.9637902  90.6823036  83.2147406
  68.4857672  89.8485692  84.3844678  66.4892733  92.6660180  80.5067238
  65.5803952  92.3819212  80.6039708  66.5187817  93.0859258  79.6470545
  71.7212001  96.2766769  84.2758406  71.2674328  95.4357679  84.3323597
  71.0905967  96.9128167  84.6133186  70.6644920  87.2058755  85.5059074
  69.9267677  86.6936141  85.8369316  70.9171694  86.7659137  84.6942350
  70.1644940  98.1143266  85.2108224  70.4567914  98.6748323  84.4920590
  70.6743560  98.4071827  85.9661383  70.7656547  79.9835007  86.1000843
  71.0715424  79.1232371  85.8126758  71.4909152  80.5752627  85.8999837
  57.0580903  90.3865694  84.4882441  56.8605303  89.7935054  83.7633507
  56.5027567  90.0817904  85.2058379  65.0377627  90.2788800  86.6077034
  65.0926237  89.3262637  86.5319510  64.2268829  90.4348239  87.0918332
  66.1868821  94.2068923  77.8455317  65.7488251  93.4904782  77.3860954
  66.9279262  94.4345038  77.2840408  62.9769987  88.8965860  84.3667413
  62.1637853  89.1960030  84.7732605  63.4728981  88.5021549  85.0841895
  65.1278565  98.8923617  86.3001677  65.0854744  99.1184463  85.3710209
  66.0441264  98.6586991  86.4487479  68.5744199  89.3607684  93.1982307
  68.9293586  89.5879158  94.0576772  69.2216330  89.6926061  92.5759562
  74.3041936  92.4826120  83.9031636  74.1659834  92.6727716  82.9752825
  73.9478155  93.2445503  84.3599687  62.4684062  86.4684215  89.9828648
  63.1083441  86.3272975  89.2851611  61.6361592  86.1818729  89.6067250
  74.3311315  94.5502647  88.9142907  74.7647822  94.4577936  89.7625961
  75.0442896  94.5260148  88.2762923  63.2444366  95.7686646  86.0963640
  64.0384964  95.2736966  85.8946215  62.5336058  95.2404509  85.7331346
  68.0639210  98.1504741  90.4476008  68.1176232  98.7195678  91.2153724
  67.1953992  98.3206626  90.0830045  59.5527129  89.9129728  82.1723393
  58.6224717  89.8514183  82.3893355  59.6484601  89.3905680  81.3760034
  59.4712678  86.4384540  84.7601634  59.7319496  87.3529874  84.6510795
  60.2929851  85.9708983  84.9098247  60.9437604  87.8522298  91.9300459
  61.6160657  87.6439660  91.2813108  60.1167390  87.6544384  91.4905691
  75.1926865  94.5926348  91.4475793  75.3862755  95.4972158  91.6935067
  75.0927483  94.1333767  92.2814378  66.8463176  84.4784239  93.9466120
  66.1991091  85.1774188  93.8530596  67.6164191  84.9120382  94.3142368
  70.2541974  94.7433091  97.0216673  70.1027480  94.5143642  96.1046757
  70.2446653  95.7003692  97.0348018  67.0227310  92.3165003  92.0062940
  67.9519370  92.4676163  91.8331907  66.6018340  92.4049024  91.1511586
  65.8215642  96.3415668  89.7761477  65.6826727  95.9734452  90.6487415
  65.0330238  96.8563307  89.6045435  66.4163794 101.4424764  81.1187014
  66.5915549 100.9712808  81.9332636  65.7296582 102.0690531  81.3468274
  67.3720857  95.7197271  87.1650315  67.0370689  95.6798041  88.0607965
  66.8724803  95.0541986  86.6920725  61.3465101  91.1264901  92.6902896
  61.2084899  90.3945139  93.2914435  62.2570024  91.0373801  92.4087084
  70.3080049  93.0653305  77.4387375  69.6909219  92.3400133  77.3420427
  69.8396537  93.8262665  77.0954449  63.9747401  90.8384860  92.1786576
  64.6847020  90.1978052  92.1373194  63.9316710  91.0897755  93.1012757
  71.9634180  97.7752213  95.0993155  71.9046726  97.0911433  94.4323738
  72.3653699  98.5171203  94.6473781  62.6876335  87.8250078  93.9982215
  62.1513692  87.3740816  94.6503812  62.0993044  87.9595987  93.2552680
  60.9824879 104.5914127  87.8926874  61.2221477 105.2232651  88.5705892
  60.1394075 104.2402167  88.1792233  71.9651587  95.7391797  93.3307135
  71.0778366  95.4017719  93.4533534  72.5350139  95.0074828  93.5675900
  53.6180735  92.0715889  86.6550186  54.3051774  91.7577619  86.0671201
  53.4628863  92.9757254  86.3817437  58.4215457  86.9606085  91.0835210
  58.3373645  86.3531755  90.3485620  57.5998163  87.4515104  91.0844706
  65.4952741 100.3993250  90.2968378  65.4222912 101.2048221  90.8087682
  65.0530134 100.5985215  89.4716399  65.2842520  99.6365020  83.8071199
  64.5010042 100.1786700  83.9009424  65.9835266 100.1538999  84.2065441
  68.5939171  85.4459649  86.4505405  69.0907870  84.6929611  86.1306475
  67.8226152  85.4823966  85.8848614  76.4468928  91.1500015  88.0923696
  76.4358804  92.0324730  87.7217629  75.5786307  90.7971565  87.8978233
  67.9551424 100.2980084  92.4526537  68.6679397 100.9327548  92.3802438
  67.4641453 100.3943950  91.6366538  69.6768951  94.2031336  84.0243828
  68.7425230  94.3232799  83.8548533  69.8545620  93.3003803  83.7603838
  65.1774139  87.5877032  86.1777089  64.8071927  87.0348072  86.8657995
  65.6733232  86.9835165  85.6252089  73.0641503  90.0448656  84.5593862
  73.5301955  90.8776647  84.4854165  73.5149003  89.5793637  85.2639121
  63.0063338  98.0474527  93.2732107  63.7072797  98.6811010  93.4261502
  62.5358453  98.3889259  92.5127747  71.1317734  96.3892477  81.5580014
  71.4077578  96.2749071  82.4673888  70.2622232  95.9909962  81.5192187
  71.0358165  82.4129242  88.5984764  70.1221245  82.6433469  88.7666971
  71.4651267  82.4967687  89.4498796  70.8064624  90.6019134  91.0984658
  70.1536074  90.8495042  90.4437110  71.1845004  89.7883273  90.7647135
  67.7671798 100.6378828  85.2012828  67.9494192  99.8200484  85.6640580
  68.5904784 100.8546520  84.7637718  68.1013963  99.5647013  82.4627877
  68.6301730  99.0539467  81.8498039  68.3642183  99.2489543  83.3273410
  66.8552197  91.3438946  97.5850695  66.1792834  91.2433075  98.2553070
  67.6779831  91.1878159  98.0486692  58.6031056  97.5810882  90.2063210
  59.1884493  96.8354570  90.3391114  58.4055894  97.8914839  91.0899874
  61.4569711 100.6162129  85.2225652  60.7880086 101.1008257  84.7389692
  61.3182581 100.8631350  86.1369031  53.1948711  90.1516482  88.9267653
  53.2332810  89.6180073  89.7204771  52.6889004  89.6251688  88.3078630
  65.5974980 102.6505873  91.8208311  66.1493288 102.8137494  92.5857396
  65.9381173 103.2410311  91.1488336  60.5739473  84.9981023  92.4230196
  60.6380799  85.8595854  92.0107593  60.5106593  84.3855024  91.6902554
  60.0491746  87.0704155  96.0703230  60.6763784  86.6881233  96.6840754
  59.1919664  86.8518357  96.4358922  70.4485854  97.4767130  97.6756965
  70.9925758  98.0897089  97.1811920  69.8672699  98.0346709  98.1923978
  56.8257288  88.8780584  82.0021585  57.1210729  87.9691263  81.9488638
  55.9245324  88.8568324  81.6802587  68.7343367 100.5987848  88.8071993
  68.6094506  99.7977588  88.2982938  69.3922458 101.0934042  88.3185963
  60.3551535  86.9536581  87.9849133  59.6338121  87.5672549  87.8456606
  61.1444791  87.4894346  87.9065779  70.7978275  98.3996869  90.4351543
  69.8508611  98.2802220  90.3629870  71.1461049  97.5119367  90.5177804
  63.1577849  84.2891007  94.2589785  63.6812251  84.5353304  95.0216094
  62.9390182  85.1211042  93.8392922  58.5545130  86.5594682  82.1260910
  58.2257836  85.6792061  81.9436016  58.9084501  86.5042351  83.0137299
  67.8024709  98.1949585  86.6355895  67.6549671  97.2666292  86.8163465
  68.6278202  98.2169676  86.1512971  61.6686953  86.8467652  82.4936387
  62.0083026  87.3753573  81.7714996  62.1159073  87.1848058  83.2694954
  71.4058831  99.0178144  87.7220768  72.3305378  98.8121005  87.5845219
  71.2374134  98.7694545  88.6310110  64.3630394  85.2304703  91.9439455
  64.0227214  84.4312516  92.3460135  63.6569400  85.5306413  91.3716289
  65.0146866  82.3154015  90.3966778  65.8372935  81.8414493  90.2745669
  65.2584929  83.0944499  90.8965465  62.5385444  89.0073136  88.2058757
  62.3930025  89.3213439  89.0983039  62.0610648  89.6258036  87.6529656
  64.3981827  85.9975684  88.2539647  64.3843396  85.1016777  87.9171945
  65.1154255  86.0046347  88.8877933  66.2507958  86.4313024  90.2992774
  65.9925736  87.3530095  90.2977105  65.7192998  86.0343458  90.9893238
  71.1954147  99.5363811  83.0782859  71.3691024  98.9710233  82.3256712
  71.6883038 100.3364706  82.8962349  57.0131107  91.5478480  91.1446418
  56.4684575  92.3238288  91.2766693  57.8910456  91.8949285  90.9865540
  66.6709914  82.5644974  86.6593937  66.6931610  82.6284307  85.7045916
  67.0877973  81.7249483  86.8534443  77.0493538  92.3000234  84.6973159
  77.4924684  91.5507559  84.2992282  76.1720048  92.2910370  84.3146891
  72.1829319  98.8530575  80.1779758  72.8780224  99.4737268  80.3967072
  72.5252469  98.0025927  80.4532136  57.7997128  90.6748376  94.0376575
  57.0578864  90.8231012  94.6241206  57.4789873  90.9356642  93.1743325
  74.0820742  96.3030281  81.7067089  74.6072066  96.6417554  80.9816409
  73.9943095  95.3677296  81.5230223  65.7440791 100.2164355  93.8356965
  66.0527918  99.9713501  94.7079665  66.5416273 100.4210993  93.3475835
  65.7661403 102.3702264  86.0662342  65.3266393 101.8778643  86.7595198
  66.5169520 101.8275232  85.8254417  58.2453742  98.5613805  86.0686970
  59.0711762  98.2617577  85.6885613  57.8947794  97.7921427  86.5176758
  63.2135275  97.9140273  88.1384643  62.5915285  97.2510978  87.8386871
  63.8840142  97.9401405  87.4558291  56.4462347  96.4800132  87.0275903
  55.6094255  96.0522306  86.8459905  56.4185993  96.6732575  87.9646695
  63.2859803  86.3922061  97.7317149  63.3347958  87.2684184  97.3494919
  63.8282317  85.8499454  97.1588793  73.7714648  96.9363185  97.0118286
  72.9810192  96.9187323  96.4722786  73.5348003  97.4751478  97.7667323
  73.8912524  93.7855651  94.3251015  73.9410528  93.6205658  95.2666538
  73.7826447  92.9182910  93.9348896  62.7748782  96.4644197  81.6143104
  62.9236903  97.1479661  80.9609777  63.5815226  96.4449287  82.1292560
  71.1816286  89.7686579  95.6410322  72.0826149  89.6293044  95.3494320
  71.2564260  89.9341034  96.5808499  65.5159091  87.1453434  94.4863508
  64.6462401  87.4387000  94.2146097  65.7518572  87.7293879  95.2070772
  75.3930720  96.2052592  94.5693037  75.1015529  96.5682573  95.4056498
  74.7802852  95.4919601  94.3906369  76.5926403  93.7705472  87.0895607
  77.4273294  94.2095276  87.2533167  76.7285531  93.2944125  86.2703853
  73.6417909  91.3285207  93.0373095  74.1172030  91.5212853  92.2291946
  72.7183474  91.3844393  92.7916478  60.5301415  92.4909374  82.6204173
  60.2847457  91.5871704  82.8184383  60.6997330  92.4926525  81.6783651
  68.2198125  83.3633051  92.0028928  68.7380069  84.0994078  91.6775417
  67.8653258  83.6697044  92.8375688  59.7997063  88.2237732  80.1190334
  59.1066308  88.2982087  79.4630370  59.5548815  87.4598075  80.6411851
  68.4710719  79.7833333  87.5229825  68.7512473  79.1156522  88.1490252
  69.2561326  79.9762429  87.0104489  66.2744188  98.9592327  79.0854851
  65.7018155  99.5782514  78.6325323  66.8476981  99.5091689  79.6194773
  72.3419578  88.2050967  91.2701400  73.2937000  88.3049065  91.2913624
  72.1723028  87.4129236  91.7799485  70.3633957  85.2906550  91.4560801
  69.7683889  85.5711563  90.7607290  70.0783654  85.7800451  92.2277542
  69.4941448  99.2429477  80.2163434  70.4272121  99.1775039  80.4196309
  69.4064660 100.0785744  79.7577966  72.1229464  98.5595348  77.1767381
  72.0443096  98.2255211  78.0703139  72.9439131  99.0517115  77.1758854
  74.8207655  91.4257087  90.3843700  74.7883975  90.4873088  90.5703384
  75.4308279  91.5041124  89.6509525  66.6590986  90.2953140  76.4270904
  67.6050091  90.1659348  76.4959322  66.2805231  89.5567802  76.9040332
  74.9702144  88.2168130  90.4301983  74.4541192  87.4326587  90.2431912
  75.8542092  87.8886847  90.5948502  72.6312871  81.9609146  86.3897796
  72.4337692  81.6524234  87.2741128  73.2412576  82.6870785  86.5195726
  80.6384205  92.4873094  89.5249737  81.3687594  92.2258382  90.0857440
  80.0291151  91.7501816  89.5651805  78.7199502  90.6280956  90.1224188
  77.9932666  90.4936921  89.5140679  78.3046789  90.9357785  90.9280906
  66.5429679  94.3470886  97.8871561  67.4632688  94.5249485  98.0811607
  66.5079262  93.4026931  97.7351260  55.7611844  89.5409480  86.8124835
  55.4414628  88.6874788  86.5199209  55.2145272  89.7558058  87.5682803
  59.5391751  92.2571921  90.5294342  59.7577761  93.1889028  90.5482376
  59.9517525  91.8979895  91.3149146  64.4119617  87.8305126  99.9197091
  64.3116344  88.7799483  99.8509182  64.1941159  87.5023365  99.0473161
  55.6300104  93.1612391  88.7817957  54.9363575  92.7466344  88.2687911
  56.3773095  93.2032928  88.1851376  71.7665324  83.9518578  83.6472991
  71.1863994  84.6103382  83.2651044  71.5001257  83.1295922  83.2360409
  70.2168891  83.3523636  85.8494312  70.7168669  83.4640170  85.0408630
  70.8604499  83.0484688  86.4895120  64.2750887  91.2602265  98.7362153
  63.7917968  92.0602625  98.9426042  64.3611826  91.2710210  97.7829597
  57.5436846  93.0930645  86.6583972  57.5207534  93.1918332  85.7065855
  57.8537483  93.9395796  86.9801138  60.2024224  95.1506800  90.7730586
  61.1567478  95.1190742  90.7060518  60.0036748  94.6897424  91.5880812
  60.7923606  93.7207916  93.3401384  61.6116495  94.2151995  93.3636221
  61.0660414  92.8039884  93.3118952  70.5490202  86.1118668  82.7029340
  69.6616058  86.3968319  82.4849534  70.9644192  85.9512432  81.8556616
  73.9004739  86.1365189  86.4183679  74.6765129  86.6261642  86.6908296
  73.1752873  86.5623243  86.8755548  76.3377297  86.8492808  87.4757619
  76.9321788  86.6088544  86.7650928  76.4103881  86.1299939  88.1031156
  58.5574453 100.6926419  87.7900784  58.4228921  99.9326820  87.2238782
  58.1406515 101.4167319  87.3229573  69.6933416  95.8763343  76.7977360
  70.3969266  96.0813345  77.4135015  68.9696065  96.4440105  77.0626443
  70.5231226  91.6273204  82.9179630  70.4666428  92.0841756  82.0787262
  71.0759569  90.8663889  82.7402472  74.3336032  87.4162936  83.7429749
  74.0772966  87.0159572  84.5737957  73.7088900  88.1306730  83.6179888
  78.6448370  90.1559009  86.2501041  78.0847928  90.2252199  87.0232603
  78.0391873  89.9799994  85.5300537  61.7143579 101.5895736  88.0019227
  61.5975963 102.5341169  87.8997917  60.8936025 101.2869298  88.3905026
  71.6020113  96.3145872  78.8475820  72.4365717  95.8827071  78.6653294
  71.4404456  96.1427886  79.7752714  71.2566006  92.8177985  80.2132159
  71.2014809  92.6522257  79.2720603  70.6312061  93.5254018  80.3694349
  56.0458521  88.0546050  94.0393581  56.6917384  87.5445004  94.5280806
  55.8375672  88.7914731  94.6137006  68.5711913  95.1226897  99.5385722
  69.4403072  95.2967550  99.1772357  68.0918664  95.9421314  99.4161451
  62.7398093 102.2423998  91.2175155  63.6425340 102.2747609  91.5341650
  62.5135463 101.3124449  91.2321491  64.4951695 100.9954985  87.8785234
  63.5447326 100.9956846  87.7649606  64.7984181 100.2487719  87.3621269
  60.3856012  85.2013667  98.1368595  61.2487473  84.8450472  98.3471920
  59.8121422  84.8627562  98.8244000  80.2304388 106.8315523  88.9430996
  80.8682798 106.7122271  88.2394336  80.1125231 107.7796367  89.0018948
  77.0394095 106.7842951  88.8792521  76.7012606 106.6684016  87.9913056
  77.9083863 106.3834116  88.8593527  72.8980910 108.6378428  84.8689412
  72.3345776 108.5468365  84.1005700  72.7833305 107.8178332  85.3491904
  77.5213878 107.9377803  94.8378727  77.5102518 107.5430601  93.9659230
  77.6834517 107.2043876  95.4312498  70.4445342 110.1329619  87.7073632
  71.2366634 109.7920444  87.2919932  70.6841993 110.2424594  88.6275786
  78.4780469 112.3049395  80.1803877  77.8268449 112.8903476  79.7937891
  79.2724832 112.8355590  80.2398914  72.4036096 109.3938533  80.5791011
  73.1766972 108.8467520  80.4403887  72.7561495 110.2582782  80.7905473
  74.2421139 110.7214915  93.7857911  73.9511005 111.6260546  93.6704577
  74.8778123 110.7631443  94.5001980  75.1677346 108.0991763  90.3759270
  75.7640918 107.8747786  89.6616233  75.2252317 107.3576509  90.9784718
  74.7402374 105.5531199  78.2109461  74.9927895 105.0312720  77.4492924
  73.8026933 105.3897344  78.3136145  79.7845657 104.5566977  86.0184204
  80.5708746 104.1386400  85.6674621  80.0484361 105.4613069  86.1865853
  79.9555734 109.9939827  80.7172861  79.3201567 110.0674454  81.4293766
  79.6253141 110.5833426  80.0391940  85.1854084 104.4942210  86.9217183
  85.9179256 103.9241427  87.1555012  84.4293440 104.1063811  87.3623688
  74.4598663 107.4559305  80.4133836  74.3434921 106.7804208  81.0814920
  74.5700923 106.9691679  79.5965989  76.8030204 106.9169452  84.1180525
  76.4388411 106.3900073  84.8293447  77.6597320 106.5267921  83.9447011
  82.7079504  98.2063784  91.3811791  82.3762829  99.0759195  91.1573006
  82.1125118  97.8900068  92.0605822  76.4435691 101.9459351  79.1141874
  76.6110093 102.8139588  79.4812345  76.2532860 102.1086633  78.1903163
  79.2011024 110.4076330  90.7807704  78.9011747 111.3101369  90.6723511
  78.8562083 110.1408514  91.6328857  72.6523505 106.8590127  86.8144409
  71.7274002 106.7266341  87.0222100  72.9007919 107.6384346  87.3114351
  82.6008168 102.9258871  88.4605142  81.6925045 102.8574279  88.1663902
  82.5495764 103.4030816  89.2886967  76.4224912 104.4017009  80.0988541
  76.3024537 104.8474060  80.9374021  75.7277500 104.7502327  79.5402079
  70.0132316 106.5023401  87.6488198  70.1424698 106.7557880  88.5627609
  69.3329768 107.0951109  87.3292853  74.1831804 117.1720651  83.7478672
  74.1055833 118.1228476  83.8267152  73.5793447 116.8266523  84.4053598
  76.6749034 104.3448516  96.4040039  75.8982368 104.9042436  96.3942903
  77.3139597 104.8305299  96.9254909  84.4669814 101.1275309  90.2383015
  83.8244194 101.4207842  89.5922810  83.9624743 101.0128229  91.0436212
  82.1209978 104.8738482  80.9268875  83.0327834 105.1065869  80.7516572
  81.6119625 105.4575526  80.3643953  74.9295406 107.1533970  95.9658006
  75.6710090 107.6919014  95.6892829  74.2232391 107.7800258  96.1229558
  80.4050745 109.2963110  94.5630167  80.8134102 108.8545521  93.8184800
  79.6828007 108.7215738  94.8164360  76.7581816 104.2335717  91.9363724
  77.6043011 104.6575130  92.0798373  76.6980453 103.5769341  92.6302287
  80.7279560 109.8564301  88.3182456  80.0988423 110.0210015  87.6158524
  80.3405222 110.2705910  89.0893420  84.6068792 110.7918738  85.6726820
  83.9219830 111.1717640  85.1223853  84.6912641 111.4014065  86.4058768
  79.9081261 101.8940085  93.5944898  79.6642193 102.6482146  93.0579174
  80.1841191 102.2725433  94.4292145  81.8619724 108.4378698  92.2722163
  82.0736619 109.0810457  91.5956545  81.8149472 107.6041014  91.8044094
  79.4645953 101.0496518  89.1758736  78.6030432 101.3477772  89.4675473
  79.4908387 101.2666917  88.2439768  76.2807522 109.5938709  85.5832541
  76.7445868 109.8726412  84.7937164  76.0164320 108.6922153  85.4005632
  73.1731603 109.1410190  88.5212305  73.7432960 109.5697459  87.8829789
  73.7639715 108.8592775  89.2196490  75.2176408 105.7161861  82.3922106
  75.9200451 106.1682905  82.8596033  74.8857037 105.0745680  83.0202000
  73.6656770 104.3073618  96.7673316  73.0355430 104.9889899  97.0008713
  73.5592857 104.1956699  95.8226454  68.9601742 103.9745414  87.6939240
  68.1700796 104.2302942  87.2179351  69.4512989 104.7893752  87.7991281
  82.9765552 111.3150653  90.4444521  83.7982995 110.9130840  90.1627202
  82.9727954 111.2118887  91.3960637  70.9116487 104.3389993  84.6522717
  70.1147651 104.4508687  85.1706212  70.6842080 104.6776645  83.7863607
  76.7422155 110.8634696  92.6005231  76.8066588 111.3255103  93.4363403
  76.0333079 110.2332061  92.7287541  67.2439445 104.2275904  90.1254231
  67.4947483 105.1122914  90.3911807  67.7798993 104.0480506  89.3529323
  91.0671545 107.6589401  86.7929492  90.3135253 107.0896799  86.6373497
  91.2019086 107.6252066  87.7400127  76.4570173 112.5302804  82.4684212
  76.3215847 113.3754339  82.8969059  76.9979985 112.7322081  81.7050145
  72.9437512  98.6094384  99.1298567  72.5504458  98.0560582  99.8046211
  73.7603653  98.9204962  99.5205084  69.9099570 110.0478242  83.0412137
  70.4224091 110.8421492  83.1917701  70.5622283 109.3504532  82.9745738
  71.7194455 113.1643998  85.1234890  71.8961083 114.0861963  84.9355874
  72.5151288 112.8502417  85.5529270  75.8605473 100.0252263  96.7218823
  76.6015187 100.6259416  96.6423286  76.0923396  99.2829900  96.1636866
  71.0046811 105.2108630  94.9997053  70.8900326 104.3093887  95.3004152
  70.1491329 105.4572327  94.6481870  78.0838649 113.1526370  96.5984554
  77.6402503 112.3662749  96.2805458  78.7455863 113.3405521  95.9328444
  72.8425770 114.6822172  91.1245232  73.3933195 114.5539235  90.3522226
  72.0037246 114.9817061  90.7740125  80.1819887 113.4329170  94.6265955
  80.1638362 114.2538051  94.1346224  81.1039807 113.3083245  94.8516096
  76.6392941 110.9473300  95.4689463  77.1721278 110.1861588  95.2388771
  76.1107022 110.6546951  96.2113618  79.8062636  96.0533366  90.9983105
  79.4626906  96.9435007  90.9222216  80.1741599  95.8635023  90.1352690
  67.8748487 108.3766896  83.8171707  68.7123709 108.7863904  83.6005415
  68.0526755 107.4366338  83.7871901  79.7712919 106.0441977  79.5055540
  79.2559542 106.8146581  79.7443928  79.4990227 105.3707113  80.1288602
  77.3560030 100.8891677  84.5640779  76.5001626 100.4998528  84.3846417
  77.7686982 100.9683638  83.7040564  78.8859177  98.4238021  88.9632338
  78.3823972  98.3868156  88.1500144  79.1789783  99.3330763  89.0228995
  75.1302063  98.5076750  87.9698520  75.9955059  98.3119559  87.6104410
  75.1979571  98.2787102  88.8967877  84.7447193 108.7974331  81.4408714
  83.9676636 108.4585491  80.9963876  85.4238674 108.8026955  80.7663679
  79.5599222 103.9169069  81.3315321  79.2549358 104.2315218  82.1825465
  80.5129664 103.9950489  81.3742654  78.0045654 110.0759292  82.9808275
  77.4767016 109.3412052  82.6681513  77.5033157 110.8533968  82.7348244
  82.9838500 108.2708313  88.0975322  82.3262174 108.9607574  88.1855450
  83.7878899 108.6604745  88.4409308  72.7364382 100.7378958  85.3414887
  73.3108133 100.5154140  84.6088080  73.3235364 100.8067653  86.0943488
  81.7943959 106.6252685  86.1479263  82.3075841 107.2582677  86.6500973
  82.4445183 106.0253881  85.7822623  73.0633969 102.7683419  79.3610772
  72.2271281 103.1058106  79.6820047  72.9238738 102.6332399  78.4237909
  75.0387049  97.6120207  84.0689956  74.3851462  97.2969224  83.4446571
  74.9967523  96.9895948  84.7949779  76.1498254 107.8939502  75.9843248
  75.2425316 107.6628756  76.1834397  76.6469286 107.0977122  76.1717230
  79.0566333 116.6037010  78.9039935  78.3828032 116.9068706  79.5124892
  79.4432155 117.4066090  78.5545392  78.2724790 104.1002141  88.3937604
  77.3547351 104.3217088  88.2359292  78.6884933 104.1748451  87.5349311
  79.0559837 105.4993557  83.5240284  79.8031656 106.0114954  83.2147406
  79.3251427 105.1777609  84.3844678  77.3286488 107.9952097  80.5067238
  76.4197707 107.7111130  80.6039708  77.3581571 108.4151176  79.6470545
  82.5605755 111.6058687  84.2758406  82.1068082 110.7649597  84.3323597
  81.9299722 112.2420085  84.6133186  81.5038675 102.5350673  85.5059074
  80.7661431 102.0228059  85.8369316  81.7565448 102.0951054  84.6942350
  81.0038694 113.4435183  85.2108224  81.2961669 114.0040241  84.4920590
  81.5137315 113.7363744  85.9661383  81.6050302  95.3126925  86.1000843
  81.9109179  94.4524288  85.8126758  82.3302907  95.9044545  85.8999837
  67.8974658 105.7157611  84.4882441  67.6999058 105.1226972  83.7633507
  67.3421322 105.4109822  85.2058379  75.8771382 105.6080718  86.6077034
  75.9319991 104.6554554  86.5319510  75.0662584 105.7640157  87.0918332
  77.0262575 109.5360841  77.8455317  76.5882005 108.8196700  77.3860954
  77.7673016 109.7636956  77.2840408  73.8163742 104.2257778  84.3667413
  73.0031607 104.5251948  84.7732605  74.3122736 103.8313466  85.0841895
  75.9672319 114.2215535  86.3001677  75.9248498 114.4476381  85.3710209
  76.8835018 113.9878909  86.4487479  79.4137953 104.6899602  93.1982307
  79.7687341 104.9171075  94.0576772  80.0610084 105.0217979  92.5759562
  85.1435690 107.8118038  83.9031636  85.0053589 108.0019634  82.9752825
  84.7871909 108.5737421  84.3599687  73.3077816 101.7976133  89.9828648
  73.9477196 101.6564892  89.2851611  72.4755347 101.5110646  89.6067250
  85.1705070 109.8794565  88.9142907  85.6041576 109.7869854  89.7625961
  85.8836650 109.8552065  88.2762923  74.0838120 111.0978564  86.0963640
  74.8778719 110.6028884  85.8946215  73.3729813 110.5696427  85.7331346
  78.9032965 113.4796659  90.4476008  78.9569987 114.0487595  91.2153724
  78.0347746 113.6498544  90.0830045  70.3920884 105.2421645  82.1723393
  69.4618472 105.1806101  82.3893355  70.4878356 104.7197598  81.3760034
  70.3106433 101.7676458  84.7601634  70.5713250 102.6821791  84.6510795
  71.1323605 101.3000901  84.9098247  71.7831358 103.1814215  91.9300459
  72.4554411 102.9731577  91.2813108  70.9561145 102.9836301  91.4905691
  86.0320619 109.9218266  91.4475793  86.2256509 110.8264076  91.6935067
  85.9321238 109.4625685  92.2814378  77.6856930  99.8076156  93.9466120
  77.0384845 100.5066106  93.8530596  78.4557945 100.2412300  94.3142368
  81.0935728 110.0725008  97.0216673  80.9421234 109.8435560  96.1046757
  81.0840407 111.0295610  97.0348018  77.8621064 107.6456921  92.0062940
  78.7913124 107.7968081  91.8331907  77.4412094 107.7340942  91.1511586
  76.6609396 111.6707586  89.7761477  76.5220482 111.3026370  90.6487415
  75.8723992 112.1855225  89.6045435  77.2557548 116.7716682  81.1187014
  77.4309304 116.3004725  81.9332636  76.5690336 117.3982448  81.3468274
  78.2114611 111.0489188  87.1650315  77.8764444 111.0089958  88.0607965
  77.7118557 110.3833904  86.6920725  72.1858855 106.4556818  92.6902896
  72.0478653 105.7237057  93.2914435  73.0963779 106.3665718  92.4087084
  81.1473803 108.3945223  77.4387375  80.5302974 107.6692051  77.3420427
  80.6790291 109.1554583  77.0954449  74.8141156 106.1676778  92.1786576
  75.5240775 105.5269970  92.1373194  74.7710464 106.4189672  93.1012757
  82.8027935 113.1044131  95.0993155  82.7440481 112.4203351  94.4323738
  83.2047453 113.8463121  94.6473781  73.5270090 103.1541995  93.9982215
  72.9907447 102.7032734  94.6503812  72.9386798 103.2887904  93.2552680
  71.8218633 119.9206045  87.8926874  72.0615232 120.5524569  88.5705892
  70.9787830 119.5694085  88.1792233  72.9372349 102.6130647  76.5608679
  72.0601815 102.4919448  76.1970926  73.4130102 101.8216725  76.3087568
  82.8045342 111.0683715  93.3307135  81.9172121 110.7309637  93.4533534
  83.3743893 110.3366746  93.5675900  64.4574489 107.4007807  86.6550186
  65.1445529 107.0869537  86.0671201  64.3022618 108.3049171  86.3817437
  69.2609211 102.2898003  91.0835210  69.1767400 101.6823673  90.3485620
  68.4391918 102.7807021  91.0844706  76.3346495 115.7285167  90.2968378
  76.2616667 116.5340139  90.8087682  75.8923888 115.9277133  89.4716399
  76.1236275 114.9656937  83.8071199  75.3403797 115.5078617  83.9009424
  76.8229020 115.4830917  84.2065441  79.4332925 100.7751567  86.4505405
  79.9301625 100.0221529  86.1306475  78.6619907 100.8115883  85.8848614
  87.2862682 106.4791932  88.0923696  87.2752559 107.3616648  87.7217629
  86.4180062 106.1263483  87.8978233  78.7945179 115.6272001  92.4526537
  79.5073151 116.2619466  92.3802438  78.3035207 115.7235867  91.6366538
  80.5162706 109.5323254  84.0243828  79.5818984 109.6524716  83.8548533
  80.6939374 108.6295721  83.7603838  76.0167894 102.9168950  86.1777089
  75.6465681 102.3639990  86.8657995  76.5126986 102.3127083  85.6252089
  83.9035257 105.3740573  84.5593862  84.3695709 106.2068565  84.4854165
  84.3542758 104.9085555  85.2639121  73.8457092 113.3766445  93.2732107
  74.5466552 114.0102928  93.4261502  73.3752207 113.7181176  92.5127747
  81.9711488 111.7184394  81.5580014  82.2471332 111.6040989  82.4673888
  81.1015987 111.3201879  81.5192187  81.8751920  97.7421160  88.5984764
  80.9615000  97.9725387  88.7666971  82.3045021  97.8259604  89.4498796
  81.6458378 105.9311052  91.0984658  80.9929829 106.1786960  90.4437110
  82.0238758 105.1175190  90.7647135  78.6065552 115.9670745  85.2012828
  78.7887947 115.1492401  85.6640580  79.4298538 116.1838438  84.7637718
  78.9407718 114.8938930  82.4627877  79.4695484 114.3831385  81.8498039
  79.2035937 114.5781461  83.3273410  77.6945951 106.6730863  97.5850695
  77.0186588 106.5724993  98.2553070  78.5173585 106.5170077  98.0486692
  69.4424810 112.9102800  90.2063210  70.0278247 112.1646488  90.3391114
  69.2449649 113.2206756  91.0899874  72.2963466 115.9454047  85.2225652
  71.6273841 116.4300175  84.7389692  72.1576335 116.1923268  86.1369031
  64.0342465 105.4808400  88.9267653  64.0726565 104.9471991  89.7204771
  63.5282758 104.9543605  88.3078630  76.4368734 117.9797791  91.8208311
  76.9887042 118.1429412  92.5857396  76.7774928 118.5702228  91.1488336
  71.4133227 100.3272940  92.4230196  71.4774554 101.1887771  92.0107593
  71.3500348  99.7146942  91.6902554  70.8885500 102.3996073  96.0703230
  71.5157539 102.0173150  96.6840754  70.0313419 102.1810275  96.4358922
  67.6651043 104.2072502  82.0021585  67.9604484 103.2983181  81.9488638
  66.7639079 104.1860242  81.6802587  79.5737122 115.9279766  88.8071993
  79.4488261 115.1269506  88.2982938  80.2316213 116.4225960  88.3185963
  71.1945290 102.2828499  87.9849133  70.4731876 102.8964466  87.8456606
  71.9838546 102.8186263  87.9065779  81.6372030 113.7288786  90.4351543
  80.6902365 113.6094137  90.3629870  81.9854803 112.8411284  90.5177804
  73.9971603  99.6182925  94.2589785  74.5206005  99.8645222  95.0216094
  73.7783937 100.4502960  93.8392922  69.3938884 101.8886600  82.1260910
  69.0651591 101.0083979  81.9436016  69.7478255 101.8334268  83.0137299
  78.6418463 113.5241502  86.6355895  78.4943426 112.5958210  86.8163465
  79.4671957 113.5461593  86.1512971  72.5080708 102.1759570  82.4936387
  72.8476780 102.7045491  81.7714996  72.9552828 102.5139976  83.2694954
  82.2452585 114.3470061  87.7220768  83.1699133 114.1412923  87.5845219
  82.0767888 114.0986462  88.6310110  75.2024148 100.5596620  91.9439455
  74.8620969  99.7604433  92.3460135  74.4963155 100.8598331  91.3716289
  75.8540620  97.6445933  90.3966778  76.6766689  97.1706411  90.2745669
  76.0978684  98.4236416  90.8965465  74.4948855 100.6734191  80.6929680
  75.2157217 101.0515444  80.1893397  73.8714159 101.3923068  80.7964658
  78.6379978 101.3779340  81.6288013  78.8543592 102.2603978  81.3276841
  78.1574045 100.9865554  80.8993655  73.3779199 104.3365053  88.2058757
  73.2323780 104.6505356  89.0983039  72.9004403 104.9549954  87.6529656
  75.2375582 101.3267601  88.2539647  75.2237151 100.4308695  87.9171945
  75.9548010 101.3338265  88.8877933  77.0901713 101.7604942  90.2992774
  76.8319490 102.6822012  90.2977105  76.5586753 101.3635376  90.9893238
  82.0347901 114.8655729  83.0782859  82.2084779 114.3002151  82.3256712
  82.5276793 115.6656624  82.8962349  67.8524861 106.8770398  91.1446418
  67.3078329 107.6530206  91.2766693  68.7304211 107.2241202  90.9865540
  74.6412478 100.2081982  83.5227217  74.7628389  99.2798628  83.7218104
  74.3514520 100.2220668  82.6105532  77.5103668  97.8936892  86.6593937
  77.5325365  97.9576225  85.7045916  77.9271727  97.0541401  86.8534443
  87.8887292 107.6292152  84.6973159  88.3318438 106.8799477  84.2992282
  87.0113803 107.6202288  84.3146891  83.0223074 114.1822493  80.1779758
  83.7173978 114.8029186  80.3967072  83.3646224 113.3317844  80.4532136
  68.6390883 106.0040294  94.0376575  67.8972619 106.1522929  94.6241206
  68.3183627 106.2648560  93.1743325  84.9214497 111.6322199  81.7067089
  85.4465821 111.9709471  80.9816409  84.8336849 110.6969214  81.5230223
  76.5834546 115.5456272  93.8356965  76.8921672 115.3005419  94.7079665
  77.3810028 115.7502911  93.3475835  76.6055158 117.6994182  86.0662342
  76.1660148 117.2070561  86.7595198  77.3563275 117.1567150  85.8254417
  69.0847497 113.8905723  86.0686970  69.9105517 113.5909495  85.6885613
  68.7341549 113.1213345  86.5176758  74.0529030 113.2432191  88.1384643
  73.4309039 112.5802896  87.8386871  74.7233897 113.2693323  87.4558291
  67.2856102 111.8092049  87.0275903  66.4488010 111.3814224  86.8459905
  67.2579747 112.0024493  87.9646695  74.1253557 101.7213979  97.7317149
  74.1741713 102.5976102  97.3494919  74.6676071 101.1791372  97.1588793
  84.7306278 109.1147569  94.3251015  84.7804283 108.9497576  95.2666538
  84.6220201 108.2474828  93.9348896  73.6142537 111.7936114  81.6143104
  73.7630657 112.4771579  80.9609777  74.4208980 111.7741204  82.1292560
  82.0210040 105.0978497  95.6410322  82.9219903 104.9584961  95.3494320
  82.0958015 105.2632951  96.5808499  76.3552846 102.4745351  94.4863508
  75.4856155 102.7678917  94.2146097  76.5912326 103.0585796  95.2070772
  86.2324475 111.5344510  94.5693037  85.9409283 111.8974491  95.4056498
  85.6196606 110.8211518  94.3906369  87.4320157 109.0997390  87.0895607
  88.2667049 109.5387194  87.2533167  87.5679286 108.6236043  86.2703853
  84.4811663 106.6577125  93.0373095  84.9565785 106.8504771  92.2291946
  83.5577228 106.7136311  92.7916478  71.3695170 107.8201292  82.6204173
  71.1241212 106.9163622  82.8184383  71.5391084 107.8218442  81.6783651
  79.0591880  98.6924968  92.0028928  79.5773823  99.4285995  91.6775417
  78.7047012  98.9988962  92.8375688  70.6390817 103.5529650  80.1190334
  69.9460062 103.6274004  79.4630370  70.3942569 102.7889993  80.6411851
  79.3104474  95.1125251  87.5229825  79.5906227  94.4448440  88.1490252
  80.0955081  95.3054346  87.0104489  77.1137942 114.2884245  79.0854851
  76.5411909 114.9074432  78.6325323  77.6870736 114.8383606  79.6194773
  83.1813332 103.5342885  91.2701400  84.1330755 103.6340983  91.2913624
  83.0116782 102.7421153  91.7799485  81.2027712 100.6198468  91.4560801
  80.6077644 100.9003481  90.7607290  80.9177408 101.1092369  92.2277542
  80.3335202 114.5721395  80.2163434  81.2665875 114.5066957  80.4196309
  80.2458415 115.4077662  79.7577966  82.9623219 113.8887265  77.1767381
  82.8836850 113.5547129  78.0703139  83.7832885 114.3809033  77.1758854
  85.6601410 106.7549005  90.3843700  85.6277730 105.8165005  90.5703384
  86.2702034 106.8333041  89.6509525  77.4984741 105.6245058  76.4270904
  78.4443845 105.4951266  76.4959322  77.1198986 104.8859719  76.9040332
  85.8095898 103.5460048  90.4301983  85.2934947 102.7618505  90.2431912
  86.6935847 103.2178765  90.5948502  83.4706625  97.2901064  86.3897796
  83.2731446  96.9816152  87.2741128  84.0806331  98.0162702  86.5195726
  91.4777960 107.8165011  89.5249737  92.2081348 107.5550299  90.0857440
  90.8684905 107.0793733  89.5651805  89.5593257 105.9572874  90.1224188
  88.8326420 105.8228839  89.5140679  89.1440544 106.2649703  90.9280906
  77.3823433 109.6762804  97.8871561  78.3026443 109.8541403  98.0811607
  77.3473016 108.7318849  97.7351260  75.6827658 103.5495034  76.3625789
  74.7759113 103.2528147  76.4388503  75.9603639 103.2524852  75.4960075
  66.6005598 104.8701397  86.8124835  66.2808383 104.0166705  86.5199209
  66.0539026 105.0849975  87.5682803  70.3785506 107.5863838  90.5294342
  70.5971516 108.5180946  90.5482376  70.7911280 107.2271813  91.3149146
  77.2989724  98.0931924  82.5170030  76.4890452  97.7479009  82.8925276
  77.9874141  97.7839467  83.1057642  79.2280272  97.1709970  84.1394327
  79.7811310  97.5905424  84.7984350  79.4650358  96.2445719  84.1817283
  75.2513371 103.1597044  99.9197091  75.1510098 104.1091401  99.8509182
  75.0334913 102.8315283  99.0473161  74.4526442 100.4081969  76.5037768
  75.3145606 100.7336867  76.7633586  74.6376787  99.6213465  75.9910834
  66.4693858 108.4904309  88.7817957  65.7757330 108.0758262  88.2687911
  67.2166849 108.5324845  88.1851376  82.6059079  99.2810496  83.6472991
  82.0257748  99.9395300  83.2651044  82.3395012  98.4587840  83.2360409
  81.0562645  98.6815553  85.8494312  81.5562424  98.7932088  85.0408630
  81.6998253  98.3776606  86.4895120  75.1144641 106.5894183  98.7362153
  74.6311723 107.3894543  98.9426042  75.2005580 106.6002128  97.7829597
  68.3830601 108.4222563  86.6583972  68.3601289 108.5210250  85.7065855
  68.6931237 109.2687713  86.9801138  71.0417979 110.4798718  90.7730586
  71.9961232 110.4482660  90.7060518  70.8430502 110.0189341  91.5880812
  71.6317361 109.0499834  93.3401384  72.4510250 109.5443912  93.3636221
  71.9054168 108.1331802  93.3118952  81.3883957 101.4410586  82.7029340
  80.5009812 101.7260237  82.4849534  81.8037946 101.2804349  81.8556616
  84.7398493 101.4657107  86.4183679  85.5158883 101.9553559  86.6908296
  84.0146627 101.8915161  86.8755548  87.1771052 102.1784726  87.4757619
  87.7715543 101.9380462  86.7650928  87.2497635 101.4591857  88.1031156
  69.3968207 116.0218337  87.7900784  69.2622675 115.2618738  87.2238782
  68.9800270 116.7459237  87.3229573  80.5327170 111.2055261  76.7977360
  81.2363021 111.4105263  77.4135015  79.8089819 111.7732023  77.0626443
  81.3624981 106.9565122  82.9179630  81.3060182 107.4133673  82.0787262
  81.9153323 106.1955806  82.7402472  85.1729787 102.7454854  83.7429749
  84.9166721 102.3451489  84.5737957  84.5482655 103.4598648  83.6179888
  89.4842124 105.4850927  86.2501041  88.9241682 105.5544116  87.0232603
  88.8785628 105.3091912  85.5300537  72.5537333 116.9187654  88.0019227
  72.4369717 117.8633087  87.8997917  71.7329780 116.6161216  88.3905026
  82.4413868 111.6437790  78.8475820  83.2759472 111.2118988  78.6653294
  82.2798211 111.4719804  79.7752714  82.0959760 108.1469903  80.2132159
  82.0408564 107.9814175  79.2720603  81.4705815 108.8545936  80.3694349
  66.8852275 103.3837968  94.0393581  67.5311139 102.8736921  94.5280806
  66.6769426 104.1206649  94.6137006  75.4055886  97.6478012  79.7917477
  75.3934555  98.5919852  79.9485748  76.2979307  97.4648158  79.4976938
  73.5791847 117.5715916  91.2175155  74.4819094 117.6039526  91.5341650
  73.3529218 116.6416367  91.2321491  75.3345449 116.3246903  87.8785234
  74.3841080 116.3248764  87.7649606  75.6377936 115.5779637  87.3621269
  79.2208005  94.2420789  84.0463414  78.4540401  93.6879275  84.1920096
  79.6318710  94.3142658  84.9077566  71.2249766 100.5305585  98.1368595
  72.0881228 100.1742389  98.3471920  70.6515177 100.1919479  98.8244000
  83.7374665 123.9670345  84.8689412  83.1739530 123.8760282  84.1005700
  83.6227060 123.1470250  85.3491904  81.2839097 125.4621537  87.7073632
  82.0760389 125.1212362  87.2919932  81.5235747 125.5716512  88.6275786
  83.2429851 124.7230450  80.5791011  84.0160727 124.1759437  80.4403887
  83.5955250 125.5874700  80.7905473  85.5796129 120.8823116  78.2109461
  85.8321649 120.3604638  77.4492924  84.6420688 120.7189262  78.3136145
  90.6239411 119.8858895  86.0184204  91.4102501 119.4678318  85.6674621
  90.8878116 120.7904987  86.1865853  85.2992417 122.7851222  80.4133836
  85.1828675 122.1096126  81.0814920  85.4094677 122.2983596  79.5965989
  87.6423958 122.2461369  84.1180525  87.2782166 121.7191990  84.8293447
  88.4991074 121.8559839  83.9447011  87.2829445 117.2751269  79.1141874
  87.4503848 118.1431506  79.4812345  87.0926614 117.4378551  78.1903163
  83.4917260 122.1882045  86.8144409  82.5667756 122.0558259  87.0222100
  83.7401673 122.9676264  87.3114351  87.2618666 119.7308927  80.0988541
  87.1418291 120.1765977  80.9374021  86.5671255 120.0794244  79.5402079
  80.8526071 121.8315318  87.6488198  80.9818452 122.0849797  88.5627609
  80.1723522 122.4243026  87.3292853  92.9603732 120.2030400  80.9268875
  93.8721588 120.4357787  80.7516572  92.4513379 120.7867444  80.3643953
  90.3039707 116.3788436  89.1758736  89.4424186 116.6769689  89.4675473
  90.3302142 116.5958835  88.2439768  87.1201276 124.9230626  85.5832541
  87.5839622 125.2018329  84.7937164  86.8558075 124.0214071  85.4005632
  86.0570163 121.0453779  82.3922106  86.7594206 121.4974822  82.8596033
  85.7250791 120.4037598  83.0202000  79.7995496 119.3037331  87.6939240
  79.0094550 119.5594860  87.2179351  80.2906744 120.1185669  87.7991281
  81.7510242 119.6681911  84.6522717  80.9541405 119.7800605  85.1706212
  81.5235834 120.0068563  83.7863607  78.0833199 119.5567822  90.1254231
  78.3341238 120.4414832  90.3911807  78.6192748 119.3772423  89.3529323
  80.7493325 125.3770159  83.0412137  81.2617845 126.1713410  83.1917701
  81.4016037 124.6796450  82.9745738  82.5588209 128.4935916  85.1234890
  82.7354838 129.4153880  84.9355874  83.3545043 128.1794335  85.5529270
  90.6456391 111.3825283  90.9983105  90.3020660 112.2726925  90.9222216
  91.0135353 111.1926941  90.1352690  78.7142241 123.7058814  83.8171707
  79.5517463 124.1155822  83.6005415  78.8920509 122.7658256  83.7871901
  90.6106673 121.3733894  79.5055540  90.0953297 122.1438499  79.7443928
  90.3383982 120.6999031  80.1288602  88.1953784 116.2183595  84.5640779
  87.3395381 115.8290446  84.3846417  88.6080736 116.2975556  83.7040564
  89.7252931 113.7529938  88.9632338  89.2217727 113.7160074  88.1500144
  90.0183538 114.6622681  89.0228995  85.9695817 113.8368668  87.9698520
  86.8348814 113.6411477  87.6104410  86.0373326 113.6079020  88.8967877
  90.3992977 119.2460986  81.3315321  90.0943112 119.5607136  82.1825465
  91.3523419 119.3242406  81.3742654  88.8439408 125.4051210  82.9808275
  88.3160770 124.6703969  82.6681513  88.3426911 126.1825886  82.7348244
  83.5758136 116.0670876  85.3414887  84.1501888 115.8446058  84.6088080
  84.1629119 116.1359571  86.0943488  83.9027723 118.0975337  79.3610772
  83.0665035 118.4350024  79.6820047  83.7632493 117.9624317  78.4237909
  85.8780804 112.9412125  84.0689956  85.2245216 112.6261142  83.4446571
  85.8361278 112.3187865  84.7949779  86.9892009 123.2231420  75.9843248
  86.0819070 122.9920674  76.1834397  87.4863041 122.4269039  76.1717230
  89.1118544 119.4294059  88.3937604  88.1941106 119.6509006  88.2359292
  89.5278688 119.5040369  87.5349311  89.8953592 120.8285474  83.5240284
  90.6425411 121.3406871  83.2147406  90.1645181 120.5069527  84.3844678
  88.1680242 123.3244015  80.5067238  87.2591461 123.0403048  80.6039708
  88.1975326 123.7443093  79.6470545  92.3432429 117.8642590  85.5059074
  91.6055186 117.3519977  85.8369316  92.5959203 117.4242972  84.6942350
  92.4444056 110.6418842  86.1000843  92.7502933 109.7816206  85.8126758
  93.1696661 111.2336463  85.8999837  78.7368412 121.0449529  84.4882441
  78.5392812 120.4518890  83.7633507  78.1815076 120.7401739  85.2058379
  86.7165136 120.9372636  86.6077034  86.7713746 119.9846472  86.5319510
  85.9056338 121.0932075  87.0918332  87.8656330 124.8652759  77.8455317
  87.4275760 124.1488618  77.3860954  88.6066771 125.0928873  77.2840408
  84.6557496 119.5549695  84.3667413  83.8425362 119.8543866  84.7732605
  85.1516490 119.1605384  85.0841895  84.1471571 117.1268051  89.9828648
  84.7870950 116.9856810  89.2851611  83.3149101 116.8402564  89.6067250
  84.9231875 126.4270481  86.0963640  85.7172473 125.9320801  85.8946215
  84.2123567 125.8988344  85.7331346  81.2314638 120.5713563  82.1723393
  80.3012226 120.5098018  82.3893355  81.3272110 120.0489516  81.3760034
  81.1500187 117.0968376  84.7601634  81.4107005 118.0113709  84.6510795
  81.9717360 116.6292818  84.9098247  82.6225113 118.5106133  91.9300459
  83.2948166 118.3023495  91.2813108  81.7954899 118.3128219  91.4905691
  91.9867557 123.7237140  77.4387375  91.3696728 122.9983968  77.3420427
  91.5184046 124.4846501  77.0954449  83.7766103 117.9422565  76.5608679
  82.8995570 117.8211365  76.1970926  84.2523856 117.1508643  76.3087568
  75.2968244 122.7299724  86.6550186  75.9839283 122.4161454  86.0671201
  75.1416372 123.6341089  86.3817437  80.1002966 117.6189921  91.0835210
  80.0161154 117.0115590  90.3485620  79.2785672 118.1098939  91.0844706
  90.2726680 116.1043484  86.4505405  90.7695379 115.3513447  86.1306475
  89.5013661 116.1407801  85.8848614  91.3556460 124.8615172  84.0243828
  90.4212739 124.9816634  83.8548533  91.5333129 123.9587638  83.7603838
  86.8561648 118.2460867  86.1777089  86.4859436 117.6931908  86.8657995
  87.3520741 117.6419001  85.6252089  94.7429012 120.7032491  84.5593862
  95.2089464 121.5360482  84.4854165  95.1936512 120.2377472  85.2639121
  92.7145674 113.0713078  88.5984764  91.8008754 113.3017305  88.7666971
  93.1438776 113.1551522  89.4498796  74.8736220 120.8100318  88.9267653
  74.9120319 120.2763908  89.7204771  74.3676512 120.2835523  88.3078630
  82.2526982 115.6564858  92.4230196  82.3168308 116.5179689  92.0107593
  82.1894102 115.0438860  91.6902554  78.5044797 119.5364420  82.0021585
  78.7998238 118.6275098  81.9488638  77.6032833 119.5152159  81.6802587
  82.0339044 117.6120416  87.9849133  81.3125630 118.2256384  87.8456606
  82.8232300 118.1478181  87.9065779  80.2332639 117.2178517  82.1260910
  79.9045345 116.3375896  81.9436016  80.5872010 117.1626186  83.0137299
  83.3474462 117.5051487  82.4936387  83.6870535 118.0337408  81.7714996
  83.7946582 117.8431893  83.2694954  86.0417903 115.8888538  91.9439455
  85.7014723 115.0896351  92.3460135  85.3356909 116.1890249  91.3716289
  86.6934375 112.9737850  90.3966778  87.5160444 112.4998329  90.2745669
  86.9372438 113.7528334  90.8965465  85.3342609 116.0026109  80.6929680
  86.0550972 116.3807362  80.1893397  84.7107913 116.7214986  80.7964658
  89.4773732 116.7071258  81.6288013  89.6937346 117.5895896  81.3276841
  88.9967799 116.3157471  80.8993655  84.2172953 119.6656971  88.2058757
  84.0717534 119.9797274  89.0983039  83.7398157 120.2841871  87.6529656
  86.0769336 116.6559519  88.2539647  86.0630905 115.7600612  87.9171945
  86.7941764 116.6630183  88.8877933  87.9295467 117.0896859  90.2992774
  87.6713245 118.0113930  90.2977105  87.3980507 116.6927294  90.9893238
  78.6918616 122.2062315  91.1446418  78.1472084 122.9822123  91.2766693
  79.5697965 122.5533120  90.9865540  85.4806232 115.5373899  83.5227217
  85.6022143 114.6090545  83.7218104  85.1908275 115.5512585  82.6105532
  88.3497423 113.2228810  86.6593937  88.3719119 113.2868143  85.7045916
  88.7665482 112.3833318  86.8534443  79.9241251 129.2197640  86.0686970
  80.7499271 128.9201412  85.6885613  79.5735303 128.4505263  86.5176758
  78.1249856 127.1383967  87.0275903  77.2881764 126.7106141  86.8459905
  78.0973502 127.3316410  87.9646695  84.4536291 127.1228032  81.6143104
  84.6024412 127.8063496  80.9609777  85.2602735 127.1033122  82.1292560
  82.2088924 123.1493210  82.6204173  81.9634966 122.2455540  82.8184383
  82.3784839 123.1510360  81.6783651  81.4784572 118.8821567  80.1190334
  80.7853817 118.9565922  79.4630370  81.2336324 118.1181911  80.6411851
  90.1498228 110.4417169  87.5229825  90.4299982 109.7740358  88.1490252
  90.9348835 110.6346264  87.0104489  88.3378495 120.9536975  76.4270904
  89.2837600 120.8243183  76.4959322  87.9592740 120.2151637  76.9040332
  94.3100380 112.6192981  86.3897796  94.1125201 112.3108069  87.2741128
  94.9200085 113.3454620  86.5195726  86.5221412 118.8786952  76.3625789
  85.6152868 118.5820064  76.4388503  86.7997393 118.5816770  75.4960075
  77.4399353 120.1993315  86.8124835  77.1202137 119.3458623  86.5199209
  76.8932781 120.4141893  87.5682803  88.1383478 113.4223841  82.5170030
  87.3284206 113.0770926  82.8925276  88.8267895 113.1131385  83.1057642
  90.0674026 112.5001888  84.1394327  90.6205065 112.9197342  84.7984350
  90.3044113 111.5737636  84.1817283  85.2920197 115.7373887  76.5037768
  86.1539361 116.0628785  76.7633586  85.4770541 114.9505383  75.9910834
  77.3087613 123.8196226  88.7817957  76.6151084 123.4050179  88.2687911
  78.0560604 123.8616763  88.1851376  93.4452833 114.6102413  83.6472991
  92.8651503 115.2687217  83.2651044  93.1788766 113.7879758  83.2360409
  91.8956400 114.0107471  85.8494312  92.3956178 114.1224005  85.0408630
  92.5392008 113.7068524  86.4895120  79.2224355 123.7514480  86.6583972
  79.1995043 123.8502168  85.7065855  79.5324992 124.5979631  86.9801138
  92.2277711 116.7702504  82.7029340  91.3403567 117.0552154  82.4849534
  92.6431701 116.6096267  81.8556616  95.5792248 116.7949025  86.4183679
  96.3552638 117.2845477  86.6908296  94.8540382 117.2207079  86.8755548
  92.2018735 122.2857040  82.9179630  92.1453937 122.7425591  82.0787262
  92.7547078 121.5247724  82.7402472  96.0123541 118.0746771  83.7429749
  95.7560475 117.6743407  84.5737957  95.3876409 118.7890565  83.6179888
  92.9353515 123.4761821  80.2132159  92.8802318 123.3106092  79.2720603
  92.3099570 124.1837854  80.3694349  77.7246030 118.7129885  94.0393581
  78.3704893 118.2028839  94.5280806  77.5163181 119.4498567  94.6137006
  86.2449640 112.9769930  79.7917477  86.2328310 113.9211770  79.9485748
  87.1373062 112.7940075  79.4976938  90.0601759 109.5712706  84.0463414
  89.2934155 109.0171193  84.1920096  90.4712464 109.6434575  84.9077566
  26.0335617   7.1918057  75.6676303  26.6714027   7.0724805  74.9639643
  25.9156460   8.1398901  75.7264255  22.8425324   7.1445486  75.6037828
  22.5043835   7.0286550  74.7158363  23.7115092   6.7436651  75.5838834
  18.7012139   8.9980962  71.5934719  18.1377004   8.9070899  70.8251006
  18.5864534   8.1780866  72.0737211  23.3245107   8.2980337  81.5624033
  23.3133747   7.9033136  80.6904537  23.4865746   7.5646410  82.1557805
  16.2476571  10.4932154  74.4318939  17.0397863  10.1522978  74.0165238
  16.4873221  10.6027129  75.3521092  24.2811698  12.6651930  66.9049184
  23.6299678  13.2506010  66.5183197  25.0756061  13.1958125  66.9644221
  18.2067325   9.7541067  67.3036318  18.9798201   9.2070054  67.1649194
  18.5592724  10.6185316  67.5150779  20.0452368  11.0817449  80.5103217
  19.7542234  11.9863080  80.3949883  20.6809352  11.1233977  81.2247287
  20.9708575   8.4594298  77.1004577  21.5672147   8.2350320  76.3861540
  21.0283546   7.7179043  77.7030025  20.5433603   5.9133733  64.9354768
  20.7959124   5.3915254  64.1738231  19.6058162   5.7499878  65.0381451
  25.5876886   4.9169511  72.7429511  26.3739975   4.4988934  72.3919928
  25.8515590   5.8215604  72.9111159  25.7586963  10.3542362  67.4418168
  25.1232796  10.4276988  68.1539072  25.4284370  10.9435960  66.7637247
  30.9885313   4.8544745  73.6462490  31.7210485   4.2843961  73.8800319
  30.2324669   4.4666345  74.0868995  20.2629892   7.8161839  67.1379143
  20.1466150   7.1406742  67.8060227  20.3732152   7.3294213  66.3211296
  22.6061433   7.2771986  70.8425832  22.2419640   6.7502607  71.5538753
  23.4628549   6.8870455  70.6692317  25.0042253  10.7678865  77.5053011
  24.7042976  11.6703903  77.3968818  24.6593312  10.5011048  78.3574164
  18.4554734   7.2192661  73.5389715  17.5305231   7.0868876  73.7467407
  18.7039147   7.9986881  74.0359658  28.4039397   3.2861405  75.1850448
  27.4956274   3.2176813  74.8909209  28.3526992   3.7633350  76.0132274
  22.2256140   4.7619543  66.8233847  22.1055766   5.2076594  67.6619328
  21.5308729   5.1104861  66.2647385  19.9863033  17.5323185  70.4723979
  19.9087062  18.4831010  70.5512459  19.3824676  17.1869057  71.1298905
  22.4780262   4.7051050  83.1285345  21.7013596   5.2644971  83.1188210
  23.1170825   5.1907833  83.6500216  30.2701043   1.4877843  76.9628322
  29.6275423   1.7810376  76.3168117  29.7655971   1.3730764  77.7681519
  27.9241207   5.2341016  67.6514181  28.8359063   5.4668403  67.4761879
  27.4150854   5.8178061  67.0889260  20.7326635   7.5136504  82.6903312
  21.4741319   8.0521548  82.4138136  20.0263620   8.1402793  82.8474864
  26.2081974   9.6565644  81.2875474  26.6165330   9.2148055  80.5430106
  25.4859236   9.0818272  81.5409667  22.5613044   4.5938251  78.6609031
  23.4074240   5.0177665  78.8043680  22.5011682   3.9371875  79.3547594
  26.5310789  10.2166835  75.0427763  25.9019651  10.3812549  74.3403831
  26.1436451  10.6308444  75.8138727  30.4100021  11.1521273  72.3972127
  29.7251059  11.5320174  71.8469160  30.4943870  11.7616599  73.1304074
  25.7112490   2.2542619  80.3190205  25.4673422   3.0084680  79.7824480
  25.9872420   2.6327967  81.1537452  27.6650952   8.7981232  78.9967470
  27.8767848   9.4412992  78.3201851  27.6180701   7.9643548  78.5289400
  25.2677181   1.4099052  75.9004042  24.4061660   1.7080306  76.1920780
  25.2939616   1.6269451  74.9685075  22.0838751   9.9541243  72.3077848
  22.5477096  10.2328946  71.5182470  21.8195549   9.0524688  72.1250939
  18.9762832   9.5012724  75.2457611  19.5464189   9.9299993  74.6075096
  19.5670944   9.2195309  75.9441797  21.0207637   6.0764395  69.1167413
  21.7231680   6.5285439  69.5841339  20.6888265   5.4348214  69.7447306
  28.7796780  11.6753187  77.1689827  29.6014224  11.2733374  76.8872509
  28.7759183  11.5721421  78.1205943  22.5453384  11.2237230  79.3250538
  22.6097816  11.6857638  80.1608710  21.8364308  10.5934595  79.4532848
  36.8702773   8.0191936  73.5174799  36.1166482   7.4499334  73.3618803
  37.0050315   7.9854600  74.4645434  22.2601401  12.8905338  69.1929518
  22.1247076  13.7356874  69.6214366  22.8011214  13.0924616  68.4295452
  15.7130799  10.4080776  69.7657443  16.2255319  11.2024026  69.9163008
  16.3653512   9.7107066  69.6991045  17.5225684  13.5246532  71.8480197
  17.6992312  14.4464497  71.6601180  18.3182517  13.2104951  72.2774576
  23.8869878  13.5128904  83.3229860  23.4433732  12.7265283  83.0050765
  24.5487091  13.7008055  82.6573751  18.6456999  15.0424706  77.8490539
  19.1964424  14.9141769  77.0767533  17.8068475  15.3419595  77.4985432
  25.9851116  13.7931704  81.3511262  25.9669591  14.6140585  80.8591531
  26.9071036  13.6685780  81.5761403  22.4424170  11.3075834  82.1934770
  22.9752507  10.5464122  81.9634078  21.9138251  11.0149486  82.9358924
  25.5744148   6.4044511  66.2300847  25.0590771   7.1749116  66.4689234
  25.3021456   5.7309647  66.8533908  30.5478422   9.1576866  68.1654020
  29.7707865   8.8188025  67.7209182  31.2269903   9.1629489  67.4908985
  25.3630451   4.2771603  68.0560628  25.0580587   4.5917752  68.9070771
  26.3160893   4.3553023  68.0987961  23.8076883  10.4361826  69.7053582
  23.2798244   9.7014586  69.3926819  23.3064386  11.2136503  69.4593550
  28.7869729   8.6310847  74.8220628  28.1293403   9.3210108  74.9100757
  29.5910128   9.0207279  75.1654615  27.5975188   6.9855219  72.8724570
  28.1107069   7.6185211  73.3746280  28.2476411   6.3856415  72.5067930
  21.9529483   8.2542037  62.7088555  21.0456545   8.0231290  62.9079704
  22.4500515   7.4579656  62.8962537  24.8597562  16.9639544  65.6285241
  24.1859261  17.2671241  66.2370199  25.2463384  17.7668624  65.2790698
  24.0756018   4.4604675  75.1182911  23.1578580   4.6819622  74.9604599
  24.4916162   4.5350986  74.2594618  24.8591066   5.8596091  70.2485591
  25.6062885   6.3717488  69.9392713  25.1282656   5.5380143  71.1089984
  23.1317716   8.3554631  67.2312545  22.2228936   8.0713664  67.3285015
  23.1612800   8.7753710  66.3715852  28.3636984  11.9661221  71.0003713
  27.9099311  11.1252131  71.0568903  27.7330951  12.6022619  71.3378493
  27.3069903   2.8953207  72.2304380  26.5692660   2.3830593  72.5614623
  27.5596677   2.4553589  71.4187657  26.8069923  13.8037718  71.9353531
  27.0992897  14.3642775  71.2165896  27.3168544  14.0966279  72.6906690
  21.6802610   5.9683252  73.3322340  21.7351220   5.0157088  73.2564817
  20.8693812   6.1242691  73.8163639  22.8293804   9.8963375  64.5700624
  22.3913234   9.1799234  64.1106261  23.5704245  10.1239490  64.0085715
  21.7703548  14.5818069  73.0246984  21.7279727  14.8078915  72.0955516
  22.6866247  14.3481443  73.1732785  25.2169182   5.0502136  79.9227613
  25.5718570   5.2773609  80.7822079  25.8641313   5.3820513  79.3004869
  30.9466919   8.1720572  70.6276942  30.8084818   8.3622168  69.6998131
  30.5903138   8.9339955  71.0844993  30.9736299  10.2397099  75.6388214
  31.4072805  10.1472388  76.4871268  31.6867879  10.2154600  75.0008230
  19.8869349  11.4581098  72.8208947  20.6809948  10.9631418  72.6191522
  19.1761041  10.9298961  72.4576652  24.7064193  13.8399193  77.1721314
  24.7601216  14.4090130  77.9399030  23.8378975  14.0101078  76.8075352
  31.8351848  10.2820800  78.1721099  32.0287738  11.1866610  78.4180374
  31.7352466   9.8228219  79.0059684  26.8966957  10.4327543  83.7461980
  26.7452463  10.2038094  82.8292063  26.8871636  11.3898144  83.7593325
  23.6652293   8.0059455  78.7308246  24.5944353   8.1570615  78.5577214
  23.2443323   8.0943476  77.8756893  22.4640625  12.0310120  76.5006784
  22.3251711  11.6628904  77.3732722  21.6755221  12.5457759  76.3290742
  23.0588777  17.1319216  67.8432320  23.2340533  16.6607259  68.6577943
  22.3721565  17.7584982  68.0713581  24.0145840  11.4091722  73.8895622
  23.6795673  11.3692492  74.7853272  23.5149786  10.7436438  73.4166032
  17.9890084   6.8159352  79.4148203  17.8509882   6.0839591  80.0159742
  18.8995008   6.7268253  79.1332391  26.9505032   8.7547757  64.1632681
  26.3334202   8.0294585  64.0665734  26.4821520   9.5157117  63.8199756
  20.6172385   6.5279312  78.9031882  21.3272003   5.8872504  78.8618501
  20.5741693   6.7792207  79.8258063  28.6059163  13.4646665  81.8238462
  28.5471710  12.7805885  81.1569045  29.0078682  14.2065655  81.3719088
  17.6249862  20.2808579  74.6172181  17.8646460  20.9127103  75.2951199
  16.7819059  19.9296619  74.9037540  28.6076571  11.4286249  80.0552441
  27.7203350  11.0912171  80.1778840  29.1775122  10.6969280  80.2921207
  22.1377724  16.0887701  77.0213685  22.0647896  16.8942673  77.5332989
  21.6955117  16.2879667  76.1961706  21.9267504  15.3259471  70.5316506
  21.1435026  15.8681152  70.6254731  22.6260249  15.8433451  70.9310747
  25.2364154   1.1354101  73.1750711  25.7332853   0.3824063  72.8551782
  24.4651135   1.1718418  72.6093921  33.0893911   6.8394466  74.8169003
  33.0783788   7.7219182  74.4462936  32.2211291   6.4866017  74.6223540
  24.5976408  15.9874535  79.1771843  25.3104380  16.6222000  79.1047745
  24.1066436  16.0838401  78.3611845  26.3193935   9.8925788  70.7489135
  25.3850213  10.0127251  70.5793839  26.4970603   8.9898255  70.4849145
  29.7066486   5.7343107  71.2839169  30.1726938   6.5671099  71.2099472
  30.1573986   5.2688089  71.9884427  19.6488321  13.7368979  79.9977414
  20.3497781  14.3705462  80.1506808  19.1783436  14.0783710  79.2373053
  27.7742717  12.0786929  68.2825321  28.0502561  11.9643523  69.1919195
  26.9047216  11.6804414  68.2437494  27.4489607   6.2913586  77.8229964
  26.7961057   6.5389494  77.1682417  27.8269987   5.4777725  77.4892442
  24.4096781  16.3273280  71.9258135  24.5919176  15.5094935  72.3885887
  25.2329767  16.5440972  71.4883025  24.7438947  15.2541465  69.1873183
  25.2726713  14.7433919  68.5743345  25.0067166  14.9383995  70.0518716
  23.4977180   7.0333397  84.3096001  22.8217817   6.9327527  84.9798377
  24.3204814   6.8772611  84.7731999  15.2456039  13.2705334  76.9308517
  15.8309476  12.5249022  77.0636421  15.0480878  13.5809291  77.8145181
  18.0994694  16.3056581  71.9470959  17.4305070  16.7902709  71.4634999
  17.9607564  16.5525802  72.8614338  22.2399963  18.3400325  78.5453617
  22.7918271  18.5031946  79.3102703  22.5806157  18.9304763  77.8733642
  27.0910837  13.1661582  84.4002272  27.6350741  13.7791541  83.9057227
  26.5097682  13.7241161  84.9169285  25.3768350  16.2882300  75.5317300
  25.2519490  15.4872040  75.0228245  26.0347441  16.7828494  75.0431270
  27.4403259  14.0891320  77.1596850  26.4933594  13.9696672  77.0875176
  27.7886032  13.2013819  77.2423111  24.4449692  13.8844037  73.3601202
  24.2974654  12.9560744  73.5408772  25.2703186  13.9064127  72.8758277
  28.0483814  14.7072595  74.4466075  28.9730361  14.5015457  74.3090526
  27.8799117  14.4588997  75.3555416  27.8379130  15.2258263  69.8028166
  28.0116008  14.6604685  69.0502019  28.3308021  16.0259158  69.6207656
  33.6918521   7.9894686  71.4218466  34.1349667   7.2402011  71.0237589
  32.8145032   7.9804822  71.0392198  28.8254303  14.5425027  66.9025064
  29.5205207  15.1631720  67.1212379  29.1677453  13.6920378  67.1777442
  30.7245726  11.9924733  68.4312395  31.2497050  12.3312006  67.7061715
  30.6368078  11.0571748  68.2475530  22.3865774  15.9058806  80.5602272
  22.6952901  15.6607953  81.4324971  23.1841256  16.1105445  80.0721142
  22.4086386  18.0596716  72.7907648  21.9691377  17.5673095  73.4840505
  23.1594503  17.5169684  72.5499724  14.8878725  14.2508257  72.7932276
  15.7136745  13.9512029  72.4130920  14.5372777  13.4815879  73.2422065
  19.8560259  13.6034725  74.8629950  19.2340268  12.9405430  74.5632178
  20.5265125  13.6295857  74.1803598  13.0887330  12.1694583  73.7521210
  12.2519239  11.7416758  73.5705211  13.0610976  12.3627027  74.6892001
  30.4139632  12.6257636  83.7363593  29.6235175  12.6081775  83.1968093
  30.1772986  13.1645930  84.4912630  30.5337507   9.4750103  81.0496322
  30.5835512   9.3100110  81.9911844  30.4251430   8.6077362  80.6594202
  19.4173765  12.1538649  68.3388411  19.5661886  12.8374113  67.6855083
  20.2240209  12.1343739  68.8537866  27.8241269   5.4581031  82.3655628
  28.7251132   5.3187496  82.0739626  27.8989244   5.6235486  83.3053806
  32.0355704  11.8947044  81.2938343  31.7440512  12.2577025  82.1301804
  31.4227835  11.1814053  81.1151675  33.2351386   9.4599924  73.8140913
  34.0698277   9.8989728  73.9778474  33.3710515   8.9838577  72.9949159
  30.2842892   7.0179659  79.7618401  30.7597013   7.2107305  78.9537253
  29.3608457   7.0738845  79.5161785  17.1726398   8.1803826  69.3449479
  16.9272440   7.2766156  69.5429690  17.3422313   8.1820977  68.4028957
  22.9169171  14.6486779  65.8100158  22.3443138  15.2676966  65.3570630
  23.4901965  15.1986141  66.3440080  28.9844561   3.8945419  77.9946707
  29.9361984   3.9943517  78.0158931  28.8148011   3.1023688  78.5044791
  27.0058940   0.9801002  78.1806108  26.4108872   1.2606015  77.4852596
  26.7208637   1.4694903  78.9522849  26.1366431  14.9323929  66.9408740
  27.0697104  14.8669491  67.1441616  26.0489644  15.7680196  66.4823273
  28.7654447  14.2489799  63.9012688  28.6868079  13.9149663  64.7948446
  29.5864114  14.7411567  63.9004160  31.4632639   7.1151539  77.1089006
  31.4308959   6.1767539  77.2948690  32.0733262   7.1935575  76.3754831
  23.3015970   5.9847592  63.1516210  24.2475074   5.8553800  63.2204629
  22.9230214   5.2462254  63.6285639  31.6127127   3.9062582  77.1547290
  31.0966176   3.1221039  76.9677218  32.4967076   3.5781299  77.3193809
  37.2809189   8.1767546  76.2495043  38.0112577   7.9152834  76.8102747
  36.6716134   7.4396268  76.2897111  35.3624486   6.3175408  76.8469494
  34.6357649   6.1831373  76.2385986  34.9471773   6.6252237  77.6526212
  23.1854662  10.0365338  84.6116867  24.1057672  10.2143937  84.8056914
  23.1504245   9.0921383  84.4596567  16.1816735   7.9466373  77.2539649
  16.4002744   8.8783480  77.2727682  16.5942508   7.5874347  78.0394452
  28.4090308  -0.3586970  70.3718298  27.8288977   0.2997834  69.9896350
  28.1426240  -1.1809626  69.9605715  20.9175870   6.9496717  85.4607459
  20.4342952   7.7497077  85.6671348  21.0036809   6.9604662  84.5074903
  14.1861830   8.7825097  73.3829279  14.1632518   8.8812784  72.4311162
  14.4962466   9.6290248  73.7046445  16.8449207  10.8401252  77.4975893
  17.7992461  10.8085194  77.4305825  16.6461731  10.3791876  78.3126119
  17.4348590   9.4102368  80.0646691  18.2541479   9.9046447  80.0881528
  17.7085397   8.4934336  80.0364258  27.1915186   1.8013120  69.4274646
  26.3041041   2.0862771  69.2094841  27.6069175   1.6406884  68.5801923
  30.5429722   1.8259641  73.1428985  31.3190112   2.3156094  73.4153602
  29.8177856   2.2517695  73.6000855  32.9802281   2.5387260  74.2002926
  33.5746771   2.2982996  73.4896234  33.0528864   1.8194391  74.8276462
  15.1999436  16.3820871  74.5146091  15.0653904  15.6221272  73.9484089
  14.7831499  17.1061771  74.0474880  26.3358399  11.5657795  63.5222666
  27.0394249  11.7707797  64.1380322  25.6121048  12.1334557  63.7871750
  27.1656210   7.3167656  69.6424936  27.1091411   7.7736208  68.8032569
  27.7184552   6.5558341  69.4647779  30.9761015   3.1057388  70.4675056
  30.7197950   2.7054024  71.2983264  30.3513883   3.8201182  70.3425195
  35.2873353   5.8453461  72.9746347  34.7272911   5.9146651  73.7477909
  34.6816857   5.6694446  72.2545843  18.3568562  17.2790188  74.7264534
  18.2400946  18.2235621  74.6243224  17.5361008  16.9763750  75.1150333
  28.2445097  12.0040324  65.5721126  29.0790701  11.5721523  65.3898601
  28.0829440  11.8322338  66.4998021  27.8990989   8.5072437  66.9377466
  27.8439793   8.3416709  65.9965910  27.2737044   9.2148470  67.0939655
  25.2136896  10.8121349  86.2631028  26.0828056  10.9862001  85.9017663
  24.7343647  11.6315766  86.1406758  19.3823076  17.9318450  77.9420462
  20.2850323  17.9642060  78.2586957  19.1560446  17.0018901  77.9566798
  21.1376678  16.6849437  74.6030541  20.1872309  16.6851298  74.4894913
  21.4409164  15.9382171  74.0866575  36.8729372  22.5209975  75.6676303
  37.5107782  22.4016723  74.9639643  36.7550215  23.4690819  75.7264255
  33.6819078  22.4737403  75.6037828  33.3437590  22.3578468  74.7158363
  34.5508846  22.0728568  75.5838834  29.5405894  24.3272880  71.5934719
  28.9770759  24.2362817  70.8251006  29.4258289  23.5072784  72.0737211
  34.1638861  23.6272255  81.5624033  34.1527502  23.2325053  80.6904537
  34.3259501  22.8938328  82.1557805  27.0870326  25.8224071  74.4318939
  27.8791618  25.4814896  74.0165238  27.3266976  25.9319046  75.3521092
  35.1205452  27.9943847  66.9049184  34.4693432  28.5797928  66.5183197
  35.9149815  28.5250042  66.9644221  29.0461080  25.0832985  67.3036318
  29.8191956  24.5361972  67.1649194  29.3986478  25.9477234  67.5150779
  30.8846122  26.4109367  80.5103217  30.5935988  27.3154998  80.3949883
  31.5203107  26.4525894  81.2247287  31.8102329  23.7886215  77.1004577
  32.4065901  23.5642238  76.3861540  31.8677301  23.0470961  77.7030025
  31.3827357  21.2425651  64.9354768  31.6352878  20.7207172  64.1738231
  30.4451917  21.0791796  65.0381451  36.4270640  20.2461429  72.7429511
  37.2133729  19.8280852  72.3919928  36.6909345  21.1507521  72.9111159
  36.5980718  25.6834279  67.4418168  35.9626551  25.7568906  68.1539072
  36.2678124  26.2727878  66.7637247  41.8279067  20.1836662  73.6462490
  42.5604239  19.6135879  73.8800319  41.0718423  19.7958263  74.0868995
  31.1023646  23.1453757  67.1379143  30.9859904  22.4698660  67.8060227
  31.2125906  22.6586131  66.3211296  33.4455187  22.6063904  70.8425832
  33.0813394  22.0794525  71.5538753  34.3022303  22.2162373  70.6692317
  39.3504488  13.8958236  78.1057098  39.0187813  14.7653647  77.8818313
  38.7550101  13.5794520  78.7851129  33.0860674  17.6353803  65.8387180
  33.2535076  18.5034040  66.2057652  32.8957843  17.7981085  64.9148470
  35.8436007  26.0970782  77.5053011  35.5436730  26.9995821  77.3968818
  35.4987067  25.8302966  78.3574164  29.2948489  22.5484579  73.5389715
  28.3698985  22.4160793  73.7467407  29.5432902  23.3278798  74.0359658
  39.2433151  18.6153322  75.1850448  38.3350028  18.5468731  74.8909209
  39.1920747  19.0925267  76.0132274  33.0649895  20.0911461  66.8233847
  32.9449520  20.5368512  67.6619328  32.3702483  20.4396779  66.2647385
  26.6557300  22.1917853  74.3733504  26.7849681  22.4452332  75.2872916
  25.9754751  22.7845561  74.0538159  30.8256787  32.8615103  70.4723979
  30.7480817  33.8122928  70.5512459  30.2218431  32.5160975  71.1298905
  33.3174017  20.0342968  83.1285345  32.5407351  20.5936888  83.1188210
  33.9564580  20.5199751  83.6500216  41.1094797  16.8169761  76.9628322
  40.4669178  17.1102294  76.3168117  40.6049726  16.7022681  77.7681519
  38.7634961  20.5632934  67.6514181  39.6752817  20.7960321  67.4761879
  38.2544608  21.1469978  67.0889260  31.5720389  22.8428421  82.6903312
  32.3135073  23.3813465  82.4138136  30.8657375  23.4694710  82.8474864
  37.0475729  24.9857562  81.2875474  37.4559085  24.5439972  80.5430106
  36.3252990  24.4110189  81.5409667  33.4006799  19.9230169  78.6609031
  34.2467994  20.3469582  78.8043680  33.3405436  19.2663793  79.3547594
  37.3704543  25.5458753  75.0427763  36.7413406  25.7104467  74.3403831
  36.9830205  25.9600362  75.8138727  41.2493775  26.4813190  72.3972127
  40.5644813  26.8612092  71.8469160  41.3337625  27.0908517  73.1304074
  36.5506244  17.5834537  80.3190205  36.3067176  18.3376598  79.7824480
  36.8266175  17.9619885  81.1537452  38.5044707  24.1273149  78.9967470
  38.7161602  24.7704909  78.3201851  38.4574455  23.2935466  78.5289400
  36.1070936  16.7390970  75.9004042  35.2455415  17.0372224  76.1920780
  36.1333371  16.9561369  74.9685075  32.9232505  25.2833161  72.3077848
  33.3870851  25.5620864  71.5182470  32.6589303  24.3816605  72.1250939
  29.8156586  24.8304642  75.2457611  30.3857943  25.2591911  74.6075096
  30.4064698  24.5487227  75.9441797  31.8601391  21.4056313  69.1167413
  32.5625435  21.8577357  69.5841339  31.5282020  20.7640132  69.7447306
  30.3081753  19.9968070  83.4918622  29.6780413  20.6784350  83.7254019
  30.2017841  19.8851151  82.5471761  25.6026725  19.6639866  74.4184547
  24.8125779  19.9197394  73.9424657  26.0937973  20.4788203  74.5236587
  39.6190535  27.0045105  77.1689827  40.4407979  26.6025292  76.8872509
  39.6152938  26.9013339  78.1205943  27.5541471  20.0284445  71.3768023
  26.7572634  20.1403139  71.8951519  27.3267063  20.3671097  70.5108914
  33.3847138  26.5529148  79.3250538  33.4491571  27.0149555  80.1608710
  32.6758062  25.9226513  79.4532848  23.8864428  19.9170356  76.8499537
  24.1372467  20.8017366  77.1157113  24.4223977  19.7374958  76.0774629
  47.7096528  23.3483853  73.5174799  46.9560236  22.7791251  73.3618803
  47.8444069  23.3146518  74.4645434  33.0995156  28.2197256  69.1929518
  32.9640831  29.0648791  69.6214366  33.6404968  28.4216533  68.4295452
  29.5862496  14.2988835  85.8543873  29.1929441  13.7455034  86.5291518
  30.4028636  14.6099414  86.2450391  26.5524553  25.7372694  69.7657443
  27.0649074  26.5315944  69.9163008  27.2047266  25.0398984  69.6991045
  28.3619438  28.8538450  71.8480197  28.5386066  29.7756415  71.6601180
  29.1576272  28.5396869  72.2774576  32.5030457  15.7146715  83.4464130
  33.2440170  16.3153868  83.3668593  32.7348379  14.9724352  82.8882173
  27.6471795  20.9003082  81.7242360  27.5325310  19.9988339  82.0249459
  26.7916312  21.1466779  81.3727176  34.7263632  28.8420822  83.3229860
  34.2827487  28.0557201  83.0050765  35.3880846  29.0299973  82.6573751
  29.4850754  30.3716624  77.8490539  30.0358179  30.2433687  77.0767533
  28.6462229  30.6711513  77.4985432  36.8244870  29.1223622  81.3511262
  36.8063346  29.9432503  80.8591531  37.7464790  28.9977697  81.5761403
  33.2817925  26.6367752  82.1934770  33.8146261  25.8756040  81.9634078
  32.7532006  26.3441403  82.9358924  36.4487620  11.7427817  77.7228412
  36.1051889  12.6329459  77.6467522  36.8166582  11.5529475  76.8597997
  24.5173470  24.0661348  70.5417014  25.3548692  24.4758356  70.3250722
  24.6951738  23.1260790  70.5117208  36.4137902  21.7336429  66.2300847
  35.8984526  22.5041033  66.4689234  36.1415211  21.0601565  66.8533908
  33.9985013  16.5786129  71.2886085  33.1426610  16.1892980  71.1091724
  34.4111965  16.6578090  70.4285871  35.5284160  14.1132473  75.6877645
  35.0248956  14.0762608  74.8745450  35.8214767  15.0225215  75.7474302
  31.7727046  14.1971202  74.6943827  32.6380043  14.0014011  74.3349716
  31.8404555  13.9681554  75.6213183  41.3872176  24.4868783  68.1654020
  40.6101619  24.1479943  67.7209182  42.0663657  24.4921406  67.4908985
  36.2024205  19.6063521  68.0560628  35.8974341  19.9209670  68.9070771
  37.1554648  19.6844941  68.0987961  34.6470637  25.7653744  69.7053582
  34.1191999  25.0306504  69.3926819  34.1458140  26.5428420  69.4593550
  39.6263483  23.9602764  74.8220628  38.9687158  24.6502026  74.9100757
  40.4303883  24.3499196  75.1654615  29.3789365  16.4273410  72.0660194
  29.9533117  16.2048592  71.3333386  29.9660347  16.4962105  72.8188795
  38.4368942  22.3147137  72.8724570  38.9500824  22.9477129  73.3746280
  39.0870166  21.7148333  72.5067930  29.7058952  18.4577871  66.0856079
  28.8696264  18.7952558  66.4065354  29.5663722  18.3226851  65.1483216
  31.6812033  13.3014659  70.7935263  31.0276445  12.9863676  70.1691878
  31.6392507  12.6790400  71.5195086  32.7923237  23.5833954  62.7088555
  31.8850299  23.3523208  62.9079704  33.2894269  22.7871574  62.8962537
  35.6991316  32.2931461  65.6285241  35.0253015  32.5963158  66.2370199
  36.0857138  33.0960542  65.2790698  34.9149773  19.7896593  75.1182911
  33.9972334  20.0111540  74.9604599  35.3309917  19.8642903  74.2594618
  35.6984821  21.1888008  70.2485591  36.4456640  21.7009406  69.9392713
  35.9676410  20.8672061  71.1089984  33.9711471  23.6846549  67.2312545
  33.0622690  23.4005582  67.3285015  34.0006555  24.1045628  66.3715852
  39.2030738  27.2953139  71.0003713  38.7493065  26.4544049  71.0568903
  38.5724705  27.9314537  71.3378493  38.1463658  18.2245125  72.2304380
  37.4086415  17.7122511  72.5614623  38.3990431  17.7845506  71.4187657
  37.6463678  29.1329635  71.9353531  37.9386652  29.6934692  71.2165896
  38.1562298  29.4258196  72.6906690  38.2475285  11.0021377  72.8246149
  38.5534162  10.1418740  72.5372064  38.9727890  11.5938997  72.6245143
  24.5399641  21.4052063  71.2127747  24.3424041  20.8121424  70.4878814
  23.9846305  21.1004273  71.9303686  32.5196365  21.2975170  73.3322340
  32.5744975  20.3449006  73.2564817  31.7087567  21.4534609  73.8163639
  33.6687559  25.2255293  64.5700624  33.2306989  24.5091152  64.1106261
  34.4098000  25.4531408  64.0085715  30.4588725  19.9152229  71.0912719
  29.6456590  20.2146400  71.4977911  30.9547719  19.5207918  71.8087202
  32.6097303  29.9109986  73.0246984  32.5673482  30.1370833  72.0955516
  33.5260002  29.6773361  73.1732785  36.0562937  20.3794054  79.9227613
  36.4112324  20.6065527  80.7822079  36.7035068  20.7112431  79.3004869
  41.7860673  23.5012490  70.6276942  41.6478572  23.6914086  69.6998131
  41.4296892  24.2631873  71.0844993  29.9502800  17.4870585  76.7073954
  30.5902179  17.3459344  76.0096918  29.1180330  17.2005098  76.3312556
  41.8130053  25.5689017  75.6388214  42.2466560  25.4764306  76.4871268
  42.5261634  25.5446517  75.0008230  30.7263104  26.7873015  72.8208947
  31.5203702  26.2923336  72.6191522  30.0154796  26.2590879  72.4576652
  35.5457948  29.1691111  77.1721314  35.5994970  29.7382047  77.9399030
  34.6772729  29.3392996  76.8075352  27.0345867  20.9316097  68.8968699
  26.1043455  20.8700553  69.1138662  27.1303339  20.4092050  68.1005341
  26.9531416  17.4570910  71.4846941  27.2138233  18.3716243  71.3756102
  27.7748588  16.9895353  71.6343554  28.4256341  18.8708667  78.6545766
  29.0979395  18.6626029  78.0058415  27.5986128  18.6730753  78.2150998
  42.6745603  25.6112718  78.1721099  42.8681493  26.5158528  78.4180374
  42.5746221  25.1520137  79.0059684  34.3281913  15.4970608  80.6711427
  33.6809828  16.1960558  80.5775903  35.0982929  15.9306752  81.0387675
  37.7360711  25.7619460  83.7461980  37.5846218  25.5330012  82.8292063
  37.7265391  26.7190062  83.7593325  34.5046048  23.3351373  78.7308246
  35.4338108  23.4862533  78.5577214  34.0837078  23.4235394  77.8756893
  33.3034380  27.3602037  76.5006784  33.1645465  26.9920822  77.3732722
  32.5148976  27.8749677  76.3290742  33.8982531  32.4611134  67.8432320
  34.0734287  31.9899177  68.6577943  33.2115320  33.0876900  68.0713581
  34.8539595  26.7383640  73.8895622  34.5189427  26.6984410  74.7853272
  34.3543540  26.0728356  73.4166032  28.8283839  22.1451270  79.4148203
  28.6903637  21.4131509  80.0159742  29.7388762  22.0560170  79.1332391
  37.7898786  24.0839674  64.1632681  37.1727957  23.3586503  64.0665734
  37.3215275  24.8449035  63.8199756  31.4566139  21.8571229  78.9031882
  32.1665758  21.2164422  78.8618501  31.4135447  22.1084124  79.8258063
  39.4452918  28.7938583  81.8238462  39.3865464  28.1097803  81.1569045
  39.8472436  29.5357573  81.3719088  30.1695073  18.8436447  80.7227522
  29.6332430  18.3927186  81.3749118  29.5811782  18.9782356  79.9797986
  28.4643617  35.6100497  74.6172181  28.7040215  36.2419021  75.2951199
  27.6212813  35.2588537  74.9037540  29.5797332  18.3025099  63.2853986
  28.7026799  18.1813900  62.9216232  30.0555085  17.5111177  63.0332874
  39.4470325  26.7578167  80.0552441  38.5597104  26.4204089  80.1778840
  40.0168876  26.0261198  80.2921207  21.0999472  23.0902258  73.3795493
  21.7870512  22.7763989  72.7916508  20.9447601  23.9943623  73.1062744
  25.9034194  17.9792455  77.8080516  25.8192383  17.3718125  77.0730926
  25.0816901  18.4701473  77.8090013  32.9771479  31.4179619  77.0213685
  32.9041650  32.2234591  77.5332989  32.5348872  31.6171585  76.1961706
  32.7661258  30.6551389  70.5316506  31.9828780  31.1973069  70.6254731
  33.4654003  31.1725369  70.9310747  36.0757908  16.4646019  73.1750711
  36.5726608  15.7115981  72.8551782  35.3044890  16.5010335  72.6093921
  43.9287666  22.1686384  74.8169003  43.9177542  23.0511100  74.4462936
  43.0605045  21.8157935  74.6223540  35.4370162  31.3166453  79.1771843
  36.1498134  31.9513918  79.1047745  34.9460191  31.4130319  78.3611845
  37.1587689  25.2217706  70.7489135  36.2243968  25.3419168  70.5793839
  37.3364358  24.3190173  70.4849145  32.6592877  18.6063402  72.9022396
  32.2890665  18.0534442  73.5903302  33.1551970  18.0021535  72.3497396
  40.5460240  21.0635025  71.2839169  41.0120693  21.8963017  71.2099472
  40.9967741  20.5980007  71.9884427  30.4882076  29.0660897  79.9977414
  31.1891535  29.6997380  80.1506808  30.0177191  29.4075628  79.2373053
  38.6136472  27.4078846  68.2825321  38.8896315  27.2935441  69.1919195
  37.7440970  27.0096331  68.2437494  38.5176903  13.4315612  75.3230070
  37.6039983  13.6619839  75.4912277  38.9470005  13.5154056  76.1744103
  38.2883362  21.6205504  77.8229964  37.6354812  21.8681411  77.1682417
  38.6663742  20.8069642  77.4892442  35.2490536  31.6565197  71.9258135
  35.4312930  30.8386853  72.3885887  36.0723522  31.8732889  71.4883025
  35.5832701  30.5833382  69.1873183  36.1120467  30.0725837  68.5743345
  35.8460921  30.2675913  70.0518716  34.3370935  22.3625315  84.3096001
  33.6611572  22.2619444  84.9798377  35.1598569  22.2064529  84.7731999
  26.0849794  28.5997252  76.9308517  26.6703231  27.8540940  77.0636421
  25.8874632  28.9101208  77.8145181  28.9388449  31.6348499  71.9470959
  28.2698824  32.1194627  71.4634999  28.8001319  31.8817719  72.8614338
  20.6767448  21.1702852  75.6512960  20.7151548  20.6366443  76.4450078
  20.1707741  20.6438057  75.0323937  33.0793718  33.6692243  78.5453617
  33.6312026  33.8323864  79.3102703  33.4199911  34.2596680  77.8733642
  28.0558211  16.0167392  79.1475502  28.1199537  16.8782223  78.7352900
  27.9925331  15.4041394  78.4147861  27.5310483  18.0890525  82.7948536
  28.1582522  17.7067602  83.4086061  26.6738402  17.8704727  83.1604229
  37.9304592  28.4953500  84.4002272  38.4744496  29.1083458  83.9057227
  37.3491437  29.0533078  84.9169285  24.3076026  19.8966954  68.7266891
  24.6029467  18.9877632  68.6733945  23.4064062  19.8754693  68.4047894
  36.2162105  31.6174218  75.5317300  36.0913244  30.8163958  75.0228245
  36.8741196  32.1120411  75.0431270  27.8370273  17.9722951  74.7094440
  27.1156859  18.5858918  74.5701913  28.6263529  18.5080715  74.6311086
  38.2797013  29.4183238  77.1596850  37.3327349  29.2988589  77.0875176
  38.6279786  28.5305736  77.2423111  30.6396587  15.3077377  80.9835092
  31.1630988  15.5539674  81.7461401  30.4208920  16.1397412  80.5638229
  26.0363868  17.5781052  68.8506216  25.7076574  16.6978431  68.6681322
  26.3903238  17.5228720  69.7382606  35.2843447  29.2135954  73.3601202
  35.1368409  28.2852662  73.5408772  36.1096940  29.2356045  72.8758277
  29.1505691  17.8654021  69.2181694  29.4901763  18.3939943  68.4960302
  29.5977811  18.2034428  69.9940261  38.8877568  30.0364513  74.4466075
  39.8124116  29.8307374  74.3090526  38.7192872  29.7880914  75.3555416
  31.8449132  16.2491072  78.6684762  31.5045952  15.4498885  79.0705442
  31.1388138  16.5492783  78.0961595  32.4965603  13.3340385  77.1212085
  33.3191673  12.8600863  76.9990975  32.7403667  14.1130868  77.6210771
  31.1373838  16.3628643  67.4174987  31.8582200  16.7409896  66.9138704
  30.5139142  17.0817520  67.5209965  35.2804961  17.0673792  68.3533319
  35.4968575  17.9498430  68.0522147  34.7999028  16.6760005  67.6238961
  30.0204182  20.0259505  74.9304064  29.8748763  20.3399808  75.8228345
  29.5429386  20.6444406  74.3774962  31.8800565  17.0162053  74.9784953
  31.8662134  16.1203147  74.6417251  32.5972993  17.0232717  75.6123239
  33.7326696  17.4499393  77.0238081  33.4744474  18.3716464  77.0222411
  33.2011736  17.0529828  77.7138545  38.6772885  30.5550181  69.8028166
  38.8509762  29.9896603  69.0502019  39.1701776  31.3551075  69.6207656
  24.4949844  22.5664850  77.8691725  23.9503312  23.3424658  78.0011999
  25.3729194  22.9135654  77.7110846  31.2837461  15.8976434  70.2472523
  31.4053372  14.9693080  70.4463411  30.9939503  15.9115119  69.3350839
  34.1528651  13.5831344  73.3839243  34.1750348  13.6470677  72.4291223
  34.5696710  12.7435853  73.5779749  44.5312276  23.3186603  71.4218466
  44.9743422  22.5693929  71.0237589  43.6538786  23.3096740  71.0392198
  39.6648057  29.8716945  66.9025064  40.3598962  30.4923638  67.1212379
  40.0071207  29.0212296  67.1777442  25.2815866  21.6934746  80.7621882
  24.5397602  21.8417381  81.3486512  24.9608611  21.9543012  79.8988631
  41.5639480  27.3216650  68.4312395  42.0890804  27.6603923  67.7061715
  41.4761833  26.3863666  68.2475530  33.2259529  31.2350724  80.5602272
  33.5346655  30.9899871  81.4324971  34.0235011  31.4397363  80.0721142
  33.2480141  33.3888634  72.7907648  32.8085131  32.8965012  73.4840505
  33.9988258  32.8461601  72.5499724  25.7272480  29.5800175  72.7932276
  26.5530500  29.2803946  72.4130920  25.3766532  28.8107797  73.2422065
  30.6954013  28.9326643  74.8629950  30.0734022  28.2697348  74.5632178
  31.3658880  28.9587775  74.1803598  23.9281085  27.4986501  73.7521210
  23.0912993  27.0708675  73.5705211  23.9004730  27.6918944  74.6892001
  30.7678541  17.4108431  84.4562456  30.8166696  18.2870554  84.0740226
  31.3101055  16.8685824  83.8834099  41.2533386  27.9549554  83.7363593
  40.4628930  27.9373693  83.1968093  41.0166741  28.4937848  84.4912630
  41.3731261  24.8042020  81.0496322  41.4229266  24.6392028  81.9911844
  41.2645185  23.9369280  80.6594202  30.2567520  27.4830566  68.3388411
  30.4055640  28.1666031  67.6855083  31.0633963  27.4635656  68.8537866
  38.6635024  20.7872949  82.3655628  39.5644886  20.6479413  82.0739626
  38.7382998  20.9527403  83.3053806  32.9977829  18.1639803  81.2108815
  32.1281138  18.4573369  80.9391403  33.2337309  18.7480248  81.9316078
  42.8749458  27.2238962  81.2938343  42.5834266  27.5868943  82.1301804
  42.2621589  26.5105970  81.1151675  44.0745140  24.7891842  73.8140913
  44.9092032  25.2281646  73.9778474  44.2104269  24.3130495  72.9949159
  41.1236646  22.3471577  79.7618401  41.5990768  22.5399223  78.9537253
  40.2002212  22.4030762  79.5161785  28.0120153  23.5095744  69.3449479
  27.7666195  22.6058074  69.5429690  28.1816068  23.5112894  68.4028957
  35.7016863  14.3819420  78.7274235  36.2198807  15.1180447  78.4020724
  35.3471996  14.6883413  79.5620994  27.2815800  19.2424101  66.8435641
  26.5885045  19.3168456  66.1875677  27.0367552  18.4784445  67.3657158
  35.9529457  10.8019703  74.2475132  36.2331211  10.1342892  74.8735558
  36.7380064  10.9948798  73.7349796  33.7562926  29.9778697  65.8100158
  33.1836893  30.5968884  65.3570630  34.3295719  30.5278058  66.3440080
  39.8238315  19.2237337  77.9946707  40.7755738  19.3235434  78.0158931
  39.6541766  18.4315605  78.5044791  37.8452695  16.3092920  78.1806108
  37.2502627  16.5897933  77.4852596  37.5602392  16.7986821  78.9522849
  36.9760185  30.2615847  66.9408740  37.9090858  30.1961408  67.1441616
  36.8883398  31.0972114  66.4823273  39.6048202  29.5781717  63.9012688
  39.5261833  29.2441581  64.7948446  40.4257869  30.0703485  63.9004160
  42.3026393  22.4443456  77.1089006  42.2702713  21.5059457  77.2948690
  42.9127017  22.5227493  76.3754831  34.1409724  21.3139509  63.1516210
  35.0868829  21.1845717  63.2204629  33.7623969  20.5754171  63.6285639
  42.4520882  19.2354500  77.1547290  41.9359930  18.4512956  76.9677218
  43.3360830  18.9073216  77.3193809  40.1131609  12.9795515  73.1143102
  39.9156430  12.6710604  73.9986434  40.7231314  13.7057154  73.2441032
  48.1202943  23.5059463  76.2495043  48.8506331  23.2444751  76.8102747
  47.5109888  22.7688185  76.2897111  46.2018240  21.6467326  76.8469494
  45.4751404  21.5123291  76.2385986  45.7865527  21.9544154  77.6526212
  34.0248417  25.3657256  84.6116867  34.9451426  25.5435855  84.8056914
  33.9898000  24.4213301  84.4596567  32.3252641  19.2389486  63.0871096
  31.4184097  18.9422598  63.1633809  32.6028622  18.9419304  62.2205382
  23.2430582  20.5595849  73.5370142  22.9233366  19.7061157  73.2444516
  22.6964010  20.7744427  74.2928109  27.0210489  23.2758290  77.2539649
  27.2396499  24.2075398  77.2727682  27.4336263  22.9166265  78.0394452
  33.9414707  13.7826375  69.2415337  33.1315435  13.4373460  69.6170583
  34.6299124  13.4733919  69.8302949  35.8705255  12.8604422  70.8639634
  36.4236294  13.2799876  71.5229657  36.1075342  11.9340170  70.9062590
  31.8938354  18.8491496  86.6442398  31.7935081  19.7985853  86.5754489
  31.6759896  18.5209735  85.7718468  31.0951426  16.0976421  63.2283075
  31.9570590  16.4231319  63.4878892  31.2801770  15.3107917  62.7156141
  23.1118842  24.1798761  75.5063264  22.4182313  23.7652713  74.9933218
  23.8591833  24.2219297  74.9096683  39.2484062  14.9704947  70.3718298
  38.6682731  15.6289751  69.9896350  38.9819995  14.1482292  69.9605715
  37.6987629  14.3710005  72.5739618  38.1987407  14.4826540  71.7653937
  38.3423237  14.0671058  73.2140427  31.7569624  22.2788635  85.4607459
  31.2736706  23.0788995  85.6671348  31.8430563  22.2896580  84.5074903
  25.0255584  24.1117014  73.3829279  25.0026272  24.2104702  72.4311162
  25.3356221  24.9582165  73.7046445  27.6842962  26.1693169  77.4975893
  28.6386215  26.1377112  77.4305825  27.4855486  25.7083793  78.3126119
  28.2742344  24.7394286  80.0646691  29.0935233  25.2338364  80.0881528
  28.5479152  23.8226254  80.0364258  38.0308940  17.1305038  69.4274646
  37.1434795  17.4154688  69.2094841  38.4462929  16.9698801  68.5801923
  41.3823476  17.1551559  73.1428985  42.1583867  17.6448011  73.4153602
  40.6571611  17.5809613  73.6000855  43.8196035  17.8679178  74.2002926
  44.4140526  17.6274914  73.4896234  43.8922619  17.1486309  74.8276462
  26.0393191  31.7112789  74.5146091  25.9047659  30.9513190  73.9484089
  25.6225253  32.4353689  74.0474880  37.1752154  26.8949713  63.5222666
  37.8788004  27.0999715  64.1380322  36.4514803  27.4626474  63.7871750
  38.0049964  22.6459574  69.6424936  37.9485165  23.1028125  68.8032569
  38.5578306  21.8850258  69.4647779  41.8154770  18.4349306  70.4675056
  41.5591704  18.0345941  71.2983264  41.1907638  19.1493100  70.3425195
  46.1267108  21.1745379  72.9746347  45.5666666  21.2438568  73.7477909
  45.5210611  20.9986364  72.2545843  29.1962317  32.6082106  74.7264534
  29.0794701  33.5527538  74.6243224  28.3754763  32.3055668  75.1150333
  39.0838851  27.3332242  65.5721126  39.9184455  26.9013440  65.3898601
  38.9223194  27.1614255  66.4998021  38.7384743  23.8364355  66.9377466
  38.6833547  23.6708626  65.9965910  38.1130799  24.5440388  67.0939655
  23.5277258  19.0732419  80.7638888  24.1736122  18.5631373  81.2526113
  23.3194409  19.8101101  81.3382313  36.0530651  26.1413267  86.2631028
  36.9221810  26.3153919  85.9017663  35.5737402  26.9607684  86.1406758
  32.0480869  13.3372464  66.5162784  32.0359539  14.2814304  66.6731055
  32.9404291  13.1542609  66.2222245  30.2216831  33.2610368  77.9420462
  31.1244077  33.2933978  78.2586957  29.9954201  32.3310819  77.9566798
  31.9770433  32.0141354  74.6030541  31.0266064  32.0143216  74.4894913
  32.2802919  31.2674089  74.0866575  35.8632988   9.9315241  70.7708721
  35.0965384   9.3773727  70.9165403  36.2743693  10.0037109  71.6322872
  27.8674749  16.2200036  84.8613902  28.7306211  15.8636841  85.0717227
  27.2940160  15.8813931  85.5489306  47.7123126  37.8501893  75.6676303
  48.3501536  37.7308640  74.9639643  47.5943969  38.7982737  75.7264255
  44.5212833  37.8029321  75.6037828  44.1831344  37.6870386  74.7158363
  45.3902601  37.4020486  75.5838834  40.3799648  39.6564797  71.5934719
  39.8164513  39.5654734  70.8251006  40.2652043  38.8364702  72.0737211
  45.0032616  38.9564173  81.5624033  44.9921256  38.5616971  80.6904537
  45.1653255  38.2230245  82.1557805  37.9264080  41.1515989  74.4318939
  38.7185372  40.8106814  74.0165238  38.1660730  41.2610964  75.3521092
  39.8854834  40.4124902  67.3036318  40.6585710  39.8653889  67.1649194
  40.2380233  41.2769152  67.5150779  41.7239877  41.7401284  80.5103217
  41.4329743  42.6446915  80.3949883  42.3596861  41.7817812  81.2247287
  42.6496084  39.1178133  77.1004577  43.2459656  38.8934155  76.3861540
  42.7071055  38.3762878  77.7030025  42.2221112  36.5717568  64.9354768
  42.4746633  36.0499090  64.1738231  41.2845671  36.4083714  65.0381451
  47.2664395  35.5753347  72.7429511  48.0527484  35.1572770  72.3919928
  47.5303099  36.4799439  72.9111159  52.6672822  35.5128580  73.6462490
  53.3997994  34.9427797  73.8800319  51.9112178  35.1250180  74.0868995
  41.9417401  38.4745674  67.1379143  41.8253659  37.7990578  67.8060227
  42.0519661  37.9878048  66.3211296  44.2848942  37.9355821  70.8425832
  43.9207149  37.4086442  71.5538753  45.1416057  37.5454290  70.6692317
  50.1898242  29.2250154  78.1057098  49.8581567  30.0945565  77.8818313
  49.5943856  28.9086438  78.7851129  43.9254429  32.9645721  65.8387180
  44.0928831  33.8325957  66.2057652  43.7351598  33.1273003  64.9148470
  46.6829762  41.4262700  77.5053011  46.3830485  42.3287739  77.3968818
  46.3380821  41.1594883  78.3574164  40.1342243  37.8776497  73.5389715
  39.2092740  37.7452711  73.7467407  40.3826656  38.6570716  74.0359658
  50.0826906  33.9445240  75.1850448  49.1743783  33.8760649  74.8909209
  50.0314501  34.4217185  76.0132274  43.9043649  35.4203379  66.8233847
  43.7843275  35.8660429  67.6619328  43.2096238  35.7688696  66.2647385
  37.4951054  37.5209770  74.3733504  37.6243435  37.7744249  75.2872916
  36.8148506  38.1137478  74.0538159  44.1567771  35.3634886  83.1285345
  43.3801105  35.9228806  83.1188210  44.7958334  35.8491669  83.6500216
  51.9488552  32.1461679  76.9628322  51.3062932  32.4394212  76.3168117
  51.4443480  32.0314599  77.7681519  49.6028716  35.8924852  67.6514181
  50.5146572  36.1252238  67.4761879  49.0938363  36.4761896  67.0889260
  42.4114144  38.1720339  82.6903312  43.1528828  38.7105383  82.4138136
  41.7051129  38.7986628  82.8474864  47.8869483  40.3149480  81.2875474
  48.2952839  39.8731890  80.5430106  47.1646745  39.7402107  81.5409667
  44.2400553  35.2522086  78.6609031  45.0861749  35.6761500  78.8043680
  44.1799191  34.5955711  79.3547594  48.2098298  40.8750670  75.0427763
  47.5807160  41.0396384  74.3403831  47.8223960  41.2892280  75.8138727
  52.0887530  41.8105108  72.3972127  51.4038568  42.1904009  71.8469160
  52.1731379  42.4200435  73.1304074  47.3899999  32.9126455  80.3190205
  47.1460931  33.6668515  79.7824480  47.6659929  33.2911802  81.1537452
  49.3438461  39.4565067  78.9967470  49.5555357  40.0996827  78.3201851
  49.2968210  38.6227384  78.5289400  46.9464690  32.0682888  75.9004042
  46.0849169  32.3664141  76.1920780  46.9727125  32.2853287  74.9685075
  43.7626260  40.6125078  72.3077848  44.2264605  40.8912781  71.5182470
  43.4983058  39.7108523  72.1250939  40.6550341  40.1596560  75.2457611
  41.2251698  40.5883828  74.6075096  41.2458453  39.8779145  75.9441797
  42.6995146  36.7348231  69.1167413  43.4019189  37.1869274  69.5841339
  42.3675774  36.0932050  69.7447306  41.1475507  35.3259987  83.4918622
  40.5174168  36.0076268  83.7254019  41.0411595  35.2143069  82.5471761
  36.4420480  34.9931783  74.4184547  35.6519534  35.2489312  73.9424657
  36.9331727  35.8080121  74.5236587  50.4584289  42.3337022  77.1689827
  51.2801733  41.9317210  76.8872509  50.4546692  42.2305257  78.1205943
  38.3935225  35.3576363  71.3768023  37.5966388  35.4695057  71.8951519
  38.1660817  35.6963015  70.5108914  44.2240893  41.8821066  79.3250538
  44.2885325  42.3441473  80.1608710  43.5151817  41.2518431  79.4532848
  34.7258183  35.2462274  76.8499537  34.9766221  36.1309284  77.1157113
  35.2617731  35.0666875  76.0774629  58.5490282  38.6775771  73.5174799
  57.7953991  38.1083169  73.3618803  58.6837824  38.6438435  74.4645434
  40.4256250  29.6280753  85.8543873  40.0323196  29.0746952  86.5291518
  41.2422390  29.9391332  86.2450391  37.3918308  41.0664611  69.7657443
  37.9042828  41.8607862  69.9163008  38.0441021  40.3690902  69.6991045
  39.2013193  44.1830368  71.8480197  39.3779821  45.1048332  71.6601180
  39.9970026  43.8688787  72.2774576  43.3424211  31.0438632  83.4464130
  44.0833924  31.6445785  83.3668593  43.5742134  30.3016270  82.8882173
  38.4865549  36.2294999  81.7242360  38.3719064  35.3280257  82.0249459
  37.6310067  36.4758696  81.3727176  45.5657387  44.1712740  83.3229860
  45.1221241  43.3849118  83.0050765  46.2274600  44.3591890  82.6573751
  40.3244508  45.7008541  77.8490539  40.8751933  45.5725605  77.0767533
  39.4855984  46.0003430  77.4985432  47.6638625  44.4515540  81.3511262
  47.6457100  45.2724421  80.8591531  48.5858545  44.3269615  81.5761403
  44.1211679  41.9659669  82.1934770  44.6540016  41.2047957  81.9634078
  43.5925760  41.6733321  82.9358924  47.2881374  27.0719735  77.7228412
  46.9445643  27.9621377  77.6467522  47.6560337  26.8821393  76.8597997
  35.3567225  39.3953266  70.5417014  36.1942447  39.8050274  70.3250722
  35.5345492  38.4552708  70.5117208  44.8378768  31.9078047  71.2886085
  43.9820364  31.5184897  71.1091724  45.2505720  31.9870008  70.4285871
  46.3677914  29.4424390  75.6877645  45.8642710  29.4054525  74.8745450
  46.6608521  30.3517133  75.7474302  42.6120800  29.5263120  74.6943827
  43.4773797  29.3305929  74.3349716  42.6798309  29.2973472  75.6213183
  47.0417960  34.9355438  68.0560628  46.7368095  35.2501588  68.9070771
  47.9948402  35.0136858  68.0987961  50.4657238  39.2894682  74.8220628
  49.8080912  39.9793944  74.9100757  51.2697637  39.6791114  75.1654615
  40.2183119  31.7565328  72.0660194  40.7926871  31.5340509  71.3333386
  40.8054102  31.8254022  72.8188795  49.2762697  37.6439055  72.8724570
  49.7894578  38.2769047  73.3746280  49.9263920  37.0440250  72.5067930
  40.5452706  33.7869789  66.0856079  39.7090019  34.1244476  66.4065354
  40.4057476  33.6518769  65.1483216  42.5205787  28.6306577  70.7935263
  41.8670199  28.3155594  70.1691878  42.4786261  28.0082317  71.5195086
  45.7543527  35.1188510  75.1182911  44.8366089  35.3403457  74.9604599
  46.1703671  35.1934821  74.2594618  46.5378575  36.5179926  70.2485591
  47.2850394  37.0301323  69.9392713  46.8070165  36.1963979  71.1089984
  50.0424493  42.6245056  71.0003713  49.5886820  41.7835966  71.0568903
  49.4118460  43.2606455  71.3378493  48.9857412  33.5537042  72.2304380
  48.2480169  33.0414429  72.5614623  49.2384186  33.1137424  71.4187657
  48.4857432  44.4621553  71.9353531  48.7780406  45.0226610  71.2165896
  48.9956053  44.7550114  72.6906690  49.0869040  26.3313294  72.8246149
  49.3927916  25.4710658  72.5372064  49.8121644  26.9230915  72.6245143
  35.3793396  36.7343981  71.2127747  35.1817796  36.1413342  70.4878814
  34.8240060  36.4296191  71.9303686  43.3590119  36.6267087  73.3322340
  43.4138729  35.6740924  73.2564817  42.5481321  36.7826527  73.8163639
  41.2982479  35.2444147  71.0912719  40.4850345  35.5438318  71.4977911
  41.7941474  34.8499836  71.8087202  46.8956691  35.7085972  79.9227613
  47.2506079  35.9357445  80.7822079  47.5428822  36.0404348  79.3004869
  52.6254428  38.8304408  70.6276942  52.4872327  39.0206003  69.6998131
  52.2690647  39.5923790  71.0844993  40.7896554  32.8162503  76.7073954
  41.4295933  32.6751262  76.0096918  39.9574085  32.5297016  76.3312556
  52.6523808  40.8980935  75.6388214  53.0860314  40.8056224  76.4871268
  53.3655388  40.8738435  75.0008230  37.8739621  36.2608015  68.8968699
  36.9437210  36.1992470  69.1138662  37.9697093  35.7383968  68.1005341
  37.7925171  32.7862828  71.4846941  38.0531988  33.7008161  71.3756102
  38.6142343  32.3187270  71.6343554  39.2650096  34.2000585  78.6545766
  39.9373149  33.9917947  78.0058415  38.4379882  34.0022671  78.2150998
  53.5139357  40.9404635  78.1721099  53.7075247  41.8450446  78.4180374
  53.4139975  40.4812054  79.0059684  45.1675668  30.8262526  80.6711427
  44.5203583  31.5252475  80.5775903  45.9376683  31.2598670  81.0387675
  48.5754466  41.0911378  83.7461980  48.4239972  40.8621930  82.8292063
  48.5659145  42.0481979  83.7593325  45.3439802  38.6643291  78.7308246
  46.2731862  38.8154450  78.5577214  44.9230832  38.7527311  77.8756893
  39.6677593  37.4743188  79.4148203  39.5297391  36.7423427  80.0159742
  40.5782517  37.3852088  79.1332391  42.2959894  37.1863147  78.9031882
  43.0059512  36.5456339  78.8618501  42.2529202  37.4376042  79.8258063
  50.2846672  44.1230500  81.8238462  50.2259219  43.4389721  81.1569045
  50.6866191  44.8649490  81.3719088  41.0088828  34.1728365  80.7227522
  40.4726185  33.7219103  81.3749118  40.4205536  34.3074274  79.9797986
  40.4191087  33.6317016  63.2853986  39.5420553  33.5105817  62.9216232
  40.8948840  32.8403095  63.0332874  50.2864080  42.0870084  80.0552441
  49.3990858  41.7496006  80.1778840  50.8562631  41.3553116  80.2921207
  31.9393227  38.4194176  73.3795493  32.6264267  38.1055906  72.7916508
  31.7841356  39.3235541  73.1062744  36.7427949  33.3084373  77.8080516
  36.6586138  32.7010042  77.0730926  35.9210655  33.7993391  77.8090013
  46.9151663  31.7937936  73.1750711  47.4120362  31.0407899  72.8551782
  46.1438644  31.8302253  72.6093921  54.7681420  37.4978302  74.8169003
  54.7571297  38.3803017  74.4462936  53.8998800  37.1449853  74.6223540
  43.4986632  33.9355319  72.9022396  43.1284419  33.3826360  73.5903302
  43.9945724  33.3313453  72.3497396  51.3853995  36.3926943  71.2839169
  51.8514447  37.2254934  71.2099472  51.8361495  35.9271924  71.9884427
  41.3275830  44.3952814  79.9977414  42.0285290  45.0289297  80.1506808
  40.8570945  44.7367546  79.2373053  49.3570658  28.7607530  75.3230070
  48.4433737  28.9911757  75.4912277  49.7863759  28.8445974  76.1744103
  49.1277116  36.9497422  77.8229964  48.4748566  37.1973329  77.1682417
  49.5057496  36.1361560  77.4892442  45.1764689  37.6917233  84.3096001
  44.5005326  37.5911362  84.9798377  45.9992323  37.5356447  84.7731999
  36.9243548  43.9289169  76.9308517  37.5096985  43.1832857  77.0636421
  36.7268387  44.2393126  77.8145181  31.5161203  36.4994770  75.6512960
  31.5545302  35.9658360  76.4450078  31.0101496  35.9729975  75.0323937
  38.8951965  31.3459310  79.1475502  38.9593292  32.2074141  78.7352900
  38.8319086  30.7333312  78.4147861  38.3704238  33.4182443  82.7948536
  38.9976277  33.0359520  83.4086061  37.5132157  33.1996644  83.1604229
  48.7698346  43.8245418  84.4002272  49.3138250  44.4375376  83.9057227
  48.1885191  44.3824996  84.9169285  35.1469781  35.2258872  68.7266891
  35.4423222  34.3169550  68.6733945  34.2457816  35.2046611  68.4047894
  38.6764028  33.3014868  74.7094440  37.9550613  33.9150836  74.5701913
  39.4657283  33.8372633  74.6311086  49.1190768  44.7475156  77.1596850
  48.1721103  44.6280507  77.0875176  49.4673541  43.8597654  77.2423111
  41.4790341  30.6369295  80.9835092  42.0024743  30.8831591  81.7461401
  41.2602674  31.4689330  80.5638229  36.8757622  32.9072969  68.8506216
  36.5470328  32.0270348  68.6681322  37.2296993  32.8520638  69.7382606
  39.9899445  33.1945939  69.2181694  40.3295518  33.7231860  68.4960302
  40.4371566  33.5326345  69.9940261  49.7271323  45.3656431  74.4466075
  50.6517870  45.1599292  74.3090526  49.5586626  45.1172832  75.3555416
  42.6842886  31.5782990  78.6684762  42.3439706  30.7790803  79.0705442
  41.9781892  31.8784701  78.0961595  43.3359358  28.6632302  77.1212085
  44.1585427  28.1892780  76.9990975  43.5797421  29.4422786  77.6210771
  41.9767592  31.6920561  67.4174987  42.6975955  32.0701814  66.9138704
  41.3532897  32.4109438  67.5209965  46.1198715  32.3965710  68.3533319
  46.3362330  33.2790348  68.0522147  45.6392782  32.0051923  67.6238961
  40.8597937  35.3551423  74.9304064  40.7142517  35.6691726  75.8228345
  40.3823140  35.9736323  74.3774962  42.7194320  32.3453971  74.9784953
  42.7055888  31.4495064  74.6417251  43.4366748  32.3524635  75.6123239
  44.5720450  32.7791311  77.0238081  44.3138228  33.7008382  77.0222411
  44.0405491  32.3821746  77.7138545  35.3343599  37.8956767  77.8691725
  34.7897067  38.6716575  78.0011999  36.2122949  38.2427572  77.7110846
  42.1231216  31.2268351  70.2472523  42.2447127  30.2984997  70.4463411
  41.8333258  31.2407037  69.3350839  44.9922406  28.9123262  73.3839243
  45.0144103  28.9762595  72.4291223  45.4090465  28.0727770  73.5779749
  55.3706030  38.6478521  71.4218466  55.8137176  37.8985846  71.0237589
  54.4932541  38.6388658  71.0392198  36.1209621  37.0226664  80.7621882
  35.3791357  37.1709299  81.3486512  35.8002365  37.2834929  79.8988631
  44.0653283  46.5642642  80.5602272  44.3740410  46.3191789  81.4324971
  44.8628765  46.7689280  80.0721142  36.5666234  44.9092092  72.7932276
  37.3924254  44.6095864  72.4130920  36.2160286  44.1399715  73.2422065
  34.7674839  42.8278419  73.7521210  33.9306748  42.4000593  73.5705211
  34.7398485  43.0210862  74.6892001  41.6072295  32.7400349  84.4562456
  41.6560451  33.6162471  84.0740226  42.1494809  32.1977742  83.8834099
  52.0927141  43.2841472  83.7363593  51.3022684  43.2665611  83.1968093
  51.8560495  43.8229765  84.4912630  52.2125016  40.1333938  81.0496322
  52.2623021  39.9683946  81.9911844  52.1038939  39.2661197  80.6594202
  41.0961274  42.8122484  68.3388411  41.2449395  43.4957948  67.6855083
  41.9027718  42.7927574  68.8537866  49.5028778  36.1164866  82.3655628
  50.4038641  35.9771331  82.0739626  49.5776753  36.2819321  83.3053806
  43.8371583  33.4931721  81.2108815  42.9674893  33.7865287  80.9391403
  44.0731064  34.0772166  81.9316078  53.7143213  42.5530880  81.2938343
  53.4228021  42.9160860  82.1301804  53.1015344  41.8397888  81.1151675
  54.9138895  40.1183759  73.8140913  55.7485786  40.5573564  73.9778474
  55.0498024  39.6422413  72.9949159  51.9630401  37.6763494  79.7618401
  52.4384522  37.8691141  78.9537253  51.0395966  37.7322680  79.5161785
  38.8513907  38.8387661  69.3449479  38.6059949  37.9349991  69.5429690
  39.0209822  38.8404812  68.4028957  46.5410617  29.7111338  78.7274235
  47.0592561  30.4472365  78.4020724  46.1865750  30.0175331  79.5620994
  38.1209555  34.5716019  66.8435641  37.4278800  34.6460374  66.1875677
  37.8761307  33.8076363  67.3657158  46.7923211  26.1311620  74.2475132
  47.0724965  25.4634809  74.8735558  47.5773818  26.3240716  73.7349796
  50.6632070  34.5529254  77.9946707  51.6149493  34.6527352  78.0158931
  50.4935520  33.7607523  78.5044791  48.6846449  31.6384838  78.1806108
  48.0896381  31.9189850  77.4852596  48.3996146  32.1278739  78.9522849
  53.1420148  37.7735374  77.1089006  53.1096468  36.8351375  77.2948690
  53.7520771  37.8519411  76.3754831  44.9803478  36.6431427  63.1516210
  45.9262583  36.5137635  63.2204629  44.6017723  35.9046089  63.6285639
  53.2914636  34.5646418  77.1547290  52.7753685  33.7804874  76.9677218
  54.1754585  34.2365134  77.3193809  50.9525363  28.3087433  73.1143102
  50.7550184  28.0002521  73.9986434  51.5625069  29.0349072  73.2441032
  58.9596697  38.8351381  76.2495043  59.6900086  38.5736669  76.8102747
  58.3503643  38.0980103  76.2897111  57.0411995  36.9759244  76.8469494
  56.3145158  36.8415208  76.2385986  56.6259281  37.2836072  77.6526212
  44.8642171  40.6949173  84.6116867  45.7845180  40.8727772  84.8056914
  44.8291754  39.7505219  84.4596567  43.1646396  34.5681403  63.0871096
  42.2577851  34.2714516  63.1633809  43.4422377  34.2711222  62.2205382
  34.0824336  35.8887767  73.5370142  33.7627120  35.0353075  73.2444516
  33.5357764  36.1036345  74.2928109  37.8604244  38.6050208  77.2539649
  38.0790253  39.5367316  77.2727682  38.2730017  38.2458182  78.0394452
  44.7808461  29.1118293  69.2415337  43.9709190  28.7665378  69.6170583
  45.4692878  28.8025837  69.8302949  46.7099010  28.1896340  70.8639634
  47.2630048  28.6091793  71.5229657  46.9469096  27.2632088  70.9062590
  42.7332109  34.1783414  86.6442398  42.6328836  35.1277771  86.5754489
  42.5153651  33.8501653  85.7718468  41.9345180  31.4268339  63.2283075
  42.7964344  31.7523237  63.4878892  42.1195524  30.6399835  62.7156141
  33.9512596  39.5090678  75.5063264  33.2576067  39.0944631  74.9933218
  34.6985587  39.5511215  74.9096683  50.0877817  30.2996865  70.3718298
  49.5076486  30.9581669  69.9896350  49.8213749  29.4774210  69.9605715
  48.5381383  29.7001923  72.5739618  49.0381161  29.8118457  71.7653937
  49.1816991  29.3962976  73.2140427  42.5963379  37.6080552  85.4607459
  42.1130461  38.4080913  85.6671348  42.6824318  37.6188497  84.5074903
  35.8649339  39.4408932  73.3829279  35.8420027  39.5396619  72.4311162
  36.1749975  40.2874083  73.7046445  38.5236716  41.4985087  77.4975893
  39.4779970  41.4669029  77.4305825  38.3249240  41.0375711  78.3126119
  39.1136099  40.0686203  80.0646691  39.9328988  40.5630282  80.0881528
  39.3872906  39.1518171  80.0364258  48.8702695  32.4596956  69.4274646
  47.9828550  32.7446606  69.2094841  49.2856684  32.2990719  68.5801923
  52.2217231  32.4843476  73.1428985  52.9977621  32.9739929  73.4153602
  51.4965365  32.9101531  73.6000855  54.6589790  33.1971096  74.2002926
  55.2534280  32.9566832  73.4896234  54.7316373  32.4778226  74.8276462
  36.8786945  47.0404707  74.5146091  36.7441413  46.2805108  73.9484089
  36.4619007  47.7645607  74.0474880  48.8443719  37.9751491  69.6424936
  48.7878920  38.4320043  68.8032569  49.3972061  37.2142176  69.4647779
  52.6548524  33.7641223  70.4675056  52.3985459  33.3637859  71.2983264
  52.0301392  34.4785017  70.3425195  56.9660862  36.5037297  72.9746347
  56.4060420  36.5730486  73.7477909  56.3604366  36.3278281  72.2545843
  34.3671013  34.4024337  80.7638888  35.0129876  33.8923291  81.2526113
  34.1588164  35.1393019  81.3382313  46.8924405  41.4705185  86.2631028
  47.7615565  41.6445837  85.9017663  46.4131156  42.2899601  86.1406758
  42.8874623  28.6664382  66.5162784  42.8753293  29.6106222  66.6731055
  43.7798045  28.4834527  66.2222245  46.7026743  25.2607158  70.7708721
  45.9359139  24.7065645  70.9165403  47.1137448  25.3329027  71.6322872
  38.7068504  31.5491954  84.8613902  39.5699965  31.1928759  85.0717227
  38.1333914  31.2105849  85.5489306  63.5066576  50.8420498  73.6462490
  64.2391748  50.2719714  73.8800319  62.7505932  50.4542098  74.0868995
  61.0291997  44.5542072  78.1057098  60.6975321  45.4237483  77.8818313
  60.4337610  44.2378356  78.7851129  57.5223516  56.7554618  77.5053011
  57.2224239  57.6579656  77.3968818  57.1774576  56.4886801  78.3574164
  60.9220660  49.2737158  75.1850448  60.0137537  49.2052566  74.8909209
  60.8708256  49.7509103  76.0132274  48.3344809  52.8501688  74.3733504
  48.4637190  53.1036167  75.2872916  47.6542260  53.4429396  74.0538159
  62.7882306  47.4753596  76.9628322  62.1456687  47.7686129  76.3168117
  62.2837235  47.3606517  77.7681519  58.7263238  55.6441397  81.2875474
  59.1346594  55.2023808  80.5430106  58.0040499  55.0694025  81.5409667
  59.0492052  56.2042588  75.0427763  58.4200915  56.3688302  74.3403831
  58.6617714  56.6184197  75.8138727  58.2293753  48.2418372  80.3190205
  57.9854685  48.9960433  79.7824480  58.5053684  48.6203720  81.1537452
  60.1832216  54.7856985  78.9967470  60.3949111  55.4288745  78.3201851
  60.1361964  53.9519301  78.5289400  57.7858445  47.3974805  75.9004042
  56.9242924  47.6956059  76.1920780  57.8120880  47.6145204  74.9685075
  61.2978044  57.6628940  77.1689827  62.1195488  57.2609127  76.8872509
  61.2940447  57.5597174  78.1205943  51.2650005  44.9572671  85.8543873
  50.8716950  44.4038869  86.5291518  52.0816145  45.2683249  86.2450391
  54.1817966  46.3730550  83.4464130  54.9227679  46.9737703  83.3668593
  54.4135888  45.6308188  82.8882173  58.5032379  59.7807457  81.3511262
  58.4850855  60.6016338  80.8591531  59.4252299  59.6561533  81.5761403
  58.1275129  42.4011653  77.7228412  57.7839398  43.2913295  77.6467522
  58.4954091  42.2113310  76.8597997  57.2071669  44.7716308  75.6877645
  56.7036464  44.7346443  74.8745450  57.5002276  45.6809051  75.7474302
  53.4514555  44.8555038  74.6943827  54.3167552  44.6597846  74.3349716
  53.5192064  44.6265389  75.6213183  61.3050992  54.6186600  74.8220628
  60.6474667  55.3085861  74.9100757  62.1091391  55.0083032  75.1654615
  59.9262794  41.6605212  72.8246149  60.2321671  40.8002575  72.5372064
  60.6515399  42.2522832  72.6245143  57.7350446  51.0377889  79.9227613
  58.0899833  51.2649362  80.7822079  58.3822577  51.3696266  79.3004869
  51.6290309  48.1454420  76.7073954  52.2689688  48.0043179  76.0096918
  50.7967839  47.8588934  76.3312556  63.4917562  56.2272852  75.6388214
  63.9254069  56.1348141  76.4871268  64.2049143  56.2030353  75.0008230
  57.2245457  59.8274946  77.1721314  57.2782479  60.3965883  77.9399030
  56.3560238  59.9976831  76.8075352  64.3533112  56.2696553  78.1721099
  64.5469002  57.1742363  78.4180374  64.2533730  55.8103972  79.0059684
  56.0069422  46.1554443  80.6711427  55.3597337  46.8544393  80.5775903
  56.7770438  46.5890587  81.0387675  59.4148220  56.4203296  83.7461980
  59.2633727  56.1913847  82.8292063  59.4052900  57.3773897  83.7593325
  61.1240427  59.4522418  81.8238462  61.0652973  58.7681638  81.1569045
  61.5259945  60.1941408  81.3719088  61.1257834  57.4162002  80.0552441
  60.2384613  57.0787924  80.1778840  61.6956385  56.6845033  80.2921207
  65.6075175  52.8270219  74.8169003  65.5965051  53.7094935  74.4462936
  64.7392554  52.4741770  74.6223540  60.1964412  44.0899447  75.3230070
  59.2827492  44.3203674  75.4912277  60.6257514  44.1737891  76.1744103
  59.9670871  52.2789339  77.8229964  59.3142321  52.5265247  77.1682417
  60.3451251  51.4653478  77.4892442  59.6092101  59.1537335  84.4002272
  60.1532005  59.7667294  83.9057227  59.0278946  59.7116914  84.9169285
  52.3184096  45.9661212  80.9835092  52.8418497  46.2123509  81.7461401
  52.0996429  46.7981247  80.5638229  53.5236641  46.9074908  78.6684762
  53.1833461  46.1082721  79.0705442  52.8175647  47.2076618  78.0961595
  54.1753112  43.9924220  77.1212085  54.9979182  43.5184698  76.9990975
  54.4191176  44.7714704  77.6210771  55.4114205  48.1083229  77.0238081
  55.1531983  49.0300299  77.0222411  54.8799245  47.7113663  77.7138545
  52.4466050  48.0692266  84.4562456  52.4954205  48.9454389  84.0740226
  52.9888564  47.5269659  83.8834099  62.9320895  58.6133389  83.7363593
  62.1416439  58.5957528  83.1968093  62.6954250  59.1521683  84.4912630
  63.0518770  55.4625856  81.0496322  63.1016775  55.2975863  81.9911844
  62.9432694  54.5953115  80.6594202  60.3422533  51.4456784  82.3655628
  61.2432395  51.3063249  82.0739626  60.4170507  51.6111239  83.3053806
  54.6765338  48.8223639  81.2108815  53.8068647  49.1157205  80.9391403
  54.9124818  49.4064084  81.9316078  64.5536967  57.8822797  81.2938343
  64.2621775  58.2452778  82.1301804  63.9409098  57.1689806  81.1151675
  65.7532649  55.4475677  73.8140913  66.5879541  55.8865481  73.9778474
  65.8891778  54.9714330  72.9949159  62.8024155  53.0055412  79.7618401
  63.2778277  53.1983058  78.9537253  61.8789721  53.0614598  79.5161785
  57.3804372  45.0403256  78.7274235  57.8986316  45.7764282  78.4020724
  57.0259505  45.3467249  79.5620994  57.6316966  41.4603538  74.2475132
  57.9118720  40.7926727  74.8735558  58.4167573  41.6532634  73.7349796
  61.5025824  49.8821172  77.9946707  62.4543247  49.9819270  78.0158931
  61.3329275  49.0899441  78.5044791  59.5240204  46.9676755  78.1806108
  58.9290136  47.2481768  77.4852596  59.2389901  47.4570656  78.9522849
  63.9813902  53.1027292  77.1089006  63.9490222  52.1643293  77.2948690
  64.5914526  53.1811328  76.3754831  64.1308391  49.8938335  77.1547290
  63.6147439  49.1096792  76.9677218  65.0148339  49.5657052  77.3193809
  61.7919118  43.6379351  73.1143102  61.5943939  43.3294439  73.9986434
  62.4018823  44.3640990  73.2441032  69.7990452  54.1643299  76.2495043
  70.5293840  53.9028587  76.8102747  69.1897397  53.4272021  76.2897111
  67.8805749  52.3051161  76.8469494  67.1538913  52.1707126  76.2385986
  67.4653036  52.6127990  77.6526212  53.5725863  49.5075331  86.6442398
  53.4722590  50.4569688  86.5754489  53.3547405  49.1793570  85.7718468
  63.0610985  47.8135394  73.1428985  63.8371376  48.3031847  73.4153602
  62.3359120  48.2393448  73.6000855  65.4983544  48.5263013  74.2002926
  66.0928035  48.2858749  73.4896234  65.5710128  47.8070144  74.8276462
  67.8054617  51.8329214  72.9746347  67.2454175  51.9022404  73.7477909
  67.1998120  51.6570199  72.2545843  57.7318159  56.7997102  86.2631028
  58.6009319  56.9737755  85.9017663  57.2524911  57.6191519  86.1406758
  57.5420497  40.5899076  70.7708721  56.7752893  40.0357563  70.9165403
  57.9531202  40.6620945  71.6322872  49.5462258  46.8783872  84.8613902
  50.4093720  46.5220677  85.0717227  48.9727669  46.5397767  85.5489306
  62.1043759  60.2864588  85.8543873  61.7110705  59.7330787  86.5291518
  62.9209899  60.5975167  86.2450391  65.0211720  61.7022468  83.4464130
  65.7621433  62.3029621  83.3668593  65.2529643  60.9600105  82.8882173
  60.1653058  66.8878835  81.7242360  60.0506573  65.9864092  82.0249459
  59.3097576  67.1342532  81.3727176  66.8463177  61.4846361  80.6711427
  66.1991092  62.1836311  80.5775903  67.6164192  61.9182505  81.0387675
  62.6876337  64.8312200  80.7227522  62.1513694  64.3802939  81.3749118
  62.0993045  64.9658109  79.9797986  60.5739474  62.0043145  79.1475502
  60.6380801  62.8657976  78.7352900  60.5106594  61.3917147  78.4147861
  63.1577850  61.2953130  80.9835092  63.6812252  61.5415427  81.7461401
  62.9390183  62.1273165  80.5638229  65.0146867  59.3216138  77.1212085
  65.8372936  58.8476616  76.9990975  65.2584930  60.1006621  77.6210771
  63.2859804  63.3984184  84.4562456  63.3347960  64.2746307  84.0740226
  63.8282318  62.8561577  83.8834099  73.7714650  73.9425307  83.7363593
  72.9810193  73.9249446  83.1968093  73.5348004  74.4813601  84.4912630
  73.8912525  70.7917774  81.0496322  73.9410530  70.6267781  81.9911844
  73.7826448  69.9245033  80.6594202  75.3930722  73.2114715  81.2938343
  75.1015530  73.5744696  82.1301804  74.7802853  72.4981723  81.1151675
  64.4119618  64.8367249  86.6442398  64.3116345  65.7861606  86.5754489
  64.1941160  64.5085488  85.7718468  60.3856013  62.2075789  84.8613902
  61.2487474  61.8512594  85.0717227  59.8121423  61.8689684  85.5489306
  80.2304390  83.8377646  75.6676303  80.8682800  83.7184393  74.9639643
  80.1125233  84.7858490  75.7264255  77.0394096  83.7905074  75.6037828
  76.7012608  83.6746139  74.7158363  77.9083864  83.3896239  75.5838834
  77.5213879  84.9439926  81.5624033  77.5102520  84.5492724  80.6904537
  77.6834518  84.2105998  82.1557805  78.4780470  89.3111518  66.9049184
  77.8268450  89.8965598  66.5183197  79.2724833  89.8417713  66.9644221
  74.2421140  87.7277037  80.5103217  73.9511006  88.6322668  80.3949883
  74.8778124  87.7693565  81.2247287  75.1677347  85.1053886  77.1004577
  75.7640919  84.8809908  76.3861540  75.2252319  84.3638631  77.7030025
  79.7845658  81.5629100  72.7429511  80.5708747  81.1448523  72.3919928
  80.0484363  82.4675192  72.9111159  79.9555736  87.0001950  67.4418168
  79.3201569  87.0736577  68.1539072  79.6253142  87.5895549  66.7637247
  85.1854085  81.5004333  73.6462490  85.9179257  80.9303550  73.8800319
  84.4293441  81.1125933  74.0868995  82.7079506  75.2125907  78.1057098
  82.3762830  76.0821318  77.8818313  82.1125119  74.8962191  78.7851129
  79.2011025  87.4138453  77.5053011  78.9011748  88.3163492  77.3968818
  78.8562085  87.1470636  78.3574164  82.6008169  79.9320993  75.1850448
  81.6925046  79.8636402  74.8909209  82.5495765  80.4092938  76.0132274
  74.1831805  94.1782773  70.4723979  74.1055835  95.1290598  70.5512459
  73.5793449  93.8328646  71.1298905  76.6749035  81.3510639  83.1285345
  75.8982369  81.9104559  83.1188210  77.3139598  81.8367422  83.6500216
  84.4669815  78.1337432  76.9628322  83.8244196  78.4269965  76.3168117
  83.9624744  78.0190352  77.7681519  82.1209979  81.8800605  67.6514181
  83.0327835  82.1127992  67.4761879  81.6119626  82.4637649  67.0889260
  74.9295407  84.1596092  82.6903312  75.6710091  84.6981136  82.4138136
  74.2232393  84.7862381  82.8474864  80.4050747  86.3025233  81.2875474
  80.8134103  85.8607643  80.5430106  79.6828008  85.7277860  81.5409667
  76.7581817  81.2397839  78.6609031  77.6043012  81.6637253  78.8043680
  76.6980454  80.5831464  79.3547594  80.7279561  86.8626423  75.0427763
  80.0988424  87.0272137  74.3403831  80.3405223  87.2768033  75.8138727
  84.6068793  87.7980861  72.3972127  83.9219831  88.1779762  71.8469160
  84.6912643  88.4076188  73.1304074  79.9081262  78.9002208  80.3190205
  79.6642194  79.6544268  79.7824480  80.1841193  79.2787555  81.1537452
  81.8619725  85.4440820  78.9967470  82.0736620  86.0872580  78.3201851
  81.8149473  84.6103137  78.5289400  73.6656771  81.3135740  83.4918622
  73.0355431  81.9952021  83.7254019  73.5592859  81.2018822  82.5471761
  82.9765553  88.3212776  77.1689827  83.7982997  87.9192963  76.8872509
  82.9727956  88.2181010  78.1205943  76.7422156  87.8696819  79.3250538
  76.8066589  88.3317226  80.1608710  76.0333080  87.2394184  79.4532848
  91.0671546  84.6651524  73.5174799  90.3135254  84.0958922  73.3618803
  91.2019087  84.6314189  74.4645434  76.4570174  89.5364926  69.1929518
  76.3215849  90.3816462  69.6214366  76.9979986  89.7384204  68.4295452
  72.9437514  75.6156506  85.8543873  72.5504459  75.0622705  86.5291518
  73.7603654  75.9267085  86.2450391  75.8605475  77.0314385  83.4464130
  76.6015188  77.6321538  83.3668593  76.0923397  76.2892023  82.8882173
  78.0838650  90.1588493  83.3229860  77.6402504  89.3724871  83.0050765
  78.7455864  90.3467643  82.6573751  72.8425771  91.6884294  77.8490539
  73.3933197  91.5601358  77.0767533  72.0037247  91.9879183  77.4985432
  80.1819888  90.4391293  81.3511262  80.1638364  91.2600174  80.8591531
  81.1039808  90.3145368  81.5761403  76.6392943  87.9535422  82.1934770
  77.1721279  87.1923710  81.9634078  76.1107024  87.6609074  82.9358924
  79.7712920  83.0504099  66.2300847  79.2559544  83.8208704  66.4689234
  79.4990229  82.3769235  66.8533908  77.3560031  77.8953800  71.2886085
  76.5001628  77.5060650  71.1091724  77.7686983  77.9745761  70.4285871
  84.7447194  85.8036454  68.1654020  83.9676637  85.4647613  67.7209182
  85.4238675  85.8089077  67.4908985  79.5599223  80.9231191  68.0560628
  79.2549359  81.2377341  68.9070771  80.5129666  81.0012611  68.0987961
  82.9838501  85.2770435  74.8220628  82.3262176  85.9669697  74.9100757
  83.7878900  85.6666867  75.1654615  81.7943960  83.6314808  72.8724570
  82.3075842  84.2644800  73.3746280  82.4445184  83.0316003  72.5067930
  79.0566334  93.6099132  65.6285241  78.3828033  93.9130829  66.2370199
  79.4432156  94.4128213  65.2790698  78.2724791  81.1064263  75.1182911
  77.3547352  81.3279210  74.9604599  78.6884935  81.1810574  74.2594618
  79.0559839  82.5055679  70.2485591  79.8031658  83.0177076  69.9392713
  79.3251428  82.1839732  71.1089984  82.5605756  88.6120809  71.0003713
  82.1068083  87.7711719  71.0568903  81.9299723  89.2482208  71.3378493
  81.5038676  79.5412795  72.2304380  80.7661433  79.0290182  72.5614623
  81.7565449  79.1013177  71.4187657  81.0038696  90.4497306  71.9353531
  81.2961670  91.0102363  71.2165896  81.5137316  90.7425867  72.6906690
  77.0262577  86.5422964  64.5700624  76.5882007  85.8258822  64.1106261
  77.7673018  86.7699078  64.0085715  75.9672321  91.2277657  73.0246984
  75.9248499  91.4538503  72.0955516  76.8835020  90.9941032  73.1732785
  79.4137955  81.6961725  79.9227613  79.7687342  81.9233198  80.7822079
  80.0610086  82.0280101  79.3004869  85.1435691  84.8180161  70.6276942
  85.0053590  85.0081757  69.6998131  84.7871910  85.5799543  71.0844993
  85.1705071  86.8856688  75.6388214  85.6041578  86.7931977  76.4871268
  85.8836652  86.8614188  75.0008230  78.9032966  90.4858782  77.1721314
  78.9569988  91.0549718  77.9399030  78.0347747  90.6560667  76.8075352
  86.0320621  86.9280388  78.1721099  86.2256511  87.8326199  78.4180374
  85.9321239  86.4687807  79.0059684  77.6856931  76.8138279  80.6711427
  77.0384846  77.5128228  80.5775903  78.4557947  77.2474423  81.0387675
  81.0935729  87.0787131  83.7461980  80.9421236  86.8497683  82.8292063
  81.0840409  88.0357732  83.7593325  77.8621066  84.6519044  78.7308246
  78.7913126  84.8030203  78.5577214  77.4412096  84.7403064  77.8756893
  76.6609397  88.6769708  76.5006784  76.5220483  88.3088493  77.3732722
  75.8723994  89.1917348  76.3290742  77.2557549  93.7778805  67.8432320
  77.4309305  93.3066848  68.6577943  76.5690337  94.4044571  68.0713581
  78.2114613  88.0551311  73.8895622  77.8764445  88.0152081  74.7853272
  77.7118558  87.3896027  73.4166032  81.1473804  85.4007345  64.1632681
  80.5302975  84.6754173  64.0665734  80.6790293  86.1616705  63.8199756
  74.8141157  83.1738900  78.9031882  75.5240776  82.5332092  78.8618501
  74.7710465  83.4251795  79.8258063  82.8027936  90.1106254  81.8238462
  82.7440482  89.4265474  81.1569045  83.2047454  90.8525244  81.3719088
  71.8218635  96.9268167  74.6172181  72.0615233  97.5586692  75.2951199
  70.9787831  96.5756207  74.9037540  82.8045343  88.0745837  80.0552441
  81.9172122  87.7371759  80.1778840  83.3743894  87.3428869  80.2921207
  76.3346497  92.7347290  77.0213685  76.2616668  93.5402261  77.5332989
  75.8923890  92.9339256  76.1961706  76.1236276  91.9719060  70.5316506
  75.3403798  92.5140740  70.6254731  76.8229021  92.4893039  70.9310747
  87.2862684  83.4854055  74.8169003  87.2752560  84.3678770  74.4462936
  86.4180063  83.1325606  74.6223540  78.7945180  92.6334124  79.1771843
  79.5073152  93.2681589  79.1047745  78.3035209  92.7297990  78.3611845
  80.5162707  86.5385377  70.7489135  79.5818986  86.6586839  70.5793839
  80.6939375  85.6357843  70.4849145  83.9035258  82.3802696  71.2839169
  84.3695711  83.2130687  71.2099472  84.3542759  81.9147677  71.9884427
  73.8457094  90.3828567  79.9977414  74.5466553  91.0165050  80.1506808
  73.3752209  90.7243299  79.2373053  81.9711489  88.7246517  68.2825321
  82.2471333  88.6103112  69.1919195  81.1015988  88.3264002  68.2437494
  81.6458380  82.9373175  77.8229964  80.9929830  83.1849082  77.1682417
  82.0238760  82.1237313  77.4892442  78.6065553  92.9732868  71.9258135
  78.7887948  92.1554524  72.3885887  79.4298540  93.1900560  71.4883025
  78.9407719  91.9001053  69.1873183  79.4695485  91.3893508  68.5743345
  79.2035939  91.5843583  70.0518716  77.6945953  83.6792986  84.3096001
  77.0186590  83.5787115  84.9798377  78.5173587  83.5232200  84.7731999
  72.2963467  92.9516170  71.9470959  71.6273842  93.4362297  71.4634999
  72.1576337  93.1985390  72.8614338  76.4368736  94.9859913  78.5453617
  76.9887044  95.1491535  79.3102703  76.7774929  95.5764351  77.8733642
  81.2879610  89.8121171  84.4002272  81.8319514  90.4251129  83.9057227
  80.7066455  90.3700749  84.9169285  79.5737123  92.9341889  75.5317300
  79.4488262  92.1331629  75.0228245  80.2316214  93.4288082  75.0431270
  81.6372031  90.7350909  77.1596850  80.6902367  90.6156260  77.0875176
  81.9854804  89.8473407  77.2423111  73.9971605  76.6245048  80.9835092
  74.5206006  76.8707344  81.7461401  73.7783938  77.4565083  80.5638229
  78.6418464  90.5303625  73.3601202  78.4943427  89.6020332  73.5408772
  79.4671958  90.5523716  72.8758277  82.2452586  91.3532184  74.4466075
  83.1699134  91.1475045  74.3090526  82.0767890  91.1048585  75.3555416
  75.2024150  77.5658743  78.6684762  74.8620970  76.7666556  79.0705442
  74.4963156  77.8660454  78.0961595  78.6379979  78.3841463  68.3533319
  78.8543593  79.2666101  68.0522147  78.1574046  77.9927676  67.6238961
  75.2375583  78.3329724  74.9784953  75.2237152  77.4370817  74.6417251
  75.9548011  78.3400388  75.6123239  77.0901714  78.7667064  77.0238081
  76.8319492  79.6884135  77.0222411  76.5586754  78.3697499  77.7138545
  82.0347903  91.8717851  69.8028166  82.2084780  91.3064274  69.0502019
  82.5276794  92.6718746  69.6207656  87.8887294  84.6354274  71.4218466
  88.3318440  83.8861599  71.0237589  87.0113804  84.6264411  71.0392198
  83.0223075  91.1884616  66.9025064  83.7173980  91.8091308  67.1212379
  83.3646225  90.3379967  67.1777442  84.9214498  88.6384321  68.4312395
  85.4465822  88.9771594  67.7061715  84.8336851  87.7031337  68.2475530
  76.5834547  92.5518395  80.5602272  76.8921673  92.3067542  81.4324971
  77.3810029  92.7565033  80.0721142  76.6055159  94.7056304  72.7907648
  76.1660149  94.2132683  73.4840505  77.3563276  94.1629272  72.5499724
  74.0529031  90.2494314  74.8629950  73.4309040  89.5865019  74.5632178
  74.7233898  90.2755445  74.1803598  74.1253559  78.7276102  84.4562456
  74.1741714  79.6038224  84.0740226  74.6676073  78.1853495  83.8834099
  84.6108404  89.2717225  83.7363593  83.8203948  89.2541364  83.1968093
  84.3741759  89.8105519  84.4912630  84.7306279  86.1209691  81.0496322
  84.7804284  85.9559699  81.9911844  84.6220203  85.2536950  80.6594202
  82.0210042  82.1040619  82.3655628  82.9219904  81.9647084  82.0739626
  82.0958016  82.2695074  83.3053806  76.3552847  79.4807474  81.2108815
  75.4856156  79.7741040  80.9391403  76.5912327  80.0647919  81.9316078
  86.2324476  88.5406633  81.2938343  85.9409284  88.9036613  82.1301804
  85.6196607  87.8273641  81.1151675  87.4320158  86.1059513  73.8140913
  88.2667050  86.5449317  73.9778474  87.5679287  85.6298166  72.9949159
  84.4811664  83.6639247  79.7618401  84.9565786  83.8566894  78.9537253
  83.5577230  83.7198433  79.5161785  79.0591881  75.6987091  78.7274235
  79.5773825  76.4348118  78.4020724  78.7047014  76.0051084  79.5620994
  77.1137943  91.2946367  65.8100158  76.5411911  91.9136554  65.3570630
  77.6870737  91.8445729  66.3440080  83.1813333  80.5405007  77.9946707
  84.1330756  80.6403105  78.0158931  83.0116784  79.7483276  78.5044791
  81.2027713  77.6260591  78.1806108  80.6077645  77.9065603  77.4852596
  80.9177409  78.1154492  78.9522849  80.3335203  91.5783517  66.9408740
  81.2665876  91.5129079  67.1441616  80.2458416  92.4139784  66.4823273
  82.9623220  90.8949388  63.9012688  82.8836851  90.5609251  64.7948446
  83.7832887  91.3871156  63.9004160  85.6601411  83.7611127  77.1089006
  85.6277731  82.8227128  77.2948690  86.2702035  83.8395164  76.3754831
  85.8095900  80.5522171  77.1547290  85.2934948  79.7680627  76.9677218
  86.6935848  80.2240887  77.3193809  83.4706627  74.2963186  73.1143102
  83.2731448  73.9878274  73.9986434  84.0806332  75.0224825  73.2441032
  91.4777961  84.8227134  76.2495043  92.2081349  84.5612422  76.8102747
  90.8684906  84.0855856  76.2897111  89.5593258  82.9634997  76.8469494
  88.8326422  82.8290961  76.2385986  89.1440545  83.2711825  77.6526212
  77.3823435  86.6824926  84.6116867  78.3026444  86.8603525  84.8056914
  77.3473018  85.7380972  84.4596567  77.2989725  75.0994046  69.2415337
  76.4890453  74.7541131  69.6170583  77.9874142  74.7901590  69.8302949
  75.2513372  80.1659167  86.6442398  75.1510099  81.1153524  86.5754489
  75.0334914  79.8377406  85.7718468  82.6059080  76.2872618  70.3718298
  82.0257749  76.9457422  69.9896350  82.3395013  75.4649963  69.9605715
  75.1144642  83.5956305  85.4607459  74.6311724  84.3956666  85.6671348
  75.2005581  83.6064250  84.5074903  81.3883958  78.4472709  69.4274646
  80.5009813  78.7322359  69.2094841  81.8037947  78.2866472  68.5801923
  84.7398494  78.4719230  73.1428985  85.5158884  78.9615682  73.4153602
  84.0146629  78.8977284  73.6000855  87.1771053  79.1846849  74.2002926
  87.7715544  78.9442585  73.4896234  87.2497637  78.4653979  74.8276462
  69.3968209  93.0280460  74.5146091  69.2622677  92.2680861  73.9484089
  68.9800271  93.7521360  74.0474880  80.5327172  88.2117383  63.5222666
  81.2363022  88.4167386  64.1380322  79.8089820  88.7794145  63.7871750
  81.3624982  83.9627244  69.6424936  81.3060183  84.4195796  68.8032569
  81.9153324  83.2017929  69.4647779  85.1729788  79.7516976  70.4675056
  84.9166722  79.3513612  71.2983264  84.5482656  80.4660770  70.3425195
  89.4842126  82.4913050  72.9746347  88.9241684  82.5606239  73.7477909
  88.8785629  82.3154034  72.2545843  72.5537335  93.9249777  74.7264534
  72.4369719  94.8695209  74.6243224  71.7329781  93.6223338  75.1150333
  82.4413869  88.6499912  65.5721126  83.2759473  88.2181111  65.3898601
  82.2798212  88.4781926  66.4998021  82.0959761  85.1532026  66.9377466
  82.0408565  84.9876297  65.9965910  81.4705817  85.8608059  67.0939655
  79.4105668  87.4580938  86.2631028  80.2796828  87.6321590  85.9017663
  78.9312420  88.2775354  86.1406758  73.5791849  94.5778039  77.9420462
  74.4819095  94.6101649  78.2586957  73.3529219  93.6478490  77.9566798
  75.3345451  93.3309025  74.6030541  74.3841082  93.3310887  74.4894913
  75.6377937  92.5841760  74.0866575  91.0698144  99.1669564  75.6676303
  91.7076554  99.0476311  74.9639643  90.9518987 100.1150407  75.7264255
  87.8787850  99.1196992  75.6037828  87.5406362  99.0038056  74.7158363
  88.7477619  98.7188157  75.5838834  83.7374666 100.9732468  71.5934719
  83.1739531 100.8822405  70.8251006  83.6227061 100.1532373  72.0737211
  88.3607633 100.2731843  81.5624033  88.3496274  99.8784642  80.6904537
  88.5228273  99.5397916  82.1557805  81.2839098 102.4683660  74.4318939
  82.0760390 102.1274484  74.0165238  81.5235748 102.5778635  75.3521092
  89.3174225 104.6403436  66.9049184  88.6662205 105.2257516  66.5183197
  90.1118588 105.1709631  66.9644221  83.2429852 101.7292573  67.3036318
  84.0160728 101.1821560  67.1649194  83.5955251 102.5936822  67.5150779
  85.0814895 103.0568955  80.5103217  84.7904761 103.9614586  80.3949883
  85.7171879 103.0985483  81.2247287  86.0071101 100.4345804  77.1004577
  86.6034674 100.2101826  76.3861540  86.0646073  99.6930549  77.7030025
  85.5796130  97.8885239  64.9354768  85.8321651  97.3666760  64.1738231
  84.6420689  97.7251384  65.0381451  90.6239413  96.8921017  72.7429511
  91.4102502  96.4740441  72.3919928  90.8878117  97.7967110  72.9111159
  90.7949490 102.3293868  67.4418168  90.1595323 102.4028494  68.1539072
  90.4646896 102.9187467  66.7637247  96.0247840  96.8296251  73.6462490
  96.7573012  96.2595467  73.8800319  95.2687196  96.4417851  74.0868995
  85.2992419  99.7913345  67.1379143  85.1828677  99.1158248  67.8060227
  85.4094679  99.3045719  66.3211296  87.6423960  99.2523492  70.8425832
  87.2782167  98.7254113  71.5538753  88.4991075  98.8621961  70.6692317
  93.5473260  90.5417825  78.1057098  93.2156585  91.4113236  77.8818313
  92.9518874  90.2254109  78.7851129  87.2829447  94.2813392  65.8387180
  87.4503849  95.1493628  66.2057652  87.0926616  94.4440673  64.9148470
  90.0404780 102.7430371  77.5053011  89.7405503 103.6455409  77.3968818
  89.6955839 102.4762554  78.3574164  83.4917261  99.1944168  73.5389715
  82.5667758  99.0620382  73.7467407  83.7401674  99.9738387  74.0359658
  93.4401924  95.2612911  75.1850448  92.5318801  95.1928319  74.8909209
  93.3889519  95.7384856  76.0132274  87.2618667  96.7371049  66.8233847
  87.1418293  97.1828100  67.6619328  86.5671256  97.0856367  66.2647385
  80.8526072  98.8377441  74.3733504  80.9818453  99.0911920  75.2872916
  80.1723524  99.4305149  74.0538159  85.0225560 109.5074691  70.4723979
  84.9449589 110.4582516  70.5512459  84.4187203 109.1620564  71.1298905
  87.5142789  96.6802556  83.1285345  86.7376123  97.2396477  83.1188210
  88.1533352  97.1659339  83.6500216  95.3063570  93.4629349  76.9628322
  94.6637950  93.7561882  76.3168117  94.8018498  93.3482270  77.7681519
  92.9603734  97.2092522  67.6514181  93.8721590  97.4419909  67.4761879
  92.4513381  97.7929567  67.0889260  85.7689162  99.4888010  82.6903312
  86.5103846 100.0273054  82.4138136  85.0626147 100.1154299  82.8474864
  91.2444501 101.6317150  81.2875474  91.6527857 101.1899561  80.5430106
  90.5221763 101.0569778  81.5409667  87.5975571  96.5689757  78.6609031
  88.4436766  96.9929171  78.8043680  87.5374209  95.9123381  79.3547594
  91.5673316 102.1918341  75.0427763  90.9382178 102.3564055  74.3403831
  91.1798978 102.6059950  75.8138727  95.4462548 103.1272779  72.3972127
  94.7613586 103.5071680  71.8469160  95.5306397 103.7368105  73.1304074
  90.7475017  94.2294125  80.3190205  90.5035948  94.9836186  79.7824480
  91.0234947  94.6079473  81.1537452  92.7013479 100.7732738  78.9967470
  92.9130375 101.4164498  78.3201851  92.6543228  99.9395054  78.5289400
  90.3039708  93.3850558  75.9004042  89.4424187  93.6831812  76.1920780
  90.3302143  93.6020957  74.9685075  87.1201278 101.9292749  72.3077848
  87.5839623 102.2080452  71.5182470  86.8558076 101.0276194  72.1250939
  84.0125359 101.4764231  75.2457611  84.5826716 101.9051499  74.6075096
  84.6033471 101.1946815  75.9441797  86.0570164  98.0515901  69.1167413
  86.7594207  98.5036945  69.5841339  85.7250792  97.4099720  69.7447306
  84.5050525  96.6427658  83.4918622  83.8749186  97.3243939  83.7254019
  84.3986613  96.5310740  82.5471761  79.7995498  96.3099454  74.4184547
  79.0094552  96.5656983  73.9424657  80.2906745  97.1247792  74.5236587
  93.8159307 103.6504693  77.1689827  94.6376751 103.2484880  76.8872509
  93.8121710 103.5472927  78.1205943  81.7510243  96.6744033  71.3768023
  80.9541406  96.7862728  71.8951519  81.5235835  97.0130685  70.5108914
  87.5815911 103.1988736  79.3250538  87.6460343 103.6609144  80.1608710
  86.8726835 102.5686101  79.4532848  78.0833201  96.5629944  76.8499537
  78.3341239  97.4476954  77.1157113  78.6192749  96.3834546  76.0774629
 101.9065300  99.9943442  73.5174799 101.1529009  99.4250840  73.3618803
 102.0412842  99.9606106  74.4645434  87.2963928 104.8656844  69.1929518
  87.1609603 105.7108380  69.6214366  87.8373741 105.0676122  68.4295452
  83.7831268  90.9448424  85.8543873  83.3898214  90.3914622  86.5291518
  84.5997408  91.2559002  86.2450391  80.7493326 102.3832282  69.7657443
  81.2617846 103.1775532  69.9163008  81.4016039 101.6858572  69.6991045
  82.5588211 105.4998038  71.8480197  82.7354839 106.4216003  71.6601180
  83.3545044 105.1856458  72.2774576  86.6999229  92.3606303  83.4464130
  87.4408942  92.9613456  83.3668593  86.9317152  91.6183941  82.8882173
  81.8440567  97.5462670  81.7242360  81.7294082  96.6447927  82.0249459
  80.9885085  97.7926367  81.3727176  88.9232405 105.4880410  83.3229860
  88.4796259 104.7016789  83.0050765  89.5849618 105.6759561  82.6573751
  83.6819526 107.0176212  77.8490539  84.2326951 106.8893275  77.0767533
  82.8431002 107.3171101  77.4985432  91.0213643 105.7683210  81.3511262
  91.0032118 106.5892091  80.8591531  91.9433563 105.6437286  81.5761403
  87.4786697 103.2827340  82.1934770  88.0115034 102.5215628  81.9634078
  86.9500778 102.9900992  82.9358924  90.6456392  88.3887406  77.7228412
  90.3020661  89.2789048  77.6467522  91.0135355  88.1989064  76.8597997
  78.7142243 100.7120936  70.5417014  79.5517465 101.1217945  70.3250722
  78.8920510  99.7720378  70.5117208  90.6106675  98.3796017  66.2300847
  90.0953298  99.1500622  66.4689234  90.3383983  97.7061153  66.8533908
  88.1953786  93.2245718  71.2886085  87.3395382  92.8352568  71.1091724
  88.6080738  93.3037679  70.4285871  89.7252932  90.7592061  75.6877645
  89.2217728  90.7222196  74.8745450  90.0183539  91.6684804  75.7474302
  85.9695818  90.8430791  74.6943827  86.8348815  90.6473599  74.3349716
  86.0373327  90.6141143  75.6213183  95.5840949 101.1328372  68.1654020
  94.8070392 100.7939531  67.7209182  96.2632430 101.1380995  67.4908985
  90.3992978  96.2523109  68.0560628  90.0943113  96.5669258  68.9070771
  91.3523420  96.3304529  68.0987961  88.8439410 102.4113332  69.7053582
  88.3160771 101.6766092  69.3926819  88.3426912 103.1888009  69.4593550
  93.8232256 100.6062353  74.8220628  93.1655930 101.2961614  74.9100757
  94.6272655 100.9958785  75.1654615  83.5758137  93.0732999  72.0660194
  84.1501889  92.8508180  71.3333386  84.1629120  93.1421693  72.8188795
  92.6337715  98.9606726  72.8724570  93.1469596  99.5936717  73.3746280
  93.2838938  98.3607921  72.5067930  83.9027724  95.1037460  66.0856079
  83.0665037  95.4412146  66.4065354  83.7632494  94.9686439  65.1483216
  85.8780805  89.9474248  70.7935263  85.2245217  89.6323265  70.1691878
  85.8361279  89.3249988  71.5195086  86.9892010 100.2293543  62.7088555
  86.0819072  99.9982796  62.9079704  87.4863042  99.4331162  62.8962537
  89.8960089 108.9391050  65.6285241  89.2221788 109.2422747  66.2370199
  90.2825911 109.7420130  65.2790698  89.1118545  96.4356181  75.1182911
  88.1941107  96.6571128  74.9604599  89.5278689  96.5102492  74.2594618
  89.8953593  97.8347597  70.2485591  90.6425412  98.3468994  69.9392713
  90.1645183  97.5131650  71.1089984  88.1680243 100.3306138  67.2312545
  87.2591463 100.0465170  67.3285015  88.1975327 100.7505216  66.3715852
  93.3999511 103.9412727  71.0003713  92.9461838 103.1003637  71.0568903
  92.7693477 104.5774125  71.3378493  92.3432430  94.8704713  72.2304380
  91.6055187  94.3582099  72.5614623  92.5959204  94.4305095  71.4187657
  91.8432450 105.7789224  71.9353531  92.1355424 106.3394281  71.2165896
  92.3531071 106.0717785  72.6906690  92.4444058  87.6480965  72.8246149
  92.7502934  86.7878328  72.5372064  93.1696662  88.2398585  72.6245143
  78.7368414  98.0511652  71.2127747  78.5392814  97.4581012  70.4878814
  78.1815078  97.7463862  71.9303686  86.7165137  97.9434758  73.3322340
  86.7713747  96.9908595  73.2564817  85.9056339  98.0994197  73.8163639
  87.8656331 101.8714881  64.5700624  87.4275761 101.1550740  64.1106261
  88.6066772 102.0990996  64.0085715  84.6557497  96.5611818  71.0912719
  83.8425363  96.8605988  71.4977911  85.1516491  96.1667507  71.8087202
  86.8066075 106.5569575  73.0246984  86.7642254 106.7830421  72.0955516
  87.7228774 106.3232949  73.1732785  90.2531709  97.0253642  79.9227613
  90.6081097  97.2525115  80.7822079  90.9003840  97.3572019  79.3004869
  95.9829446 100.1472078  70.6276942  95.8447345 100.3373674  69.6998131
  95.6265665 100.9091461  71.0844993  84.1471572  94.1330173  76.7073954
  84.7870951  93.9918932  76.0096918  83.3149103  93.8464687  76.3312556
  96.0098826 102.2148605  75.6388214  96.4435332 102.1223894  76.4871268
  96.7230406 102.1906106  75.0008230  84.9231876 103.4332604  72.8208947
  85.7172474 102.9382924  72.6191522  84.2123568 102.9050467  72.4576652
  89.7426720 105.8150699  77.1721314  89.7963743 106.3841636  77.9399030
  88.8741502 105.9852584  76.8075352  81.2314639  97.5775686  68.8968699
  80.3012228  97.5160141  69.1138662  81.3272111  97.0551638  68.1005341
  81.1500188  94.1030498  71.4846941  81.4107006  95.0175832  71.3756102
  81.9717361  93.6354941  71.6343554  82.6225114  95.5168256  78.6545766
  83.2948167  95.3085618  78.0058415  81.7954900  95.3190342  78.2150998
  96.8714375 102.2572306  78.1721099  97.0650265 103.1618116  78.4180374
  96.7714993 101.7979725  79.0059684  88.5250686  92.1430196  80.6711427
  87.8778601  92.8420146  80.5775903  89.2951701  92.5766340  81.0387675
  91.9329484 102.4079049  83.7461980  91.7814990 102.1789600  82.8292063
  91.9234163 103.3649650  83.7593325  88.7014820  99.9810961  78.7308246
  89.6306880 100.1322121  78.5577214  88.2805850 100.0694982  77.8756893
  87.5003152 104.0061626  76.5006784  87.3614238 103.6380410  77.3732722
  86.7117748 104.5209265  76.3290742  88.0951304 109.1070722  67.8432320
  88.2703060 108.6358765  68.6577943  87.4084092 109.7336488  68.0713581
  89.0508367 103.3843228  73.8895622  88.7158200 103.3443998  74.7853272
  88.5512313 102.7187944  73.4166032  83.0252611  98.7910859  79.4148203
  82.8872409  98.0591097  80.0159742  83.9357535  98.7019759  79.1332391
  91.9867559 100.7299263  64.1632681  91.3696729 100.0046091  64.0665734
  91.5184047 101.4908623  63.8199756  85.6534912  98.5030818  78.9031882
  86.3634530  97.8624010  78.8618501  85.6104220  98.7543713  79.8258063
  93.6421690 105.4398171  81.8238462  93.5834237 104.7557391  81.1569045
  94.0441209 106.1817161  81.3719088  84.3663846  95.4896036  80.7227522
  83.8301203  95.0386774  81.3749118  83.7780554  95.6241945  79.9797986
  82.6612389 112.2560085  74.6172181  82.9008987 112.8878609  75.2951199
  81.8181586 111.9048125  74.9037540  83.7766105  94.9484687  63.2853986
  82.8995571  94.8273488  62.9216232  84.2523858  94.1570765  63.0332874
  93.6439098 103.4037755  80.0552441  92.7565876 103.0663677  80.1778840
  94.2137649 102.6720786  80.2921207  75.2968245  99.7361847  73.3795493
  75.9839285  99.4223577  72.7916508  75.1416373 100.6403212  73.1062744
  80.1002967  94.6252043  77.8080516  80.0161156  94.0177713  77.0730926
  79.2785673  95.1161062  77.8090013  87.1740251 108.0639207  77.0213685
  87.1010423 108.8694179  77.5332989  86.7317644 108.2631173  76.1961706
  86.9630031 107.3010977  70.5316506  86.1797553 107.8432658  70.6254731
  87.6622776 107.8184957  70.9310747  90.2726681  93.1105607  73.1750711
  90.7695380  92.3575569  72.8551782  89.5013662  93.1469924  72.6093921
  98.1256438  98.8145972  74.8169003  98.1146314  99.6970688  74.4462936
  97.2573818  98.4617523  74.6223540  89.6338935 107.9626041  79.1771843
  90.3466907 108.5973506  79.1047745  89.1428963 108.0589907  78.3611845
  91.3556462 101.8677294  70.7489135  90.4212740 101.9878757  70.5793839
  91.5333130 100.9649761  70.4849145  86.8561650  95.2522990  72.9022396
  86.4859437  94.6994030  73.5903302  87.3520742  94.6481123  72.3497396
  94.7429013  97.7094613  71.2839169  95.2089465  98.5422605  71.2099472
  95.1936513  97.2439595  71.9884427  84.6850848 105.7120485  79.9977414
  85.3860308 106.3456968  80.1506808  84.2145963 106.0535217  79.2373053
  92.8105244 104.0538435  68.2825321  93.0865088 103.9395029  69.1919195
  91.9409743 103.6555920  68.2437494  92.7145676  90.0775200  75.3230070
  91.8008755  90.3079427  75.4912277  93.1438777  90.1613645  76.1744103
  92.4852134  98.2665092  77.8229964  91.8323584  98.5141000  77.1682417
  92.8632514  97.4529231  77.4892442  89.4459308 108.3024786  71.9258135
  89.6281703 107.4846442  72.3885887  90.2692294 108.5192478  71.4883025
  89.7801473 107.2292971  69.1873183  90.3089240 106.7185425  68.5743345
  90.0429693 106.9135501  70.0518716  88.5339707  99.0084903  84.3096001
  87.8580344  98.9079033  84.9798377  89.3567341  98.8524117  84.7731999
  80.2818566 105.2456840  76.9308517  80.8672003 104.5000528  77.0636421
  80.0843405 105.5560797  77.8145181  83.1357221 108.2808087  71.9470959
  82.4667597 108.7654215  71.4634999  82.9970091 108.5277308  72.8614338
  74.8736221  97.8162440  75.6512960  74.9120320  97.2826031  76.4450078
  74.3676514  97.2897646  75.0323937  87.2762490 110.3151831  78.5453617
  87.8280798 110.4783452  79.3102703  87.6168683 110.9056269  77.8733642
  82.2526983  92.6626981  79.1475502  82.3168310  93.5241812  78.7352900
  82.1894103  92.0500982  78.4147861  81.7279256  94.7350113  82.7948536
  82.3551295  94.3527191  83.4086061  80.8707175  94.5164315  83.1604229
  92.1273364 105.1413088  84.4002272  92.6713268 105.7543047  83.9057227
  91.5460209 105.6992667  84.9169285  78.5044799  96.5426542  68.7266891
  78.7998240  95.6337221  68.6733945  77.6032834  96.5214282  68.4047894
  90.4130877 108.2633806  75.5317300  90.2882017 107.4623546  75.0228245
  91.0709968 108.7580000  75.0431270  82.0339046  94.6182539  74.7094440
  81.3125631  95.2318507  74.5701913  82.8232301  95.1540304  74.6311086
  92.4765786 106.0642827  77.1596850  91.5296121 105.9448178  77.0875176
  92.8248559 105.1765325  77.2423111  84.8365359  91.9536965  80.9835092
  85.3599761  92.1999262  81.7461401  84.6177692  92.7857000  80.5638229
  80.2332640  94.2240640  68.8506216  79.9045346  93.3438019  68.6681322
  80.5872011  94.1688309  69.7382606  89.4812219 105.8595543  73.3601202
  89.3337181 104.9312250  73.5408772  90.3065712 105.8815633  72.8758277
  83.3474463  94.5113610  69.2181694  83.6870536  95.0399531  68.4960302
  83.7946584  94.8494016  69.9940261  93.0846341 106.6824101  74.4466075
  94.0092888 106.4766963  74.3090526  92.9161644 106.4340503  75.3555416
  86.0417904  92.8950661  78.6684762  85.7014724  92.0958474  79.0705442
  85.3356910  93.1952371  78.0961595  86.6934376  89.9799973  77.1212085
  87.5160445  89.5060451  76.9990975  86.9372439  90.7590457  77.6210771
  85.3342610  93.0088231  67.4174987  86.0550973  93.3869484  66.9138704
  84.7107915  93.7277108  67.5209965  89.4773733  93.7133380  68.3533319
  89.6937348  94.5958018  68.0522147  88.9967800  93.3219594  67.6238961
  84.2172955  96.6719094  74.9304064  84.0717535  96.9859397  75.8228345
  83.7398158  97.2903994  74.3774962  86.0769338  93.6621642  74.9784953
  86.0630906  92.7662735  74.6417251  86.7941766  93.6692305  75.6123239
  87.9295468  94.0958982  77.0238081  87.6713246  95.0176052  77.0222411
  87.3980509  93.6989416  77.7138545  92.8741657 107.2009769  69.8028166
  93.0478535 106.6356191  69.0502019  93.3670548 108.0010664  69.6207656
  78.6918617  99.2124438  77.8691725  78.1472085  99.9884246  78.0011999
  79.5697967  99.5595242  77.7110846  85.4806233  92.5436022  70.2472523
  85.6022145  91.6152668  70.4463411  85.1908276  92.5574708  69.3350839
  88.3497424  90.2290932  73.3839243  88.3719121  90.2930265  72.4291223
  88.7665483  89.3895441  73.5779749  98.7281048  99.9646192  71.4218466
  99.1712194  99.2153517  71.0237589  97.8507558  99.9556328  71.0392198
  93.8616830 106.5176533  66.9025064  94.5567734 107.1383226  67.1212379
  94.2039980 105.6671885  67.1777442  79.4784639  98.3394334  80.7621882
  78.7366375  98.4876970  81.3486512  79.1577383  98.6002600  79.8988631
  95.7608253 103.9676239  68.4312395  96.2859577 104.3063512  67.7061715
  95.6730605 103.0323254  68.2475530  87.4228301 107.8810313  80.5602272
  87.7315428 107.6359459  81.4324971  88.2203783 108.0856951  80.0721142
  87.4448913 110.0348222  72.7907648  87.0053904 109.5424601  73.4840505
  88.1957030 109.4921190  72.5499724  79.9241252 106.2259763  72.7932276
  80.7499272 105.9263535  72.4130920  79.5735304 105.4567385  73.2422065
  84.8922786 105.5786231  74.8629950  84.2702795 104.9156936  74.5632178
  85.5627652 105.6047363  74.1803598  78.1249857 104.1446089  73.7521210
  77.2881766 103.7168264  73.5705211  78.0973503 104.3378533  74.6892001
  84.9647313  94.0568019  84.4562456  85.0135468  94.9330142  84.0740226
  85.5069827  93.5145412  83.8834099  95.4502159 104.6009143  83.7363593
  94.6597702 104.5833281  83.1968093  95.2135513 105.1397436  84.4912630
  95.5700034 101.4501609  81.0496322  95.6198039 101.2851616  81.9911844
  95.4613957 100.5828868  80.6594202  84.4536292 104.1290155  68.3388411
  84.6024413 104.8125619  67.6855083  85.2602736 104.1095245  68.8537866
  92.8603796  97.4332537  82.3655628  93.7613659  97.2939002  82.0739626
  92.9351771  97.5986992  83.3053806  87.1946601  94.8099392  81.2108815
  86.3249911  95.1032958  80.9391403  87.4306082  95.3939837  81.9316078
  97.0718231 103.8698550  81.2938343  96.7803039 104.2328531  82.1301804
  96.4590362 103.1565559  81.1151675  98.2713913 101.4351430  73.8140913
  99.1060804 101.8741234  73.9778474  98.4073042 100.9590083  72.9949159
  95.3205419  98.9931165  79.7618401  95.7959540  99.1858811  78.9537253
  94.3970984  99.0490351  79.5161785  82.2088925 100.1555332  69.3449479
  81.9634967  99.2517662  69.5429690  82.3784840 100.1572483  68.4028957
  89.8985635  91.0279009  78.7274235  90.4167579  91.7640036  78.4020724
  89.5440768  91.3343002  79.5620994  81.4784573  95.8883690  66.8435641
  80.7853818  95.9628045  66.1875677  81.2336325  95.1244033  67.3657158
  90.1498229  87.4479291  74.2475132  90.4299983  86.7802480  74.8735558
  90.9348836  87.6408387  73.7349796  87.9531698 106.6238285  65.8100158
  87.3805665 107.2428472  65.3570630  88.5264492 107.1737647  66.3440080
  94.0207088  95.8696925  77.9946707  94.9724511  95.9695023  78.0158931
  93.8510538  95.0775194  78.5044791  92.0421467  92.9552508  78.1806108
  91.4471399  93.2357521  77.4852596  91.7571164  93.4446409  78.9522849
  91.1728958 106.9075435  66.9408740  92.1059631 106.8420997  67.1441616
  91.0852171 107.7431702  66.4823273  93.8016974 106.2241305  63.9012688
  93.7230606 105.8901169  64.7948446  94.6226641 106.7163073  63.9004160
  96.4995166  99.0903045  77.1089006  96.4671486  98.1519046  77.2948690
  97.1095789  99.1687082  76.3754831  88.3378496  97.9599098  63.1516210
  89.2837601  97.8305306  63.2204629  87.9592741  97.2213760  63.6285639
  96.6489654  95.8814088  77.1547290  96.1328703  95.0972545  76.9677218
  97.5329603  95.5532805  77.3193809  94.3100381  89.6255104  73.1143102
  94.1125202  89.3170192  73.9986434  94.9200087  90.3516743  73.2441032
 102.3171715 100.1519052  76.2495043 103.0475104  99.8904340  76.8102747
 101.7078661  99.4147774  76.2897111 100.3987013  98.2926914  76.8469494
  99.6720176  98.1582879  76.2385986  99.9834299  98.6003743  77.6526212
  88.2217189 102.0116844  84.6116867  89.1420198 102.1895443  84.8056914
  88.1866772 101.0672889  84.4596567  86.5221414  95.8849074  63.0871096
  85.6152869  95.5882187  63.1633809  86.7997395  95.5878892  62.2205382
  77.4399354  97.2055438  73.5370142  77.1202138  96.3520746  73.2444516
  76.8932782  97.4204016  74.2928109  81.2179262  99.9217879  77.2539649
  81.4365271 100.8534986  77.2727682  81.6305035  99.5625853  78.0394452
  88.1383479  90.4285964  69.2415337  87.3284208  90.0833049  69.6170583
  88.8267896  90.1193508  69.8302949  90.0674028  89.5064011  70.8639634
  90.6205066  89.9259464  71.5229657  90.3044114  88.5799759  70.9062590
  86.0907127  95.4951084  86.6442398  85.9903854  96.4445441  86.5754489
  85.8728669  95.1669323  85.7718468  85.2920198  92.7436009  63.2283075
  86.1539362  93.0690908  63.4878892  85.4770542  91.9567505  62.7156141
  77.3087614 100.8258349  75.5063264  76.6151085 100.4112302  74.9933218
  78.0560605 100.8678886  74.9096683  93.4452835  91.6164536  70.3718298
  92.8651504  92.2749340  69.9896350  93.1788767  90.7941880  69.9605715
  91.8956401  91.0169594  72.5739618  92.3956179  91.1286128  71.7653937
  92.5392009  90.7130646  73.2140427  85.9538397  98.9248223  85.4607459
  85.4705479  99.7248583  85.6671348  86.0399336  98.9356168  84.5074903
  79.2224357 100.7576603  73.3829279  79.1995045 100.8564290  72.4311162
  79.5324993 101.6041754  73.7046445  81.8811734 102.8152758  77.4975893
  82.8354988 102.7836700  77.4305825  81.6824258 102.3543382  78.3126119
  82.4711117 101.3853874  80.0646691  83.2904006 101.8797953  80.0881528
  82.7447924 100.4685842  80.0364258  92.2277713  93.7764626  69.4274646
  91.3403568  94.0614277  69.2094841  92.6431702  93.6158390  68.5801923
  95.5792249  93.8011147  73.1428985  96.3552639  94.2907600  73.4153602
  94.8540383  94.2269201  73.6000855  98.0164807  94.5138766  74.2002926
  98.6109298  94.2734502  73.4896234  98.0891391  93.7945897  74.8276462
  80.2361963 108.3572377  74.5146091  80.1016431 107.5972778  73.9484089
  79.8194025 109.0813277  74.0474880  91.3720926 103.5409301  63.5222666
  92.0756776 103.7459303  64.1380322  90.6483575 104.1086063  63.7871750
  92.2018736  99.2919162  69.6424936  92.1453938  99.7487714  68.8032569
  92.7547079  98.5309847  69.4647779  96.0123542  95.0808894  70.4675056
  95.7560477  94.6805530  71.2983264  95.3876410  95.7952688  70.3425195
 100.3235880  97.8204967  72.9746347  99.7635438  97.8898157  73.7477909
  99.7179384  97.6445952  72.2545843  83.3931089 109.2541694  74.7264534
  83.2763473 110.1987127  74.6243224  82.5723535 108.9515256  75.1150333
  93.2807624 103.9791830  65.5721126  94.1153228 103.5473029  65.3898601
  93.1191967 103.8073844  66.4998021  92.9353516 100.4823943  66.9377466
  92.8802320 100.3168215  65.9965910  92.3099571 101.1899976  67.0939655
  77.7246031  95.7192008  80.7638888  78.3704894  95.2090962  81.2526113
  77.5163182  96.4560689  81.3382313  90.2499423 102.7872855  86.2631028
  91.1190583 102.9613508  85.9017663  89.7706174 103.6067272  86.1406758
  86.2449641  89.9832052  66.5162784  86.2328311  90.9273892  66.6731055
  87.1373063  89.8002198  66.2222245  84.4185603 109.9069956  77.9420462
  85.3212850 109.9393567  78.2586957  84.1922973 108.9770407  77.9566798
  86.1739205 108.6600943  74.6030541  85.2234836 108.6602804  74.4894913
  86.4771691 107.9133677  74.0866575  90.0601761  86.5774829  70.7708721
  89.2934157  86.0233316  70.9165403  90.4712466  86.6496698  71.6322872
  82.0643522  92.8659625  84.8613902  82.9274983  92.5096430  85.0717227
  81.4908932  92.5273520  85.5489306 101.9091899 114.4961481  75.6676303
 102.5470309 114.3768229  74.9639643 101.7912742 115.4442325  75.7264255
  98.7181605 114.4488909  75.6037828  98.3800117 114.3329974  74.7158363
  99.5871373 114.0480074  75.5838834  94.5768421 116.3024386  71.5934719
  94.0133286 116.2114323  70.8251006  94.4620816 115.4824290  72.0737211
  99.2001388 115.6023761  81.5624033  99.1890029 115.2076559  80.6904537
  99.3622027 114.8689834  82.1557805  92.1232853 117.7975577  74.4318939
  92.9154145 117.4566402  74.0165238  92.3629503 117.9070552  75.3521092
  94.0823607 117.0584491  67.3036318  94.8554483 116.5113478  67.1649194
  94.4349005 117.9228740  67.5150779  95.9208649 118.3860873  80.5103217
  95.6298515 119.2906504  80.3949883  96.5565633 118.4277400  81.2247287
  96.8464856 115.7637721  77.1004577  97.4428428 115.5393744  76.3861540
  96.9039827 115.0222467  77.7030025  96.4189884 113.2177157  64.9354768
  96.6715405 112.6958678  64.1738231  95.4814443 113.0543302  65.0381451
 101.4633167 112.2212935  72.7429511 102.2496256 111.8032358  72.3919928
 101.7271872 113.1259027  72.9111159 106.8641594 112.1588168  73.6462490
 107.5966766 111.5887385  73.8800319 106.1080950 111.7709769  74.0868995
  96.1386173 115.1205263  67.1379143  96.0222431 114.4450166  67.8060227
  96.2488433 114.6337637  66.3211296  98.4817714 114.5815410  70.8425832
  98.1175921 114.0546031  71.5538753  99.3384830 114.1913879  70.6692317
 104.3867015 105.8709742  78.1057098 104.0550339 106.7405153  77.8818313
 103.7912628 105.5546026  78.7851129  98.1223201 109.6105309  65.8387180
  98.2897603 110.4785546  66.2057652  97.9320370 109.7732591  64.9148470
  94.3311016 114.5236085  73.5389715  93.4061512 114.3912299  73.7467407
  94.5795429 115.3030304  74.0359658 104.2795678 110.5904829  75.1850448
 103.3712555 110.5220237  74.8909209 104.2283274 111.0676773  76.0132274
  98.1012422 112.0662967  66.8233847  97.9812047 112.5120018  67.6619328
  97.4065010 112.4148285  66.2647385  91.6919827 114.1669359  74.3733504
  91.8212208 114.4203838  75.2872916  91.0117278 114.7597067  74.0538159
  98.3536544 112.0094474  83.1285345  97.5769878 112.5688394  83.1188210
  98.9927107 112.4951257  83.6500216 106.1457324 108.7921267  76.9628322
 105.5031705 109.0853800  76.3168117 105.6412253 108.6774187  77.7681519
 103.7997488 112.5384440  67.6514181 104.7115344 112.7711827  67.4761879
 103.2907135 113.1221484  67.0889260  96.6082916 114.8179927  82.6903312
  97.3497600 115.3564971  82.4138136  95.9019902 115.4446216  82.8474864
 102.0838256 116.9609068  81.2875474 102.4921612 116.5191478  80.5430106
 101.3615517 116.3861695  81.5409667  98.4369326 111.8981675  78.6609031
  99.2830521 112.3221088  78.8043680  98.3767963 111.2415299  79.3547594
 101.5868771 109.5586043  80.3190205 101.3429703 110.3128104  79.7824480
 101.8628702 109.9371391  81.1537452 101.1433463 108.7142476  75.9004042
 100.2817942 109.0123730  76.1920780 101.1695897 108.9312875  74.9685075
  97.9595032 117.2584667  72.3077848  98.4233378 117.5372370  71.5182470
  97.6951830 116.3568111  72.1250939  94.8519113 116.8056148  75.2457611
  95.4220470 117.2343417  74.6075096  95.4427225 116.5238733  75.9441797
  96.8963918 113.3807819  69.1167413  97.5987962 113.8328863  69.5841339
  96.5644547 112.7391638  69.7447306  95.3444280 111.9719576  83.4918622
  94.7142940 112.6535857  83.7254019  95.2380368 111.8602657  82.5471761
  90.6389252 111.6391372  74.4184547  89.8488306 111.8948900  73.9424657
  91.1300500 112.4539710  74.5236587  92.5903998 112.0035951  71.3768023
  91.7935161 112.1154645  71.8951519  92.3629590 112.3422603  70.5108914
  98.4209665 118.5280654  79.3250538  98.4854098 118.9901061  80.1608710
  97.7120589 117.8978019  79.4532848  88.9226955 111.8921862  76.8499537
  89.1734994 112.7768872  77.1157113  89.4586504 111.7126464  76.0774629
  94.6225023 106.2740342  85.8543873  94.2291968 105.7206540  86.5291518
  95.4391163 106.5850920  86.2450391  91.5887080 117.7124200  69.7657443
  92.1011601 118.5067450  69.9163008  92.2409793 117.0150490  69.6991045
  93.3981965 120.8289956  71.8480197  93.5748593 121.7507921  71.6601180
  94.1938799 120.5148375  72.2774576  97.5392984 107.6898221  83.4464130
  98.2802697 108.2905374  83.3668593  97.7710906 106.9475858  82.8882173
  92.6834322 112.8754588  81.7242360  92.5687837 111.9739845  82.0249459
  91.8278839 113.1218285  81.3727176  94.5213280 122.3468130  77.8490539
  95.0720706 122.2185193  77.0767533  93.6824756 122.6463019  77.4985432
  98.3180452 118.6119258  82.1934770  98.8508788 117.8507546  81.9634078
  97.7894533 118.3192909  82.9358924 101.4850146 103.7179324  77.7228412
 101.1414416 104.6080965  77.6467522 101.8529109 103.5280981  76.8597997
  89.5535997 116.0412854  70.5417014  90.3911219 116.4509862  70.3250722
  89.7314265 115.1012296  70.5117208 101.4500429 113.7087935  66.2300847
 100.9347053 114.4792539  66.4689234 101.1777738 113.0353071  66.8533908
  99.0347540 108.5537635  71.2886085  98.1789137 108.1644486  71.1091724
  99.4474492 108.6329596  70.4285871 100.5646687 106.0883979  75.6877645
 100.0611482 106.0514114  74.8745450 100.8577294 106.9976721  75.7474302
  96.8089573 106.1722708  74.6943827  97.6742570 105.9765517  74.3349716
  96.8767082 105.9433060  75.6213183 101.2386732 111.5815027  68.0560628
 100.9336868 111.8961176  68.9070771 102.1917174 111.6596447  68.0987961
  99.6833164 117.7405250  69.7053582  99.1554526 117.0058010  69.3926819
  99.1820667 118.5179926  69.4593550  94.4151892 108.4024916  72.0660194
  94.9895644 108.1800098  71.3333386  95.0022874 108.4713611  72.8188795
 103.4731469 114.2898643  72.8724570 103.9863351 114.9228635  73.3746280
 104.1232693 113.6899839  72.5067930  94.7421479 110.4329377  66.0856079
  93.9058791 110.7704064  66.4065354  94.6026249 110.2978357  65.1483216
  96.7174560 105.2766165  70.7935263  96.0638972 104.9615182  70.1691878
  96.6755034 104.6541906  71.5195086  97.8285764 115.5585460  62.7088555
  96.9212826 115.3274714  62.9079704  98.3256796 114.7623080  62.8962537
  99.9512300 111.7648099  75.1182911  99.0334861 111.9863046  74.9604599
 100.3672444 111.8394409  74.2594618 100.7347348 113.1639514  70.2485591
 101.4819167 113.6760912  69.9392713 101.0038937 112.8423567  71.1089984
  99.0073998 115.6598055  67.2312545  98.0985217 115.3757088  67.3285015
  99.0369082 116.0797134  66.3715852 103.1826185 110.1996631  72.2304380
 102.4448942 109.6874017  72.5614623 103.4352958 109.7597012  71.4187657
 103.2837812 102.9772883  72.8246149 103.5896689 102.1170246  72.5372064
 104.0090417 103.5690503  72.6245143  89.5762168 113.3803569  71.2127747
  89.3786568 112.7872930  70.4878814  89.0208832 113.0755780  71.9303686
  97.5558892 113.2726676  73.3322340  97.6107502 112.3200512  73.2564817
  96.7450094 113.4286115  73.8163639  98.7050086 117.2006799  64.5700624
  98.2669516 116.4842658  64.1106261  99.4460527 117.4282914  64.0085715
  95.4951252 111.8903736  71.0912719  94.6819117 112.1897906  71.4977911
  95.9910246 111.4959424  71.8087202 101.0925463 112.3545560  79.9227613
 101.4474851 112.5817033  80.7822079 101.7397595 112.6863937  79.3004869
  94.9865327 109.4622091  76.7073954  95.6264706 109.3210850  76.0096918
  94.1542857 109.1756604  76.3312556  95.7625630 118.7624521  72.8208947
  96.5566229 118.2674842  72.6191522  95.0517323 118.2342385  72.4576652
  92.0708394 112.9067603  68.8968699  91.1405982 112.8452059  69.1138662
  92.1665866 112.3843556  68.1005341  91.9893943 109.4322416  71.4846941
  92.2500760 110.3467749  71.3756102  92.8111115 108.9646859  71.6343554
  93.4618868 110.8460173  78.6545766  94.1341922 110.6377535  78.0058415
  92.6348655 110.6482259  78.2150998  99.3644440 107.4722114  80.6711427
  98.7172355 108.1712064  80.5775903 100.1345456 107.9058258  81.0387675
  99.5408575 115.3102879  78.7308246 100.4700635 115.4614039  78.5577214
  99.1199605 115.3986900  77.8756893  98.3396906 119.3353543  76.5006784
  98.2007992 118.9672328  77.3732722  97.5511503 119.8501183  76.3290742
  99.8902122 118.7135146  73.8895622  99.5551954 118.6735916  74.7853272
  99.3906067 118.0479862  73.4166032  93.8646366 114.1202776  79.4148203
  93.7266164 113.3883015  80.0159742  94.7751289 114.0311676  79.1332391
 102.8261313 116.0591181  64.1632681 102.2090484 115.3338009  64.0665734
 102.3577802 116.8200541  63.8199756  96.4928666 113.8322736  78.9031882
  97.2028285 113.1915928  78.8618501  96.4497974 114.0835630  79.8258063
  95.2057600 110.8187953  80.7227522  94.6694957 110.3678692  81.3749118
  94.6174309 110.9533862  79.9797986  94.6159859 110.2776605  63.2853986
  93.7389325 110.1565406  62.9216232  95.0917612 109.4862683  63.0332874
  86.1361999 115.0653765  73.3795493  86.8233039 114.7515495  72.7916508
  85.9810128 115.9695129  73.1062744  90.9396721 109.9543961  77.8080516
  90.8554910 109.3469631  77.0730926  90.1179428 110.4452979  77.8090013
 101.1120435 108.4397525  73.1750711 101.6089135 107.6867487  72.8551782
 100.3407417 108.4761841  72.6093921 102.1950216 117.1969212  70.7489135
 101.2606495 117.3170674  70.5793839 102.3726884 116.2941679  70.4849145
  97.6955404 110.5814908  72.9022396  97.3253192 110.0285948  73.5903302
  98.1914497 109.9773041  72.3497396 105.5822767 113.0386531  71.2839169
 106.0483220 113.8714523  71.2099472 106.0330268 112.5731513  71.9884427
  95.5244603 121.0412403  79.9977414  96.2254062 121.6748886  80.1506808
  95.0539718 121.3827134  79.2373053 103.5539430 105.4067118  75.3230070
 102.6402510 105.6371345  75.4912277 103.9832532 105.4905562  76.1744103
 103.3245889 113.5957010  77.8229964 102.6717339 113.8432918  77.1682417
 103.7026268 112.7821148  77.4892442  99.3733462 114.3376821  84.3096001
  98.6974099 114.2370950  84.9798377 100.1961096 114.1816035  84.7731999
  91.1212321 120.5748758  76.9308517  91.7065758 119.8292446  77.0636421
  90.9237159 120.8852714  77.8145181  85.7129975 113.1454358  75.6512960
  85.7514075 112.6117949  76.4450078  85.2070268 112.6189563  75.0323937
  93.0920738 107.9918898  79.1475502  93.1562064 108.8533729  78.7352900
  93.0287858 107.3792900  78.4147861  92.5673010 110.0642031  82.7948536
  93.1945049 109.6819108  83.4086061  91.7100929 109.8456233  83.1604229
  89.3438553 111.8718460  68.7266891  89.6391994 110.9629138  68.6733945
  88.4426589 111.8506199  68.4047894  92.8732800 109.9474457  74.7094440
  92.1519386 110.5610424  74.5701913  93.6626056 110.4832221  74.6311086
  95.6759114 107.2828883  80.9835092  96.1993515 107.5291180  81.7461401
  95.4571447 108.1148918  80.5638229  91.0726395 109.5532558  68.8506216
  90.7439101 108.6729937  68.6681322  91.4265765 109.4980226  69.7382606
  94.1868218 109.8405528  69.2181694  94.5264290 110.3691449  68.4960302
  94.6340338 110.1785934  69.9940261  96.8811659 108.2242578  78.6684762
  96.5408479 107.4250391  79.0705442  96.1750665 108.5244289  78.0961595
  97.5328130 105.3091891  77.1212085  98.3554200 104.8352369  76.9990975
  97.7766194 106.0882374  77.6210771  96.1736365 108.3380149  67.4174987
  96.8944727 108.7161402  66.9138704  95.5501669 109.0569026  67.5209965
 100.3167488 109.0425298  68.3533319 100.5331102 109.9249936  68.0522147
  99.8361555 108.6511511  67.6238961  95.0566709 112.0011011  74.9304064
  94.9111290 112.3151314  75.8228345  94.5791913 112.6195912  74.3774962
  96.9163092 108.9913559  74.9784953  96.9024661 108.0954653  74.6417251
  97.6335520 108.9984223  75.6123239  98.7689223 109.4250899  77.0238081
  98.5107001 110.3467970  77.0222411  98.2374263 109.0281334  77.7138545
  89.5312371 114.5416356  77.8691725  88.9865839 115.3176164  78.0011999
  90.4091721 114.8887160  77.7110846  96.3199988 107.8727940  70.2472523
  96.4415899 106.9444586  70.4463411  96.0302030 107.8866626  69.3350839
  99.1891178 105.5582850  73.3839243  99.2112875 105.6222183  72.4291223
  99.6059237 104.7187359  73.5779749  90.3178393 113.6686252  80.7621882
  89.5760129 113.8168887  81.3486512  89.9971137 113.9294518  79.8988631
  90.7635007 121.5551681  72.7932276  91.5893027 121.2555453  72.4130920
  90.4129059 120.7859303  73.2422065  95.7316540 120.9078149  74.8629950
  95.1096549 120.2448854  74.5632178  96.4021407 120.9339281  74.1803598
  88.9643612 119.4738007  73.7521210  88.1275520 119.0460181  73.5705211
  88.9367257 119.6670450  74.6892001  95.8041068 109.3859937  84.4562456
  95.8529223 110.2622060  84.0740226  96.3463582 108.8437330  83.8834099
  95.2930047 119.4582072  68.3388411  95.4418167 120.1417537  67.6855083
  96.0996490 119.4387162  68.8537866 103.6997551 112.7624455  82.3655628
 104.6007413 112.6230919  82.0739626 103.7745525 112.9278909  83.3053806
  98.0340356 110.1391309  81.2108815  97.1643665 110.4324875  80.9391403
  98.2699836 110.7231754  81.9316078  93.0482680 115.4847250  69.3449479
  92.8028722 114.5809580  69.5429690  93.2178594 115.4864400  68.4028957
 100.7379390 106.3570926  78.7274235 101.2561334 107.0931953  78.4020724
 100.3834523 106.6634920  79.5620994  92.3178327 111.2175607  66.8435641
  91.6247572 111.2919962  66.1875677  92.0730079 110.4535951  67.3657158
 100.9891984 102.7771209  74.2475132 101.2693738 102.1094398  74.8735558
 101.7742591 102.9700304  73.7349796 104.8600842 111.1988843  77.9946707
 105.8118265 111.2986940  78.0158931 104.6904293 110.4067111  78.5044791
 102.8815222 108.2844426  78.1806108 102.2865154 108.5649439  77.4852596
 102.5964918 108.7738327  78.9522849  99.1772251 113.2891015  63.1516210
 100.1231356 113.1597224  63.2204629  98.7986496 112.5505677  63.6285639
 107.4883409 111.2106006  77.1547290 106.9722457 110.4264463  76.9677218
 108.3723357 110.8824723  77.3193809 105.1494135 104.9547021  73.1143102
 104.9518957 104.6462110  73.9986434 105.7593841 105.6808660  73.2441032
  99.0610943 117.3408762  84.6116867  99.9813953 117.5187361  84.8056914
  99.0260527 116.3964807  84.4596567  97.3615168 111.2140992  63.0871096
  96.4546623 110.9174105  63.1633809  97.6391149 110.9170810  62.2205382
  88.2793108 112.5347355  73.5370142  87.9595893 111.6812663  73.2444516
  87.7326537 112.7495933  74.2928109  92.0573016 115.2509796  77.2539649
  92.2759026 116.1826904  77.2727682  92.4698790 114.8917771  78.0394452
  98.9777234 105.7577882  69.2415337  98.1677962 105.4124967  69.6170583
  99.6661651 105.4485425  69.8302949 100.9067782 104.8355928  70.8639634
 101.4598821 105.2551382  71.5229657 101.1437868 103.9091676  70.9062590
  96.9300881 110.8243002  86.6442398  96.8297608 111.7737359  86.5754489
  96.7122423 110.4961241  85.7718468  96.1313953 108.0727927  63.2283075
  96.9933117 108.3982825  63.4878892  96.3164297 107.2859423  62.7156141
  88.1481368 116.1550267  75.5063264  87.4544840 115.7404220  74.9933218
  88.8954359 116.1970803  74.9096683 104.2846589 106.9456454  70.3718298
 103.7045258 107.6041258  69.9896350 104.0182522 106.1233798  69.9605715
 102.7350156 106.3461511  72.5739618 103.2349934 106.4578046  71.7653937
 103.3785763 106.0422564  73.2140427  96.7932151 114.2540141  85.4607459
  96.3099233 115.0540501  85.6671348  96.8793090 114.2648086  84.5074903
  90.0618111 116.0868521  73.3829279  90.0388799 116.1856208  72.4311162
  90.3718748 116.9333671  73.7046445  92.7205489 118.1444676  77.4975893
  93.6748742 118.1128618  77.4305825  92.5218012 117.6835299  78.3126119
  93.3104871 116.7145792  80.0646691  94.1297760 117.2089870  80.0881528
  93.5841679 115.7977760  80.0364258 103.0671467 109.1056544  69.4274646
 102.1797322 109.3906195  69.2094841 103.4825456 108.9450307  68.5801923
 106.4186003 109.1303065  73.1428985 107.1946393 109.6199517  73.4153602
 105.6934138 109.5561119  73.6000855 108.8558562 109.8430684  74.2002926
 109.4503053 109.6026420  73.4896234 108.9285146 109.1237815  74.8276462
  91.0755718 123.6864295  74.5146091  90.9410186 122.9264696  73.9484089
  90.6587780 124.4105195  74.0474880 103.0412491 114.6211080  69.6424936
 102.9847692 115.0779631  68.8032569 103.5940833 113.8601764  69.4647779
 106.8517297 110.4100812  70.4675056 106.5954231 110.0097447  71.2983264
 106.2270165 111.1244606  70.3425195 103.7747270 115.8115861  66.9377466
 103.7196074 115.6460133  65.9965910 103.1493326 116.5191894  67.0939655
  88.5639785 111.0483925  80.7638888  89.2098649 110.5382879  81.2526113
  88.3556936 111.7852607  81.3382313  97.0843396 105.3123970  66.5162784
  97.0722066 106.2565810  66.6731055  97.9766818 105.1294115  66.2222245
 100.8995515 101.9066747  70.7708721 100.1327911 101.3525233  70.9165403
 101.3106220 101.9788615  71.6322872  92.9037276 108.1951543  84.8613902
  93.7668738 107.8388347  85.0717227  92.3302687 107.8565437  85.5489306
  36.8729373  -0.4727902  62.3921610  37.5107783  -0.5921155  61.6884950
  36.7550216   0.4752942  62.4509562  33.6819079  -0.5200474  62.3283134
  33.3437591  -0.6359409  61.4403669  34.5508847  -0.9209309  62.3084140
  29.5405895   1.3335002  58.3180025  28.9770760   1.2424939  57.5496313
  29.4258290   0.5134907  58.7982518  34.1638862   0.6334378  68.2869340
  34.1527503   0.2387176  67.4149843  34.3259502  -0.0999550  68.8803111
  27.0870327   2.8286194  61.1564246  27.8791619   2.4877019  60.7410545
  27.3266977   2.9381169  62.0766399  35.1205454   5.0005970  53.6294490
  34.4693433   5.5860050  53.2428504  35.9149817   5.5312165  53.6889528
  29.0461081   2.0895107  54.0281624  29.8191957   1.5424094  53.8894500
  29.3986480   2.9539356  54.2396086  30.8846123   3.4171489  67.2348524
  30.5935989   4.3217120  67.1195190  31.5203108   3.4588017  67.9492593
  31.8102330   0.7948338  63.8249883  32.4065903   0.5704360  63.1106846
  31.8677302   0.0533083  64.4275331  31.3827359  -1.7512227  51.6600074
  31.6352879  -2.2730705  50.8983537  30.4451918  -1.9146081  51.7626758
  36.4270641  -2.7476448  59.4674818  37.2133731  -3.1657025  59.1165235
  36.6909346  -1.8430356  59.6356466  36.5980719   2.6896402  54.1663474
  35.9626552   2.7631028  54.8784379  36.2678125   3.2790001  53.4882554
  41.8279069  -2.8101215  60.3707796  42.5604241  -3.3801998  60.6045626
  41.0718424  -3.1979615  60.8114302  31.1023647   0.1515879  53.8624449
  30.9859906  -0.5239217  54.5305534  31.2125907  -0.3351747  53.0456602
  33.4455188  -0.3873974  57.5671139  33.0813396  -0.9143353  58.2784060
  34.3022304  -0.7775505  57.3937624  35.8436009   3.1032905  64.2298317
  35.5436732   4.0057944  64.1214125  35.4987068   2.8365088  65.0819470
  29.2948490  -0.4453298  60.2635022  28.3698986  -0.5777084  60.4712714
  29.5432903   0.3340921  60.7604964  39.2433152  -4.3784555  61.9095755
  38.3350030  -4.4469146  61.6154516  39.1920748  -3.9012610  62.7377580
  33.0649896  -2.9026417  53.5479154  32.9449521  -2.4569366  54.3864634
  32.3702485  -2.5541099  52.9892692  30.8256788   9.8677225  57.1969285
  30.7480818  10.8185050  57.2757766  30.2218432   9.5223098  57.8544211
  33.3174018  -2.9594909  69.8530652  32.5407352  -2.4000989  69.8433517
  33.9564581  -2.4738126  70.3745522  41.1094799  -6.1768117  63.6873629
  40.4669179  -5.8835583  63.0413423  40.6049727  -6.2915196  64.4926825
  38.7634962  -2.4304943  54.3759488  39.6752818  -2.1977557  54.2007186
  38.2544609  -1.8467899  53.8134567  31.5720390  -0.1509456  69.4148619
  32.3135075   0.3875588  69.1383443  30.8657376   0.4756833  69.5720171
  37.0475730   1.9919684  68.0120781  37.4559086   1.5502095  67.2675413
  36.3252992   1.4172312  68.2654973  33.4006800  -3.0707709  65.3854338
  34.2467995  -2.6468295  65.5288987  33.3405438  -3.7274084  66.0792901
  37.3704545   2.5520875  61.7673069  36.7413407   2.7166589  61.0649137
  36.9830207   2.9662485  62.5384033  41.2493777   3.4875313  59.1217433
  40.5644815   3.8674214  58.5714467  41.3337626   4.0970640  59.8549381
  36.5506245  -5.4103340  67.0435511  36.3067177  -4.6561280  66.5069787
  36.8266176  -5.0317993  67.8782758  38.5044708   1.1335272  65.7212777
  38.7161603   1.7767032  65.0447158  38.4574456   0.2997589  65.2534707
  36.1070937  -6.2546907  62.6249349  35.2455416  -5.9565654  62.9166086
  36.1333372  -6.0376508  61.6930382  32.9232507   2.2895283  59.0323155
  33.3870852   2.5682986  58.2427777  32.6589305   1.3878728  58.8496245
  29.8156588   1.8366765  61.9702918  30.3857945   2.2654033  61.3320402
  30.4064699   1.5549349  62.6687103  31.8601393  -1.5881564  55.8412720
  32.5625436  -1.1360521  56.3086646  31.5282021  -2.2297746  56.4692613
  39.6190536   4.0107227  63.8935134  40.4407980   3.6087415  63.6117816
  39.6152939   3.9075462  64.8451250  33.3847140   3.5591271  66.0495845
  33.4491572   4.0211678  66.8854016  32.6758063   2.9288636  66.1778154
  47.7096529   0.3545976  60.2420106  46.9560238  -0.2146626  60.0864110
  47.8444070   0.3208640  61.1890740  33.0995157   5.2259378  55.9174825
  32.9640832   6.0710914  56.3459673  33.6404970   5.4278656  55.1540759
  26.5524555   2.7434816  56.4902750  27.0649075   3.5378066  56.6408315
  27.2047267   2.0461107  56.4236351  28.3619439   5.8600573  58.5725503
  28.5386068   6.7818537  58.3846487  29.1576273   5.5458992  59.0019883
  34.7263634   5.8482945  70.0475167  34.2827488   5.0619323  69.7296071
  35.3880847   6.0362095  69.3819058  29.4850755   7.3778746  64.5735846
  30.0358180   7.2495810  63.8012839  28.6462231   7.6773635  64.2230738
  36.8244872   6.1285745  68.0756568  36.8063347   6.9494626  67.5836837
  37.7464792   6.0039820  68.3006709  33.2817926   3.6429874  68.9180077
  33.8146263   2.8818162  68.6879385  32.7532007   3.3503526  69.6604231
  36.4137904  -1.2601449  52.9546153  35.8984527  -0.4896844  53.1934541
  36.1415212  -1.9336313  53.5779215  41.3872178   1.4930906  54.8899327
  40.6101620   1.1542065  54.4454489  42.0663659   1.4983529  54.2154292
  36.2024207  -3.3874357  54.7805935  35.8974342  -3.0728208  55.6316078
  37.1554649  -3.3092937  54.8233268  34.6470639   2.7715867  56.4298889
  34.1192000   2.0368626  56.1172126  34.1458141   3.5490543  56.1838857
  39.6263485   0.9664887  61.5465935  38.9687159   1.6564148  61.6346064
  40.4303884   1.3561319  61.8899921  38.4368943  -0.6790740  59.5969877
  38.9500825  -0.0460748  60.0991586  39.0870167  -1.2789545  59.2313237
  32.7923239   0.5896077  49.4333862  31.8850300   0.3585330  49.6325011
  33.2894271  -0.2066304  49.6207843  35.6991318   9.2993584  52.3530548
  35.0253016   9.6025281  52.9615506  36.0857140  10.1022664  52.0036005
  34.9149774  -3.2041285  61.8428217  33.9972336  -2.9826338  61.6849905
  35.3309918  -3.1294974  60.9839925  35.6984822  -1.8049869  56.9730897
  36.4456641  -1.2928472  56.6638020  35.9676412  -2.1265816  57.8335291
  33.9711472   0.6908672  53.9557852  33.0622691   0.4067705  54.0530322
  34.0006556   1.1107750  53.0961159  39.2030740   4.3015261  57.7249019
  38.7493067   3.4606171  57.7814210  38.5724706   4.9376660  58.0623799
  38.1463659  -4.7692753  58.9549687  37.4086416  -5.2815367  59.2859929
  38.3990433  -5.2092371  58.1432964  37.6463679   6.1391758  58.6598837
  37.9386653   6.6996815  57.9411203  38.1562299   6.4320319  59.4151997
  32.5196366  -1.6962708  60.0567647  32.5744976  -2.6488871  59.9810124
  31.7087568  -1.5403269  60.5408946  33.6687560   2.2317415  51.2945930
  33.2306990   1.5153274  50.8351568  34.4098001   2.4593530  50.7331022
  32.6097304   6.9172109  59.7492291  32.5673483   7.1432955  58.8200823
  33.5260003   6.6835484  59.8978092  36.0562938  -2.6143823  66.6472920
  36.4112326  -2.3872350  67.5067386  36.7035069  -2.2825447  66.0250175
  41.7860675   0.5074612  57.3522249  41.6478573   0.6976208  56.4243438
  41.4296894   1.2693995  57.8090300  41.8130054   2.5751139  62.3633520
  42.2466561   2.4826429  63.2116574  42.5261635   2.5508640  61.7253536
  30.7263105   3.7935138  59.5454253  31.5203703   3.2985458  59.3436828
  30.0154797   3.2653001  59.1821959  35.5457949   6.1753234  63.8966621
  35.5994972   6.7444170  64.6644337  34.6772731   6.3455119  63.5320658
  42.6745604   2.6174840  64.8966406  42.8681494   3.5220651  65.1425681
  42.5746222   2.1582259  65.7304991  37.7360713   2.7681583  70.4707286
  37.5846219   2.5392135  69.5537370  37.7265392   3.7252184  70.4838631
  34.5046049   0.3413496  65.4553553  35.4338109   0.4924655  65.2822520
  34.0837079   0.4297516  64.6002199  33.3034381   4.3664160  63.2252090
  33.1645466   3.9982944  64.0978029  32.5148977   4.8811799  63.0536048
  33.8982533   9.4673256  54.5677627  34.0734288   8.9961300  55.3823250
  33.2115321  10.0939023  54.7958888  34.8539596   3.7445763  60.6140928
  34.5189429   3.7046533  61.5098578  34.3543542   3.0790479  60.1411339
  28.8283840  -0.8486607  66.1393509  28.6903638  -1.5806368  66.7405048
  29.7388763  -0.9377707  65.8577697  37.7898788   1.0901797  50.8877988
  37.1727958   0.3648625  50.7911041  37.3215276   1.8511157  50.5445062
  31.4566141  -1.1366648  65.6277189  32.1665759  -1.7773456  65.5863808
  31.4135449  -0.8853753  66.5503370  39.4452919   5.8000705  68.5483768
  39.3865465   5.1159926  67.8814351  39.8472438   6.5419695  68.0964394
  28.4643618  12.6162619  61.3417487  28.7040216  13.2481143  62.0196506
  27.6212815  12.2650659  61.6282846  39.4470326   3.7640289  66.7797748
  38.5597105   3.4266211  66.9024147  40.0168878   3.0323321  67.0166513
  32.9771480   8.4241742  63.7458991  32.9041651   9.2296713  64.2578296
  32.5348873   8.6233708  62.9207013  32.7661260   7.6613512  57.2561813
  31.9828781   8.2035192  57.3500037  33.4654005   8.1787491  57.6556054
  36.0757910  -6.5291859  59.8996018  36.5726609  -7.2821897  59.5797088
  35.3044891  -6.4927542  59.3339227  43.9287667  -0.8251493  61.5414310
  43.9177543   0.0573222  61.1708243  43.0605046  -1.1779942  61.3468847
  35.4370163   8.3228576  65.9017150  36.1498136   8.9576041  65.8293051
  34.9460192   8.4192442  65.0857152  37.1587690   2.2279828  57.4734442
  36.2243969   2.3481291  57.3039146  37.3364359   1.3252295  57.2094451
  40.5460242  -1.9302852  58.0084476  41.0120694  -1.0974861  57.9344778
  40.9967742  -2.3957871  58.7129734  30.4882077   6.0723019  66.7222721
  31.1891536   6.7059502  66.8752115  30.0177192   6.4137751  65.9618360
  38.6136473   4.4140969  55.0070628  38.8896317   4.2997564  55.9164502
  37.7440972   4.0158454  54.9682801  38.2883363  -1.3732373  64.5475271
  37.6354813  -1.1256466  63.8927724  38.6663743  -2.1868235  64.2137748
  35.2490537   8.6627320  58.6503441  35.4312931   7.8448976  59.1131194
  36.0723523   8.8795012  58.2128331  35.5832702   7.5895505  55.9118490
  36.1120469   7.0787960  55.2988652  35.8460922   7.2738035  56.7764023
  34.3370936  -0.6312562  71.0341308  33.6611573  -0.7318433  71.7043683
  35.1598570  -0.7873349  71.4977305  26.0849795   5.6059374  63.6553823
  26.6703232   4.8603062  63.7881728  25.8874633   5.9163331  64.5390487
  28.9388450   8.6410622  58.6716266  28.2698825   9.1256749  58.1880306
  28.8001320   8.8879842  59.5859644  33.0793719  10.6754365  65.2698924
  33.6312027  10.8385987  66.0348009  33.4199912  11.2658803  64.5978949
  37.9304593   5.5015623  71.1247579  38.4744497   6.1145581  70.6302533
  37.3491438   6.0595201  71.6414592  36.2162106   8.6236341  62.2562606
  36.0913246   7.8226081  61.7473552  36.8741197   9.1182534  61.7676576
  38.2797014   6.4245361  63.8842156  37.3327350   6.3050712  63.8120483
  38.6279788   5.5367859  63.9668418  35.2843448   6.2198077  60.0846509
  35.1368410   5.2914784  60.2654079  36.1096941   6.2418168  59.6003584
  38.8877570   7.0426636  61.1711381  39.8124117   6.8369497  61.0335832
  38.7192873   6.7943037  62.0800723  38.6772886   7.5612303  56.5273473
  38.8509763   6.9958726  55.7747325  39.1701777   8.3613198  56.3452963
  44.5312277   0.3248726  58.1463773  44.9743423  -0.4243949  57.7482896
  43.6538787   0.3158862  57.7637504  39.6648058   6.8779068  53.6270371
  40.3598963   7.4985760  53.8457686  40.0071208   6.0274419  53.9022749
  41.5639481   4.3278773  55.1557702  42.0890806   4.6666046  54.4307022
  41.4761834   3.3925788  54.9720836  33.2259530   8.2412847  67.2847578
  33.5346657   7.9961993  68.1570278  34.0235012   8.4459485  66.7966449
  33.2480142  10.3950756  59.5152955  32.8085132   9.9027135  60.2085812
  33.9988259   9.8523724  59.2745030  25.7272481   6.5862297  59.5177583
  26.5530501   6.2866069  59.1376227  25.3766533   5.8169920  59.9667372
  30.6954014   5.9388765  61.5875257  30.0734024   5.2759470  61.2877485
  31.3658881   5.9649897  60.9048904  23.9281086   4.5048624  60.4766517
  23.0912995   4.0770798  60.2950518  23.9004732   4.6981067  61.4137308
  41.2533388   4.9611677  70.4608900  40.4628931   4.9435816  69.9213399
  41.0166742   5.4999970  71.2157936  41.3731263   1.8104143  67.7741628
  41.4229267   1.6454151  68.7157151  41.2645186   0.9431402  67.3839509
  30.2567521   4.4892689  55.0633717  30.4055642   5.1728153  54.4100390
  31.0633965   4.4697779  55.5783173  38.6635025  -2.2064929  69.0900935
  39.5644888  -2.3458464  68.7984933  38.7382999  -2.0410474  70.0299112
  42.8749459   4.2301085  68.0183650  42.5834268   4.5931065  68.8547111
  42.2621591   3.5168093  67.8396982  44.0745142   1.7953964  60.5386220
  44.9092033   2.2343768  60.7023780  44.2104270   1.3192618  59.7194466
  41.1236648  -0.6466301  66.4863708  41.5990769  -0.4538654  65.6782559
  40.2002213  -0.5907115  66.2407091  28.0120154   0.5157866  56.0694786
  27.7666196  -0.3879804  56.2674996  28.1816069   0.5175017  55.1274264
  33.7562927   6.9840819  52.5345465  33.1836894   7.6031006  52.0815936
  34.3295720   7.5340181  53.0685387  39.8238317  -3.7700541  64.7192013
  40.7755740  -3.6702443  64.7404237  39.6541767  -4.5622272  65.2290098
  37.8452696  -6.6844957  64.9051414  37.2502628  -6.4039945  64.2097903
  37.5602393  -6.1951057  65.6768155  36.9760187   7.2677969  53.6654047
  37.9090860   7.2023531  53.8686922  36.8883399   8.1034236  53.2068580
  39.6048203   6.5843840  50.6257994  39.5261835   6.2503703  51.5193752
  40.4257870   7.0765608  50.6249467  42.3026394  -0.5494421  63.8334313
  42.2702715  -1.4878420  64.0193997  42.9127018  -0.4710384  63.1000138
  34.1409725  -1.6798368  49.8761517  35.0868830  -1.8092160  49.9449935
  33.7623970  -2.4183706  50.3530945  42.4520883  -3.7583378  63.8792596
  41.9359932  -4.5424921  63.6922525  43.3360831  -4.0864661  64.0439116
  48.1202944   0.5121586  62.9740350  48.8506333   0.2506874  63.5348053
  47.5109890  -0.2249692  63.0142418  46.2018241  -1.3470552  63.5714801
  45.4751405  -1.4814587  62.9631293  45.7865528  -1.0393723  64.3771519
  34.0248418   2.3719378  71.3362174  34.9451427   2.5497977  71.5302221
  33.9898001   1.4275423  71.1841873  27.0210490   0.2820413  63.9784955
  27.2396500   1.2137521  63.9972989  27.4336264  -0.0771613  64.7639759
  39.2484064  -8.0232930  57.0963605  38.6682733  -7.3648126  56.7141657
  38.9819996  -8.8455585  56.6851022  31.7569626  -0.7149243  72.1852766
  31.2736707   0.0851117  72.3916655  31.8430565  -0.7041298  71.2320210
  25.0255585   1.1179137  60.1074585  25.0026273   1.2166824  59.1556468
  25.3356222   1.9644288  60.4291751  27.6842963   3.1755292  64.2221200
  28.6386217   3.1439234  64.1551131  27.4855487   2.7145916  65.0371426
  28.2742345   1.7456408  66.7891997  29.0935234   2.2400487  66.8126835
  28.5479153   0.8288376  66.7609565  38.0308942  -5.8632840  56.1519953
  37.1434797  -5.5783189  55.9340148  38.4462931  -6.0239076  55.3047230
  41.3823478  -5.8386319  59.8674292  42.1583868  -5.3489866  60.1398909
  40.6571612  -5.4128264  60.3246162  43.8196036  -5.1258699  60.9248233
  44.4140527  -5.3662963  60.2141541  43.8922620  -5.8451569  61.5521769
  26.0393192   8.7174912  61.2391398  25.9047660   7.9575312  60.6729396
  25.6225254   9.4415811  60.7720186  37.1752155   3.9011835  50.2467973
  37.8788005   4.1061838  50.8625628  36.4514804   4.4688597  50.5117056
  38.0049965  -0.3478304  56.3670243  37.9485167   0.1090248  55.5277875
  38.5578308  -1.1087619  56.1893086  41.8154771  -4.5588572  57.1920362
  41.5591705  -4.9591936  58.0228570  41.1907639  -3.8444778  57.0670502
  46.1267109  -1.8192499  59.6991654  45.5666667  -1.7499309  60.4723216
  45.5210612  -1.9951514  58.9791150  29.1962318   9.6144229  61.4509840
  29.0794702  10.5589661  61.3488530  28.3754764   9.3117790  61.8395639
  39.0838852   4.3394364  52.2966433  39.9184456   3.9075563  52.1143908
  38.9223195   4.1676378  53.2243327  38.7384745   0.8426478  53.6622772
  38.6833548   0.6770749  52.7211216  38.1130800   1.5502511  53.8184962
  36.0530652   3.1475389  72.9876335  36.9221811   3.3216042  72.6262970
  35.5737403   3.9669806  72.8652064  30.2216832  10.2672490  64.6665769
  31.1244079  10.2996101  64.9832264  29.9954202   9.3372941  64.6812104
  31.9770434   9.0203477  61.3275847  31.0266065   9.0205339  61.2140219
  32.2802920   8.2736212  60.8111882  47.7123127  14.8564015  62.3921610
  48.3501537  14.7370763  61.6884950  47.5943970  15.8044859  62.4509562
  44.5212834  14.8091444  62.3283134  44.1831345  14.6932508  61.4403669
  45.3902602  14.4082609  62.3084140  40.3799649  16.6626920  58.3180025
  39.8164515  16.5716857  57.5496313  40.2652045  15.8426824  58.7982518
  45.0032617  15.9626295  68.2869340  44.9921258  15.5679094  67.4149843
  45.1653256  15.2292368  68.8803111  37.9264081  18.1578112  61.1564246
  38.7185373  17.8168936  60.7410545  38.1660732  18.2673087  62.0766399
  45.9599208  20.3297888  53.6294490  45.3087188  20.9151968  53.2428504
  46.7543571  20.8604083  53.6889528  39.8854835  17.4187025  54.0281624
  40.6585711  16.8716012  53.8894500  40.2380234  18.2831274  54.2396086
  41.7239878  18.7463407  67.2348524  41.4329744  19.6509038  67.1195190
  42.3596862  18.7879935  67.9492593  42.6496085  16.1240256  63.8249883
  43.2459657  15.8996278  63.1106846  42.7071056  15.3825001  64.4275331
  42.2221113  13.5779691  51.6600074  42.4746634  13.0561212  50.8983537
  41.2845672  13.4145836  51.7626758  47.2664396  12.5815469  59.4674818
  48.0527485  12.1634892  59.1165235  47.5303100  13.4861561  59.6356466
  47.4374473  18.0188320  54.1663474  46.8020306  18.0922946  54.8784379
  47.1071880  18.6081918  53.4882554  52.6672823  12.5190702  60.3707796
  53.3997995  11.9489919  60.6045626  51.9112179  12.1312303  60.8114302
  41.9417402  15.4807797  53.8624449  41.8253660  14.8052700  54.5305534
  42.0519662  14.9940171  53.0456602  44.2848943  14.9417944  57.5671139
  43.9207150  14.4148565  58.2784060  45.1416059  14.5516413  57.3937624
  50.1898243   6.2312277  64.8302405  49.8581568   7.1007688  64.6063620
  49.5943857   5.9148561  65.5096435  43.9254430   9.9707844  52.5632487
  44.0928832  10.8388080  52.9302958  43.7351599  10.1335125  51.6393776
  46.6829763  18.4324823  64.2298317  46.3830486  19.3349861  64.1214125
  46.3380823  18.1657006  65.0819470  40.1342244  14.8838619  60.2635022
  39.2092741  14.7514834  60.4712714  40.3826658  15.6632839  60.7604964
  50.0826907  10.9507363  61.9095755  49.1743784  10.8822771  61.6154516
  50.0314503  11.4279308  62.7377580  43.9043651  12.4265501  53.5479154
  43.7843276  12.8722552  54.3864634  43.2096239  12.7750819  52.9892692
  37.4951056  14.5271893  61.0978811  37.6243437  14.7806372  62.0118223
  36.8148507  15.1199601  60.7783466  41.6650543  25.1969143  57.1969285
  41.5874572  26.1476968  57.2757766  41.0612186  24.8515015  57.8544211
  44.1567773  12.3697008  69.8530652  43.3801107  12.9290928  69.8433517
  44.7958336  12.8553791  70.3745522  51.9488553   9.1523801  63.6873629
  51.3062933   9.4456334  63.0413423  51.4443482   9.0376721  64.4926825
  49.6028717  12.8986974  54.3759488  50.5146573  13.1314361  54.2007186
  49.0938364  13.4824019  53.8134567  42.4114145  15.1782462  69.4148619
  43.1528829  15.7167506  69.1383443  41.7051130  15.8048750  69.5720171
  47.8869485  17.3211602  68.0120781  48.2952841  16.8794013  67.2675413
  47.1646746  16.7464230  68.2654973  44.2400555  12.2584209  65.3854338
  45.0861750  12.6823622  65.5288987  44.1799192  11.6017833  66.0792901
  48.2098299  17.8812793  61.7673069  47.5807162  18.0458507  61.0649137
  47.8223961  18.2954402  62.5384033  52.0887531  18.8167231  59.1217433
  51.4038569  19.1966132  58.5714467  52.1731380  19.4262557  59.8549381
  47.3900000   9.9188577  67.0435511  47.1460932  10.6730638  66.5069787
  47.6659930  10.2973925  67.8782758  49.3438463  16.4627190  65.7212777
  49.5555358  17.1058950  65.0447158  49.2968211  15.6289506  65.2534707
  46.9464692   9.0745010  62.6249349  46.0849171   9.3726264  62.9166086
  46.9727126   9.2915409  61.6930382  43.7626261  17.6187201  59.0323155
  44.2264607  17.8974904  58.2427777  43.4983059  16.7170645  58.8496245
  40.6550342  17.1658682  61.9702918  41.2251699  17.5945951  61.3320402
  41.2458454  16.8841267  62.6687103  42.6995147  13.7410353  55.8412720
  43.4019190  14.1931397  56.3086646  42.3675776  13.0994172  56.4692613
  41.1475509  12.3322110  70.2163929  40.5174169  13.0138391  70.4499326
  41.0411597  12.2205191  69.2717067  36.4420481  11.9993906  61.1429853
  35.6519535  12.2551434  60.6669964  36.9331728  12.8142244  61.2481894
  50.4584291  19.3399145  63.8935134  51.2801734  18.9379332  63.6117816
  50.4546693  19.2367379  64.8451250  38.3935226  12.3638485  58.1013330
  37.5966390  12.4757179  58.6196826  38.1660819  12.7025137  57.2354220
  44.2240894  18.8883188  66.0495845  44.2885327  19.3503596  66.8854016
  43.5151818  18.2580553  66.1778154  34.7258184  12.2524396  63.5744844
  34.9766222  13.1371406  63.8402420  35.2617732  12.0728998  62.8019936
  58.5490284  15.6837894  60.2420106  57.7953992  15.1145292  60.0864110
  58.6837825  15.6500558  61.1890740  43.9388912  20.5551296  55.9174825
  43.8034586  21.4002832  56.3459673  44.4798724  20.7570574  55.1540759
  40.4256251   6.6342876  72.5789180  40.0323197   6.0809074  73.2536824
  41.2422392   6.9453454  72.9695698  37.3918309  18.0726734  56.4902750
  37.9042830  18.8669984  56.6408315  38.0441022  17.3753024  56.4236351
  39.2013194  21.1892490  58.5725503  39.3779822  22.1110455  58.3846487
  39.9970027  20.8750909  59.0019883  43.3424212   8.0500755  70.1709437
  44.0833926   8.6507908  70.0913899  43.5742135   7.3078393  69.6127479
  38.4865550  13.2357122  68.4487666  38.3719065  12.3342379  68.7494765
  37.6310068  13.4820819  68.0972483  45.5657388  21.1774862  70.0475167
  45.1221242  20.3911241  69.7296071  46.2274602  21.3654013  69.3819058
  40.3244509  22.7070664  64.5735846  40.8751934  22.5787727  63.8012839
  39.4855985  23.0065553  64.2230738  47.6638626  21.4577662  68.0756568
  47.6457102  22.2786543  67.5836837  48.5858546  21.3331738  68.3006709
  44.1211680  18.9721792  68.9180077  44.6540017  18.2110080  68.6879385
  43.5925761  18.6795444  69.6604231  47.2881375   4.0781858  64.4473718
  46.9445645   4.9683499  64.3712829  47.6560338   3.8883515  63.5843303
  35.3567226  16.4015388  57.2662321  36.1942448  16.8112397  57.0496028
  35.5345494  15.4614830  57.2362514  47.2531658  14.0690469  52.9546153
  46.7378281  14.8395073  53.1934541  46.9808966  13.3955605  53.5779215
  44.8378769   8.9140170  58.0131392  43.9820365   8.5247020  57.8337031
  45.2505721   8.9932130  57.1531177  46.3677916   6.4486513  62.4122952
  45.8642711   6.4116648  61.5990757  46.6608523   7.3579256  62.4719608
  42.6120802   6.5325243  61.4189133  43.4773798   6.3368051  61.0595023
  42.6798310   6.3035594  62.3458490  52.2265932  16.8222824  54.8899327
  51.4495375  16.4833983  54.4454489  52.9057413  16.8275447  54.2154292
  47.0417961  11.9417561  54.7805935  46.7368097  12.2563710  55.6316078
  47.9948403  12.0198981  54.8233268  45.4864393  18.1007784  56.4298889
  44.9585755  17.3660544  56.1172126  44.9851896  18.8782461  56.1838857
  50.4657239  16.2956805  61.5465935  49.8080913  16.9856066  61.6346064
  51.2697638  16.6853237  61.8899921  40.2183121   8.7627451  58.7905500
  40.7926873   8.5402632  58.0578693  40.8054103   8.8316145  59.5434101
  49.2762698  14.6501177  59.5969877  49.7894580  15.2831169  60.0991586
  49.9263922  14.0502373  59.2313237  40.5452708  10.7931912  52.8101385
  39.7090020  11.1306598  53.1310660  40.4057477  10.6580891  51.8728522
  42.5205788   5.6368699  57.5180570  41.8670201   5.3217717  56.8937184
  42.4786262   5.0144440  58.2440393  43.6316993  15.9187995  49.4333862
  42.7244055  15.6877248  49.6325011  44.1288025  15.1225614  49.6207843
  46.5385072  24.6285502  52.3530548  45.8646771  24.9317198  52.9615506
  46.9250894  25.4314582  52.0036005  45.7543529  12.1250633  61.8428217
  44.8366090  12.3465580  61.6849905  46.1703672  12.1996943  60.9839925
  46.5378576  13.5242049  56.9730897  47.2850395  14.0363446  56.6638020
  46.8070166  13.2026101  57.8335291  44.8105227  16.0200589  53.9557852
  43.9016446  15.7359622  54.0530322  44.8400310  16.4399668  53.0961159
  50.0424494  19.6307179  57.7249019  49.5886821  18.7898089  57.7814210
  49.4118461  20.2668577  58.0623799  48.9857414  10.5599165  58.9549687
  48.2480170  10.0476551  59.2859929  49.2384187  10.1199547  58.1432964
  48.4857433  21.4683676  58.6598837  48.7780408  22.0288733  57.9411203
  48.9956054  21.7612237  59.4151997  49.0869041   3.3375417  59.5491456
  49.3927918   2.4772780  59.2617371  49.8121646   3.9293037  59.3490450
  35.3793397  13.7406104  57.9373054  35.1817797  13.1475464  57.2124121
  34.8240061  13.4358314  58.6548993  43.3590121  13.6329210  60.0567647
  43.4138730  12.6803046  59.9810124  42.5481323  13.7888649  60.5408946
  44.5081314  17.5609333  51.2945930  44.0700744  16.8445192  50.8351568
  45.2491755  17.7885448  50.7331022  41.2982481  12.2506270  57.8158026
  40.4850346  12.5500440  58.2223218  41.7941475  11.8561959  58.5332508
  43.4491058  22.2464027  59.7492291  43.4067237  22.4724873  58.8200823
  44.3653757  22.0127401  59.8978092  46.8956692  12.7148094  66.6472920
  47.2506080  12.9419567  67.5067386  47.5428824  13.0466471  66.0250175
  52.6254429  15.8366530  57.3522249  52.4872328  16.0268126  56.4243438
  52.2690648  16.5985913  57.8090300  40.7896555   9.8224625  63.4319261
  41.4295935   9.6813384  62.7342224  39.9574086   9.5359139  63.0557863
  52.6523809  17.9043057  62.3633520  53.0860315  17.8118346  63.2116574
  53.3655390  17.8800558  61.7253536  41.5656859  19.1227056  59.5454253
  42.3597458  18.6277376  59.3436828  40.8548552  18.5944919  59.1821959
  46.3851704  21.5045151  63.8966621  46.4388726  22.0736088  64.6644337
  45.5166485  21.6747036  63.5320658  37.8739623  13.2670137  55.6214006
  36.9437211  13.2054593  55.8383968  37.9697095  12.7446090  54.8250647
  37.7925172   9.7924950  58.2092248  38.0531989  10.7070284  58.1001408
  38.6142344   9.3249393  58.3588861  39.2650097  11.2062707  65.3791072
  39.9373151  10.9980070  64.7303721  38.4379884  11.0084793  64.9396305
  53.5139358  17.9466758  64.8966406  53.7075248  18.8512568  65.1425681
  53.4139977  17.4874177  65.7304991  45.1675669   7.8324648  67.3956733
  44.5203584   8.5314598  67.3021210  45.9376685   8.2660792  67.7632981
  48.5754467  18.0973501  70.4707286  48.4239973  17.8684052  69.5537370
  48.5659147  19.0544102  70.4838631  45.3439803  15.6705413  65.4553553
  46.2731863  15.8216573  65.2822520  44.9230833  15.7589434  64.6002199
  44.1428135  19.6956078  63.2252090  44.0039221  19.3274862  64.0978029
  43.3542731  20.2103717  63.0536048  44.7376287  24.7965174  54.5677627
  44.9128043  24.3253217  55.3823250  44.0509075  25.4230940  54.7958888
  45.6933350  19.0737680  60.6140928  45.3583183  19.0338450  61.5098578
  45.1937296  18.4082396  60.1411339  39.6677594  14.4805310  66.1393509
  39.5297392  13.7485549  66.7405048  40.5782518  14.3914211  65.8577697
  48.6292542  16.4193715  50.8877988  48.0121713  15.6940543  50.7911041
  48.1609031  17.1803075  50.5445062  42.2959895  14.1925270  65.6277189
  43.0059514  13.5518462  65.5863808  42.2529203  14.4438165  66.5503370
  50.2846674  21.1292623  68.5483768  50.2259220  20.4451843  67.8814351
  50.6866192  21.8711613  68.0964394  41.0088829  11.1790488  67.4472829
  40.4726186  10.7281226  68.0994425  40.4205537  11.3136396  66.7043293
  39.3037373  27.9454537  61.3417487  39.5433971  28.5773061  62.0196506
  38.4606569  27.5942577  61.6282846  40.4191088  10.6379139  50.0099292
  39.5420554  10.5167940  49.6461539  40.8948841   9.8465217  49.7578181
  50.2864081  19.0932207  66.7797748  49.3990860  18.7558129  66.9024147
  50.8562632  18.3615238  67.0166513  31.9393228  15.4256299  60.1040799
  32.6264268  15.1118029  59.5161815  31.7841357  16.3297663  59.8308051
  36.7427950  10.3146495  64.5325823  36.6586139   9.7072165  63.7976233
  35.9210657  10.8055514  64.5335319  43.8165234  23.7533659  63.7458991
  43.7435406  24.5588631  64.2578296  43.3742627  23.9525625  62.9207013
  43.6055014  22.9905429  57.2561813  42.8222536  23.5327110  57.3500037
  44.3047759  23.5079409  57.6556054  46.9151664   8.8000059  59.8996018
  47.4120364   8.0470021  59.5797088  46.1438646   8.8364376  59.3339227
  54.7681422  14.5040424  61.5414310  54.7571298  15.3865140  61.1708243
  53.8998801  14.1511975  61.3468847  46.2763918  23.6520493  65.9017150
  46.9891890  24.2867958  65.8293051  45.7853947  23.7484359  65.0857152
  47.9981445  17.5571746  57.4734442  47.0637724  17.6773209  57.3039146
  48.1758113  16.6544213  57.2094451  43.4986633  10.9417442  59.6267703
  43.1284420  10.3888482  60.3148608  43.9945725  10.3375575  59.0742703
  51.3853996  13.3989065  58.0084476  51.8514448  14.2317057  57.9344778
  51.8361497  12.9334047  58.7129734  41.3275831  21.4014937  66.7222721
  42.0285291  22.0351420  66.8752115  40.8570946  21.7429668  65.9618360
  49.4530227  19.7432887  55.0070628  49.7290071  19.6289481  55.9164502
  48.5834726  19.3450371  54.9682801  49.3570659   5.7669652  62.0475377
  48.4433739   5.9973879  62.2157584  49.7863760   5.8508096  62.8989409
  49.1277117  13.9559544  64.5475271  48.4748568  14.2035452  63.8927724
  49.5057497  13.1423682  64.2137748  46.0884291  23.9919237  58.6503441
  46.2706686  23.1740893  59.1131194  46.9117277  24.2086930  58.2128331
  46.4226457  22.9187423  55.9118490  46.9514223  22.4079877  55.2988652
  46.6854676  22.6029953  56.7764023  45.1764690  14.6979355  71.0341308
  44.5005327  14.5973485  71.7043683  45.9992324  14.5418569  71.4977305
  36.9243549  20.9351292  63.6553823  37.5096986  20.1894980  63.7881728
  36.7268388  21.2455249  64.5390487  39.7782205  23.9702539  58.6716266
  39.1092580  24.4548667  58.1880306  39.6395074  24.2171760  59.5859644
  31.5161204  13.5056892  62.3758266  31.5545304  12.9720483  63.1695385
  31.0101497  12.9792098  61.7569244  43.9187473  26.0046283  65.2698924
  44.4705781  26.1677904  66.0348009  44.2593667  26.5950721  64.5978949
  38.8951967   8.3521433  65.8720809  38.9593293   9.2136264  65.4598206
  38.8319087   7.7395434  65.1393167  38.3704239  10.4244565  69.5193843
  38.9976278  10.0421642  70.1331367  37.5132158  10.2058767  69.8849536
  48.7698348  20.8307540  71.1247579  49.3138252  21.4437499  70.6302533
  48.1885192  21.3887119  71.6414592  35.1469782  12.2320994  55.4512198
  35.4423223  11.3231673  55.3979252  34.2457818  12.2108734  55.1293200
  47.0555861  23.9528258  62.2562606  46.9307000  23.1517998  61.7473552
  47.7134952  24.4474452  61.7676576  38.6764029  10.3076991  61.4339746
  37.9550615  10.9212959  61.2947220  39.4657285  10.8434756  61.3556392
  49.1190769  21.7537278  63.8842156  48.1721104  21.6342630  63.8120483
  49.4673542  20.8659776  63.9668418  41.4790342   7.6431417  67.7080398
  42.0024744   7.8893714  68.4706708  41.2602676   8.4751452  67.2883536
  36.8757623   9.9135092  55.5751523  36.5470330   9.0332471  55.3926629
  37.2296994   9.8582761  56.4627912  46.1237202  21.5489995  60.0846509
  45.9762165  20.6206702  60.2654079  46.9490696  21.5710085  59.6003584
  39.9899447  10.2008062  55.9427001  40.3295519  10.7293983  55.2205609
  40.4371567  10.5388468  56.7185567  49.7271324  22.3718553  61.1711381
  50.6517872  22.1661415  61.0335832  49.5586627  22.1234955  62.0800723
  42.6842887   8.5845112  65.3930069  42.3439708   7.7852926  65.7950749
  41.9781894   8.8846823  64.8206902  43.3359359   5.6694425  63.8457392
  44.1585429   5.1954903  63.7236282  43.5797423   6.4484909  64.3456078
  41.9767594   8.6982683  54.1420293  42.6975956   9.0763936  53.6384010
  41.3532898   9.4171560  54.2455271  46.1198717   9.4027832  55.0778626
  46.3362331  10.2852470  54.7767454  45.6392784   9.0114046  54.3484268
  40.8597938  12.3613546  61.6549370  40.7142519  12.6753849  62.5473652
  40.3823142  12.9798446  61.1020269  42.7194321   9.3516093  61.7030260
  42.7055890   8.4557187  61.3662558  43.4366749   9.3586757  62.3368546
  44.5720452   9.7853434  63.7483387  44.3138229  10.7070504  63.7467718
  44.0405492   9.3883868  64.4383852  49.5166640  22.8904221  56.5273473
  49.6903518  22.3250643  55.7747325  50.0095532  23.6905116  56.3452963
  35.3343600  14.9018890  64.5937032  34.7897068  15.6778698  64.7257306
  36.2122950  15.2489694  64.4356153  42.1231217   8.2330474  56.9717830
  42.2447128   7.3047120  57.1708718  41.8333259   8.2469160  56.0596146
  44.9922407   5.9185384  60.1084550  45.0144104   5.9824717  59.1536529
  45.4090466   5.0789893  60.3025056  55.3706031  15.6540644  58.1463773
  55.8137178  14.9047969  57.7482896  54.4932542  15.6450780  57.7637504
  50.5041813  22.2070985  53.6270371  51.1992717  22.8277678  53.8457686
  50.8464963  21.3566336  53.9022749  36.1209622  14.0288786  67.4867188
  35.3791358  14.1771422  68.0731819  35.8002366  14.2897052  66.6233938
  52.4033236  19.6570691  55.1557702  52.9284560  19.9957964  54.4307022
  52.3155588  18.7217706  54.9720836  44.0653285  23.5704764  67.2847578
  44.3740411  23.3253911  68.1570278  44.8628767  23.7751403  66.7966449
  44.0873897  25.7242674  59.5152955  43.6478887  25.2319053  60.2085812
  44.8382014  25.1815642  59.2745030  36.5666236  21.9154215  59.5177583
  37.3924256  21.6157987  59.1376227  36.2160288  21.1461837  59.9667372
  41.5347769  21.2680683  61.5875257  40.9127778  20.6051388  61.2877485
  42.2052636  21.2941815  60.9048904  34.7674841  19.8340541  60.4766517
  33.9306749  19.4062716  60.2950518  34.7398486  20.0272985  61.4137308
  41.6072296   9.7462471  71.1807763  41.6560452  10.6224594  70.7985532
  42.1494811   9.2039864  70.6079406  52.0927142  20.2903594  70.4608900
  51.3022686  20.2727733  69.9213399  51.8560497  20.8291888  71.2157936
  52.2125017  17.1396061  67.7741628  52.2623022  16.9746068  68.7157151
  52.1038940  16.2723320  67.3839509  41.0961276  19.8184606  55.0633717
  41.2449396  20.5020071  54.4100390  41.9027719  19.7989697  55.5783173
  49.5028779  13.1226989  69.0900935  50.4038642  12.9833454  68.7984933
  49.5776754  13.2881444  70.0299112  43.8371585  10.4993844  67.9354121
  42.9674894  10.7927410  67.6636710  44.0731065  11.0834289  68.6561385
  53.7143214  19.5593002  68.0183650  53.4228022  19.9222983  68.8547111
  53.1015345  18.8460011  67.8396982  54.9138896  17.1245882  60.5386220
  55.7485788  17.5635686  60.7023780  55.0498025  16.6484535  59.7194466
  51.9630402  14.6825617  66.4863708  52.4384524  14.8753263  65.6782559
  51.0395967  14.7384803  66.2407091  38.8513909  15.8449784  56.0694786
  38.6059951  14.9412114  56.2674996  39.0209823  15.8466935  55.1274264
  46.5410619   6.7173460  65.4519542  47.0592562   7.4534487  65.1266030
  46.1865751   7.0237454  66.2866301  38.1209556  11.5778142  53.5680948
  37.4278801  11.6522497  52.9120984  37.8761308  10.8138485  54.0902465
  46.7923213   3.1373743  60.9720438  47.0724967   2.4696932  61.5980865
  47.5773820   3.3302839  60.4595102  44.5956681  22.3132737  52.5345465
  44.0230648  22.9322924  52.0815936  45.1689475  22.8632099  53.0685387
  50.6632071  11.5591377  64.7192013  51.6149494  11.6589475  64.7404237
  50.4935522  10.7669646  65.2290098  48.6846451   8.6446960  64.9051414
  48.0896383   8.9251973  64.2097903  48.3996147   9.1340861  65.6768155
  47.8153941  22.5969887  53.6654047  48.7484614  22.5315449  53.8686922
  47.7277154  23.4326154  53.2068580  50.4441958  21.9135757  50.6257994
  50.3655589  21.5795621  51.5193752  51.2651625  22.4057525  50.6249467
  53.1420149  14.7797497  63.8334313  53.1096469  13.8413497  64.0193997
  53.7520773  14.8581533  63.1000138  44.9803480  13.6493550  49.8761517
  45.9262584  13.5199758  49.9449935  44.6017725  12.9108212  50.3530945
  53.2914637  11.5708540  63.8792596  52.7753686  10.7866997  63.6922525
  54.1754586  11.2427257  64.0439116  50.9525364   5.3149556  59.8388409
  50.7550185   5.0064644  60.7231741  51.5625070   6.0411195  59.9686339
  58.9596699  15.8413504  62.9740350  59.6900087  15.5798792  63.5348053
  58.3503644  15.1042225  63.0142418  57.0411996  13.9821366  63.5714801
  56.3145159  13.8477331  62.9631293  56.6259283  14.2898195  64.3771519
  44.8642172  17.7011296  71.3362174  45.7845182  17.8789895  71.5302221
  44.8291755  16.7567341  71.1841873  43.1646397  11.5743526  49.8116402
  42.2577852  11.2776639  49.8879116  43.4422378  11.2773344  48.9450689
  34.0824337  12.8949889  60.2615449  33.7627122  12.0415198  59.9689823
  33.5357765  13.1098468  61.0173416  37.8604245  15.6112330  63.9784955
  38.0790255  16.5429438  63.9972989  38.2730019  15.2520305  64.7639759
  44.7808463   6.1180416  55.9660644  43.9709191   5.7727501  56.3415890
  45.4692880   5.8087959  56.5548255  46.7099011   5.1958463  57.5884940
  47.2630050   5.6153916  58.2474963  46.9469097   4.2694211  57.6307896
  42.7332110  11.1845536  73.3687704  42.6328837  12.1339893  73.2999795
  42.5153652  10.8563775  72.4963774  41.9345182   8.4330461  49.9528382
  42.7964346   8.7585360  50.2124199  42.1195526   7.6461957  49.4401447
  33.9512597  16.5152801  62.2308570  33.2576069  16.1006754  61.7178525
  34.6985588  16.5573337  61.6341989  50.0877818   7.3058988  57.0963605
  49.5076487   7.9643792  56.7141657  49.8213751   6.4836332  56.6851022
  48.5381384   6.7064045  59.2984925  49.0381163   6.8180580  58.4899244
  49.1816992   6.4025098  59.9385733  42.5963380  14.6142675  72.1852766
  42.1130462  15.4143035  72.3916655  42.6824319  14.6250620  71.2320210
  35.8649340  16.4471055  60.1074585  35.8420028  16.5458742  59.1556468
  36.1749976  17.2936206  60.4291751  38.5236718  18.5047210  64.2221200
  39.4779971  18.4731152  64.1551131  38.3249241  18.0437833  65.0371426
  39.1136100  17.0748326  66.7891997  39.9328989  17.5692404  66.8126835
  39.3872908  16.1580294  66.7609565  48.8702696   9.4659078  56.1519953
  47.9828551   9.7508729  55.9340148  49.2856685   9.3052841  55.3047230
  52.2217232   9.4905599  59.8674292  52.9977622   9.9802052  60.1398909
  51.4965366   9.9163653  60.3246162  54.6589791  10.2033218  60.9248233
  55.2534282   9.9628954  60.2141541  54.7316374   9.4840349  61.5521769
  36.8786946  24.0466829  61.2391398  36.7441414  23.2867230  60.6729396
  36.4619009  24.7707729  60.7720186  48.0145909  19.2303753  50.2467973
  48.7181760  19.4353755  50.8625628  47.2908558  19.7980515  50.5117056
  48.8443720  14.9813614  56.3670243  48.7878921  15.4382165  55.5277875
  49.3972062  14.2204299  56.1893086  52.6548526  10.7703346  57.1920362
  52.3985460  10.3699982  58.0228570  52.0301394  11.4847140  57.0670502
  56.9660864  13.5099419  59.6991654  56.4060422  13.5792608  60.4723216
  56.3604367  13.3340404  58.9791150  40.0356072  24.9436146  61.4509840
  39.9188457  25.8881579  61.3488530  39.2148519  24.6409708  61.8395639
  49.9232607  19.6686282  52.2966433  50.7578211  19.2367480  52.1143908
  49.7616950  19.4968296  53.2243327  49.5778499  16.1718395  53.6622772
  49.5227303  16.0062667  52.7211216  48.9524554  16.8794428  53.8184962
  34.3671014  11.4086460  67.4884194  35.0129878  10.8985414  67.9771420
  34.1588165  12.1455141  68.0627620  46.8924406  18.4767307  72.9876335
  47.7615566  18.6507959  72.6262970  46.4131158  19.2961724  72.8652064
  42.8874625   5.6726504  53.2408091  42.8753294   6.6168344  53.3976361
  43.7798046   5.4896650  52.9467552  41.0610586  25.5964408  64.6665769
  41.9637833  25.6288018  64.9832264  40.8347957  24.6664859  64.6812104
  42.8164189  24.3495395  61.3275847  41.8659820  24.3497256  61.2140219
  43.1196675  23.6028129  60.8111882  46.7026744   2.2669281  57.4954027
  45.9359140   1.7127768  57.6410710  47.1137449   2.3391150  58.3568179
  38.7068505   8.5554077  71.5859209  39.5699967   8.1990882  71.7962533
  38.1333916   8.2167972  72.2734613  58.5516882  30.1855933  62.3921610
  59.1895292  30.0662680  61.6884950  58.4337725  31.1336777  62.4509562
  55.3606588  30.1383361  62.3283134  55.0225100  30.0224426  61.4403669
  56.2296356  29.7374526  62.3084140  51.2193404  31.9918838  58.3180025
  50.6558269  31.9008775  57.5496313  51.1045799  31.1718742  58.7982518
  55.8426371  31.2918213  68.2869340  55.8315012  30.8971011  67.4149843
  56.0047011  30.5584286  68.8803111  56.7992963  35.6589805  53.6294490
  56.1480942  36.2443886  53.2428504  57.5937325  36.1896000  53.6889528
  52.5633632  34.0755325  67.2348524  52.2723498  34.9800956  67.1195190
  53.1990617  34.1171852  67.9492593  53.4889839  31.4532173  63.8249883
  54.0853412  31.2288196  63.1106846  53.5464811  30.7116919  64.4275331
  53.0614868  28.9071609  51.6600074  53.3140388  28.3853130  50.8983537
  52.1239427  28.7437754  51.7626758  58.1058150  27.9107387  59.4674818
  58.8921240  27.4926810  59.1165235  58.3696855  28.8153479  59.6356466
  58.2768228  33.3480237  54.1663474  57.6414061  33.4214864  54.8784379
  57.9465634  33.9373836  53.4882554  63.5066578  27.8482620  60.3707796
  64.2391750  27.2781837  60.6045626  62.7505933  27.4604221  60.8114302
  52.7811156  30.8099715  53.8624449  52.6647414  30.1344618  54.5305534
  52.8913416  30.3232088  53.0456602  55.1242697  30.2709862  57.5671139
  54.7600905  29.7440483  58.2784060  55.9809813  29.8808331  57.3937624
  61.0291998  21.5604194  64.8302405  60.6975323  22.4299605  64.6063620
  60.4337611  21.2440478  65.5096435  54.7648184  25.2999761  52.5632487
  54.9322587  26.1679998  52.9302958  54.5745353  25.4627043  51.6393776
  57.5223517  33.7616740  64.2298317  57.2224241  34.6641779  64.1214125
  57.1774577  33.4948923  65.0819470  50.9735999  30.2130537  60.2635022
  50.0486495  30.0806751  60.4712714  51.2220412  30.9924756  60.7604964
  60.9220661  26.2799280  61.9095755  60.0137539  26.2114689  61.6154516
  60.8708257  26.7571225  62.7377580  54.7437405  27.7557419  53.5479154
  54.6237030  28.2014470  54.3864634  54.0489994  28.1042737  52.9892692
  48.3344810  29.8563811  61.0978811  48.4637191  30.1098290  62.0118223
  47.6542261  30.4491519  60.7783466  54.9961527  27.6988926  69.8530652
  54.2194861  28.2582846  69.8433517  55.6352090  28.1845709  70.3745522
  62.7882308  24.4815719  63.6873629  62.1456688  24.7748252  63.0413423
  62.2837236  24.3668639  64.4926825  60.4422471  28.2278892  54.3759488
  61.3540327  28.4606279  54.2007186  59.9332118  28.8115936  53.8134567
  53.2507899  30.5074379  69.4148619  53.9922584  31.0459423  69.1383443
  52.5444885  31.1340668  69.5720171  58.7263239  32.6503520  68.0120781
  59.1346595  32.2085930  67.2675413  58.0040501  32.0756147  68.2654973
  55.0794309  27.5876127  65.3854338  55.9255504  28.0115540  65.5288987
  55.0192947  26.9309751  66.0792901  59.0492054  33.2104710  61.7673069
  58.4200916  33.3750425  61.0649137  58.6617716  33.6246320  62.5384033
  62.9281286  34.1459148  59.1217433  62.2432324  34.5258050  58.5714467
  63.0125135  34.7554475  59.8549381  58.2293754  25.2480495  67.0435511
  57.9854686  26.0022556  66.5069787  58.5053685  25.6265843  67.8782758
  60.1832217  31.7919107  65.7212777  60.3949112  32.4350867  65.0447158
  60.1361965  30.9581424  65.2534707  57.7858446  24.4036928  62.6249349
  56.9242925  24.7018182  62.9166086  57.8120881  24.6207327  61.6930382
  54.6020016  32.9479119  59.0323155  55.0658361  33.2266822  58.2427777
  54.3376814  32.0462563  58.8496245  53.5388902  29.0702271  55.8412720
  54.2412945  29.5223315  56.3086646  53.2069530  28.4286090  56.4692613
  51.9869263  27.6614028  70.2163929  51.3567924  28.3430308  70.4499326
  51.8805351  27.5497109  69.2717067  47.2814236  27.3285824  61.1429853
  46.4913290  27.5843352  60.6669964  47.7725483  28.1434161  61.2481894
  61.2978045  34.6691063  63.8935134  62.1195489  34.2671250  63.6117816
  61.2940448  34.5659297  64.8451250  49.2328981  27.6930403  58.1013330
  48.4360144  27.8049097  58.6196826  49.0054573  28.0317055  57.2354220
  55.0634649  34.2175106  66.0495845  55.1279081  34.6795513  66.8854016
  54.3545572  33.5872471  66.1778154  45.5651939  27.5816314  63.5744844
  45.8159977  28.4663324  63.8402420  46.1011487  27.4020916  62.8019936
  69.3884038  31.0129811  60.2420106  68.6347747  30.4437209  60.0864110
  69.5231579  30.9792476  61.1890740  51.2650006  21.9634793  72.5789180
  50.8716951  21.4100992  73.2536824  52.0816146  22.2745372  72.9695698
  54.1817967  23.3792672  70.1709437  54.9227680  23.9799826  70.0913899
  54.4135890  22.6370310  69.6127479  49.3259305  28.5649040  68.4487666
  49.2112820  27.6634297  68.7494765  48.4703823  28.8112737  68.0972483
  56.4051143  36.5066780  70.0475167  55.9614997  35.7203159  69.7296071
  57.0668356  36.6945931  69.3819058  58.5032381  36.7869580  68.0756568
  58.4850856  37.6078461  67.5836837  59.4252301  36.6623655  68.3006709
  54.9605435  34.3013709  68.9180077  55.4933772  33.5401998  68.6879385
  54.4319516  34.0087361  69.6604231  58.1275130  19.4073775  64.4473718
  57.7839399  20.2975417  64.3712829  58.4954092  19.2175433  63.5843303
  58.0925412  29.3982387  52.9546153  57.5772036  30.1686991  53.1934541
  57.8202721  28.7247523  53.5779215  55.6772524  24.2432087  58.0131392
  54.8214120  23.8538938  57.8337031  56.0899475  24.3224048  57.1531177
  57.2071670  21.7778431  62.4122952  56.7036466  21.7408566  61.5990757
  57.5002277  22.6871173  62.4719608  53.4514556  21.8617160  61.4189133
  54.3167553  21.6659969  61.0595023  53.5192065  21.6327512  62.3458490
  63.0659687  32.1514741  54.8899327  62.2889129  31.8125901  54.4454489
  63.7451168  32.1567364  54.2154292  57.8811716  27.2709479  54.7805935
  57.5761851  27.5855628  55.6316078  58.8342158  27.3490899  54.8233268
  56.3258148  33.4299702  56.4298889  55.7979509  32.6952462  56.1172126
  55.8245650  34.2074378  56.1838857  61.3050994  31.6248722  61.5465935
  60.6474668  32.3147984  61.6346064  62.1091393  32.0145154  61.8899921
  51.0576875  24.0919368  58.7905500  51.6320627  23.8694550  58.0578693
  51.6447858  24.1608063  59.5434101  60.1156452  29.9793095  59.5969877
  60.6288334  30.6123087  60.0991586  60.7657676  29.3794291  59.2313237
  51.3846462  26.1223829  52.8101385  50.5483774  26.4598516  53.1310660
  51.2451232  25.9872809  51.8728522  53.3599543  20.9660617  57.5180570
  52.7063955  20.6509634  56.8937184  53.3180017  20.3436358  58.2440393
  54.4710748  31.2479912  49.4333862  53.5637809  31.0169166  49.6325011
  54.9681780  30.4517531  49.6207843  57.3778827  39.9577419  52.3530548
  56.7040525  40.2609116  52.9615506  57.7644649  40.7606500  52.0036005
  56.5937283  27.4542551  61.8428217  55.6759845  27.6757498  61.6849905
  57.0097427  27.5288861  60.9839925  57.3772331  28.8533966  56.9730897
  58.1244150  29.3655364  56.6638020  57.6463921  28.5318019  57.8335291
  55.6498981  31.3492507  53.9557852  54.7410200  31.0651540  54.0530322
  55.6794065  31.7691586  53.0961159  60.8818249  34.9599097  57.7249019
  60.4280576  34.1190006  57.7814210  60.2512215  35.5960495  58.0623799
  59.8251168  25.8891083  58.9549687  59.0873925  25.3768469  59.2859929
  60.0777942  25.4491464  58.1432964  59.3251188  36.7975593  58.6598837
  59.6174162  37.3580650  57.9411203  59.8349808  37.0904154  59.4151997
  59.9262795  18.6667335  59.5491456  60.2321672  17.8064698  59.2617371
  60.6515400  19.2584955  59.3490450  46.2187152  29.0698021  57.9373054
  46.0211551  28.4767382  57.2124121  45.6633816  28.7650231  58.6548993
  54.1983875  28.9621128  60.0567647  54.2532485  28.0094964  59.9810124
  53.3875077  29.1180567  60.5408946  55.3475069  32.8901251  51.2945930
  54.9094499  32.1737110  50.8351568  56.0885510  33.1177366  50.7331022
  52.1376235  27.5798187  57.8158026  51.3244101  27.8792358  58.2223218
  52.6335229  27.1853876  58.5332508  57.7350447  28.0440012  66.6472920
  58.0899834  28.2711485  67.5067386  58.3822578  28.3758389  66.0250175
  63.4648184  31.1658448  57.3522249  63.3266082  31.3560044  56.4243438
  63.1084403  31.9277831  57.8090300  51.6290310  25.1516543  63.4319261
  52.2689689  25.0105302  62.7342224  50.7967840  24.8651056  63.0557863
  63.4917563  33.2334975  62.3633520  63.9254070  33.1410264  63.2116574
  64.2049144  33.2092475  61.7253536  57.2245458  36.8337069  63.8966621
  57.2782481  37.4028005  64.6644337  56.3560240  37.0038954  63.5320658
  48.7133377  28.5962055  55.6214006  47.7830965  28.5346511  55.8383968
  48.8090849  28.0738008  54.8250647  48.6318926  25.1216868  58.2092248
  48.8925744  26.0362201  58.1001408  49.4536099  24.6541311  58.3588861
  50.1043852  26.5354625  65.3791072  50.7766905  26.3271987  64.7303721
  49.2773638  26.3376711  64.9396305  64.3533113  33.2758675  64.8966406
  64.5469003  34.1804486  65.1425681  64.2533731  32.8166095  65.7304991
  56.0069424  23.1616566  67.3956733  55.3597339  23.8606516  67.3021210
  56.7770439  23.5952710  67.7632981  59.4148222  33.4265418  70.4707286
  59.2633728  33.1975970  69.5537370  59.4052901  34.3836020  70.4838631
  56.1833558  30.9997331  65.4553553  57.1125618  31.1508491  65.2822520
  55.7624588  31.0881352  64.6002199  54.9821890  35.0247995  63.2252090
  54.8432975  34.6566780  64.0978029  54.1936486  35.5395635  63.0536048
  56.5327105  34.4029598  60.6140928  56.1976938  34.3630368  61.5098578
  56.0331051  33.7374314  60.1411339  50.5071349  29.8097228  66.1393509
  50.3691147  29.0777467  66.7405048  51.4176272  29.7206128  65.8577697
  59.4686297  31.7485632  50.8877988  58.8515467  31.0232461  50.7911041
  59.0002785  32.5094993  50.5445062  53.1353650  29.5217187  65.6277189
  53.8453268  28.8810380  65.5863808  53.0922958  29.7730082  66.5503370
  61.1240428  36.4584541  68.5483768  61.0652974  35.7743761  67.8814351
  61.5259947  37.2003531  68.0964394  51.8482584  26.5082405  67.4472829
  51.3119941  26.0573144  68.0994425  51.2599292  26.6428314  66.7043293
  51.2584842  25.9671057  50.0099292  50.3814309  25.8459857  49.6461539
  51.7342596  25.1757135  49.7578181  61.1257835  34.4224125  66.7797748
  60.2384614  34.0850046  66.9024147  61.6956387  33.6907156  67.0166513
  42.7786983  30.7548216  60.1040799  43.4658022  30.4409946  59.5161815
  42.6235111  31.6589581  59.8308051  47.5821705  25.6438413  64.5325823
  47.4979893  25.0364083  63.7976233  46.7604411  26.1347431  64.5335319
  57.7545419  24.1291977  59.8996018  58.2514118  23.3761939  59.5797088
  56.9832400  24.1656293  59.3339227  65.6075176  29.8332342  61.5414310
  65.5965052  30.7157057  61.1708243  64.7392555  29.4803893  61.3468847
  57.1157672  38.9812411  65.9017150  57.8285645  39.6159876  65.8293051
  56.6247701  39.0776277  65.0857152  58.8375199  32.8863664  57.4734442
  57.9031478  33.0065126  57.3039146  59.0151868  31.9836131  57.2094451
  54.3380387  26.2709360  59.6267703  53.9678175  25.7180400  60.3148608
  54.8339480  25.6667493  59.0742703  62.2247751  28.7280983  58.0084476
  62.6908203  29.5608975  57.9344778  62.6755251  28.2625965  58.7129734
  52.1669586  36.7306855  66.7222721  52.8679045  37.3643337  66.8752115
  51.6964701  37.0721586  65.9618360  60.2923982  35.0724804  55.0070628
  60.5683826  34.9581399  55.9164502  59.4228480  34.6742289  54.9682801
  60.1964413  21.0961570  62.0475377  59.2827493  21.3265797  62.2157584
  60.6257515  21.1800014  62.8989409  59.9670872  29.2851462  64.5475271
  59.3142322  29.5327369  63.8927724  60.3451252  28.4715600  64.2137748
  57.2620211  38.2479340  55.9118490  57.7907978  37.7371795  55.2988652
  57.5248431  37.9321871  56.7764023  56.0158445  30.0271273  71.0341308
  55.3399082  29.9265402  71.7043683  56.8386079  29.8710487  71.4977305
  42.3554959  28.8348810  62.3758266  42.3939058  28.3012400  63.1695385
  41.8495252  28.3084015  61.7569244  49.7345721  23.6813350  65.8720809
  49.7987048  24.5428181  65.4598206  49.6712841  23.0687352  65.1393167
  49.2097994  25.7536483  69.5193843  49.8370032  25.3713560  70.1331367
  48.3525912  25.5350685  69.8849536  59.6092102  36.1599458  71.1247579
  60.1532006  36.7729416  70.6302533  59.0278947  36.7179036  71.6414592
  45.9863536  27.5612912  55.4512198  46.2816977  26.6523590  55.3979252
  45.0851572  27.5400651  55.1293200  49.5157783  25.6368909  61.4339746
  48.7944369  26.2504876  61.2947220  50.3051039  26.1726673  61.3556392
  59.9584523  37.0829196  63.8842156  59.0114859  36.9634547  63.8120483
  60.3067297  36.1951694  63.9668418  52.3184097  22.9723335  67.7080398
  52.8418499  23.2185632  68.4706708  52.0996430  23.8043370  67.2883536
  47.7151378  25.2427010  55.5751523  47.3864084  24.3624389  55.3926629
  48.0690749  25.1874678  56.4627912  50.8293201  25.5299979  55.9427001
  51.1689274  26.0585901  55.2205609  51.2765322  25.8680386  56.7185567
  60.5665079  37.7010471  61.1711381  61.4911626  37.4953332  61.0335832
  60.3980382  37.4526872  62.0800723  53.5236642  23.9137030  65.3930069
  53.1833462  23.1144843  65.7950749  52.8175648  24.2138741  64.8206902
  54.1753114  20.9986343  63.8457392  54.9979183  20.5246821  63.7236282
  54.4191177  21.7776826  64.3456078  52.8161348  24.0274601  54.1420293
  53.5369711  24.4055854  53.6384010  52.1926652  24.7463478  54.2455271
  56.9592471  24.7319750  55.0778626  57.1756085  25.6144388  54.7767454
  56.4786538  24.3405963  54.3484268  51.6991692  27.6905463  61.6549370
  51.5536273  28.0045766  62.5473652  51.2216896  28.3090364  61.1020269
  53.5588075  24.6808011  61.7030260  53.5449644  23.7849104  61.3662558
  54.2760503  24.6878675  62.3368546  55.4114206  25.1145351  63.7483387
  55.1531984  26.0362422  63.7467718  54.8799246  24.7175786  64.4383852
  60.3560395  38.2196138  56.5273473  60.5297272  37.6542561  55.7747325
  60.8489286  39.0197033  56.3452963  46.1737355  30.2310808  64.5937032
  45.6290823  31.0070616  64.7257306  47.0516704  30.5781612  64.4356153
  52.9624971  23.5622391  56.9717830  53.0840882  22.6339038  57.1708718
  52.6727014  23.5761077  56.0596146  55.8316162  21.2477302  60.1084550
  55.8537858  21.3116635  59.1536529  56.2484221  20.4081811  60.3025056
  66.2099786  30.9832561  58.1463773  66.6530932  30.2339887  57.7482896
  65.3326296  30.9742698  57.7637504  61.3435567  37.5362903  53.6270371
  62.0386472  38.1569596  53.8457686  61.6858717  36.6858254  53.9022749
  46.9603376  29.3580704  67.4867188  46.2185113  29.5063339  68.0731819
  46.6396121  29.6188969  66.6233938  63.2426990  34.9862608  55.1557702
  63.7678315  35.3249881  54.4307022  63.1549343  34.0509624  54.9720836
  54.9047039  38.8996682  67.2847578  55.2134166  38.6545829  68.1570278
  55.7022521  39.1043321  66.7966449  52.4466051  25.0754389  71.1807763
  52.4954206  25.9516512  70.7985532  52.9888565  24.5331782  70.6079406
  62.9320896  35.6195512  70.4608900  62.1416440  35.6019651  69.9213399
  62.6954251  36.1583806  71.2157936  63.0518772  32.4687978  67.7741628
  63.1016776  32.3037986  68.7157151  62.9432695  31.6015237  67.3839509
  60.3422534  28.4518906  69.0900935  61.2432397  28.3125371  68.7984933
  60.4170508  28.6173361  70.0299112  54.6765339  25.8285761  67.9354121
  53.8068649  26.1219327  67.6636710  54.9124820  26.4126206  68.6561385
  64.5536968  34.8884920  68.0183650  64.2621777  35.2514901  68.8547111
  63.9409100  34.1751928  67.8396982  65.7532651  32.4537800  60.5386220
  66.5879542  32.8927604  60.7023780  65.8891779  31.9776453  59.7194466
  62.8024157  30.0117535  66.4863708  63.2778278  30.2045181  65.6782559
  61.8789722  30.0676720  66.2407091  49.6907663  31.1741702  56.0694786
  49.4453705  30.2704032  56.2674996  49.8603578  31.1758852  55.1274264
  57.3804373  22.0465378  65.4519542  57.8986317  22.7826405  65.1266030
  57.0259506  22.3529371  66.2866301  48.9603311  26.9070059  53.5680948
  48.2672556  26.9814414  52.9120984  48.7155063  26.1430403  54.0902465
  57.6316967  18.4665661  60.9720438  57.9118721  17.7988850  61.5980865
  58.4167574  18.6594756  60.4595102  55.4350436  37.6424655  52.5345465
  54.8624403  38.2614842  52.0815936  56.0083229  38.1924016  53.0685387
  61.5025826  26.8883295  64.7192013  62.4543248  26.9881392  64.7404237
  61.3329276  26.0961563  65.2290098  59.5240205  23.9738878  64.9051414
  58.9290137  24.2543891  64.2097903  59.2389902  24.4632779  65.6768155
  58.6547696  37.9261805  53.6654047  59.5878369  37.8607366  53.8686922
  58.5670908  38.7618072  53.2068580  61.2835712  37.2427675  50.6257994
  61.2049344  36.9087539  51.5193752  62.1045379  37.7349443  50.6249467
  63.9813903  30.1089414  63.8334313  63.9490223  29.1705415  64.0193997
  64.5914527  30.1873451  63.1000138  55.8197234  28.9785467  49.8761517
  56.7656339  28.8491675  49.9449935  55.4411479  28.2400129  50.3530945
  64.1308392  26.9000458  63.8792596  63.6147441  26.1158914  63.6922525
  65.0148340  26.5719174  64.0439116  61.7919119  20.6441473  59.8388409
  61.5943940  20.3356562  60.7231741  62.4018824  21.3703112  59.9686339
  69.7990453  31.1705421  62.9740350  70.5293842  30.9090709  63.5348053
  69.1897399  30.4334143  63.0142418  67.8805750  29.3113284  63.5714801
  67.1538914  29.1769249  62.9631293  67.4653037  29.6190112  64.3771519
  55.7035927  33.0303213  71.3362174  56.6238936  33.2081812  71.5302221
  55.6685510  32.0859259  71.1841873  54.0040151  26.9035444  49.8116402
  53.0971607  26.6068556  49.8879116  54.2816132  26.6065262  48.9450689
  44.9218092  28.2241807  60.2615449  44.6020876  27.3707115  59.9689823
  44.3751520  28.4390385  61.0173416  48.6997999  30.9404248  63.9784955
  48.9184009  31.8721356  63.9972989  49.1123773  30.5812223  64.7639759
  55.6202217  21.4472333  55.9660644  54.8102945  21.1019418  56.3415890
  56.3086634  21.1379877  56.5548255  57.5492765  20.5250380  57.5884940
  58.1023804  20.9445834  58.2474963  57.7862852  19.5986128  57.6307896
  53.5725865  26.5137454  73.3687704  53.4722592  27.4631811  73.2999795
  53.3547407  26.1855693  72.4963774  52.7738936  23.7622379  49.9528382
  53.6358100  24.0877277  50.2124199  52.9589280  22.9753875  49.4401447
  44.7906352  31.8444719  62.2308570  44.0969823  31.4298671  61.7178525
  45.5379343  31.8865255  61.6341989  60.9271572  22.6350905  57.0963605
  60.3470242  23.2935709  56.7141657  60.6607505  21.8128250  56.6851022
  59.3775139  22.0355963  59.2984925  59.8774917  22.1472498  58.4899244
  60.0210747  21.7317016  59.9385733  53.4357135  29.9434593  72.1852766
  52.9524216  30.7434953  72.3916655  53.5218074  29.9542538  71.2320210
  46.7043094  31.7762972  60.1074585  46.6813782  31.8750660  59.1556468
  47.0143731  32.6228123  60.4291751  49.9529854  32.4040243  66.7891997
  50.7722743  32.8984322  66.8126835  50.2266662  31.4872212  66.7609565
  59.7096451  24.7950996  56.1519953  58.8222306  25.0800646  55.9340148
  60.1250440  24.6344759  55.3047230  63.0610987  24.8197517  59.8674292
  63.8371377  25.3093969  60.1398909  62.3359121  25.2455571  60.3246162
  65.4983545  25.5325136  60.9248233  66.0928036  25.2920872  60.2141541
  65.5710129  24.8132267  61.5521769  58.8539664  34.5595670  50.2467973
  59.5575514  34.7645673  50.8625628  58.1302313  35.1272432  50.5117056
  59.6837474  30.3105532  56.3670243  59.6272676  30.7674083  55.5277875
  60.2365817  29.5496216  56.1893086  63.4942280  26.0995264  57.1920362
  63.2379214  25.6991899  58.0228570  62.8695148  26.8139058  57.0670502
  67.8054618  28.8391337  59.6991654  67.2454176  28.9084526  60.4723216
  67.1998121  28.6632321  58.9791150  60.7626361  34.9978200  52.2966433
  61.5971965  34.5659398  52.1143908  60.6010704  34.8260213  53.2243327
  60.4172254  31.5010313  53.6622772  60.3621057  31.3354584  52.7211216
  59.7918309  32.2086346  53.8184962  45.2064769  26.7378377  67.4884194
  45.8523632  26.2277331  67.9771420  44.9981920  27.4747059  68.0627620
  57.7318161  33.8059225  72.9876335  58.6009320  33.9799877  72.6262970
  57.2524912  34.6253642  72.8652064  53.7268379  21.0018422  53.2408091
  53.7147049  21.9460262  53.3976361  54.6191801  20.8188567  52.9467552
  57.5420498  17.5961199  57.4954027  56.7752894  17.0419685  57.6410710
  57.9531203  17.6683067  58.3568179  49.5462260  23.8845994  71.5859209
  50.4093721  23.5282799  71.7962533  48.9727670  23.5459889  72.2734613
  66.2000343  45.4675279  62.3283134  65.8618854  45.3516344  61.4403669
  67.0690111  45.0666444  62.3084140  62.0587158  47.3210755  58.3180025
  61.4952024  47.2300692  57.5496313  61.9439554  46.5010660  58.7982518
  66.6820126  46.6210131  68.2869340  66.6708767  46.2262929  67.4149843
  66.8440765  45.8876203  68.8803111  67.6386717  50.9881723  53.6294490
  66.9874697  51.5735803  53.2428504  68.4331080  51.5187918  53.6889528
  68.9451905  43.2399305  59.4674818  69.7314994  42.8218728  59.1165235
  69.2090609  44.1445397  59.6356466  69.1161982  48.6772155  54.1663474
  68.4807815  48.7506781  54.8784379  68.7859389  49.2665754  53.4882554
  74.3460332  43.1774538  60.3707796  75.0785504  42.6073755  60.6045626
  73.5899688  42.7896138  60.8114302  63.6204911  46.1391632  53.8624449
  63.5041169  45.4636536  54.5305534  63.7307171  45.6524006  53.0456602
  65.9636452  45.6001779  57.5671139  65.5994659  45.0732400  58.2784060
  66.8203568  45.2100248  57.3937624  71.8685752  36.8896112  64.8302405
  71.5369077  37.7591523  64.6063620  71.2731366  36.5732396  65.5096435
  65.6041939  40.6291679  52.5632487  65.7716341  41.4971915  52.9302958
  65.4139108  40.7918961  51.6393776  71.7614416  41.6091198  61.9095755
  70.8531293  41.5406607  61.6154516  71.7102012  42.0863143  62.7377580
  65.5831160  43.0849337  53.5479154  65.4630785  43.5306387  54.3864634
  64.8883748  43.4334654  52.9892692  65.8355282  43.0280844  69.8530652
  65.0588616  43.5874764  69.8433517  66.4745845  43.5137627  70.3745522
  73.6276062  39.8107637  63.6873629  72.9850442  40.1040170  63.0413423
  73.1230991  39.6960557  64.4926825  71.2816226  43.5570810  54.3759488
  72.1934082  43.7898196  54.2007186  70.7725873  44.1407854  53.8134567
  64.0901654  45.8366297  69.4148619  64.8316338  46.3751341  69.1383443
  63.3838639  46.4632586  69.5720171  65.9188064  42.9168044  65.3854338
  66.7649259  43.3407458  65.5288987  65.8586701  42.2601669  66.0792901
  73.7675040  49.4751066  59.1217433  73.0826078  49.8549967  58.5714467
  73.8518889  50.0846393  59.8549381  69.0687509  40.5772413  67.0435511
  68.8248441  41.3314473  66.5069787  69.3447439  40.9557760  67.8782758
  68.6252201  39.7328846  62.6249349  67.7636680  40.0310099  62.9166086
  68.6514635  39.9499245  61.6930382  64.3782656  44.3994189  55.8412720
  65.0806699  44.8515232  56.3086646  64.0463285  43.7578007  56.4692613
  62.8263018  42.9905945  70.2163929  62.1961678  43.6722226  70.4499326
  62.7199105  42.8789027  69.2717067  60.0722735  43.0222321  58.1013330
  59.2753899  43.1341015  58.6196826  59.8448328  43.3608973  57.2354220
  80.2277793  46.3421729  60.2420106  79.4741501  45.7729127  60.0864110
  80.3625334  46.3084393  61.1890740  62.1043760  37.2926711  72.5789180
  61.7110706  36.7392910  73.2536824  62.9209901  37.6037290  72.9695698
  65.0211721  38.7084590  70.1709437  65.7621435  39.3091743  70.0913899
  65.2529644  37.9662228  69.6127479  67.2444897  51.8358698  70.0475167
  66.8008751  51.0495076  69.7296071  67.9062111  52.0237848  69.3819058
  68.9668884  34.7365693  64.4473718  68.6233154  35.6267335  64.3712829
  69.3347847  34.5467351  63.5843303  66.5166278  39.5724005  58.0131392
  65.6607874  39.1830855  57.8337031  66.9293230  39.6515966  57.1531177
  68.0465425  37.1070348  62.4122952  67.5430220  37.0700483  61.5990757
  68.3396032  38.0163091  62.4719608  64.2908311  37.1909078  61.4189133
  65.1561307  36.9951887  61.0595023  64.3585819  36.9619430  62.3458490
  73.9053441  47.4806659  54.8899327  73.1282884  47.1417818  54.4454489
  74.5844922  47.4859282  54.2154292  68.7205470  42.6001396  54.7805935
  68.4155606  42.9147545  55.6316078  69.6735912  42.6782816  54.8233268
  67.1651902  48.7591620  56.4298889  66.6373264  48.0244379  56.1172126
  66.6639405  49.5366296  56.1838857  61.8970630  39.4211286  58.7905500
  62.4714382  39.1986467  58.0578693  62.4841612  39.4899980  59.5434101
  62.2240217  41.4515747  52.8101385  61.3877529  41.7890433  53.1310660
  62.0844986  41.3164727  51.8728522  64.1993297  36.2952535  57.5180570
  63.5457710  35.9801552  56.8937184  64.1573771  35.6728275  58.2440393
  67.4331038  42.7834468  61.8428217  66.5153599  43.0049415  61.6849905
  67.8491181  42.8580779  60.9839925  68.2166085  44.1825884  56.9730897
  68.9637904  44.6947281  56.6638020  68.4857675  43.8609937  57.8335291
  66.4892736  46.6784425  53.9557852  65.5803955  46.3943458  54.0530322
  66.5187819  47.0983503  53.0961159  70.6644923  41.2183000  58.9549687
  69.9267679  40.7060386  59.2859929  70.9171696  40.7783382  58.1432964
  70.7656550  33.9959252  59.5491456  71.0715427  33.1356616  59.2617371
  71.4909155  34.5876872  59.3490450  65.0377630  44.2913045  60.0567647
  65.0926239  43.3386882  59.9810124  64.2268832  44.4472484  60.5408946
  62.9769990  42.9090105  57.8158026  62.1637855  43.2084276  58.2223218
  63.4728984  42.5145794  58.5332508  68.5744201  43.3731930  66.6472920
  68.9293589  43.6003403  67.5067386  69.2216332  43.7050306  66.0250175
  74.3041938  46.4950365  57.3522249  74.1659837  46.6851961  56.4243438
  73.9478157  47.2569748  57.8090300  62.4684064  40.4808461  63.4319261
  63.1083444  40.3397220  62.7342224  61.6361595  40.1942974  63.0557863
  59.4712681  40.4508786  58.2092248  59.7319498  41.3654119  58.1001408
  60.2929853  39.9833228  58.3588861  60.9437606  41.8646543  65.3791072
  61.6160660  41.6563905  64.7303721  60.1167393  41.6668629  64.9396305
  66.8463178  38.4908484  67.3956733  66.1991093  39.1898433  67.3021210
  67.6164194  38.9244628  67.7632981  70.2541976  48.7557336  70.4707286
  70.1027482  48.5267888  69.5537370  70.2446656  49.7127937  70.4838631
  62.6876338  41.8374323  67.4472829  62.1513695  41.3865061  68.0994425
  62.0993046  41.9720232  66.7043293  58.4215459  40.9730331  64.5325823
  58.3373648  40.3656000  63.7976233  57.5998166  41.4639349  64.5335319
  68.5939173  39.4583894  59.8996018  69.0907873  38.7053857  59.5797088
  67.8226155  39.4948211  59.3339227  76.4468930  45.1624260  61.5414310
  76.4358807  46.0448975  61.1708243  75.5786310  44.8095811  61.3468847
  69.6768954  48.2155581  57.4734442  68.7425233  48.3357044  57.3039146
  69.8545622  47.3128048  57.2094451  65.1774142  41.6001277  59.6267703
  64.8071929  41.0472318  60.3148608  65.6733234  40.9959411  59.0742703
  73.0641505  44.0572901  58.0084476  73.5301957  44.8900892  57.9344778
  73.5149006  43.5917882  58.7129734  71.1317736  50.4016722  55.0070628
  71.4077580  50.2873317  55.9164502  70.2622235  50.0034207  54.9682801
  71.0358168  36.4253488  62.0475377  70.1221248  36.6557715  62.2157584
  71.4651269  36.5091932  62.8989409  66.8552199  45.3563191  71.0341308
  66.1792836  45.2557320  71.7043683  67.6779833  45.2002404  71.4977305
  60.5739476  39.0105268  65.8720809  60.6380802  39.8720099  65.4598206
  60.5106596  38.3979270  65.1393167  60.0491748  41.0828401  69.5193843
  60.6763787  40.7005478  70.1331367  59.1919667  40.8642602  69.8849536
  60.3551538  40.9660826  61.4339746  59.6338124  41.5796794  61.2947220
  61.1444794  41.5018591  61.3556392  63.1577851  38.3015253  67.7080398
  63.6812253  38.5477549  68.4706708  62.9390185  39.1335288  67.2883536
  58.5545132  40.5718927  55.5751523  58.2257839  39.6916306  55.3926629
  58.9084503  40.5166596  56.4627912  61.6686956  40.8591897  55.9427001
  62.0083028  41.3877818  55.2205609  62.1159076  41.1972303  56.7185567
  64.3630396  39.2428948  65.3930069  64.0227217  38.4436761  65.7950749
  63.6569403  39.5430659  64.8206902  65.0146868  36.3278260  63.8457392
  65.8372937  35.8538738  63.7236282  65.2584932  37.1068744  64.3456078
  63.6555103  39.3566519  54.1420293  64.3763465  39.7347771  53.6384010
  63.0320407  40.0755395  54.2455271  67.7986226  40.0611668  55.0778626
  68.0149840  40.9436306  54.7767454  67.3180293  39.6697881  54.3484268
  62.5385447  43.0197381  61.6549370  62.3930028  43.3337684  62.5473652
  62.0610651  43.6382281  61.1020269  64.3981830  40.0099929  61.7030260
  64.3843399  39.1141022  61.3662558  65.1154258  40.0170593  62.3368546
  66.2507961  40.4437269  63.7483387  65.9925738  41.3654340  63.7467718
  65.7193001  40.0467704  64.4383852  63.8018726  38.8914309  56.9717830
  63.9234637  37.9630955  57.1708718  63.5120768  38.9052995  56.0596146
  66.6709916  36.5769220  60.1084550  66.6931613  36.6408553  59.1536529
  67.0877975  35.7373728  60.3025056  77.0493540  46.3124479  58.1463773
  77.4924686  45.5631804  57.7482896  76.1720051  46.3034615  57.7637504
  63.2859805  40.4046306  71.1807763  63.3347961  41.2808429  70.7985532
  63.8282319  39.8623700  70.6079406  71.1816288  43.7810824  69.0900935
  72.0826151  43.6417289  68.7984933  71.2564263  43.9465279  70.0299112
  65.5159094  41.1577679  67.9354121  64.6462403  41.4511245  67.6636710
  65.7518574  41.7418124  68.6561385  76.5926405  47.7829717  60.5386220
  77.4273297  48.2219521  60.7023780  76.7285534  47.3068371  59.7194466
  73.6417911  45.3409452  66.4863708  74.1172033  45.5337099  65.6782559
  72.7183476  45.3968638  66.2407091  68.2198128  37.3757296  65.4519542
  68.7380071  38.1118323  65.1266030  67.8653260  37.6821289  66.2866301
  59.7997065  42.2361977  53.5680948  59.1066310  42.3106332  52.9120984
  59.5548817  41.4722321  54.0902465  68.4710722  33.7957578  60.9720438
  68.7512476  33.1280767  61.5980865  69.2561329  33.9886674  60.4595102
  72.3419580  42.2175212  64.7192013  73.2937003  42.3173310  64.7404237
  72.1723031  41.4253481  65.2290098  70.3633960  39.3030796  64.9051414
  69.7683892  39.5835808  64.2097903  70.0783656  39.7924696  65.6768155
  74.8207658  45.4381332  63.8334313  74.7883978  44.4997333  64.0193997
  75.4308282  45.5165369  63.1000138  74.9702146  42.2292375  63.8792596
  74.4541195  41.4450832  63.6922525  75.8542095  41.9011092  64.0439116
  72.6312873  35.9733391  59.8388409  72.4337694  35.6648479  60.7231741
  73.2412579  36.6995030  59.9686339  80.6384208  46.4997339  62.9740350
  81.3687596  46.2382627  63.5348053  80.0291153  45.7626061  63.0142418
  78.7199505  44.6405201  63.5714801  77.9932668  44.5061166  62.9631293
  78.3046792  44.9482030  64.3771519  66.5429681  48.3595131  71.3362174
  67.4632691  48.5373730  71.5302221  66.5079264  47.4151177  71.1841873
  66.4595972  36.7764251  55.9660644  65.6496700  36.4311336  56.3415890
  67.1480389  36.4671795  56.5548255  68.3886520  35.8542298  57.5884940
  68.9417559  36.2737751  58.2474963  68.6256606  34.9278046  57.6307896
  64.4119619  41.8429372  73.3687704  64.3116346  42.7923729  73.2999795
  64.1941161  41.5147610  72.4963774  63.6132691  39.0914297  49.9528382
  64.4751855  39.4169195  50.2124199  63.7983035  38.3045793  49.4401447
  71.7665327  37.9642823  57.0963605  71.1863996  38.6227627  56.7141657
  71.5001260  37.1420168  56.6851022  70.2168893  37.3647881  59.2984925
  70.7168672  37.4764415  58.4899244  70.8604501  37.0608934  59.9385733
  64.2750889  45.2726510  72.1852766  63.7917971  46.0726871  72.3916655
  64.3611828  45.2834455  71.2320210  70.5490205  40.1242913  56.1519953
  69.6616060  40.4092564  55.9340148  70.9644194  39.9636677  55.3047230
  73.9004741  40.1489434  59.8674292  74.6765131  40.6385887  60.1398909
  73.1752875  40.5747489  60.3246162  76.3377300  40.8617054  60.9248233
  76.9321791  40.6212790  60.2141541  76.4103883  40.1424184  61.5521769
  70.5231229  45.6397449  56.3670243  70.4666430  46.0966001  55.5277875
  71.0759571  44.8788134  56.1893086  74.3336035  41.4287181  57.1920362
  74.0772969  41.0283817  58.0228570  73.7088903  42.1430975  57.0670502
  78.6448373  44.1683255  59.6991654  78.0847930  44.2376444  60.4723216
  78.0391876  43.9924239  58.9791150  71.2566008  46.8302231  53.6622772
  71.2014812  46.6646502  52.7211216  70.6312063  47.5378264  53.8184962
  68.5711915  49.1351143  72.9876335  69.4403075  49.3091795  72.6262970
  68.0918667  49.9545559  72.8652064  64.5662134  36.3310340  53.2408091
  64.5540803  37.2752180  53.3976361  65.4585555  36.1480485  52.9467552
  68.3814253  32.9253116  57.4954027  67.6146649  32.3711603  57.6410710
  68.7924958  32.9974985  58.3568179  60.3856014  39.2137912  71.5859209
  61.2487476  38.8574717  71.7962533  59.8121425  38.8751807  72.2734613
  85.1854087  58.5066455  60.3707796  85.9179259  57.9365672  60.6045626
  84.4293442  58.1188056  60.8114302  82.7079507  52.2188030  64.8302405
  82.3762832  53.0883441  64.6063620  82.1125120  51.9024314  65.5096435
  82.6008170  56.9383116  61.9095755  81.6925048  56.8698524  61.6154516
  82.5495766  57.4155061  62.7377580  84.4669817  55.1399554  63.6873629
  83.8244197  55.4332087  63.0413423  83.9624745  55.0252475  64.4926825
  84.6068795  64.8042984  59.1217433  83.9219833  65.1841885  58.5714467
  84.6912644  65.4138310  59.8549381  79.4645955  55.0620763  62.6249349
  78.6030434  55.3602017  62.9166086  79.4908390  55.2791162  61.6930382
  91.0671547  61.6713647  60.2420106  90.3135256  61.1021045  60.0864110
  91.2019088  61.6376311  61.1890740  79.8062639  50.0657611  64.4473718
  79.4626908  50.9559252  64.3712829  80.1741601  49.8759268  63.5843303
  78.8859179  52.4362266  62.4122952  78.3823975  52.3992401  61.5990757
  79.1789786  53.3455009  62.4719608  84.7447196  62.8098577  54.8899327
  83.9676638  62.4709736  54.4454489  85.4238677  62.8151200  54.2154292
  75.0387052  51.6244452  57.5180570  74.3851464  51.3093470  56.8937184
  74.9967526  51.0020193  58.2440393  81.5038677  56.5474918  58.9549687
  80.7661434  56.0352304  59.2859929  81.7565451  56.1075300  58.1432964
  81.6050304  49.3251170  59.5491456  81.9109181  48.4648533  59.2617371
  82.3302909  49.9168790  59.3490450  85.1435693  61.8242283  57.3522249
  85.0053591  62.0143879  56.4243438  84.7871912  62.5861666  57.8090300
  85.1705072  63.8918810  62.3633520  85.6041579  63.7994099  63.2116574
  85.8836653  63.8676311  61.7253536  86.0320622  63.9342511  64.8966406
  86.2256512  64.8388321  65.1425681  85.9321240  63.4749930  65.7304991
  81.1473806  62.4069468  50.8877988  80.5302976  61.6816296  50.7911041
  80.6790294  63.1678828  50.5445062  79.4332928  54.7875812  59.8996018
  79.9301627  54.0345774  59.5797088  78.6619909  54.8240129  59.3339227
  87.2862685  60.4916177  61.5414310  87.2752561  61.3740893  61.1708243
  86.4180064  60.1387728  61.3468847  83.9035260  59.3864818  58.0084476
  84.3695712  60.2192810  57.9344778  84.3542760  58.9209800  58.7129734
  81.8751922  51.7545405  62.0475377  80.9615002  51.9849632  62.2157584
  82.3045024  51.8383849  62.8989409  81.6458381  59.9435297  64.5475271
  80.9929831  60.1911205  63.8927724  82.0238761  59.1299436  64.2137748
  82.0347904  68.8779974  56.5273473  82.2084781  68.3126396  55.7747325
  82.5276795  69.6780869  56.3452963  77.5103671  51.9061137  60.1084550
  77.5325367  51.9700470  59.1536529  77.9271730  51.0665646  60.3025056
  87.8887295  61.6416397  58.1463773  88.3318441  60.8923722  57.7482896
  87.0113805  61.6326533  57.7637504  83.0223076  68.1946738  53.6270371
  83.7173981  68.8153431  53.8457686  83.3646226  67.3442089  53.9022749
  84.9214499  65.6446444  55.1557702  85.4465823  65.9833717  54.4307022
  84.8336852  64.7093459  54.9720836  84.7306281  63.1271814  67.7741628
  84.7804285  62.9621821  68.7157151  84.6220204  62.2599073  67.3839509
  82.0210043  59.1102742  69.0900935  82.9219906  58.9709207  68.7984933
  82.0958017  59.2757197  70.0299112  86.2324477  65.5468755  68.0183650
  85.9409286  65.9098736  68.8547111  85.6196609  64.8335764  67.8396982
  87.4320160  63.1121635  60.5386220  88.2667051  63.5511439  60.7023780
  87.5679288  62.6360288  59.7194466  84.4811666  60.6701370  66.4863708
  84.9565787  60.8629016  65.6782559  83.5577231  60.7260556  66.2407091
  79.0591882  52.7049214  65.4519542  79.5773826  53.4410240  65.1266030
  78.7047015  53.0113207  66.2866301  79.3104476  49.1249496  60.9720438
  79.5906230  48.4572685  61.5980865  80.0955083  49.3178592  60.4595102
  83.1813335  57.5467130  64.7192013  84.1330757  57.6465228  64.7404237
  83.0116785  56.7545399  65.2290098  81.2027714  54.6322713  64.9051414
  80.6077646  54.9127726  64.2097903  80.9177411  55.1216614  65.6768155
  82.9623221  67.9011510  50.6257994  82.8836853  67.5671374  51.5193752
  83.7832888  68.3933278  50.6249467  85.6601412  60.7673250  63.8334313
  85.6277732  59.8289250  64.0193997  86.2702036  60.8457286  63.1000138
  85.8095901  57.5584293  63.8792596  85.2934949  56.7742750  63.6922525
  86.6935849  57.2303010  64.0439116  83.4706628  51.3025309  59.8388409
  83.2731449  50.9940397  60.7231741  84.0806333  52.0286948  59.9686339
  91.4777962  61.8289257  62.9740350  92.2081351  61.5674545  63.5348053
  90.8684908  61.0917979  63.0142418  89.5593259  59.9697119  63.5714801
  88.8326423  59.8353084  62.9631293  89.1440546  60.2773948  64.3771519
  79.2280274  51.1834216  57.5884940  79.7811313  51.6029669  58.2474963
  79.4650361  50.2569964  57.6307896  82.6059081  53.2934741  57.0963605
  82.0257751  53.9519545  56.7141657  82.3395014  52.4712085  56.6851022
  81.0562648  52.6939798  59.2984925  81.5562426  52.8056333  58.4899244
  81.6998256  52.3900851  59.9385733  84.7398496  55.4781352  59.8674292
  85.5158886  55.9677805  60.1398909  84.0146630  55.9039406  60.3246162
  87.1771054  56.1908971  60.9248233  87.7715545  55.9504707  60.2141541
  87.2497638  55.4716102  61.5521769  80.5327173  65.2179506  50.2467973
  81.2363023  65.4229508  50.8625628  79.8089822  65.7856268  50.5117056
  85.1729789  56.7579099  57.1920362  84.9166723  56.3575735  58.0228570
  84.5482657  57.4722893  57.0670502  89.4842127  59.4975172  59.6991654
  88.9241685  59.5668362  60.4723216  88.8785630  59.3216157  58.9791150
  82.4413870  65.6562035  52.2966433  83.2759474  65.2243233  52.1143908
  82.2798213  65.4844049  53.2243327  79.2208007  48.2545034  57.4954027
  78.4540403  47.7003521  57.6410710  79.6318712  48.3266903  58.3568179
  91.0698145  76.1731686  62.3921610  91.7076555  76.0538433  61.6884950
  90.9518988  77.1212530  62.4509562  87.8787852  76.1259114  62.3283134
  87.5406363  76.0100179  61.4403669  88.7477620  75.7250279  62.3084140
  83.7374667  77.9794591  58.3180025  83.1739533  77.8884528  57.5496313
  83.6227062  77.1594495  58.7982518  88.3607635  77.2793966  68.2869340
  88.3496276  76.8846764  67.4149843  88.5228274  76.5460039  68.8803111
  81.2839099  79.4745782  61.1564246  82.0760391  79.1336607  60.7410545
  81.5235750  79.5840757  62.0766399  89.3174226  81.6465558  53.6294490
  88.6662206  82.2319639  53.2428504  90.1118589  82.1771753  53.6889528
  83.2429853  78.7354695  54.0281624  84.0160729  78.1883683  53.8894500
  83.5955252  79.5998945  54.2396086  85.0814896  80.0631078  67.2348524
  84.7904762  80.9676709  67.1195190  85.7171880  80.1047605  67.9492593
  86.0071103  77.4407926  63.8249883  86.6034675  77.2163949  63.1106846
  86.0646074  76.6992672  64.4275331  85.5796131  74.8947362  51.6600074
  85.8321652  74.3728883  50.8983537  84.6420690  74.7313507  51.7626758
  90.6239414  73.8983140  59.4674818  91.4102503  73.4802563  59.1165235
  90.8878118  74.8029232  59.6356466  90.7949491  79.3355990  54.1663474
  90.1595324  79.4090617  54.8784379  90.4646898  79.9249589  53.4882554
  96.0247841  73.8358373  60.3707796  96.7573013  73.2657590  60.6045626
  95.2687197  73.4479974  60.8114302  85.2992420  76.7975468  53.8624449
  85.1828678  76.1220371  54.5305534  85.4094680  76.3107842  53.0456602
  87.6423961  76.2585615  57.5671139  87.2782168  75.7316236  58.2784060
  88.4991077  75.8684084  57.3937624  93.5473261  67.5479947  64.8302405
  93.2156586  68.4175358  64.6063620  92.9518875  67.2316231  65.5096435
  87.2829448  71.2875514  52.5632487  87.4503850  72.1555751  52.9302958
  87.0926617  71.4502796  51.6393776  90.0404781  79.7492493  64.2298317
  89.7405504  80.6517532  64.1214125  89.6955840  79.4824676  65.0819470
  83.4917262  76.2006290  60.2635022  82.5667759  76.0682504  60.4712714
  83.7401676  76.9800509  60.7604964  93.4401925  72.2675033  61.9095755
  92.5318802  72.1990442  61.6154516  93.3889521  72.7446978  62.7377580
  87.2618669  73.7433172  53.5479154  87.1418294  74.1890223  54.3864634
  86.5671257  74.0918490  52.9892692  80.8526073  75.8439564  61.0978811
  80.9818455  76.0974043  62.0118223  80.1723525  76.4367272  60.7783466
  85.0225561  86.5136814  57.1969285  84.9449590  87.4644639  57.2757766
  84.4187204  86.1682686  57.8544211  87.5142791  73.6864679  69.8530652
  86.7376125  74.2458599  69.8433517  88.1533354  74.1721462  70.3745522
  95.3063571  70.4691472  63.6873629  94.6637951  70.7624005  63.0413423
  94.8018500  70.3544392  64.4926825  92.9603735  74.2154645  54.3759488
  93.8721591  74.4482032  54.2007186  92.4513382  74.7991689  53.8134567
  85.7689163  76.4950132  69.4148619  86.5103847  77.0335176  69.1383443
  85.0626148  77.1216421  69.5720171  91.2444502  78.6379273  68.0120781
  91.6527859  78.1961683  67.2675413  90.5221764  78.0631900  68.2654973
  87.5975573  73.5751880  65.3854338  88.4436768  73.9991293  65.5288987
  87.5374210  72.9185504  66.0792901  91.5673317  79.1980463  61.7673069
  90.9382180  79.3626178  61.0649137  91.1798979  79.6122073  62.5384033
  90.7475018  71.2356248  67.0435511  90.5035950  71.9898309  66.5069787
  91.0234948  71.6141596  67.8782758  92.7013481  77.7794860  65.7212777
  92.9130376  78.4226620  65.0447158  92.6543229  76.9457177  65.2534707
  90.3039710  70.3912681  62.6249349  89.4424189  70.6893935  62.9166086
  90.3302144  70.6083080  61.6930382  87.1201279  78.9354872  59.0323155
  87.5839625  79.2142575  58.2427777  86.8558077  78.0338316  58.8496245
  84.0125360  78.4826353  61.9702918  84.5826717  78.9113621  61.3320402
  84.6033472  78.2008938  62.6687103  86.0570165  75.0578024  55.8412720
  86.7594208  75.5099068  56.3086646  85.7250794  74.4161843  56.4692613
  84.5050527  73.6489781  70.2163929  83.8749187  74.3306061  70.4499326
  84.3986614  73.5372862  69.2717067  93.8159309  80.6566816  63.8935134
  94.6376752  80.2547003  63.6117816  93.8121711  80.5535050  64.8451250
  87.5815912  80.2050859  66.0495845  87.6460345  80.6671266  66.8854016
  86.8726836  79.5748224  66.1778154 101.9065302  77.0005564  60.2420106
 101.1529010  76.4312962  60.0864110 102.0412843  76.9668229  61.1890740
  87.2963930  81.8718967  55.9174825  87.1609604  82.7170502  56.3459673
  87.8373742  82.0738244  55.1540759  80.7493327  79.3894405  56.4902750
  81.2617848  80.1837655  56.6408315  81.4016040  78.6920695  56.4236351
  82.5588212  82.5060161  58.5725503  82.7354840  83.4278126  58.3846487
  83.3545045  82.1918580  59.0019883  86.6999230  69.3668426  70.1709437
  87.4408944  69.9675579  70.0913899  86.9317153  68.6246063  69.6127479
  81.8440568  74.5524793  68.4487666  81.7294083  73.6510050  68.7494765
  80.9885086  74.7988490  68.0972483  88.9232406  82.4942533  70.0475167
  88.4796260  81.7078912  69.7296071  89.5849620  82.6821684  69.3819058
  83.6819527  84.0238335  64.5735846  84.2326952  83.8955398  63.8012839
  82.8431003  84.3233224  64.2230738  91.0213644  82.7745333  68.0756568
  91.0032119  83.5954214  67.5836837  91.9433564  82.6499408  68.3006709
  87.4786698  80.2889463  68.9180077  88.0115035  79.5277751  68.6879385
  86.9500779  79.9963114  69.6604231  90.6456393  65.3949528  64.4473718
  90.3020663  66.2851170  64.3712829  91.0135356  65.2051186  63.5843303
  90.6106676  75.3858140  52.9546153  90.0953299  76.1562744  53.1934541
  90.3383984  74.7123276  53.5779215  88.1953787  70.2307840  58.0131392
  87.3395383  69.8414691  57.8337031  88.6080739  70.3099801  57.1531177
  89.7252934  67.7654184  62.4122952  89.2217729  67.7284319  61.5990757
  90.0183540  68.6746926  62.4719608  85.9695820  67.8492913  61.4189133
  86.8348816  67.6535722  61.0595023  86.0373328  67.6203265  62.3458490
  95.5840950  78.1390494  54.8899327  94.8070393  77.8001654  54.4454489
  96.2632431  78.1443117  54.2154292  90.3992979  73.2585232  54.7805935
  90.0943115  73.5731381  55.6316078  91.3523421  73.3366652  54.8233268
  88.8439411  79.4175455  56.4298889  88.3160773  78.6828215  56.1172126
  88.3426914  80.1950131  56.1838857  93.8232257  77.6124475  61.5465935
  93.1655931  78.3023737  61.6346064  94.6272656  78.0020907  61.8899921
  83.5758139  70.0795121  58.7905500  84.1501890  69.8570303  58.0578693
  84.1629121  70.1483816  59.5434101  92.6337716  75.9668848  59.5969877
  93.1469598  76.5998840  60.0991586  93.2838940  75.3670044  59.2313237
  83.9027726  72.1099582  52.8101385  83.0665038  72.4474269  53.1310660
  83.7632495  71.9748562  51.8728522  85.8780806  66.9536370  57.5180570
  85.2245219  66.6385387  56.8937184  85.8361280  66.3312111  58.2440393
  86.9892011  77.2355665  49.4333862  86.0819073  77.0044919  49.6325011
  87.4863043  76.4393284  49.6207843  89.8960090  85.9453172  52.3530548
  89.2221789  86.2484869  52.9615506  90.2825912  86.7482253  52.0036005
  89.1118547  73.4418304  61.8428217  88.1941108  73.6633251  61.6849905
  89.5278690  73.5164614  60.9839925  89.8953594  74.8409719  56.9730897
  90.6425413  75.3531117  56.6638020  90.1645184  74.5193772  57.8335291
  88.1680245  77.3368260  53.9557852  87.2591464  77.0527293  54.0530322
  88.1975328  77.7567339  53.0961159  93.3999512  80.9474850  57.7249019
  92.9461839  80.1065759  57.7814210  92.7693479  81.5836248  58.0623799
  92.3432432  71.8766836  58.9549687  91.6055188  71.3644222  59.2859929
  92.5959205  71.4367217  58.1432964  92.4444059  64.6543088  59.5491456
  92.7502936  63.7940451  59.2617371  93.1696664  65.2460708  59.3490450
  86.7165139  74.9496881  60.0567647  86.7713748  73.9970717  59.9810124
  85.9056341  75.1056320  60.5408946  87.8656332  78.8777004  51.2945930
  87.4275762  78.1612863  50.8351568  88.6066773  79.1053119  50.7331022
  84.6557499  73.5673940  57.8158026  83.8425364  73.8668111  58.2223218
  85.1516493  73.1729629  58.5332508  86.8066076  83.5631697  59.7492291
  86.7642255  83.7892544  58.8200823  87.7228775  83.3295072  59.8978092
  90.2531710  74.0315765  66.6472920  90.6081098  74.2587238  67.5067386
  90.9003841  74.3634142  66.0250175  95.9829447  77.1534201  57.3522249
  95.8447346  77.3435797  56.4243438  95.6265666  77.9153584  57.8090300
  84.9231877  80.4394726  59.5454253  85.7172476  79.9445047  59.3436828
  84.2123570  79.9112590  59.1821959  89.7426722  82.8212822  63.8966621
  89.7963744  83.3903758  64.6644337  88.8741503  82.9914707  63.5320658
  81.2314641  74.5837808  55.6214006  80.3012229  74.5222264  55.8383968
  81.3272113  74.0613761  54.8250647  96.8714376  79.2634428  64.8966406
  97.0650266  80.1680239  65.1425681  96.7714995  78.8041848  65.7304991
  88.5250687  69.1492319  67.3956733  87.8778602  69.8482269  67.3021210
  89.2951702  69.5828463  67.7632981  91.9329485  79.4141171  70.4707286
  91.7814991  79.1851723  69.5537370  91.9234164  80.3711773  70.4838631
  88.7014821  76.9873084  65.4553553  89.6306881  77.1384244  65.2822520
  88.2805851  77.0757105  64.6002199  87.5003153  81.0123748  63.2252090
  87.3614239  80.6442533  64.0978029  86.7117749  81.5271388  63.0536048
  88.0951305  86.1132845  54.5677627  88.2703061  85.6420888  55.3823250
  87.4084093  86.7398611  54.7958888  89.0508368  80.3905351  60.6140928
  88.7158201  80.3506121  61.5098578  88.5512314  79.7250067  60.1411339
  83.0252612  75.7972981  66.1393509  82.8872410  75.0653220  66.7405048
  83.9357536  75.7081881  65.8577697  91.9867560  77.7361385  50.8877988
  91.3696731  77.0108214  50.7911041  91.5184048  78.4970746  50.5445062
  85.6534913  75.5092940  65.6277189  86.3634532  74.8686133  65.5863808
  85.6104221  75.7605835  66.5503370  93.6421692  82.4460294  68.5483768
  93.5834238  81.7619514  67.8814351  94.0441210  83.1879284  68.0964394
  84.3663847  72.4958158  67.4472829  83.8301204  72.0448897  68.0994425
  83.7780555  72.6304067  66.7043293  82.6612390  89.2622208  61.3417487
  82.9008989  89.8940732  62.0196506  81.8181587  88.9110248  61.6282846
  83.7766106  71.9546810  50.0099292  82.8995572  71.8335611  49.6461539
  84.2523859  71.1632888  49.7578181  93.6439099  80.4099878  66.7797748
  92.7565878  80.0725800  66.9024147  94.2137650  79.6782909  67.0166513
  87.1740252  85.0701330  63.7458991  87.1010424  85.8756302  64.2578296
  86.7317645  85.2693296  62.9207013  86.9630032  84.3073100  57.2561813
  86.1797554  84.8494780  57.3500037  87.6622777  84.8247080  57.6556054
  90.2726682  70.1167730  59.8996018  90.7695382  69.3637692  59.5797088
  89.5013664  70.1532046  59.3339227  98.1256439  75.8208095  61.5414310
  98.1146316  76.7032811  61.1708243  97.2573819  75.4679646  61.3468847
  89.6338936  84.9688164  65.9017150  90.3466908  85.6035629  65.8293051
  89.1428964  85.0652030  65.0857152  91.3556463  78.8739417  57.4734442
  90.4212741  78.9940879  57.3039146  91.5333131  77.9711884  57.2094451
  86.8561651  72.2585113  59.6267703  86.4859438  71.7056153  60.3148608
  87.3520743  71.6543246  59.0742703  94.7429014  74.7156736  58.0084476
  95.2089466  75.5484728  57.9344778  95.1936515  74.2501718  58.7129734
  84.6850849  82.7182608  66.7222721  85.3860309  83.3519091  66.8752115
  84.2145964  83.0597339  65.9618360  92.8105245  81.0600557  55.0070628
  93.0865089  80.9457152  55.9164502  91.9409744  80.6618042  54.9682801
  92.7145677  67.0837323  62.0475377  91.8008757  67.3141550  62.2157584
  93.1438778  67.1675767  62.8989409  92.4852135  75.2727215  64.5475271
  91.8323586  75.5203122  63.8927724  92.8632515  74.4591353  64.2137748
  89.4459309  85.3086908  58.6503441  89.6281704  84.4908564  59.1131194
  90.2692295  85.5254600  58.2128331  89.7801475  84.2355093  55.9118490
  90.3089241  83.7247548  55.2988652  90.0429694  83.9197624  56.7764023
  88.5339708  76.0147026  71.0341308  87.8580345  75.9141155  71.7043683
  89.3567342  75.8586240  71.4977305  80.2818567  82.2518963  63.6553823
  80.8672004  81.5062651  63.7881728  80.0843406  82.5622919  64.5390487
  83.1357223  85.2870210  58.6716266  82.4667598  85.7716338  58.1880306
  82.9970092  85.5339430  59.5859644  87.2762491  87.3213954  65.2698924
  87.8280799  87.4845575  66.0348009  87.6168685  87.9118391  64.5978949
  92.1273366  82.1475211  71.1247579  92.6713270  82.7605169  70.6302533
  91.5460210  82.7054789  71.6414592  90.4130879  85.2695929  62.2562606
  90.2882018  84.4685669  61.7473552  91.0709970  85.7642122  61.7676576
  92.4765787  83.0704949  63.8842156  91.5296122  82.9510300  63.8120483
  92.8248560  82.1827447  63.9668418  89.4812220  82.8657665  60.0846509
  89.3337183  81.9374373  60.2654079  90.3065714  82.8877756  59.6003584
  83.3474465  71.5175732  55.9427001  83.6870537  72.0461654  55.2205609
  83.7946585  71.8556139  56.7185567  86.0417905  69.9012783  65.3930069
  85.7014726  69.1020596  65.7950749  85.3356912  70.2014494  64.8206902
  86.6934377  66.9862096  63.8457392  87.5160446  66.5122574  63.7236282
  86.9372441  67.7652579  64.3456078  85.3342612  70.0150354  54.1420293
  86.0550974  70.3931607  53.6384010  84.7107916  70.7339231  54.2455271
  89.4773735  70.7195503  55.0778626  89.6937349  71.6020141  54.7767454
  88.9967802  70.3281716  54.3484268  84.2172956  73.6781216  61.6549370
  84.0717537  73.9921519  62.5473652  83.7398160  74.2966117  61.1020269
  86.0769339  70.6683764  61.7030260  86.0630908  69.7724858  61.3662558
  86.7941767  70.6754428  62.3368546  87.9295470  71.1021104  63.7483387
  87.6713247  72.0238175  63.7467718  87.3980510  70.7051539  64.4383852
  92.8741658  84.2071892  56.5273473  93.0478536  83.6418314  55.7747325
  93.3670550  85.0072786  56.3452963  78.6918618  76.2186561  64.5937032
  78.1472086  76.9946369  64.7257306  79.5697968  76.5657365  64.4356153
  85.4806235  69.5498144  56.9717830  85.6022146  68.6214791  57.1708718
  85.1908277  69.5636830  56.0596146  88.3497425  67.2353055  60.1084550
  88.3719122  67.2992388  59.1536529  88.7665484  66.3957564  60.3025056
  98.7281049  76.9708314  58.1463773  99.1712195  76.2215640  57.7482896
  97.8507560  76.9618451  57.7637504  79.4784640  75.3456457  67.4867188
  78.7366376  75.4939092  68.0731819  79.1577384  75.6064722  66.6233938
  87.4228303  84.8872435  67.2847578  87.7315429  84.6421582  68.1570278
  88.2203785  85.0919074  66.7966449  87.4448915  87.0410345  59.5152955
  87.0053905  86.5486723  60.2085812  88.1957032  86.4983312  59.2745030
  79.9241254  83.2321886  59.5177583  80.7499274  82.9325657  59.1376227
  79.5735306  82.4629508  59.9667372  84.8922787  82.5848354  61.5875257
  84.2702796  81.9219059  61.2877485  85.5627654  82.6109486  60.9048904
  84.9647314  71.0630142  71.1807763  85.0135470  71.9392265  70.7985532
  85.5069828  70.5207535  70.6079406  95.4502160  81.6071265  70.4608900
  94.6597704  81.5895404  69.9213399  95.2135515  82.1459559  71.2157936
  95.5700035  78.4563731  67.7741628  95.6198040  78.2913739  68.7157151
  95.4613958  77.5890990  67.3839509  84.4536294  81.1352277  55.0633717
  84.6024414  81.8187742  54.4100390  85.2602737  81.1157367  55.5783173
  92.8603797  74.4394659  69.0900935  93.7613660  74.3001124  68.7984933
  92.9351772  74.6049114  70.0299112  87.1946603  71.8161514  67.9354121
  86.3249912  72.1095080  67.6636710  87.4306083  72.4001959  68.6561385
  97.0718232  80.8760673  68.0183650  96.7803040  81.2390654  68.8547111
  96.4590363  80.1627681  67.8396982  98.2713914  78.4413553  60.5386220
  99.1060806  78.8803357  60.7023780  98.4073043  77.9652206  59.7194466
  95.3205420  75.9993288  66.4863708  95.7959542  76.1920934  65.6782559
  94.3970985  76.0552473  66.2407091  82.2088927  77.1617455  56.0694786
  81.9634969  76.2579785  56.2674996  82.3784841  77.1634605  55.1274264
  89.8985637  68.0341131  65.4519542  90.4167580  68.7702158  65.1266030
  89.5440769  68.3405124  66.2866301  81.4784574  72.8945812  53.5680948
  80.7853819  72.9690167  52.9120984  81.2336326  72.1306156  54.0902465
  90.1498231  64.4541414  60.9720438  90.4299984  63.7864603  61.5980865
  90.9348838  64.6470509  60.4595102  87.9531699  83.6300408  52.5345465
  87.3805666  84.2490595  52.0815936  88.5264493  84.1799769  53.0685387
  94.0207089  72.8759048  64.7192013  94.9724512  72.9757145  64.7404237
  93.8510539  72.0837316  65.2290098  92.0421469  69.9614631  64.9051414
  91.4471401  70.2419644  64.2097903  91.7571165  70.4508532  65.6768155
  91.1728959  83.9137558  53.6654047  92.1059632  83.8483119  53.8686922
  91.0852172  84.7493825  53.2068580  93.8016976  83.2303428  50.6257994
  93.7230607  82.8963292  51.5193752  94.6226642  83.7225196  50.6249467
  88.3378498  74.9661220  49.8761517  89.2837602  74.8367428  49.9449935
  87.9592743  74.2275882  50.3530945  96.6489655  72.8876211  63.8792596
  96.1328704  72.1034667  63.6922525  97.5329604  72.5594927  64.0439116
  94.3100382  66.6317226  59.8388409  94.1125203  66.3232315  60.7231741
  94.9200088  67.3578865  59.9686339 102.3171717  77.1581174  62.9740350
 103.0475105  76.8966462  63.5348053 101.7078662  76.4209896  63.0142418
 100.3987014  75.2989037  63.5714801  99.6720177  75.1645002  62.9631293
  99.9834301  75.6065865  64.3771519  88.2217190  79.0178966  71.3362174
  89.1420200  79.1957566  71.5302221  88.1866773  78.0735012  71.1841873
  86.5221415  72.8911197  49.8116402  85.6152870  72.5944309  49.8879116
  86.7997396  72.5941015  48.9450689  81.2179263  76.9280001  63.9784955
  81.4365273  77.8597109  63.9972989  81.6305037  76.5687976  64.7639759
  88.1383481  67.4348086  55.9660644  87.3284209  67.0895171  56.3415890
  88.8267898  67.1255630  56.5548255  90.0674029  66.5126133  57.5884940
  90.6205067  66.9321587  58.2474963  90.3044115  65.5861881  57.6307896
  86.0907128  72.5013207  73.3687704  85.9903855  73.4507564  73.2999795
  85.8728670  72.1731446  72.4963774  85.2920199  69.7498132  49.9528382
  86.1539363  70.0753030  50.2124199  85.4770544  68.9629628  49.4401447
  93.4452836  68.6226658  57.0963605  92.8651505  69.2811462  56.7141657
  93.1788769  67.8004003  56.6851022  91.8956402  68.0231716  59.2984925
  92.3956181  68.1348251  58.4899244  92.5392010  67.7192769  59.9385733
  85.9538398  75.9310346  72.1852766  85.4705480  76.7310706  72.3916655
  86.0399337  75.9418291  71.2320210  81.8811736  79.8214880  64.2221200
  82.8354989  79.7898823  64.1551131  81.6824259  79.3605504  65.0371426
  82.4711118  78.3915997  66.7891997  83.2904007  78.8860075  66.8126835
  82.7447925  77.4747965  66.7609565  92.2277714  70.7826749  56.1519953
  91.3403569  71.0676399  55.9340148  92.6431703  70.6220512  55.3047230
  95.5792250  70.8073270  59.8674292  96.3552640  71.2969722  60.1398909
  94.8540384  71.2331324  60.3246162  80.2361964  85.3634500  61.2391398
  80.1016432  84.6034901  60.6729396  79.8194027  86.0875400  60.7720186
  91.3720927  80.5471423  50.2467973  92.0756778  80.7521426  50.8625628
  90.6483576  81.1148185  50.5117056  92.2018738  76.2981285  56.3670243
  92.1453939  76.7549836  55.5277875  92.7547080  75.5371969  56.1893086
  96.0123544  72.0871017  57.1920362  95.7560478  71.6867652  58.0228570
  95.3876412  72.8014811  57.0670502 100.3235882  74.8267090  59.6991654
  99.7635439  74.8960279  60.4723216  99.7179385  74.6508074  58.9791150
  83.3931090  86.2603817  61.4509840  83.2763474  87.2049249  61.3488530
  82.5723537  85.9577379  61.8395639  93.2807625  80.9853953  52.2966433
  94.1153229  80.5535151  52.1143908  93.1191968  80.8135966  53.2243327
  92.9353517  77.4886066  53.6622772  92.8802321  77.3230337  52.7211216
  92.3099572  78.1962099  53.8184962  90.2499424  79.7934978  72.9876335
  91.1190584  79.9675630  72.6262970  89.7706176  80.6129395  72.8652064
  86.2449643  66.9894175  53.2408091  86.2328312  67.9336015  53.3976361
  87.1373064  66.8064320  52.9467552  84.4185604  86.9132079  64.6665769
  85.3212851  86.9455689  64.9832264  84.1922975  85.9832530  64.6812104
  86.1739206  85.6663065  61.3275847  85.2234837  85.6664927  61.2140219
  86.4771693  84.9195800  60.8111882  90.0601762  63.5836952  57.4954027
  89.2934158  63.0295438  57.6410710  90.4712467  63.6558820  58.3568179
 101.9091900  91.5023604  62.3921610 102.5470310  91.3830351  61.6884950
 101.7912743  92.4504448  62.4509562  98.7181606  91.4551032  62.3283134
  98.3800118  91.3392097  61.4403669  99.5871374  91.0542197  62.3084140
  94.5768422  93.3086508  58.3180025  94.0133287  93.2176445  57.5496313
  94.4620817  92.4886413  58.7982518  99.2001389  92.6085884  68.2869340
  99.1890030  92.2138682  67.4149843  99.3622029  91.8751956  68.8803111
  92.1232854  94.8037700  61.1564246  92.9154146  94.4628525  60.7410545
  92.3629504  94.9132675  62.0766399 100.1567981  96.9757476  53.6294490
  99.5055960  97.5611556  53.2428504 100.9512343  97.5063671  53.6889528
  94.0823608  94.0646613  54.0281624  94.8554484  93.5175600  53.8894500
  94.4349007  94.9290862  54.2396086  95.9208650  95.3922995  67.2348524
  95.6298516  96.2968626  67.1195190  96.5565635  95.4339523  67.9492593
  96.8464857  92.7699844  63.8249883  97.4428429  92.5455866  63.1106846
  96.9039829  92.0284589  64.4275331  96.4189886  90.2239279  51.6600074
  96.6715406  89.7020801  50.8983537  95.4814445  90.0605425  51.7626758
 101.4633168  89.2275058  59.4674818 102.2496258  88.8094481  59.1165235
 101.7271873  90.1321150  59.6356466 101.6343246  94.6647908  54.1663474
 100.9989079  94.7382534  54.8784379 101.3040652  95.2541507  53.4882554
 106.8641596  89.1650291  60.3707796 107.5966768  88.5949508  60.6045626
 106.1080951  88.7771891  60.8114302  96.1386174  92.1267385  53.8624449
  96.0222432  91.4512289  54.5305534  96.2488434  91.6399759  53.0456602
  98.4817715  91.5877532  57.5671139  98.1175923  91.0608153  58.2784060
  99.3384831  91.1976001  57.3937624 104.3867016  82.8771865  64.8302405
 104.0550341  83.7467276  64.6063620 103.7912629  82.5608149  65.5096435
  98.1223202  86.6167432  52.5632487  98.2897605  87.4847668  52.9302958
  97.9320371  86.7794714  51.6393776 100.8798535  95.0784411  64.2298317
 100.5799259  95.9809450  64.1214125 100.5349595  94.8116594  65.0819470
  94.3311017  91.5298208  60.2635022  93.4061513  91.3974422  60.4712714
  94.5795430  92.3092427  60.7604964 104.2795679  87.5966951  61.9095755
 103.3712557  87.5282360  61.6154516 104.2283275  88.0738896  62.7377580
  98.1012423  89.0725090  53.5479154  97.9812048  89.5182140  54.3864634
  97.4065012  89.4210407  52.9892692  91.6919828  91.1731481  61.0978811
  91.8212209  91.4265960  62.0118223  91.0117279  91.7659189  60.7783466
  95.8619315 101.8428731  57.1969285  95.7843345 102.7936556  57.2757766
  95.2580959 101.4974604  57.8544211  98.3536545  89.0156597  69.8530652
  97.5769879  89.5750517  69.8433517  98.9927108  89.5013380  70.3745522
 106.1457326  85.7983390  63.6873629 105.5031706  86.0915923  63.0413423
 105.6412254  85.6836310  64.4926825 103.7997489  89.5446563  54.3759488
 104.7115345  89.7773949  54.2007186 103.2907136  90.1283607  53.8134567
  96.6082917  91.8242050  69.4148619  97.3497602  92.3627094  69.1383443
  95.9019903  92.4508339  69.5720171 102.0838257  93.9671191  68.0120781
 102.4921613  93.5253601  67.2675413 101.3615518  93.3923818  68.2654973
  98.4369327  88.9043797  65.3854338  99.2830522  89.3283211  65.5288987
  98.3767965  88.2477422  66.0792901 102.4067072  94.5272381  61.7673069
 101.7775934  94.6918095  61.0649137 102.0192734  94.9413991  62.5384033
 106.2856304  95.4626819  59.1217433 105.6007342  95.8425720  58.5714467
 106.3700153  96.0722146  59.8549381 101.5868772  86.5648166  67.0435511
 101.3429704  87.3190226  66.5069787 101.8628703  86.9433513  67.8782758
 103.5407235  93.1086778  65.7212777 103.7524130  93.7518538  65.0447158
 103.4936983  92.2749095  65.2534707 101.1433464  85.7204599  62.6249349
 100.2817943  86.0185852  62.9166086 101.1695899  85.9374998  61.6930382
  97.9595033  94.2646789  59.0323155  98.4233379  94.5434492  58.2427777
  97.6951832  93.3630234  58.8496245  94.8519115  93.8118271  61.9702918
  95.4220472  94.2405539  61.3320402  95.4427226  93.5300856  62.6687103
  96.8963920  90.3869942  55.8412720  97.5987963  90.8390985  56.3086646
  96.5644548  89.7453760  56.4692613  95.3444281  88.9781698  70.2163929
  94.7142942  89.6597979  70.4499326  95.2380369  88.8664780  69.2717067
  90.6389254  88.6453494  61.1429853  89.8488307  88.9011023  60.6669964
  91.1300501  89.4601832  61.2481894 104.6553063  95.9858733  63.8935134
 105.4770507  95.5838921  63.6117816 104.6515466  95.8826968  64.8451250
  92.5903999  89.0098074  58.1013330  91.7935162  89.1216768  58.6196826
  92.3629591  89.3484726  57.2354220  98.4209667  95.5342777  66.0495845
  98.4854099  95.9963184  66.8854016  97.7120590  94.9040142  66.1778154
  88.9226956  88.8983985  63.5744844  89.1734995  89.7830995  63.8402420
  89.4586505  88.7188586  62.8019936 112.7459056  92.3297482  60.2420106
 111.9922765  91.7604880  60.0864110 112.8806597  92.2960146  61.1890740
  98.1357684  97.2010884  55.9174825  98.0003359  98.0462420  56.3459673
  98.6767497  97.4030162  55.1540759  94.6225024  83.2802464  72.5789180
  94.2291969  82.7268663  73.2536824  95.4391164  83.5913043  72.9695698
  91.5887082  94.7186322  56.4902750  92.1011602  95.5129573  56.6408315
  92.2409794  94.0212613  56.4236351  93.3981966  97.8352079  58.5725503
  93.5748595  98.7570043  58.3846487  94.1938800  97.5210498  59.0019883
  97.5392985  84.6960343  70.1709437  98.2802698  85.2967496  70.0913899
  97.7710908  83.9537981  69.6127479  92.6834323  89.8816710  68.4487666
  92.5687838  88.9801968  68.7494765  91.8278841  90.1280407  68.0972483
  99.7626161  97.8234451  70.0475167  99.3190015  97.0370829  69.7296071
 100.4243374  98.0113601  69.3819058  94.5213282  99.3530252  64.5735846
  95.0720707  99.2247316  63.8012839  93.6824758  99.6525141  64.2230738
 101.8607399  98.1037251  68.0756568 101.8425874  98.9246132  67.5836837
 102.7827319  97.9791326  68.3006709  98.3180453  95.6181380  68.9180077
  98.8508790  94.8569668  68.6879385  97.7894534  95.3255032  69.6604231
 101.4850148  80.7241446  64.4473718 101.1414417  81.6143088  64.3712829
 101.8529110  80.5343104  63.5843303  89.5535998  93.0474977  57.2662321
  90.3911220  93.4571985  57.0496028  89.7314266  92.1074419  57.2362514
 101.4500430  90.7150057  52.9546153 100.9347054  91.4854662  53.1934541
 101.1777739  90.0415193  53.5779215  99.0347541  85.5599758  58.0131392
  98.1789138  85.1706608  57.8337031  99.4474493  85.6391719  57.1531177
 100.5646688  83.0946101  62.4122952 100.0611484  83.0576236  61.5990757
 100.8577295  84.0038844  62.4719608  96.8089574  83.1784831  61.4189133
  97.6742571  82.9827640  61.0595023  96.8767083  82.9495183  62.3458490
 106.4234705  93.4682412  54.8899327 105.6464147  93.1293571  54.4454489
 107.1026186  93.4735035  54.2154292 101.2386734  88.5877149  54.7805935
 100.9336869  88.9023299  55.6316078 102.1917176  88.6658569  54.8233268
  99.6833165  94.7467373  56.4298889  99.1554527  94.0120132  56.1172126
  99.1820668  95.5242049  56.1838857 104.6626011  92.9416393  61.5465935
 104.0049686  93.6315655  61.6346064 105.4666411  93.3312825  61.8899921
  94.4151893  85.4087039  58.7905500  94.9895645  85.1862220  58.0578693
  95.0022876  85.4775733  59.5434101 103.4731470  91.2960766  59.5969877
 103.9863352  91.9290758  60.0991586 104.1232694  90.6961961  59.2313237
  94.7421480  87.4391500  52.8101385  93.9058792  87.7766187  53.1310660
  94.6026250  87.3040480  51.8728522  96.7174561  82.2828288  57.5180570
  96.0638973  81.9677305  56.8937184  96.6755035  81.6604028  58.2440393
  97.8285766  92.5647583  49.4333862  96.9212827  92.3336836  49.6325011
  98.3256798  91.7685202  49.6207843 100.7353845 101.2745090  52.3530548
 100.0615543 101.5776787  52.9615506 101.1219667 102.0774170  52.0036005
  99.9512301  88.7710221  61.8428217  99.0334863  88.9925168  61.6849905
 100.3672445  88.8456532  60.9839925 100.7347349  90.1701637  56.9730897
 101.4819168  90.6823034  56.6638020 101.0038938  89.8485690  57.8335291
  99.0073999  92.6660178  53.9557852  98.0985218  92.3819211  54.0530322
  99.0369083  93.0859256  53.0961159 104.2393267  96.2766767  57.7249019
 103.7855594  95.4357677  57.7814210 103.6087233  96.9128166  58.0623799
 103.1826186  87.2058753  58.9549687 102.4448943  86.6936140  59.2859929
 103.4352960  86.7659135  58.1432964 102.6826206  98.1143264  58.6598837
 102.9749180  98.6748321  57.9411203 103.1924826  98.4071825  59.4151997
 103.2837813  79.9835005  59.5491456 103.5896690  79.1232369  59.2617371
 104.0090418  80.5752626  59.3490450  89.5762169  90.3865692  57.9373054
  89.3786569  89.7935053  57.2124121  89.0208833  90.0817902  58.6548993
  97.5558893  90.2788798  60.0567647  97.6107503  89.3262635  59.9810124
  96.7450095  90.4348237  60.5408946  98.7050087  94.2068921  51.2945930
  98.2669517  93.4904780  50.8351568  99.4460528  94.4345036  50.7331022
  95.4951253  88.8965858  57.8158026  94.6819119  89.1960029  58.2223218
  95.9910247  88.5021547  58.5332508  97.6459831  98.8923615  59.7492291
  97.6036010  99.1184461  58.8200823  98.5622530  98.6586990  59.8978092
 101.0925465  89.3607683  66.6472920 101.4474852  89.5879156  67.5067386
 101.7397596  89.6926059  66.0250175 106.8223202  92.4826118  57.3522249
 106.6841100  92.6727714  56.4243438 106.4659420  93.2445501  57.8090300
  94.9865328  86.4684214  63.4319261  95.6264707  86.3272973  62.7342224
  94.1542858  86.1818727  63.0557863 106.8492581  94.5502645  62.3633520
 107.2829088  94.4577935  63.2116574 107.5624162  94.5260146  61.7253536
  95.7625632  95.7686644  59.5454253  96.5566230  95.2736964  59.3436828
  95.0517324  95.2404507  59.1821959 100.5820476  98.1504740  63.8966621
 100.6357498  98.7195676  64.6644337  99.7135258  98.3206625  63.5320658
  92.0708395  89.9129726  55.6214006  91.1405983  89.8514181  55.8383968
  92.1665867  89.3905679  54.8250647  91.9893944  86.4384539  58.2092248
  92.2500762  87.3529872  58.1001408  92.8111117  85.9708981  58.3588861
  93.4618870  87.8522296  65.3791072  94.1341923  87.6439658  64.7303721
  92.6348656  87.6544382  64.9396305 107.7108131  94.5926346  64.8966406
 107.9044021  95.4972157  65.1425681 107.6108749  94.1333765  65.7304991
  99.3644442  84.4784237  67.3956733  98.7172357  85.1774186  67.3021210
 100.1345457  84.9120381  67.7632981 102.7723240  94.7433089  70.4707286
 102.6208746  94.5143641  69.5537370 102.7627919  95.7003690  70.4838631
  99.5408576  92.3165002  65.4553553 100.4700636  92.4676161  65.2822520
  99.1199606  92.4049022  64.6002199  98.3396908  96.3415666  63.2252090
  98.2007993  95.9734450  64.0978029  97.5511504  96.8563305  63.0536048
  98.9345060 101.4424763  54.5677627  99.1096815 100.9712806  55.3823250
  98.2477848 102.0690529  54.7958888  99.8902123  95.7197269  60.6140928
  99.5551955  95.6798039  61.5098578  99.3906069  95.0541985  60.1411339
  93.8646367  91.1264899  66.1393509  93.7266165  90.3945138  66.7405048
  94.7751290  91.0373799  65.8577697 102.8261315  93.0653303  50.8877988
 102.2090485  92.3400131  50.7911041 102.3577803  93.8262663  50.5445062
  96.4928667  90.8384858  65.6277189  97.2028286  90.1978050  65.5863808
  96.4497976  91.0897753  66.5503370 104.4815446  97.7752211  68.5483768
 104.4227992  97.0911432  67.8814351 104.8834965  98.5171201  68.0964394
  95.2057601  87.8250076  67.4472829  94.6694958  87.3740814  68.0994425
  94.6174310  87.9595985  66.7043293  93.5006145 104.5914125  61.3417487
  93.7402743 105.2232649  62.0196506  92.6575341 104.2402165  61.6282846
  94.6159860  87.2838727  50.0099292  93.7389327  87.1627528  49.6461539
  95.0917613  86.4924806  49.7578181 104.4832853  95.7391795  66.7797748
 103.5959632  95.4017717  66.9024147 105.0531404  95.0074827  67.0166513
  86.1362001  92.0715887  60.1040799  86.8233040  91.7577617  59.5161815
  85.9810129  92.9757252  59.8308051  90.9396723  86.9606084  64.5325823
  90.8554911  86.3531753  63.7976233  90.1179429  87.4515102  64.5335319
  98.0134007 100.3993248  63.7458991  97.9404178 101.2048219  64.2578296
  97.5711400 100.5985214  62.9207013  97.8023786  99.6365018  57.2561813
  97.0191308 100.1786698  57.3500037  98.5016532 100.1538997  57.6556054
 101.1120437  85.4459647  59.8996018 101.6089136  84.6929610  59.5797088
 100.3407418  85.4823964  59.3339227 108.9650194  91.1500013  61.5414310
 108.9540070  92.0324728  61.1708243 108.0967573  90.7971564  61.3468847
 100.4732690 100.2980082  65.9017150 101.1860663 100.9327547  65.8293051
  99.9822719 100.3943948  65.0857152 102.1950217  94.2031334  57.4734442
 101.2606496  94.3232797  57.3039146 102.3726886  93.3003801  57.2094451
  97.6955405  87.5877030  59.6267703  97.3253193  87.0348071  60.3148608
  98.1914498  86.9835164  59.0742703 105.5822769  90.0448654  58.0084476
 106.0483221  90.8776645  57.9344778 106.0330269  89.5793635  58.7129734
  95.5244604  98.0474525  66.7222721  96.2254063  98.6811008  66.8752115
  95.0539719  98.3889257  65.9618360 103.6499000  96.3892475  55.0070628
 103.9258844  96.2749070  55.9164502 102.7803498  95.9909960  54.9682801
 103.5539431  82.4129241  62.0475377 102.6402511  82.6433468  62.2157584
 103.9832533  82.4967685  62.8989409 103.3245890  90.6019133  64.5475271
 102.6717340  90.8495040  63.8927724 103.7026270  89.7883271  64.2137748
 100.2853064 100.6378826  58.6503441 100.4675458  99.8200482  59.1131194
 101.1086050 100.8546518  58.2128331 100.6195229  99.5647011  55.9118490
 101.1482996  99.0539466  55.2988652 100.8823449  99.2489541  56.7764023
  99.3733463  91.3438944  71.0341308  98.6974100  91.2433073  71.7043683
 100.1961097  91.1878157  71.4977305  91.1212322  97.5810880  63.6553823
  91.7065759  96.8354568  63.7881728  90.9237160  97.8914837  64.5390487
  93.9750977 100.6162128  58.6716266  93.3061352 101.1008255  58.1880306
  93.8363847 100.8631348  59.5859644  85.7129977  90.1516480  62.3758266
  85.7514076  89.6180071  63.1695385  85.2070270  89.6251686  61.7569244
  98.1156246 102.6505871  65.2698924  98.6674554 102.8137493  66.0348009
  98.4562439 103.2410309  64.5978949  93.0920739  84.9981021  65.8720809
  93.1562065  85.8595852  65.4598206  93.0287859  84.3855023  65.1393167
  92.5673012  87.0704154  69.5193843  93.1945050  86.6881231  70.1331367
  91.7100930  86.8518355  69.8849536 102.9667120  97.4767129  71.1247579
 103.5107024  98.0897087  70.6302533 102.3853965  98.0346707  71.6414592
  89.3438554  88.8780583  55.4512198  89.6391995  87.9691261  55.3979252
  88.4426590  88.8568322  55.1293200 101.2524633 100.5987847  62.2562606
 101.1275772  99.7977587  61.7473552 101.9103724 101.0934040  61.7676576
  92.8732801  86.9536579  61.4339746  92.1519387  87.5672547  61.2947220
  93.6626057  87.4894344  61.3556392 103.3159541  98.3996867  63.8842156
 102.3689877  98.2802218  63.8120483 103.6642315  97.5119365  63.9668418
  95.6759115  84.2891006  67.7080398  96.1993517  84.5353302  68.4706708
  95.4571448  85.1211041  67.2883536  91.0726396  86.5594680  55.5751523
  90.7439102  85.6792059  55.3926629  91.4265767  86.5042349  56.4627912
 100.3205975  98.1949583  60.0846509 100.1730937  97.2666290  60.2654079
 101.1459468  98.2169674  59.6003584  94.1868219  86.8467650  55.9427001
  94.5264292  87.3753571  55.2205609  94.6340339  87.1848056  56.7185567
 103.9240097  99.0178142  61.1711381 104.8486644  98.8121003  61.0335832
 103.7555400  98.7694543  62.0800723  96.8811660  85.2304701  65.3930069
  96.5408480  84.4312514  65.7950749  96.1750666  85.5306412  64.8206902
  97.5328132  82.3154013  63.8457392  98.3554201  81.8414491  63.7236282
  97.7766195  83.0944497  64.3456078  96.1736366  85.3442272  54.1420293
  96.8944729  85.7223524  53.6384010  95.5501670  86.0631149  54.2455271
 100.3167489  86.0487421  55.0778626 100.5331103  86.9312059  54.7767454
  99.8361556  85.6573634  54.3484268  95.0566710  89.0073134  61.6549370
  94.9111291  89.3213437  62.5473652  94.5791914  89.6258034  61.1020269
  96.9163093  85.9975682  61.7030260  96.9024662  85.1016775  61.3662558
  97.6335521  86.0046346  62.3368546  98.7689224  86.4313022  63.7483387
  98.5107002  87.3530093  63.7467718  98.2374264  86.0343457  64.4383852
 103.7135413  99.5363809  56.5273473 103.8872290  98.9710232  55.7747325
 104.2064304 100.3364704  56.3452963  89.5312373  91.5478478  64.5937032
  88.9865841  92.3238286  64.7257306  90.4091722  91.8949283  64.4356153
  96.3199989  84.8790062  56.9717830  96.4415900  83.9506708  57.1708718
  96.0302032  84.8928748  56.0596146  99.1891180  82.5644973  60.1084550
  99.2112876  82.6284306  59.1536529  99.6059239  81.7249481  60.3025056
 109.5674804  92.3000232  58.1463773 110.0105950  91.5507557  57.7482896
 108.6901314  92.2910369  57.7637504 104.7010585  98.8530574  53.6270371
 105.3961490  99.4737266  53.8457686 105.0433735  98.0025925  53.9022749
  90.3178394  90.6748375  67.4867188  89.5760130  90.8231010  68.0731819
  89.9971139  90.9356640  66.6233938 106.6002008  96.3030279  55.1557702
 107.1253332  96.6417552  54.4307022 106.5124361  95.3677294  54.9720836
  98.2622057 100.2164353  67.2847578  98.5709184  99.9713500  68.1570278
  99.0597539 100.4210991  66.7966449  98.2842669 102.3702262  59.5152955
  97.8447659 101.8778641  60.2085812  99.0350786 101.8275230  59.2745030
  90.7635008  98.5613803  59.5177583  91.5893028  98.2617575  59.1376227
  90.4129060  97.7921426  59.9667372  95.7316541  97.9140272  61.5875257
  95.1096551  97.2510977  61.2877485  96.4021408  97.9401403  60.9048904
  88.9643613  96.4800130  60.4766517  88.1275521  96.0522304  60.2950518
  88.9367259  96.6732573  61.4137308  95.8041069  86.3922060  71.1807763
  95.8529224  87.2684182  70.7985532  96.3463583  85.8499453  70.6079406
 106.2895914  96.9363183  70.4608900 105.4991458  96.9187322  69.9213399
 106.0529269  97.4751476  71.2157936 106.4093789  93.7855649  67.7741628
 106.4591794  93.6205657  68.7157151 106.3007713  92.9182908  67.3839509
  95.2930048  96.4644195  55.0633717  95.4418169  97.1479659  54.4100390
  96.0996492  96.4449285  55.5783173 103.6997552  89.7686577  69.0900935
 104.6007415  89.6293042  68.7984933 103.7745526  89.9341032  70.0299112
  98.0340357  87.1453432  67.9354121  97.1643667  87.4386998  67.6636710
  98.2699838  87.7293877  68.6561385 107.9111986  96.2052591  68.0183650
 107.6196795  96.5682571  68.8547111 107.2984118  95.4919599  67.8396982
 109.1107669  93.7705470  60.5386220 109.9454560  94.2095275  60.7023780
 109.2466797  93.2944124  59.7194466 106.1599175  91.3285205  66.4863708
 106.6353296  91.5212852  65.6782559 105.2364740  91.3844391  66.2407091
  93.0482681  92.4909372  56.0694786  92.8028723  91.5871702  56.2674996
  93.2178596  92.4926523  55.1274264 100.7379391  83.3633049  65.4519542
 101.2561335  84.0994076  65.1266030 100.3834524  83.6697042  66.2866301
  92.3178329  88.2237730  53.5680948  91.6247574  88.2982085  52.9120984
  92.0730081  87.4598074  54.0902465 100.9891985  79.7833331  60.9720438
 101.2693739  79.1156520  61.5980865 101.7742592  79.9762427  60.4595102
  98.7925454  98.9592325  52.5345465  98.2199421  99.5782512  52.0815936
  99.3658247  99.5091687  53.0685387 104.8600844  88.2050965  64.7192013
 105.8118266  88.3049063  64.7404237 104.6904294  87.4129234  65.2290098
 102.8815223  85.2906549  64.9051414 102.2865155  85.5711561  64.2097903
 102.5964920  85.7800450  65.6768155 102.0122713  99.2429475  53.6654047
 102.9453387  99.1775037  53.8686922 101.9245926 100.0785742  53.2068580
 104.6410730  98.5595346  50.6257994 104.5624362  98.2255209  51.5193752
 105.4620397  99.0517114  50.6249467 107.3388921  91.4257085  63.8334313
 107.3065241  90.4873086  64.0193997 107.9489545  91.5041122  63.1000138
  99.1772252  90.2953138  49.8761517 100.1231357  90.1659346  49.9449935
  98.7986497  89.5567800  50.3530945 107.4883410  88.2168128  63.8792596
 106.9722458  87.4326585  63.6922525 108.3723358  87.8886845  64.0439116
 105.1494137  81.9609144  59.8388409 104.9518958  81.6524232  60.7231741
 105.7593842  82.6870783  59.9686339 113.1565471  92.4873092  62.9740350
 113.8868860  92.2258380  63.5348053 112.5472417  91.7501814  63.0142418
 111.2380768  90.6280954  63.5714801 110.5113932  90.4936919  62.9631293
 110.8228055  90.9357783  64.3771519  99.0610945  94.3470884  71.3362174
  99.9813954  94.5249483  71.5302221  99.0260528  93.4026930  71.1841873
  97.3615169  88.2203114  49.8116402  96.4546625  87.9236227  49.8879116
  97.6391150  87.9232933  48.9450689  88.2793110  89.5409478  60.2615449
  87.9595894  88.6874786  59.9689823  87.7326538  89.7558056  61.0173416
  92.0573017  92.2571919  63.9784955  92.2759027  93.1889027  63.9972989
  92.4698791  91.8979893  64.7639759  98.9777235  82.7640004  55.9660644
  98.1677963  82.4187089  56.3415890  99.6661652  82.4547548  56.5548255
 100.9067783  81.8418051  57.5884940 101.4598822  82.2613504  58.2474963
 101.1437870  80.9153799  57.6307896  96.9300883  87.8305125  73.3687704
  96.8297610  88.7799482  73.2999795  96.7122425  87.5023363  72.4963774
  96.1313954  85.0790050  49.9528382  96.9933118  85.4044948  50.2124199
  96.3164298  84.2921546  49.4401447  88.1481370  93.1612389  62.2308570
  87.4544841  92.7466342  61.7178525  88.8954361  93.2032926  61.6341989
 104.2846590  83.9518576  57.0963605 103.7045260  84.6103380  56.7141657
 104.0182523  83.1295921  56.6851022 102.7350157  83.3523634  59.2984925
 103.2349935  83.4640168  58.4899244 103.3785765  83.0484687  59.9385733
  96.7932153  91.2602263  72.1852766  96.3099234  92.0602624  72.3916655
  96.8793092  91.2710208  71.2320210  90.0618112  93.0930643  60.1074585
  90.0388800  93.1918330  59.1556468  90.3718749  93.9395794  60.4291751
  92.7205490  95.1506798  64.2221200  93.6748744  95.1190740  64.1551131
  92.5218014  94.6897422  65.0371426  93.3104872  93.7207914  66.7891997
  94.1297761  94.2151993  66.8126835  93.5841680  92.8039882  66.7609565
 103.0671468  86.1118666  56.1519953 102.1797324  86.3968317  55.9340148
 103.4825458  85.9512430  55.3047230 106.4186005  86.1365187  59.8674292
 107.1946395  86.6261640  60.1398909 105.6934139  86.5623242  60.3246162
 108.8558563  86.8492807  60.9248233 109.4503054  86.6088543  60.2141541
 108.9285147  86.1299937  61.5521769  91.0755719 100.6926418  61.2391398
  90.9410187  99.9326819  60.6729396  90.6587781 101.4167317  60.7720186
 102.2114682  95.8763341  50.2467973 102.9150532  96.0813344  50.8625628
 101.4877331  96.4440103  50.5117056 103.0412492  91.6273202  56.3670243
 102.9847694  92.0841754  55.5277875 103.5940835  90.8663887  56.1893086
 106.8517298  87.4162934  57.1920362 106.5954232  87.0159570  58.0228570
 106.2270166  88.1306728  57.0670502 111.1629636  90.1559008  59.6991654
 110.6029194  90.2252197  60.4723216 110.5573139  89.9799992  58.9791150
  94.2324845 101.5895735  61.4509840  94.1157229 102.5341167  61.3488530
  93.4117291 101.2869296  61.8395639 104.1201379  96.3145870  52.2966433
 104.9546983  95.8827069  52.1143908 103.9585722  96.1427884  53.2243327
 103.7747272  92.8177984  53.6622772 103.7196075  92.6522255  52.7211216
 103.1493327  93.5254017  53.8184962  88.5639787  88.0546048  67.4884194
  89.2098650  87.5445002  67.9771420  88.3556938  88.7914730  68.0627620
 101.0893179  95.1226896  72.9876335 101.9584338  95.2967548  72.6262970
 100.6099930  95.9421312  72.8652064  97.0843397  82.3186093  53.2408091
  97.0722067  83.2627933  53.3976361  97.9766819  82.1356238  52.9467552
  95.2579359 102.2423997  64.6665769  96.1606606 102.2747607  64.9832264
  95.0316729 101.3124447  64.6812104  97.0132961 100.9954983  61.3275847
  96.0628592 100.9956845  61.2140219  97.3165447 100.2487718  60.8111882
 100.8995516  78.9128869  57.4954027 100.1327912  78.3587356  57.6410710
 101.3106221  78.9850738  58.3568179  92.9037278  85.2013665  71.5859209
  93.7668739  84.8450470  71.7962533  92.3302688  84.8627560  72.2734613
 112.7485654 106.8315521  62.3921610 113.3864064 106.7122269  61.6884950
 112.6306497 107.7796365  62.4509562 109.5575361 106.7842950  62.3283134
 109.2193872 106.6684014  61.4403669 110.4265129 106.3834115  62.3084140
 105.4162176 108.6378426  58.3180025 104.8527042 108.5468363  57.5496313
 105.3014571 107.8178330  58.7982518 110.0395144 107.9377801  68.2869340
 110.0283784 107.5430600  67.4149843 110.2015783 107.2043874  68.8803111
 102.9626608 110.1329618  61.1564246 103.7547900 109.7920442  60.7410545
 103.2023259 110.2424593  62.0766399 104.9217362 109.3938531  54.0281624
 105.6948238 108.8467518  53.8894500 105.2742761 110.2582780  54.2396086
 106.7602405 110.7214913  67.2348524 106.4692271 111.6260544  67.1195190
 107.3959389 110.7631441  67.9492593 107.6858612 108.0991762  63.8249883
 108.2822184 107.8747784  63.1106846 107.7433583 107.3576507  64.4275331
 107.2583640 105.5531197  51.6600074 107.5109161 105.0312718  50.8983537
 106.3208199 105.3897342  51.7626758 112.3026923 104.5566975  59.4674818
 113.0890012 104.1386398  59.1165235 112.5665627 105.4613068  59.6356466
 117.7035350 104.4942209  60.3707796 118.4360522 103.9241425  60.6045626
 116.9474706 104.1063809  60.8114302 106.9779929 107.4559303  53.8624449
 106.8616187 106.7804206  54.5305534 107.0882189 106.9691677  53.0456602
 109.3211470 106.9169450  57.5671139 108.9569677 106.3900071  58.2784060
 110.1778586 106.5267919  57.3937624 115.2260770  98.2063783  64.8302405
 114.8944095  99.0759194  64.6063620 114.6306384  97.8900067  65.5096435
 108.9616957 101.9459350  52.5632487 109.1291359 102.8139586  52.9302958
 108.7714126 102.1086631  51.6393776 105.1704771 106.8590125  60.2635022
 104.2455268 106.7266340  60.4712714 105.4189185 107.6384345  60.7604964
 115.1189434 102.9258869  61.9095755 114.2106311 102.8574277  61.6154516
 115.0677030 103.4030814  62.7377580 108.9406178 104.4017007  53.5479154
 108.8205803 104.8474058  54.3864634 108.2458766 104.7502325  52.9892692
 102.5313582 106.5023399  61.0978811 102.6605964 106.7557878  62.0118223
 101.8511034 107.0951107  60.7783466 109.1930300 104.3448514  69.8530652
 108.4163634 104.9042435  69.8433517 109.8320863 104.8305297  70.3745522
 116.9851080 101.1275307  63.6873629 116.3425460 101.4207840  63.0413423
 116.4806009 101.0128228  64.4926825 114.6391244 104.8738480  54.3759488
 115.5509100 105.1065867  54.2007186 114.1300891 105.4575525  53.8134567
 107.4476672 107.1533968  69.4148619 108.1891356 107.6919012  69.1383443
 106.7413657 107.7800257  69.5720171 112.9232011 109.2963108  68.0120781
 113.3315367 108.8545519  67.2675413 112.2009273 108.7215736  68.2654973
 109.2763082 104.2335715  65.3854338 110.1224277 104.6575129  65.5288987
 109.2161719 103.5769339  66.0792901 112.4262527 101.8940083  67.0435511
 112.1823459 102.6482144  66.5069787 112.7022457 102.2725431  67.8782758
 111.9827219 101.0496516  62.6249349 111.1211698 101.3477770  62.9166086
 112.0089653 101.2666915  61.6930382 108.7988788 109.5938707  59.0323155
 109.2627134 109.8726410  58.2427777 108.5345586 108.6922152  58.8496245
 105.6912869 109.1410188  61.9702918 106.2614226 109.5697457  61.3320402
 106.2820981 108.8592773  62.6687103 107.7357674 105.7161859  55.8412720
 108.4381717 106.1682903  56.3086646 107.4038303 105.0745678  56.4692613
 106.1838036 104.3073616  70.2163929 105.5536696 104.9889897  70.4499326
 106.0774123 104.1956698  69.2717067 101.4783008 103.9745412  61.1429853
 100.6882062 104.2302941  60.6669964 101.9694255 104.7893750  61.2481894
 103.4297753 104.3389991  58.1013330 102.6328917 104.4508685  58.6196826
 103.2023346 104.6776643  57.2354220 109.2603421 110.8634694  66.0495845
 109.3247854 111.3255102  66.8854016 108.5514345 110.2332059  66.1778154
  99.7620711 104.2275902  63.5744844 100.0128749 105.1122912  63.8402420
 100.2980259 104.0480504  62.8019936 105.4618778  98.6094382  72.5789180
 105.0685724  98.0560580  73.2536824 106.2784919  98.9204960  72.9695698
 102.4280836 110.0478240  56.4902750 102.9405357 110.8421490  56.6408315
 103.0803549 109.3504530  56.4236351 104.2375721 113.1643996  58.5725503
 104.4142349 114.0861961  58.3846487 105.0332554 112.8502415  59.0019883
 108.3786739 100.0252261  70.1709437 109.1196453 100.6259414  70.0913899
 108.6104662  99.2829899  69.6127479 103.5228077 105.2108628  68.4487666
 103.4081592 104.3093885  68.7494765 102.6672595 105.4572325  68.0972483
 105.3607036 114.6822170  64.5735846 105.9114461 114.5539233  63.8012839
 104.5218512 114.9817059  64.2230738 109.1574207 110.9473298  68.9180077
 109.6902544 110.1861586  68.6879385 108.6288288 110.6546950  69.6604231
 112.3243902  96.0533364  64.4473718 111.9808172  96.9435005  64.3712829
 112.6922865  95.8635021  63.5843303 100.3929753 108.3766894  57.2662321
 101.2304975 108.7863903  57.0496028 100.5708021 107.4366336  57.2362514
 112.2894185 106.0441975  52.9546153 111.7740808 106.8146580  53.1934541
 112.0171493 105.3707111  53.5779215 109.8741296 100.8891676  58.0131392
 109.0182892 100.4998526  57.8337031 110.2868248 100.9683637  57.1531177
 111.4040443  98.4238019  62.4122952 110.9005238  98.3868154  61.5990757
 111.6971049  99.3330762  62.4719608 107.6483328  98.5076749  61.4189133
 108.5136325  98.3119557  61.0595023 107.7160837  98.2787100  62.3458490
 112.0780488 103.9169067  54.7805935 111.7730624 104.2315216  55.6316078
 113.0310930 103.9950487  54.8233268 110.5226920 110.0759290  56.4298889
 109.9948282 109.3412050  56.1172126 110.0214423 110.8533967  56.1838857
 105.2545648 100.7378957  58.7905500 105.8289399 100.5154138  58.0578693
 105.8416630 100.8067651  59.5434101 114.3125225 106.6252684  59.5969877
 114.8257107 107.2582675  60.0991586 114.9626449 106.0253879  59.2313237
 105.5815235 102.7683418  52.8101385 104.7452547 103.1058104  53.1310660
 105.4420004 102.6332397  51.8728522 107.5568315  97.6120206  57.5180570
 106.9032728  97.2969223  56.8937184 107.5148789  96.9895946  58.2440393
 108.6679520 107.8939501  49.4333862 107.7606582 107.6628754  49.6325011
 109.1650552 107.0977120  49.6207843 110.7906056 104.1002139  61.8428217
 109.8728617 104.3217086  61.6849905 111.2066199 104.1748450  60.9839925
 111.5741103 105.4993555  56.9730897 112.3212922 106.0114952  56.6638020
 111.8432693 105.1777607  57.8335291 109.8467754 107.9952095  53.9557852
 108.9378973 107.7111128  54.0530322 109.8762837 108.4151174  53.0961159
 114.0219941 102.5350671  58.9549687 113.2842697 102.0228057  59.2859929
 114.2746714 102.0951053  58.1432964 114.1231568  95.3126923  59.5491456
 114.4290445  94.4524286  59.2617371 114.8484173  95.9044543  59.3490450
 100.4155924 105.7157610  57.9373054 100.2180324 105.1226970  57.2124121
  99.8602588 105.4109820  58.6548993 108.3952648 105.6080716  60.0567647
 108.4501257 104.6554552  59.9810124 107.5843850 105.7640155  60.5408946
 109.5443841 109.5360839  51.2945930 109.1063271 108.8196698  50.8351568
 110.2854282 109.7636954  50.7331022 106.3345008 104.2257776  57.8158026
 105.5212873 104.5251946  58.2223218 106.8304002 103.8313465  58.5332508
 111.9319219 104.6899600  66.6472920 112.2868607 104.9171073  67.5067386
 112.5791350 105.0217977  66.0250175 105.8259082 101.7976131  63.4319261
 106.4658462 101.6564890  62.7342224 104.9936613 101.5110645  63.0557863
 106.6019386 111.0978562  59.5454253 107.3959985 110.6028882  59.3436828
 105.8911079 110.5696425  59.1821959 102.9102150 105.2421643  55.6214006
 101.9799738 105.1806099  55.8383968 103.0059622 104.7197596  54.8250647
 102.8287699 101.7676456  58.2092248 103.0894516 102.6821790  58.1001408
 103.6504871 101.3000899  58.3588861 104.3012624 103.1814213  65.3791072
 104.9735677 102.9731576  64.7303721 103.4742411 102.9836299  64.9396305
 110.2038196  99.8076154  67.3956733 109.5566111 100.5066104  67.3021210
 110.9739211 100.2412298  67.7632981 110.3802330 107.6456919  65.4553553
 111.3094390 107.7968079  65.2822520 109.9593360 107.7340940  64.6002199
 109.1790662 111.6707584  63.2252090 109.0401748 111.3026368  64.0978029
 108.3905258 112.1855223  63.0536048 110.7295877 111.0489186  60.6140928
 110.3945710 111.0089956  61.5098578 110.2299823 110.3833902  60.1411339
 104.7040121 106.4556816  66.1393509 104.5659919 105.7237055  66.7405048
 105.6145045 106.3665717  65.8577697 113.6655069 108.3945221  50.8877988
 113.0484240 107.6692049  50.7911041 113.1971557 109.1554581  50.5445062
 107.3322422 106.1676776  65.6277189 108.0422041 105.5269968  65.5863808
 107.2891730 106.4189671  66.5503370 106.0451356 103.1541994  67.4472829
 105.5088713 102.7032732  68.0994425 105.4568064 103.2887903  66.7043293
 105.4553615 102.6130645  50.0099292 104.5783081 102.4919446  49.6461539
 105.9311368 101.8216723  49.7578181  96.9755755 107.4007805  60.1040799
  97.6626795 107.0869535  59.5161815  96.8203884 108.3049169  59.8308051
 101.7790477 102.2898001  64.5325823 101.6948666 101.6823671  63.7976233
 100.9573184 102.7807020  64.5335319 111.9514191 100.7751565  59.8996018
 112.4482891 100.0221527  59.5797088 111.1801173 100.8115882  59.3339227
 113.0343972 109.5323252  57.4734442 112.1000250 109.6524715  57.3039146
 113.2120640 108.6295719  57.2094451 108.5349160 102.9168948  59.6267703
 108.1646947 102.3639988  60.3148608 109.0308252 102.3127081  59.0742703
 116.4216523 105.3740571  58.0084476 116.8876975 106.2068563  57.9344778
 116.8724024 104.9085553  58.7129734 106.3638358 113.3766443  66.7222721
 107.0647818 114.0102926  66.8752115 105.8933473 113.7181174  65.9618360
 114.3933186  97.7421158  62.0475377 113.4796266  97.9725385  62.2157584
 114.8226287  97.8259602  62.8989409 114.1639644 105.9311050  64.5475271
 113.5111095 106.1786958  63.8927724 114.5420024 105.1175189  64.2137748
 110.2127217 106.6730861  71.0341308 109.5367854 106.5724991  71.7043683
 111.0354851 106.5170075  71.4977305 101.9606076 112.9102798  63.6553823
 102.5459513 112.1646486  63.7881728 101.7630915 113.2206755  64.5390487
  96.5523731 105.4808398  62.3758266  96.5907831 104.9471989  63.1695385
  96.0464024 104.9543604  61.7569244 103.9314493 100.3272939  65.8720809
 103.9955820 101.1887770  65.4598206 103.8681614  99.7146940  65.1393167
 103.4066766 102.3996071  69.5193843 104.0338805 102.0173149  70.1331367
 102.5494685 102.1810273  69.8849536 100.1832309 104.2072500  55.4512198
 100.4785750 103.2983179  55.3979252  99.2820345 104.1860240  55.1293200
 103.7126556 102.2828497  61.4339746 102.9913142 102.8964465  61.2947220
 104.5019812 102.8186262  61.3556392 106.5152869  99.6182923  67.7080398
 107.0387271  99.8645220  68.4706708 106.2965203 100.4502958  67.2883536
 101.9120150 101.8886598  55.5751523 101.5832856 101.0083977  55.3926629
 102.2659521 101.8334267  56.4627912 105.0261973 102.1759568  55.9427001
 105.3658046 102.7045489  55.2205609 105.4734094 102.5139974  56.7185567
 107.7205414 100.5596619  65.3930069 107.3802235  99.7604432  65.7950749
 107.0144421 100.8598329  64.8206902 108.3721886  97.6445931  63.8457392
 109.1947955  97.1706409  63.7236282 108.6159950  98.4236415  64.3456078
 107.0130121 100.6734189  54.1420293 107.7338483 101.0515442  53.6384010
 106.3895425 101.3923066  54.2455271 111.1561244 101.3779338  55.0778626
 111.3724858 102.2603976  54.7767454 110.6755311 100.9865552  54.3484268
 105.8960465 104.3365052  61.6549370 105.7505046 104.6505355  62.5473652
 105.4185669 104.9549952  61.1020269 107.7556848 101.3267600  61.7030260
 107.7418417 100.4308693  61.3662558 108.4729276 101.3338263  62.3368546
 109.6082978 101.7604940  63.7483387 109.3500756 102.6822010  63.7467718
 109.0768019 101.3635374  64.4383852 100.3706127 106.8770396  64.5937032
  99.8259595 107.6530204  64.7257306 101.2485477 107.2241200  64.4356153
 107.1593744 100.2081980  56.9717830 107.2809655  99.2798626  57.1708718
 106.8695786 100.2220666  56.0596146 110.0284934  97.8936890  60.1084550
 110.0506631  97.9576223  59.1536529 110.4452993  97.0541399  60.3025056
 101.1572149 106.0040292  67.4867188 100.4153885 106.1522928  68.0731819
 100.8364893 106.2648558  66.6233938 101.6028763 113.8905721  59.5177583
 102.4286783 113.5909493  59.1376227 101.2522815 113.1213343  59.9667372
 106.5710296 113.2432189  61.5875257 105.9490305 112.5802894  61.2877485
 107.2415163 113.2693321  60.9048904  99.8037368 111.8092047  60.4766517
  98.9669276 111.3814222  60.2950518  99.7761013 112.0024491  61.4137308
 106.6434823 101.7213977  71.1807763 106.6922979 102.5976100  70.7985532
 107.1857337 101.1791370  70.6079406 106.1323803 111.7936113  55.0633717
 106.2811923 112.4771577  54.4100390 106.9390246 111.7741203  55.5783173
 114.5391306 105.0978495  69.0900935 115.4401169 104.9584960  68.7984933
 114.6139281 105.2632950  70.0299112 108.8734112 102.4745350  67.9354121
 108.0037421 102.7678916  67.6636710 109.1093592 103.0585795  68.6561385
 103.8876436 107.8201290  56.0694786 103.6422478 106.9163620  56.2674996
 104.0572350 107.8218441  55.1274264 111.5773146  98.6924967  65.4519542
 112.0955089  99.4285993  65.1266030 111.2228278  98.9988960  66.2866301
 103.1572083 103.5529648  53.5680948 102.4641328 103.6274003  52.9120984
 102.9123835 102.7889991  54.0902465 111.8285740  95.1125249  60.9720438
 112.1087493  94.4448438  61.5980865 112.6136347  95.3054345  60.4595102
 115.6994598 103.5342883  64.7192013 116.6512021 103.6340981  64.7404237
 115.5298048 102.7421152  65.2290098 113.7208978 100.6198466  64.9051414
 113.1258910 100.9003479  64.2097903 113.4358674 101.1092367  65.6768155
 110.0166007 105.6245056  49.8761517 110.9625111 105.4951264  49.9449935
 109.6380252 104.8859718  50.3530945 118.3277164 103.5460046  63.8792596
 117.8116213 102.7618503  63.6922525 119.2117113 103.2178763  64.0439116
 115.9887891  97.2901062  59.8388409 115.7912712  96.9816150  60.7231741
 116.5987597  98.0162701  59.9686339 109.9004699 109.6762802  71.3362174
 110.8207709 109.8541401  71.5302221 109.8654282 108.7318847  71.1841873
 108.2008924 103.5495032  49.8116402 107.2940379 103.2528145  49.8879116
 108.4784905 103.2524850  48.9450689  99.1186864 104.8701396  60.2615449
  98.7989649 104.0166704  59.9689823  98.5720292 105.0849974  61.0173416
 102.8966772 107.5863837  63.9784955 103.1152782 108.5180944  63.9972989
 103.3092546 107.2271811  64.7639759 109.8170990  98.0931922  55.9660644
 109.0071718  97.7479007  56.3415890 110.5055407  97.7839466  56.5548255
 111.7461538  97.1709969  57.5884940 112.2992576  97.5905422  58.2474963
 111.9831624  96.2445717  57.6307896 107.7694637 103.1597042  73.3687704
 107.6691364 104.1091399  73.2999795 107.5516179 102.8315281  72.4963774
 106.9707708 100.4081967  49.9528382 107.8326872 100.7336866  50.2124199
 107.1558053  99.6213463  49.4401447  98.9875124 108.4904307  62.2308570
  98.2938596 108.0758260  61.7178525  99.7348115 108.5324844  61.6341989
 115.1240345  99.2810494  57.0963605 114.5439014  99.9395298  56.7141657
 114.8576278  98.4587838  56.6851022 113.5743911  98.6815551  59.2984925
 114.0743690  98.7932086  58.4899244 114.2179519  98.3776604  59.9385733
 107.6325907 106.5894181  72.1852766 107.1492989 107.3894541  72.3916655
 107.7186846 106.6002126  71.2320210 100.9011867 108.4222561  60.1074585
 100.8782555 108.5210248  59.1556468 101.2112503 109.2687712  60.4291751
 103.5599245 110.4798716  64.2221200 104.5142498 110.4482658  64.1551131
 103.3611768 110.0189340  65.0371426 104.1498627 109.0499832  66.7891997
 104.9691516 109.5443911  66.8126835 104.4235434 108.1331800  66.7609565
 113.9065223 101.4410584  56.1519953 113.0191078 101.7260235  55.9340148
 114.3219212 101.2804348  55.3047230 117.2579759 101.4657105  59.8674292
 118.0340149 101.9553558  60.1398909 116.5327893 101.8915159  60.3246162
 119.6952318 102.1784724  60.9248233 120.2896809 101.9380460  60.2141541
 119.7678901 101.4591855  61.5521769 101.9149473 116.0218335  61.2391398
 101.7803941 115.2618736  60.6729396 101.4981536 116.7459235  60.7720186
 113.8806247 106.9565120  56.3670243 113.8241448 107.4133672  55.5277875
 114.4334589 106.1955805  56.1893086 117.6911053 102.7454852  57.1920362
 117.4347987 102.3451488  58.0228570 117.0663921 103.4598646  57.0670502
 114.6141026 108.1469901  53.6622772 114.5589830 107.9814173  52.7211216
 113.9887081 108.8545934  53.8184962  99.4033541 103.3837966  67.4884194
 100.0492405 102.8736920  67.9771420  99.1950692 104.1206647  68.0627620
 107.9237151  97.6478010  53.2408091 107.9115821  98.5919850  53.3976361
 108.8160573  97.4648156  52.9467552 111.7389271  94.2420787  57.4954027
 110.9721667  93.6879274  57.6410710 112.1499976  94.3142656  58.3568179
 103.7431032 100.5305583  71.5859209 104.6062494 100.1742388  71.7962533
 103.1696443 100.1919478  72.2734613  44.5212835  -8.1846434  49.0528441
  44.1831347  -8.3005369  48.1648976  45.3902603  -8.5855269  49.0329447
  40.3799651  -6.3310957  45.0425332  39.8164516  -6.4221021  44.2741620
  40.2652046  -7.1511053  45.5227824  45.0032618  -7.0311582  55.0114646
  44.9921259  -7.4258784  54.1395150  45.1653258  -7.7645510  55.6048418
  37.9264083  -4.8359766  47.8809552  38.7185375  -5.1768941  47.4655852
  38.1660733  -4.7264791  48.8011706  45.9599209  -2.6639990  40.3539797
  45.3087189  -2.0785909  39.9673811  46.7543572  -2.1333795  40.4134834
  39.8854837  -5.5750853  40.7526931  40.6585713  -6.1221866  40.6139807
  40.2380235  -4.7106603  40.9641393  41.7239879  -4.2474470  53.9593830
  41.4329745  -3.3428840  53.8440497  42.3596864  -4.2057943  54.6737900
  42.6496086  -6.8697622  50.5495190  43.2459658  -7.0941599  49.8352153
  42.7071058  -7.6112876  51.1520638  47.4374475  -4.9749558  40.8908781
  46.8020308  -4.9014931  41.6029686  47.1071881  -4.3855959  40.2127860
  41.9417403  -7.5130081  40.5869756  41.8253661  -8.1885177  41.2550840
  42.0519663  -7.9997707  39.7701909  44.2848944  -8.0519933  44.2916445
  43.9207151  -8.5789312  45.0029367  45.1416060  -8.4421464  44.1182931
  46.6829764  -4.5613055  50.9543624  46.3830487  -3.6588016  50.8459431
  46.3380824  -4.8280872  51.8064777  40.1342246  -8.1099258  46.9880329
  39.2092742  -8.2423044  47.1958020  40.3826659  -7.3305039  47.4850271
  41.6650544   2.2031266  43.9214592  41.5874574   3.1539091  44.0003072
  41.0612188   1.8577138  44.5789518  42.4114146  -7.8155416  56.1393926
  43.1528831  -7.2770372  55.8628749  41.7051132  -7.1889127  56.2965478
  47.8869486  -5.6726275  54.7366087  48.2952842  -6.1143865  53.9920720
  47.1646747  -6.2473648  54.9900280  48.2098300  -5.1125085  48.4918376
  47.5807163  -4.9479370  47.7894444  47.8223963  -4.6983475  49.2629340
  52.0887532  -4.1770647  45.8462740  51.4038570  -3.7971745  45.2959773
  52.1731382  -3.5675320  46.5794688  49.3438464  -6.5310688  52.4458083
  49.5555359  -5.8878928  51.7692464  49.2968212  -7.3648371  51.9780013
  43.7626262  -5.3750677  45.7568461  44.2264608  -5.0962974  44.9673084
  43.4983060  -6.2767232  45.5741552  40.6550343  -5.8279195  48.6948224
  41.2251700  -5.3991927  48.0565709  41.2458455  -6.1096610  49.3932410
  50.4584292  -3.6538732  50.6180441  51.2801736  -4.0558545  50.3363122
  50.4546695  -3.7570498  51.5696557  44.2240895  -4.1054689  52.7741151
  44.2885328  -3.6434282  53.6099323  43.5151819  -4.7357324  52.9023461
  43.9388913  -2.4386582  42.6420132  43.8034588  -1.5935046  43.0704979
  44.4798725  -2.2367304  41.8786065  37.3918310  -4.9211143  43.2148057
  37.9042831  -4.1267893  43.3653621  38.0441023  -5.6184853  43.1481658
  39.2013195  -1.8045387  45.2970810  39.3779823  -0.8827423  45.1091794
  39.9970029  -2.1186968  45.7265190  45.5657389  -1.8163015  56.7720474
  45.1221244  -2.6026636  56.4541378  46.2274603  -1.6283865  56.1064364
  40.3244511  -0.2867213  51.2981152  40.8751936  -0.4150150  50.5258146
  39.4855986   0.0127676  50.9476045  47.6638627  -1.5360215  54.8001875
  47.6457103  -0.7151334  54.3082144  48.5858547  -1.6606140  55.0252016
  44.1211682  -4.0216086  55.6425383  44.6540018  -4.7827797  55.4124691
  43.5925763  -4.3142434  56.3849538  45.4864394  -4.8930093  43.1544195
  44.9585756  -5.6277334  42.8417433  44.9851897  -4.1155417  42.9084164
  50.4657240  -6.6981073  48.2711242  49.8080915  -6.0081811  48.3591370
  51.2697640  -6.3084641  48.6145228  43.6316994  -7.0749883  36.1579168
  42.7244056  -7.3060629  36.3570317  44.1288026  -7.8712264  36.3453150
  46.5385073   1.6347624  39.0775854  45.8646772   1.9379321  39.6860812
  46.9250895   2.4376705  38.7281312  44.8105228  -6.9737288  40.6803158
  43.9016447  -7.2578255  40.7775628  44.8400312  -6.5538209  39.8206465
  50.0424495  -3.3630699  44.4494326  49.5886822  -4.2039789  44.5059516
  49.4118462  -2.7269300  44.7869106  48.4857435  -1.5254202  45.3844144
  48.7780409  -0.9649145  44.6656510  48.9956055  -1.2325641  46.1397303
  44.5081316  -5.4328544  38.0191237  44.0700746  -6.1492685  37.5596874
  45.2491757  -5.2052430  37.4576328  43.4491060  -0.7473851  46.4737597
  43.4067239  -0.5213004  45.5446129  44.3653759  -0.9810476  46.6223398
  52.6523810  -5.0894820  49.0878827  53.0860317  -5.1819531  49.9361881
  53.3655391  -5.1137320  48.4498843  41.5656861  -3.8710822  46.2699560
  42.3597459  -4.3660502  46.0682135  40.8548553  -4.3992959  45.9067266
  46.3851705  -1.4892726  50.6211928  46.4388727  -0.9201790  51.3889644
  45.5166486  -1.3190841  50.2565965  53.5139360  -5.0471120  51.6211712
  53.7075250  -4.1425309  51.8670987  53.4139978  -5.5063701  52.4550297
  48.5754468  -4.8964377  57.1952593  48.4239975  -5.1253825  56.2782677
  48.5659148  -3.9393775  57.2083938  45.3439805  -7.3232464  52.1798860
  46.2731865  -7.1721305  52.0067827  44.9230835  -7.2348443  51.3247506
  44.1428137  -3.2981800  49.9497397  44.0039222  -3.6663015  50.8223335
  43.3542733  -2.7834160  49.7781355  44.7376288   1.8027297  41.2922934
  44.9128044   1.3315340  42.1068556  44.0509077   2.4293063  41.5204194
  45.6933352  -3.9200197  47.3386235  45.3583184  -3.9599427  48.2343885
  45.1937297  -4.5855481  46.8656645  39.6677596  -8.5132567  52.8638816
  39.5297394  -9.2452328  53.4650355  40.5782519  -8.6023667  52.5823004
  48.6292543  -6.5744163  37.6123295  48.0121714  -7.2997335  37.5156347
  48.1609032  -5.8134802  37.2690369  42.2959896  -8.8012608  52.3522496
  43.0059515  -9.4419415  52.3109114  42.2529204  -8.5499713  53.2748676
  50.2846675  -1.8645254  55.2729075  50.2259221  -2.5486034  54.6059658
  50.6866193  -1.1226264  54.8209701  39.3037374   4.9516660  48.0662794
  39.5433972   5.5835184  48.7441812  38.4606570   4.6004700  48.3528153
  50.2864082  -3.9005670  53.5043055  49.3990861  -4.2379749  53.6269453
  50.8562633  -4.6322639  53.7411820  43.8165236   0.7595782  50.4704298
  43.7435407   1.5650753  50.9823602  43.3742629   0.9587748  49.6452319
  43.6055015  -0.0032448  43.9807119  42.8222537   0.5389232  44.0745344
  44.3047760   0.5141532  44.3801361  46.2763919   0.6582616  52.6262456
  46.9891891   1.2930081  52.5538358  45.7853948   0.7546482  51.8102458
  47.9981446  -5.4366131  44.1979748  47.0637725  -5.3164669  44.0284452
  48.1758115  -6.3393665  43.9339758  41.3275833  -1.5922941  53.4468027
  42.0285292  -0.9586458  53.5997422  40.8570948  -1.2508209  52.6863667
  49.4530229  -3.2504991  41.7315934  49.7290072  -3.3648396  42.6409808
  48.5834727  -3.6487506  41.6928107  46.0884293   0.9981360  45.3748748
  46.2706687   0.1803016  45.8376500  46.9117279   1.2149052  44.9373638
  46.4226458  -0.0750455  42.6363796  46.9514224  -0.5858000  42.0233959
  46.6854678  -0.3907925  43.5009329  45.1764692  -8.2958522  57.7586615
  44.5005329  -8.3964393  58.4288990  45.9992326  -8.4519308  58.2222612
  36.9243551  -2.0586586  50.3799130  37.5096988  -2.8042898  50.5127034
  36.7268389  -1.7482629  51.2635794  39.7782206   0.9764662  45.3961572
  39.1092581   1.4610790  44.9125612  39.6395076   1.2233882  46.3104951
  43.9187475   3.0108405  51.9944231  44.4705783   3.1740027  52.7593316
  44.2593668   3.6012843  51.3224256  48.7698349  -2.1630337  57.8492885
  49.3138253  -1.5500379  57.3547840  48.1885194  -1.6050759  58.3659898
  47.0555862   0.9590381  48.9807913  46.9307001   0.1580121  48.4718858
  47.7134953   1.4536574  48.4921883  49.1190770  -1.2400599  50.6087463
  48.1721106  -1.3595248  50.5365790  49.4673543  -2.1278101  50.6913724
  46.1237204  -1.4447883  46.8091815  45.9762166  -2.3731175  46.9899385
  46.9490697  -1.4227792  46.3248890  49.7271325  -0.6219324  47.8956688
  50.6517873  -0.8276463  47.7581139  49.5586629  -0.8702923  48.8046029
  49.5166642  -0.1033657  43.2518779  49.6903519  -0.6687234  42.4992632
  50.0095533   0.6967238  43.0698269  50.5041814  -0.7866892  40.3515678
  51.1992719  -0.1660200  40.5702992  50.8464964  -1.6371541  40.6268056
  52.4033237  -3.3367187  41.8803008  52.9284561  -2.9979914  41.1552328
  52.3155590  -4.2720171  41.6966143  44.0653286   0.5766887  54.0092885
  44.3740412   0.3316034  54.8815585  44.8628768   0.7813525  53.5211755
  44.0873898   2.7304797  46.2398262  43.6478888   2.2381175  46.9331118
  44.8382015   2.1877764  45.9990337  36.5666237  -1.0783663  46.2422890
  37.3924257  -1.3779891  45.8621533  36.2160289  -1.8476040  46.6912678
  41.5347770  -1.7257194  48.3120563  40.9127779  -2.3886489  48.0122791
  42.2052637  -1.6996062  47.6294211  34.7674842  -3.1597336  47.2011823
  33.9306750  -3.5875162  47.0195825  34.7398487  -2.9664893  48.1382614
  52.0927143  -2.7034283  57.1854206  51.3022687  -2.7210144  56.6458706
  51.8560498  -2.1645989  57.9403243  41.0961277  -3.1753271  41.7879024
  41.2449397  -2.4917807  41.1345697  41.9027720  -3.1948181  42.3028480
  53.7143215  -3.4344875  54.7428956  53.4228023  -3.0714895  55.5792417
  53.1015346  -4.1477867  54.5642289  38.8513910  -7.1488093  42.7940093
  38.6059952  -8.0525763  42.9920303  39.0209825  -7.1470943  41.8519571
  44.5956683  -0.6805141  39.2590771  44.0230650  -0.0614953  38.8061243
  45.1689476  -0.1305779  39.7930693  47.8153942  -0.3967990  40.3899354
  48.7484615  -0.4622429  40.5932229  47.7277155   0.4388276  39.9313886
  50.4441959  -1.0802120  37.3503301  50.3655590  -1.4142256  38.2439059
  51.2651626  -0.5880352  37.3494773  44.8642174  -5.2926582  58.0607481
  45.7845183  -5.1147983  58.2547527  44.8291757  -6.2370536  57.9087180
  37.8604246  -7.3825547  50.7030262  38.0790256  -6.4508439  50.7218296
  38.2730020  -7.7417573  51.4885066  42.5963381  -8.3795202  58.9098072
  42.1130463  -7.5794842  59.1161962  42.6824321  -8.3687257  57.9565516
  35.8649341  -6.5466823  46.8319892  35.8420029  -6.4479135  45.8801775
  36.1749978  -5.7001672  47.1537058  38.5236719  -4.4890668  50.9466506
  39.4779973  -4.5206725  50.8796438  38.3249243  -4.9500044  51.7616732
  39.1136101  -5.9189552  53.5137304  39.9328990  -5.4245473  53.5372141
  39.3872909  -6.8357583  53.4854871  36.8786948   1.0528952  47.9636704
  36.7441416   0.2929353  47.3974702  36.4619010   1.7769852  47.4965493
  48.0145911  -3.7634125  36.9713279  48.7181761  -3.5584122  37.5870935
  47.2908560  -3.1957363  37.2362363  40.0356074   1.9498269  48.1755147
  39.9188458   2.8943701  48.0733837  39.2148520   1.6471830  48.5640946
  49.9232608  -3.3251595  39.0211739  50.7578212  -3.7570397  38.8389214
  49.7616951  -3.4969582  39.9488634  49.5778500  -6.8219482  40.3868079
  49.5227304  -6.9875211  39.4456523  48.9524556  -6.1143449  40.5430268
  46.8924408  -4.5170570  59.7121642  47.7615567  -4.3429918  59.3508276
  46.4131159  -3.6976153  59.5897371  41.0610588   2.6026531  51.3911075
  41.9637834   2.6350141  51.7077570  40.8347958   1.6726982  51.4057411
  42.8164190   1.3557517  48.0521154  41.8659821   1.3559379  47.9385526
  43.1196676   0.6090252  47.5357188  58.5516883   7.1918056  49.1166916
  59.1895293   7.0724803  48.4130256  58.4337726   8.1398900  49.1754868
  55.3606590   7.1445484  49.0528441  55.0225101   7.0286548  48.1648976
  56.2296358   6.7436649  49.0329447  51.2193405   8.9980960  45.0425332
  50.6558270   8.9070897  44.2741620  51.1045800   8.1780865  45.5227824
  55.8426373   8.2980336  55.0114646  55.8315013   7.9033134  54.1395150
  56.0047012   7.5646408  55.6048418  48.7657837  10.4932152  47.8809552
  49.5579129  10.1522976  47.4655852  49.0054487  10.6027127  48.8011706
  56.7992964  12.6651928  40.3539797  56.1480944  13.2506008  39.9673811
  57.5937327  13.1958123  40.4134834  50.7248591   9.7541065  40.7526931
  51.4979467   9.2070052  40.6139807  51.0773990  10.6185314  40.9641393
  52.5633634  11.0817447  53.9593830  52.2723500  11.9863078  53.8440497
  53.1990618  11.1233975  54.6737900  53.4889841   8.4594296  50.5495190
  54.0853413   8.2350318  49.8352153  53.5464812   7.7179041  51.1520638
  53.0614869   5.9133731  38.3845381  53.3140390   5.3915252  37.6228844
  52.1239428   5.7499877  38.4872065  58.1058152   4.9169510  46.1920124
  58.8921241   4.4988933  45.8410541  58.3696856   5.8215602  46.3601773
  58.2768229  10.3542360  40.8908781  57.6414062  10.4276986  41.6029686
  57.9465636  10.9435959  40.2127860  63.5066579   4.8544743  47.0953103
  64.2391751   4.2843960  47.3290932  62.7505935   4.4666343  47.5359608
  52.7811158   7.8161837  40.5869756  52.6647416   7.1406741  41.2550840
  52.8913418   7.3294211  39.7701909  55.1242699   7.2771984  44.2916445
  54.7600906   6.7502605  45.0029367  55.9809815   6.8870453  44.1182931
  61.0291999  -1.4333683  51.5547711  60.6975324  -0.5638272  51.3308926
  60.4337613  -1.7497399  52.2341742  54.7648186   2.3061884  39.2877794
  54.9322588   3.1742120  39.6548265  54.5745355   2.4689166  38.3639083
  57.5223519  10.7678863  50.9543624  57.2224242  11.6703902  50.8459431
  57.1774578  10.5011046  51.8064777  50.9736000   7.2192660  46.9880329
  50.0486497   7.0868874  47.1958020  51.2220413   7.9986879  47.4850271
  60.9220663   3.2861403  48.6341061  60.0137540   3.2176811  48.3399822
  60.8708258   3.7633348  49.4622887  54.7437406   4.7619541  40.2724461
  54.6237032   5.2076592  41.1109941  54.0489995   5.1104859  39.7137999
  48.3344811   6.8625933  47.8224118  48.4637192   7.1160412  48.7363529
  47.6542263   7.4553641  47.5028773  52.5044299  17.5323183  43.9214592
  52.4268328  18.4831008  44.0003072  51.9005942  17.1869056  44.5789518
  54.9961528   4.7051049  56.5775959  54.2194862   5.2644969  56.5678823
  55.6352091   5.1907832  57.0990829  62.7882309   1.4877841  50.4118935
  62.1456689   1.7810375  49.7658730  62.2837237   1.3730762  51.2172132
  60.4422473   5.2341015  41.1004795  61.3540329   5.4668401  40.9252492
  59.9332120   5.8178059  40.5379873  53.2507901   7.5136502  56.1393926
  53.9922585   8.0521546  55.8628749  52.5444886   8.1402791  56.2965478
  58.7263240   9.6565642  54.7366087  59.1346596   9.2148053  53.9920720
  58.0040502   9.0818270  54.9900280  55.0794310   4.5938249  52.1099644
  55.9255506   5.0177663  52.2534293  55.0192948   3.9371874  52.8038207
  59.0492055  10.2166833  48.4918376  58.4200917  10.3812547  47.7894444
  58.6617717  10.6308443  49.2629340  62.9281287  11.1521271  45.8462740
  62.2432325  11.5320172  45.2959773  63.0125136  11.7616598  46.5794688
  58.2293756   2.2542618  53.7680818  57.9854688   3.0084678  53.2315093
  58.5053686   2.6327965  54.6028065  60.1832218   8.7981230  52.4458083
  60.3949114   9.4412990  51.7692464  60.1361967   7.9643546  51.9780013
  57.7858447   1.4099051  49.3494656  56.9242926   1.7080304  49.6411393
  57.8120882   1.6269449  48.4175688  54.6020017   9.9541241  45.7568461
  55.0658362  10.2328944  44.9673084  54.3376815   9.0524686  45.5741552
  51.4944098   9.5012723  48.6948224  52.0645455   9.9299991  48.0565709
  52.0852210   9.2195307  49.3932410  53.5388903   6.0764394  42.5658026
  54.2412946   6.5285437  43.0331953  53.2069531   5.4348212  43.1937919
  51.9869264   4.6676150  56.9409236  51.3567925   5.3492431  57.1744633
  51.8805352   4.5559232  55.9962374  47.2814237   4.3347946  47.8675160
  46.4913291   4.5905475  47.3915271  47.7725484   5.1496284  47.9727200
  61.2978046  11.6753185  50.6180441  62.1195490  11.2733373  50.3363122
  61.2940449  11.5721420  51.5696557  49.2328982   4.6992525  44.8258637
  48.4360145   4.8111220  45.3442132  49.0054574   5.0379178  43.9599527
  55.0634650  11.2237229  52.7741151  55.1279082  11.6857636  53.6099323
  54.3545574  10.5934594  52.9023461  45.5651940   4.5878437  50.2990151
  45.8159978   5.4725447  50.5647727  46.1011488   4.4083038  49.5265243
  69.3884039   8.0191934  46.9665412  68.6347748   7.4499332  46.8109417
  69.5231581   7.9854598  47.9136047  54.7782667  12.8905336  42.6420132
  54.6428342  13.7356872  43.0704979  55.3192480  13.0924614  41.8786065
  51.2650007  -1.0303084  59.3034487  50.8716953  -1.5836885  59.9782131
  52.0816147  -0.7192506  59.6941004  48.2312065  10.4080774  43.2148057
  48.7436585  11.2024024  43.3653621  48.8834778   9.7107065  43.1481658
  50.0406950  13.5246530  45.2970810  50.2173578  14.4464495  45.1091794
  50.8363783  13.2104950  45.7265190  54.1817968   0.3854795  56.8954743
  54.9227681   0.9861948  56.8159206  54.4135891  -0.3567567  56.3372786
  49.3259306   5.5711162  55.1732973  49.2112821   4.6696420  55.4740072
  48.4703824   5.8174859  54.8217790  56.4051144  13.5128903  56.7720474
  55.9614998  12.7265281  56.4541378  57.0668357  13.7008053  56.1064364
  51.1638265  15.0424704  51.2981152  51.7145690  14.9141768  50.5258146
  50.3249741  15.3419593  50.9476045  58.5032382  13.7931703  54.8001875
  58.4850857  14.6140584  54.3082144  59.4252302  13.6685778  55.0252016
  54.9605436  11.3075832  55.6425383  55.4933773  10.5464120  55.4124691
  54.4319517  11.0149484  56.3849538  58.1275131  -3.5864102  51.1719025
  57.7839400  -2.6962460  51.0958136  58.4954094  -3.7762444  50.3088610
  46.1960982   8.7369428  43.9907627  47.0336204   9.1466437  43.7741335
  46.3739249   7.7968871  43.9607821  58.0925414   6.4044509  39.6791460
  57.5772037   7.1749114  39.9179848  57.8202722   5.7309645  40.3024522
  55.6772525   1.2494210  44.7376699  54.8214121   0.8601060  44.5582337
  56.0899477   1.3286171  43.8776484  57.2071671  -1.2159447  49.1368258
  56.7036467  -1.2529312  48.3236064  57.5002278  -0.3066704  49.1964915
  53.4514557  -1.1320717  48.1434440  54.3167554  -1.3277908  47.7840329
  53.5192066  -1.3610365  49.0703797  63.0659688   9.1576864  41.6144634
  62.2889131   8.8188023  41.1699796  63.7451169   9.1629487  40.9399599
  57.8811717   4.2771601  41.5051241  57.5761852   4.5917750  42.3561384
  58.8342159   4.3553021  41.5478574  56.3258149  10.4361825  43.1544195
  55.7979510   9.7014584  42.8417433  55.8245651  11.2136501  42.9084164
  61.3050995   8.6310845  48.2711242  60.6474669   9.3210106  48.3591370
  62.1091394   9.0207277  48.6145228  51.0576876   1.0981491  45.5150807
  51.6320628   0.8756672  44.7824000  51.6447859   1.1670185  46.2679408
  60.1156454   6.9855218  46.3215183  60.6288335   7.6185210  46.8236893
  60.7657677   6.3856413  45.9558543  51.3846463   3.1285952  39.5346692
  50.5483776   3.4660638  39.8555967  51.2451233   2.9934932  38.5973829
  53.3599544  -2.0277260  44.2425876  52.7063956  -2.3428243  43.6182491
  53.3180018  -2.6501520  44.9685699  54.4710749   8.2542035  36.1579168
  53.5637811   8.0231288  36.3570317  54.9681781   7.4579654  36.3453150
  57.3778828  16.9639542  39.0775854  56.7040527  17.2671239  39.6860812
  57.7644650  17.7668622  38.7281312  56.5937284   4.4604673  48.5673524
  55.6759846   4.6819620  48.4095212  57.0097428   4.5350984  47.7085231
  57.3772332   5.8596089  43.6976204  58.1244151   6.3717486  43.3883326
  57.6463922   5.5380142  44.5580598  55.6498982   8.3554630  40.6803158
  54.7410202   8.0713662  40.7775628  55.6794066   8.7753708  39.8206465
  60.8818250  11.9661219  44.4494326  60.4280577  11.1252129  44.5059516
  60.2512217  12.6022618  44.7869106  59.8251169   2.8953205  45.6794993
  59.0873926   2.3830591  46.0105236  60.0777943   2.4553587  44.8678270
  59.3251189  13.8037716  45.3844144  59.6174163  14.3642773  44.6656510
  59.8349810  14.0966277  46.1397303  46.2187153   6.0760144  44.6618361
  46.0211553   5.4829505  43.9369427  45.6633817   5.7712354  45.3794299
  54.1983876   5.9683250  46.7812954  54.2532486   5.0157087  46.7055430
  53.3875078   6.1242689  47.2654252  55.3475070   9.8963373  38.0191237
  54.9094500   9.1799232  37.5596874  56.0885511  10.1239488  37.4576328
  52.1376236   4.5860310  44.5403333  51.3244102   4.8854481  44.9468525
  52.6335231   4.1915999  45.2577815  54.2884814  14.5818067  46.4737597
  54.2460993  14.8078913  45.5446129  55.2047513  14.3481442  46.6223398
  57.7350448   5.0502134  53.3718227  58.0899836   5.2773608  54.2312692
  58.3822579   5.3820511  52.7495482  63.4648185   8.1720570  44.0767556
  63.3266084   8.3622166  43.1488745  63.1084404   8.9339953  44.5335607
  51.6290311   2.1578666  50.1564568  52.2689690   2.0167425  49.4587531
  50.7967842   1.8713179  49.7803170  63.4917565  10.2397097  49.0878827
  63.9254071  10.1472386  49.9361881  64.2049145  10.2154598  48.4498843
  52.4050615  11.4581096  46.2699560  53.1991214  10.9631416  46.0682135
  51.6942307  10.9298959  45.9067266  57.2245459  13.8399192  50.6211928
  57.2782482  14.4090128  51.3889644  56.3560241  14.0101077  50.2565965
  48.7133378   5.6024178  42.3459313  47.7830967   5.5408633  42.5629275
  48.8090850   5.0800130  41.5495954  48.6318928   2.1278991  44.9337554
  48.8925745   3.0424324  44.8246715  49.4536100   1.6603433  45.0834167
  50.1043853   3.5416748  52.1036379  50.7766906   3.3334110  51.4549028
  49.2773639   3.3438834  51.6641611  64.3533114  10.2820798  51.6211712
  64.5469004  11.1866609  51.8670987  64.2533732   9.8228217  52.4550297
  56.0069425   0.1678689  54.1202040  55.3597340   0.8668638  54.0266516
  56.7770440   0.6014833  54.4878288  59.4148223  10.4327541  57.1952593
  59.2633729  10.2038092  56.2782677  59.4052902  11.3898142  57.2083938
  56.1833559   8.0059454  52.1798860  57.1125619   8.1570613  52.0067827
  55.7624589   8.0943474  51.3247506  54.9821891  12.0310118  49.9497397
  54.8432977  11.6628902  50.8223335  54.1936487  12.5457757  49.7781355
  55.5770043  17.1319214  41.2922934  55.7521799  16.6607258  42.1068556
  54.8902831  17.7584981  41.5204194  56.5327106  11.4091721  47.3386235
  56.1976939  11.3692491  48.2343885  56.0331052  10.7436437  46.8656645
  50.5071350   6.8159351  52.8638816  50.3691148   6.0839590  53.4650355
  51.4176274   6.7268251  52.5823004  59.4686298   8.7547755  37.6123295
  58.8515468   8.0294583  37.5156347  59.0002786   9.5157115  37.2690369
  53.1353651   6.5279310  52.3522496  53.8453269   5.8872502  52.3109114
  53.0922959   6.7792205  53.2748676  61.1240429  13.4646663  55.2729075
  61.0652976  12.7805883  54.6059658  61.5259948  14.2065653  54.8209701
  51.8482585   3.5144528  54.1718135  51.3119942   3.0635266  54.8239732
  51.2599293   3.6490437  53.4288600  50.1431128  20.2808577  48.0662794
  50.3827726  20.9127101  48.7441812  49.3000325  19.9296617  48.3528153
  51.2584844   2.9733179  36.7344599  50.3814310   2.8521980  36.3706846
  51.7342597   2.1819258  36.4823487  61.1257837  11.4286247  53.5043055
  60.2384615  11.0912169  53.6269453  61.6956388  10.6969279  53.7411820
  42.7786984   7.7610339  46.8286106  43.4658024   7.4472069  46.2407121
  42.6235113   8.6651704  46.5553357  47.5821706   2.6500536  51.2571130
  47.4979895   2.0426205  50.5221540  46.7604412   3.1409554  51.2580626
  54.6558990  16.0887700  50.4704298  54.5829162  16.8942671  50.9823602
  54.2136383  16.2879665  49.6452319  54.4448770  15.3259470  43.9807119
  53.6616292  15.8681150  44.0745344  55.1441515  15.8433449  44.3801361
  57.7545420   1.1354099  46.6241325  58.2514119   0.3824061  46.3042395
  56.9832401   1.1718416  46.0584534  65.6075177   6.8394465  48.2659616
  65.5965054   7.7219180  47.8953549  64.7392557   6.4866015  48.0714153
  57.1157674  15.9874534  52.6262456  57.8285646  16.6221998  52.5538358
  56.6247702  16.0838400  51.8102458  58.8375201   9.8925786  44.1979748
  57.9031479  10.0127249  44.0284452  59.0151869   8.9898253  43.9339758
  54.3380389   3.2771482  46.3513009  53.9678176   2.7242522  47.0393915
  54.8339481   2.6729616  45.7988009  62.2247752   5.7343106  44.7329782
  62.6908204   6.5671097  44.6590085  62.6755252   5.2688087  45.4375041
  52.1669587  13.7368977  53.4468027  52.8679047  14.3705460  53.5997422
  51.6964702  14.0783709  52.6863667  60.2923983  12.0786927  41.7315934
  60.5683827  11.9643521  42.6409808  59.4228482  11.6804412  41.6928107
  60.1964415  -1.8976307  48.7720684  59.2827494  -1.6672081  48.9402891
  60.6257516  -1.8137863  49.6234716  59.9670873   6.2913585  51.2720578
  59.3142323   6.5389492  50.6173030  60.3451253   5.4777723  50.9383055
  56.9278047  16.3273278  45.3748748  57.1100442  15.5094934  45.8376500
  57.7511033  16.5440970  44.9373638  57.2620213  15.2541463  42.6363796
  57.7907979  14.7433917  42.0233959  57.5248432  14.9383993  43.5009329
  56.0158446   7.0333396  57.7586615  55.3399083   6.9327525  58.4288990
  56.8386080   6.8772609  58.2222612  47.7637305  13.2705332  50.3799130
  48.3490742  12.5249020  50.5127034  47.5662144  13.5809289  51.2635794
  50.6175960  16.3056580  45.3961572  49.9486336  16.7902707  44.9125612
  50.4788830  16.5525800  46.3104951  42.3554960   5.8410932  49.1003573
  42.3939059   5.3074523  49.8940691  41.8495253   5.3146138  48.4814550
  54.7581229  18.3400323  51.9944231  55.3099537  18.5031945  52.7593316
  55.0987423  18.9304761  51.3224256  49.7345722   0.6875473  52.5966115
  49.7987049   1.5490304  52.1843513  49.6712843   0.0749475  51.8638474
  49.2097995   2.7598605  56.2439150  49.8370034   2.3775683  56.8576674
  48.3525914   2.5412807  56.6094842  59.6092103  13.1661581  57.8492885
  60.1532007  13.7791539  57.3547840  59.0278948  13.7241159  58.3659898
  45.9863538   4.5675035  42.1757505  46.2816979   3.6585713  42.1224558
  45.0851573   4.5462774  41.8538507  57.8949616  16.2882299  48.9807913
  57.7700756  15.4872038  48.4718858  58.5528707  16.7828492  48.4921883
  49.5157785   2.6431031  48.1585053  48.7944370   3.2566999  48.0192526
  50.3051040   3.1788796  48.0801699  59.9584525  14.0891319  50.6087463
  59.0114860  13.9696670  50.5365790  60.3067298  13.2013817  50.6913724
  52.3184098  -0.0214542  54.4325705  52.8418500   0.2247754  55.1952014
  52.0996431   0.8105492  54.0128842  47.7151379   2.2489132  42.2996830
  47.3864085   1.3686511  42.1171936  48.0690750   2.1936801  43.1873219
  56.9630958  13.8844035  46.8091815  56.8155920  12.9560742  46.9899385
  57.7884452  13.9064126  46.3248890  50.8293202   2.5362102  42.6672307
  51.1689275   3.0648023  41.9450916  51.2765323   2.8742508  43.4430874
  60.5665080  14.7072594  47.8956688  61.4911627  14.5015455  47.7581139
  60.3980383  14.4588995  48.8046029  53.5236643   0.9199153  52.1175375
  53.1833463   0.1206966  52.5196055  52.8175649   1.2200864  51.5452209
  54.1753115  -1.9951535  50.5702698  54.9979184  -2.4691057  50.4481589
  54.4191178  -1.2161051  51.0701385  52.8161349   1.0336724  40.8665600
  53.5369712   1.4117976  40.3629317  52.1926654   1.7525600  40.9700578
  56.9592472   1.7381873  41.8023932  57.1756087   2.6206510  41.5012761
  56.4786539   1.3468086  41.0729574  51.6991694   4.6967586  48.3794677
  51.5536274   5.0107889  49.2718959  51.2216897   5.3152486  47.8265576
  53.5588077   1.6870134  48.4275567  53.5449645   0.7911227  48.0907865
  54.2760505   1.6940798  49.0613853  55.4114207   2.1207474  50.4728694
  55.1531985   3.0424545  50.4713024  54.8799248   1.7237909  51.1629158
  60.3560396  15.2258261  43.2518779  60.5297274  14.6604684  42.4992632
  60.8489287  16.0259156  43.0698269  46.1737356   7.2372930  51.3182338
  45.6290824   8.0132738  51.4502613  47.0516706   7.5843735  51.1601460
  52.9624973   0.5684514  43.6963137  53.0840884  -0.3598840  43.8954024
  52.6727015   0.5823200  42.7841452  55.8316163  -1.7460576  46.8329857
  55.8537860  -1.6821242  45.8781836  56.2484222  -2.5856067  47.0270363
  66.2099787   7.9894684  44.8709079  66.6530933   7.2402009  44.4728202
  65.3326298   7.9804820  44.4882811  61.3435569  14.5425026  40.3515678
  62.0386473  15.1631718  40.5702992  61.6858719  13.6920377  40.6268056
  46.9603378   6.3642826  54.2112495  46.2185114   6.5125462  54.7977125
  46.6396122   6.6251092  53.3479244  63.2426992  11.9924731  41.8803008
  63.7678316  12.3312004  41.1552328  63.1549344  11.0571746  41.6966143
  54.9047040  15.9058805  54.0092885  55.2134167  15.6607951  54.8815585
  55.7022522  16.1105443  53.5211755  54.9267652  18.0596714  46.2398262
  54.4872643  17.5673093  46.9331118  55.6775769  17.5169682  45.9990337
  47.4059991  14.2508255  46.2422890  48.2318011  13.9512027  45.8621533
  47.0554043  13.4815878  46.6912678  52.3741525  13.6034723  48.3120563
  51.7521534  12.9405428  48.0122791  53.0446391  13.6295855  47.6294211
  45.6068596  12.1694582  47.2011823  44.7700505  11.7416756  47.0195825
  45.5792242  12.3627025  48.1382614  52.4466052   2.0816511  57.9053069
  52.4954208   2.9578634  57.5230839  52.9888566   1.5393904  57.3324713
  62.9320898  12.6257635  57.1854206  62.1416441  12.6081774  56.6458706
  62.6954252  13.1645928  57.9403243  63.0518773   9.4750101  54.4986935
  63.1016778   9.3100108  55.4402458  62.9432696   8.6077360  54.1084816
  51.9355031  12.1538647  41.7879024  52.0843152  12.8374111  41.1345697
  52.7421475  12.1343737  42.3028480  60.3422535   5.4581029  55.8146242
  61.2432398   5.3187494  55.5230239  60.4170510   5.6235484  56.7544419
  54.6765340   2.8347884  54.6599428  53.8068650   3.1281450  54.3882017
  54.9124821   3.4188329  55.3806692  64.5536970  11.8947043  54.7428956
  64.2621778  12.2577023  55.5792417  63.9409101  11.1814051  54.5642289
  65.7532652   9.4599922  47.2631527  66.5879543   9.8989726  47.4269087
  65.8891781   8.9838576  46.4439772  62.8024158   7.0179657  53.2109014
  63.2778279   7.2107303  52.4027866  61.8789723   7.0738843  52.9652398
  49.6907664   8.1803824  42.7940093  49.4453706   7.2766154  42.9920303
  49.8603579   8.1820975  41.8519571  57.3804374  -0.9472499  52.1764848
  57.8986318  -0.2111472  51.8511337  57.0259507  -0.6408506  53.0111607
  48.9603312   3.9132182  40.2926254  48.2672557   3.9876537  39.6366290
  48.7155064   3.1492526  40.8147771  55.4350437  14.6486777  39.2590771
  54.8624404  15.2676964  38.8061243  56.0083231  15.1986139  39.7930693
  61.5025827   3.8945417  51.4437320  62.4543250   3.9943515  51.4649544
  61.3329277   3.1023686  51.9535404  59.5240206   0.9801000  51.6296721
  58.9290138   1.2606013  50.9343210  59.2389903   1.4694901  52.4013462
  58.6547697  14.9323927  40.3899354  59.5878370  14.8669489  40.5932229
  58.5670910  15.7680194  39.9313886  61.2835713  14.2489798  37.3503301
  61.2049345  13.9149661  38.2439059  62.1045380  14.7411566  37.3494773
  63.9813905   7.1151537  50.5579620  63.9490225   6.1767538  50.7439304
  64.5914528   7.1935574  49.8245445  55.8197235   5.9847590  36.6006824
  56.7656340   5.8553798  36.6695242  55.4411480   5.2462252  37.0776252
  64.1308393   3.9062580  50.6037903  63.6147442   3.1221037  50.4167832
  65.0148342   3.5781297  50.7684422  61.7919120  -2.3496404  46.5633716
  61.5943941  -2.6581316  47.4477048  62.4018826  -1.6234765  46.6931645
  69.7990454   8.1767544  49.6985657  70.5293843   7.9152832  50.2593360
  69.1897400   7.4396266  49.7387724  67.8805752   6.3175406  50.2960108
  67.1538915   6.1831371  49.6876599  67.4653038   6.6252235  51.1016826
  55.7035928  10.0365336  58.0607481  56.6238937  10.2143935  58.2547527
  55.6685511   9.0921381  57.9087180  54.0040153   3.9097566  36.5361709
  53.0971608   3.6130679  36.6124423  54.2816134   3.6127384  35.6695995
  44.9218093   5.2303930  46.9860755  44.6020877   4.3769238  46.6935129
  44.3751521   5.4452508  47.7418723  48.6998001   7.9466371  50.7030262
  48.9184010   8.8783479  50.7218296  49.1123774   7.5874345  51.4885066
  55.6202218  -1.5465544  42.6905950  54.8102947  -1.8918459  43.0661196
  56.3086635  -1.8558000  43.2793562  57.5492767  -2.4687497  44.3130247
  58.1023805  -2.0492044  44.9720270  57.7862853  -3.3951749  44.3553203
  53.5725866   3.5199576  60.0933011  53.4722593   4.4693933  60.0245102
  53.3547408   3.1917815  59.2209081  52.7738937   0.7684502  36.6773688
  53.6358101   1.0939400  36.9369506  52.9589281  -0.0184003  36.1646754
  44.7906353   8.8506841  48.9553877  44.0969824   8.4360794  48.4423831
  45.5379344   8.8927378  48.3587296  60.9271574  -0.3586972  43.8208911
  60.3470243   0.2997832  43.4386964  60.6607506  -1.1809627  43.4096329
  59.3775140  -0.9581914  46.0230232  59.8774918  -0.8465380  45.2144550
  60.0210748  -1.2620861  46.6631040  53.4357136   6.9496715  58.9098072
  52.9524218   7.7497075  59.1161962  53.5218075   6.9604660  57.9565516
  46.7043096   8.7825095  46.8319892  46.6813784   8.8812782  45.8801775
  47.0143732   9.6290246  47.1537058  49.3630473  10.8401250  50.9466506
  50.3173727  10.8085192  50.8796438  49.1642997  10.3791874  51.7616732
  49.9529856   9.4102366  53.5137304  50.7722745   9.9046445  53.5372141
  50.2266663   8.4934334  53.4854871  59.7096452   1.8013118  42.8765259
  58.8222307   2.0862769  42.6585454  60.1250441   1.6406882  42.0292536
  63.0610988   1.8259639  46.5919599  63.8371378   2.3156092  46.8644216
  62.3359122   2.2517694  47.0491468  65.4983547   2.5387259  47.6493539
  66.0928037   2.2982995  46.9386848  65.5710130   1.8194389  48.2767076
  47.7180702  16.3820870  47.9636704  47.5835170  15.6221270  47.3974702
  47.3012764  17.1061769  47.4965493  58.8539665  11.5657793  36.9713279
  59.5575515  11.7707796  37.5870935  58.1302314  12.1334555  37.2362363
  59.6837476   7.3167654  43.0915550  59.6272677   7.7736206  42.2523182
  60.2365818   6.5558339  42.9138392  63.4942281   3.1057386  43.9165669
  63.2379216   2.7054022  44.7473877  62.8695149   3.8201180  43.7915808
  67.8054619   5.8453459  46.4236961  67.2454177   5.9146649  47.1968523
  67.1998123   5.6694444  45.7036457  50.8749828  17.2790187  48.1755147
  50.7582212  18.2235619  48.0733837  50.0542274  16.9763748  48.5640946
  60.7626363  12.0040322  39.0211739  61.5971967  11.5721521  38.8389214
  60.6010706  11.8322336  39.9488634  60.4172255   8.5072436  40.3868079
  60.3621059   8.3416707  39.4456523  59.7918310   9.2148468  40.5430268
  45.2064770   3.7440500  54.2129501  45.8523633   3.2339454  54.7016726
  44.9981921   4.4809182  54.7872926  57.7318162  10.8121347  59.7121642
  58.6009322  10.9862000  59.3508276  57.2524913  11.6315764  59.5897371
  53.7268380  -1.9919455  39.9653397  53.7147050  -1.0477616  40.1221668
  54.6191802  -2.1749310  39.6712858  51.9004342  17.9318448  51.3911075
  52.8031589  17.9642059  51.7077570  51.6741712  17.0018899  51.4057411
  53.6557944  16.6849435  48.0521154  52.7053575  16.6851297  47.9385526
  53.9590430  15.9382170  47.5357188  49.5462261   0.8908117  58.3104515
  50.4093722   0.5344922  58.5207840  48.9727671   0.5522012  58.9979919
  69.3910638  22.5209973  49.1166916  70.0289048  22.4016721  48.4130256
  69.2731481  23.4690817  49.1754868  66.2000344  22.4737401  49.0528441
  65.8618856  22.3578466  48.1648976  67.0690112  22.0728567  49.0329447
  62.0587160  24.3272878  45.0425332  61.4952025  24.2362815  44.2741620
  61.9439555  23.5072782  45.5227824  66.6820127  23.6272253  55.0114646
  66.6708768  23.2325051  54.1395150  66.8440766  22.8938326  55.6048418
  59.6051592  25.8224069  47.8809552  60.3972884  25.4814894  47.4655852
  59.8448242  25.9319045  48.8011706  67.6386718  27.9943846  40.3539797
  66.9874698  28.5797926  39.9673811  68.4331081  28.5250040  40.4134834
  61.5642346  25.0832983  40.7526931  62.3373222  24.5361970  40.6139807
  61.9167744  25.9477232  40.9641393  63.4027388  26.4109365  53.9593830
  63.1117254  27.3154996  53.8440497  64.0384373  26.4525893  54.6737900
  64.3283595  23.7886214  50.5495190  64.9247167  23.5642236  49.8352153
  64.3858567  23.0470959  51.1520638  63.9008623  21.2425649  38.3845381
  64.1534144  20.7207170  37.6228844  62.9633182  21.0791794  38.4872065
  68.9451906  20.2461427  46.1920124  69.7314995  19.8280850  45.8410541
  69.2090611  21.1507519  46.3601773  69.1161984  25.6834278  40.8908781
  68.4807817  25.7568904  41.6029686  68.7859390  26.2727876  40.2127860
  74.3460333  20.1836660  47.0953103  75.0785505  19.6135877  47.3290932
  73.5899689  19.7958261  47.5359608  63.6204912  23.1453755  40.5869756
  63.5041170  22.4698658  41.2550840  63.7307172  22.6586129  39.7701909
  65.9636453  22.6063902  44.2916445  65.5994660  22.0794523  45.0029367
  66.8203569  22.2162371  44.1182931  71.8685754  13.8958235  51.5547711
  71.5369078  14.7653645  51.3308926  71.2731367  13.5794519  52.2341742
  65.6041940  17.6353802  39.2877794  65.7716342  18.5034038  39.6548265
  65.4139109  17.7981083  38.3639083  68.3617273  26.0970781  50.9543624
  68.0617996  26.9995819  50.8459431  68.0168333  25.8302964  51.8064777
  61.8129755  22.5484577  46.9880329  60.8880251  22.4160791  47.1958020
  62.0614168  23.3278797  47.4850271  71.7614417  18.6153321  48.6341061
  70.8531294  18.5468729  48.3399822  71.7102013  19.0925266  49.4622887
  65.5831161  20.0911459  40.2724461  65.4630786  20.5368510  41.1109941
  64.8883749  20.4396777  39.7137999  59.1738566  22.1917851  47.8224118
  59.3030947  22.4452330  48.7363529  58.4936017  22.7845559  47.5028773
  63.3438053  32.8615101  43.9214592  63.2662083  33.8122926  44.0003072
  62.7399697  32.5160973  44.5789518  65.8355283  20.0342966  56.5775959
  65.0588617  20.5936886  56.5678823  66.4745846  20.5199749  57.0990829
  73.6276063  16.8169759  50.4118935  72.9850444  17.1102292  49.7658730
  73.1230992  16.7022679  51.2172132  71.2816227  20.5632932  41.1004795
  72.1934083  20.7960319  40.9252492  70.7725874  21.1469976  40.5379873
  64.0901655  22.8428420  56.1393926  64.8316339  23.3813464  55.8628749
  63.3838641  23.4694708  56.2965478  69.5656995  24.9857560  54.7366087
  69.9740351  24.5439971  53.9920720  68.8434256  24.4110188  54.9900280
  65.9188065  19.9230167  52.1099644  66.7649260  20.3469580  52.2534293
  65.8586702  19.2663791  52.8038207  69.8885809  25.5458751  48.4918376
  69.2594672  25.7104465  47.7894444  69.5011471  25.9600360  49.2629340
  69.0687510  17.5834535  53.7680818  68.8248442  18.3376596  53.2315093
  69.3447441  17.9619883  54.6028065  71.0225973  24.1273148  52.4458083
  71.2342868  24.7704908  51.7692464  70.9755721  23.2935464  51.9780013
  68.6252202  16.7390968  49.3494656  67.7636681  17.0372222  49.6411393
  68.6514637  16.9561367  48.4175688  65.4413771  25.2833159  45.7568461
  65.9052117  25.5620862  44.9673084  65.1770569  24.3816603  45.5741552
  62.3337852  24.8304640  48.6948224  62.9039209  25.2591909  48.0565709
  62.9245964  24.5487225  49.3932410  64.3782657  21.4056311  42.5658026
  65.0806701  21.8577355  43.0331953  64.0463286  20.7640130  43.1937919
  62.8263019  19.9968068  56.9409236  62.1961679  20.6784349  57.1744633
  62.7199107  19.8851149  55.9962374  58.1207991  19.6639864  47.8675160
  57.3307045  19.9197392  47.3915271  58.6119239  20.4788202  47.9727200
  72.1371801  27.0045103  50.6180441  72.9589245  26.6025290  50.3363122
  72.1334204  26.9013337  51.5696557  60.0722737  20.0284443  44.8258637
  59.2753900  20.1403137  45.3442132  59.8448329  20.3671095  43.9599527
  65.9028404  26.5529146  52.7741151  65.9672837  27.0149554  53.6099323
  65.1939328  25.9226511  52.9023461  56.4045694  19.9170354  50.2990151
  56.6553733  20.8017364  50.5647727  56.9405243  19.7374956  49.5265243
  65.6176422  28.2197254  42.6420132  65.4822097  29.0648790  43.0704979
  66.1586234  28.4216531  41.8786065  62.1043762  14.2988834  59.3034487
  61.7110707  13.7455032  59.9782131  62.9209902  14.6099412  59.6941004
  59.0705819  25.7372692  43.2148057  59.5830340  26.5315942  43.3653621
  59.7228532  25.0398982  43.1481658  60.8800704  28.8538448  45.2970810
  61.0567332  29.7756413  45.1091794  61.6757538  28.5396867  45.7265190
  65.0211723  15.7146713  56.8954743  65.7621436  16.3153866  56.8159206
  65.2529645  14.9724351  56.3372786  60.1653061  20.9003080  55.1732973
  60.0506576  19.9988337  55.4740072  59.3097578  21.1466777  54.8217790
  67.2444898  28.8420820  56.7720474  66.8008753  28.0557199  56.4541378
  67.9062112  29.0299971  56.1064364  62.0032020  30.3716622  51.2981152
  62.5539445  30.2433685  50.5258146  61.1643495  30.6711511  50.9476045
  69.3426136  29.1223620  54.8001875  69.3244612  29.9432501  54.3082144
  70.2646056  28.9977695  55.0252016  65.7999191  26.6367750  55.6425383
  66.3327527  25.8756038  55.4124691  65.2713272  26.3441402  56.3849538
  68.9668886  11.7427816  51.1719025  68.6233155  12.6329457  51.0958136
  69.3347848  11.5529473  50.3088610  57.0354736  24.0661346  43.9907627
  57.8729958  24.4758355  43.7741335  57.2133004  23.1260788  43.9607821
  68.9319168  21.7336427  39.6791460  68.4165792  22.5041031  39.9179848
  68.6596477  21.0601563  40.3024522  66.5166279  16.5786128  44.7376699
  65.6607876  16.1892978  44.5582337  66.9293231  16.6578088  43.8776484
  68.0465426  14.1132471  49.1368258  67.5430221  14.0762606  48.3236064
  68.3396033  15.0225214  49.1964915  64.2908312  14.1971201  48.1434440
  65.1561309  14.0014009  47.7840329  64.3585821  13.9681552  49.0703797
  68.7205471  19.6063519  41.5051241  68.4155607  19.9209668  42.3561384
  69.6735914  19.6844939  41.5478574  67.1651903  25.7653742  43.1544195
  66.6373265  25.0306502  42.8417433  66.6639406  26.5428419  42.9084164
  61.8970631  16.4273409  45.5150807  62.4714383  16.2048590  44.7824000
  62.4841613  16.4962103  46.2679408  70.9550208  22.3147135  46.3215183
  71.4682090  22.9477127  46.8236893  71.6051432  21.7148331  45.9558543
  62.2240218  18.4577870  39.5346692  61.3877530  18.7952556  39.8555967
  62.0844988  18.3226849  38.5973829  64.1993299  13.3014657  44.2425876
  63.5457711  12.9863675  43.6182491  64.1573773  12.6790398  44.9685699
  65.3104503  23.5833952  36.1579168  64.4031565  23.3523206  36.3570317
  65.8075535  22.7871572  36.3453150  67.4331039  19.7896591  48.5673524
  66.5153600  20.0111538  48.4095212  67.8491183  19.8642901  47.7085231
  68.2166087  21.1888007  43.6976204  68.9637906  21.7009404  43.3883326
  68.4857676  20.8672059  44.5580598  66.4892737  23.6846547  40.6803158
  65.5803956  23.4005580  40.7775628  66.5187821  24.1045626  39.8206465
  70.6644924  18.2245123  45.6794993  69.9267681  17.7122509  46.0105236
  70.9171697  17.7845504  44.8678270  70.7656551  11.0021375  46.2736763
  71.0715428  10.1418738  45.9862678  71.4909156  11.5938995  46.0735757
  57.0580907  21.4052061  44.6618361  56.8605307  20.8121422  43.9369427
  56.5027571  21.1004272  45.3794299  65.0377631  21.2975168  46.7812954
  65.0926241  20.3449004  46.7055430  64.2268833  21.4534607  47.2654252
  66.1868825  25.2255291  38.0191237  65.7488255  24.5091150  37.5596874
  66.9279266  25.4531406  37.4576328  62.9769991  19.9152228  44.5403333
  62.1637856  20.2146398  44.9468525  63.4728985  19.5207916  45.2577815
  65.1278569  29.9109985  46.4737597  65.0854748  30.1370831  45.5446129
  66.0441268  29.6773359  46.6223398  68.5744203  20.3794052  53.3718227
  68.9293590  20.6065525  54.2312692  69.2216334  20.7112429  52.7495482
  62.4684066  17.4870583  50.1564568  63.1083445  17.3459342  49.4587531
  61.6361596  17.2005097  49.7803170  63.2444370  26.7873014  46.2699560
  64.0384968  26.2923334  46.0682135  62.5336062  26.2590877  45.9067266
  68.0639214  29.1691109  50.6211928  68.1176236  29.7382045  51.3889644
  67.1953995  29.3392994  50.2565965  59.5527133  20.9316095  42.3459313
  58.6224721  20.8700551  42.5629275  59.6484605  20.4092048  41.5495954
  59.4712682  17.4570908  44.9337554  59.7319499  18.3716241  44.8246715
  60.2929854  16.9895351  45.0834167  60.9437607  18.8708665  52.1036379
  61.6160661  18.6626028  51.4549028  60.1167394  18.6730751  51.6641611
  75.1926869  25.6112716  51.6211712  75.3862759  26.5158526  51.8670987
  75.0927487  25.1520135  52.4550297  66.8463179  15.4970606  54.1202040
  66.1991094  16.1960556  54.0266516  67.6164195  15.9306750  54.4878288
  70.2541977  25.7619458  57.1952593  70.1027484  25.5330010  56.2782677
  70.2446657  26.7190060  57.2083938  67.0227314  23.3351371  52.1798860
  67.9519374  23.4862531  52.0067827  66.6018344  23.4235392  51.3247506
  65.8215645  27.3602036  49.9497397  65.6826731  26.9920820  50.8223335
  65.0330242  27.8749675  49.7781355  67.3720861  26.7383638  47.3386235
  67.0370693  26.6984408  48.2343885  66.8724806  26.0728354  46.8656645
  61.3465105  22.1451268  52.8638816  61.2084903  21.4131507  53.4650355
  62.2570028  22.0560168  52.5823004  70.3080052  24.0839673  37.6123295
  69.6909223  23.3586501  37.5156347  69.8396541  24.8449033  37.2690369
  63.9747405  21.8571228  52.3522496  64.6847024  21.2164420  52.3109114
  63.9316713  22.1084123  53.2748676  71.9634184  28.7938581  55.2729075
  71.9046730  28.1097801  54.6059658  72.3653702  29.5357571  54.8209701
  62.6876339  18.8436446  54.1718135  62.1513696  18.3927184  54.8239732
  62.0993048  18.9782354  53.4288600  60.9824883  35.6100495  48.0662794
  61.2221481  36.2419019  48.7441812  60.1394079  35.2588535  48.3528153
  62.0978598  18.3025097  36.7344599  61.2208065  18.1813898  36.3706846
  62.5736351  17.5111175  36.4823487  71.9651591  26.7578165  53.5043055
  71.0778370  26.4204087  53.6269453  72.5350142  26.0261196  53.7411820
  53.6180738  23.0902257  46.8286106  54.3051778  22.7763987  46.2407121
  53.4628867  23.9943621  46.5553357  58.4215460  17.9792453  51.2571130
  58.3373649  17.3718123  50.5221540  57.5998167  18.4701472  51.2580626
  65.4952745  31.4179617  50.4704298  65.4222916  32.2234589  50.9823602
  65.0530138  31.6171583  49.6452319  68.5939174  16.4646017  46.6241325
  69.0907874  15.7115979  46.3042395  67.8226156  16.5010333  46.0584534
  76.4468932  22.1686382  48.2659616  76.4358808  23.0511098  47.8953549
  75.5786311  21.8157933  48.0714153  67.9551428  31.3166451  52.6262456
  68.6679400  31.9513916  52.5538358  67.4641457  31.4130317  51.8102458
  65.1774143  18.6063400  46.3513009  64.8071931  18.0534440  47.0393915
  65.6733236  18.0021533  45.7988009  73.0641506  21.0635023  44.7329782
  73.5301959  21.8963015  44.6590085  73.5149007  20.5980005  45.4375041
  63.0063342  29.0660895  53.4468027  63.7072801  29.6997378  53.5997422
  62.5358457  29.4075626  52.6863667  71.0358169  13.4315610  48.7720684
  70.1221249  13.6619837  48.9402891  71.4651271  13.5154054  49.6234716
  70.8064628  21.6205502  51.2720578  70.1536078  21.8681410  50.6173030
  71.1845008  20.8069640  50.9383055  66.8552201  22.3625313  57.7586615
  66.1792838  22.2619443  58.4288990  67.6779835  22.2064527  58.2222612
  58.6031060  28.5997250  50.3799130  59.1884497  27.8540938  50.5127034
  58.4055898  28.9101207  51.2635794  61.4569715  31.6348497  45.3961572
  60.7880090  32.1194625  44.9125612  61.3182585  31.8817718  46.3104951
  53.1948714  21.1702850  49.1003573  53.2332814  20.6366441  49.8940691
  52.6889007  20.6438056  48.4814550  65.5974984  33.6692241  51.9944231
  66.1493292  33.8323862  52.7593316  65.9381177  34.2596679  51.3224256
  60.5739477  16.0167391  52.5966115  60.6380803  16.8782221  52.1843513
  60.5106597  15.4041392  51.8638474  60.0491749  18.0890523  56.2439150
  60.6763788  17.7067600  56.8576674  59.1919668  17.8704725  56.6094842
  70.4485858  28.4953498  57.8492885  70.9925762  29.1083457  57.3547840
  69.8672703  29.0533077  58.3659898  56.8257292  19.8966952  42.1757505
  57.1210733  18.9877631  42.1224558  55.9245328  19.8754692  41.8538507
  68.7343371  31.6174216  48.9807913  68.6094510  30.8163956  48.4718858
  69.3922462  32.1120410  48.4921883  60.3551539  17.9722949  48.1585053
  59.6338125  18.5858916  48.0192526  61.1444795  18.5080714  48.0801699
  70.7978279  29.4183236  50.6087463  69.8508615  29.2988588  50.5365790
  71.1461052  28.5305734  50.6913724  63.1577853  15.3077375  54.4325705
  63.6812254  15.5539672  55.1952014  62.9390186  16.1397410  54.0128842
  58.5545134  17.5781050  42.2996830  58.2257840  16.6978429  42.1171936
  58.9084504  17.5228719  43.1873219  61.6686957  17.8654020  42.6672307
  62.0083029  18.3939941  41.9450916  62.1159077  18.2034426  43.4430874
  64.3630398  16.2491070  52.1175375  64.0227218  15.4498883  52.5196055
  63.6569404  16.5492781  51.5452209  65.0146869  13.3340383  50.5702698
  65.8372939  12.8600861  50.4481589  65.2584933  14.1130867  51.0701385
  63.6555104  16.3628641  40.8665600  64.3763466  16.7409894  40.3629317
  63.0320408  17.0817518  40.9700578  67.7986227  17.0673790  41.8023932
  68.0149841  17.9498428  41.5012761  67.3180294  16.6760004  41.0729574
  62.5385448  20.0259503  48.3794677  62.3930029  20.3399807  49.2718959
  62.0610652  20.6444404  47.8265576  64.3981831  17.0162051  48.4275567
  64.3843400  16.1203145  48.0907865  65.1154259  17.0232715  49.0613853
  66.2507962  17.4499392  50.4728694  65.9925740  18.3716462  50.4713024
  65.7193002  17.0529826  51.1629158  57.0131110  22.5664848  51.3182338
  56.4684578  23.3424656  51.4502613  57.8910460  22.9135652  51.1601460
  63.8018727  15.8976432  43.6963137  63.9234638  14.9693078  43.8954024
  63.5120769  15.9115118  42.7841452  66.6709917  13.5831342  46.8329857
  66.6931614  13.6470675  45.8781836  67.0877976  12.7435851  47.0270363
  57.7997132  21.6934744  54.2112495  57.0578868  21.8417379  54.7977125
  57.4789877  21.9543010  53.3479244  65.7440795  31.2350722  54.0092885
  66.0527921  30.9899869  54.8815585  66.5416277  31.4397361  53.5211755
  65.7661407  33.3888632  46.2398262  65.3266397  32.8965011  46.9331118
  66.5169524  32.8461600  45.9990337  58.2453746  29.5800173  46.2422890
  59.0711766  29.2803945  45.8621533  57.8947798  28.8107795  46.6912678
  63.2135279  28.9326641  48.3120563  62.5915288  28.2697346  48.0122791
  63.8840146  28.9587773  47.6294211  56.4462351  27.4986499  47.2011823
  55.6094259  27.0708674  47.0195825  56.4185996  27.6918943  48.1382614
  63.2859807  17.4108429  57.9053069  63.3347962  18.2870552  57.5230839
  63.8282321  16.8685822  57.3324713  73.7714652  27.9549552  57.1854206
  72.9810196  27.9373691  56.6458706  73.5348007  28.4937846  57.9403243
  73.8912527  24.8042019  54.4986935  73.9410532  24.6392026  55.4402458
  73.7826451  23.9369278  54.1084816  62.7748786  27.4830564  41.7879024
  62.9236906  28.1666029  41.1345697  63.5815229  27.4635654  42.3028480
  71.1816290  20.7872947  55.8146242  72.0826152  20.6479412  55.5230239
  71.2564264  20.9527402  56.7544419  65.5159095  18.1639802  54.6599428
  64.6462404  18.4573368  54.3882017  65.7518575  18.7480246  55.3806692
  75.3930724  27.2238960  54.7428956  75.1015532  27.5868941  55.5792417
  74.7802855  26.5105969  54.5642289  73.6417912  22.3471575  53.2109014
  74.1172034  22.5399221  52.4027866  72.7183478  22.4030761  52.9652398
  60.5301419  23.5095742  42.7940093  60.2847461  22.6058072  42.9920303
  60.6997333  23.5112892  41.8519571  68.2198129  14.3819418  52.1764848
  68.7380073  15.1180445  51.8511337  67.8653262  14.6883412  53.0111607
  59.7997066  19.2424100  40.2926254  59.1066311  19.3168455  39.6366290
  59.5548818  18.4784443  40.8147771  68.4710723  10.8019701  47.6965745
  68.7512477  10.1342890  48.3226171  69.2561330  10.9948797  47.1840409
  66.2744191  29.9778695  39.2590771  65.7018159  30.5968882  38.8061243
  66.8476985  30.5278057  39.7930693  72.3419581  19.2237335  51.4437320
  73.2937004  19.3235433  51.4649544  72.1723032  18.4315604  51.9535404
  70.3633961  16.3092918  51.6296721  69.7683893  16.5897931  50.9343210
  70.0783658  16.7986819  52.4013462  74.8207659  22.4443455  50.5579620
  74.7883979  21.5059455  50.7439304  75.4308283  22.5227491  49.8245445
  66.6590990  21.3139508  36.6006824  67.6050095  21.1845716  36.6695242
  66.2805235  20.5754170  37.0776252  74.9702148  19.2354498  50.6037903
  74.4541196  18.4512955  50.4167832  75.8542096  18.9073215  50.7684422
  72.6312875  12.9795514  46.5633716  72.4337696  12.6710602  47.4477048
  73.2412580  13.7057153  46.6931645  78.7199506  21.6467324  50.2960108
  77.9932670  21.5123289  49.6876599  78.3046793  21.9544153  51.1016826
  66.5429683  25.3657254  58.0607481  67.4632692  25.5435853  58.2547527
  66.5079266  24.4213299  57.9087180  64.8433907  19.2389484  36.5361709
  63.9365363  18.9422597  36.6124423  65.1209888  18.9419302  35.6695995
  55.7611848  20.5595847  46.9860755  55.4414632  19.7061156  46.6935129
  55.2145276  20.7744426  47.7418723  59.5391755  23.2758288  50.7030262
  59.7577765  24.2075396  50.7218296  59.9517529  22.9166263  51.4885066
  66.4595973  13.7826374  42.6905950  65.6496701  13.4373459  43.0661196
  67.1480390  13.4733917  43.2793562  68.3886521  12.8604421  44.3130247
  68.9417560  13.2799874  44.9720270  68.6256608  11.9340169  44.3553203
  64.4119620  18.8491494  60.0933011  64.3116347  19.7985851  60.0245102
  64.1941162  18.5209733  59.2209081  63.6132692  16.0976419  36.6773688
  64.4751856  16.4231318  36.9369506  63.7983036  15.3107915  36.1646754
  55.6300108  24.1798759  48.9553877  54.9363579  23.7652712  48.4423831
  56.3773099  24.2219295  48.3587296  71.7665328  14.9704946  43.8208911
  71.1863997  15.6289750  43.4386964  71.5001261  14.1482290  43.4096329
  70.2168895  14.3710003  46.0230232  70.7168673  14.4826538  45.2144550
  70.8604503  14.0671056  46.6631040  64.2750890  22.2788633  58.9098072
  63.7917972  23.0788993  59.1161962  64.3611829  22.2896578  57.9565516
  57.5436850  24.1117013  46.8319892  57.5207538  24.2104700  45.8801775
  57.8537487  24.9582163  47.1537058  60.2024228  26.1693168  50.9466506
  61.1567481  26.1377110  50.8796438  60.0036752  25.7083791  51.7616732
  60.7923610  24.7394284  53.5137304  61.6116499  25.2338362  53.5372141
  61.0660418  23.8226252  53.4854871  70.5490206  17.1305036  42.8765259
  69.6616061  17.4154687  42.6585454  70.9644195  16.9698799  42.0292536
  73.9004742  17.1551557  46.5919599  74.6765133  17.6448009  46.8644216
  73.1752877  17.5809611  47.0491468  76.3377301  17.8679176  47.6493539
  76.9321792  17.6274912  46.9386848  76.4103885  17.1486307  48.2767076
  58.5574457  31.7112787  47.9636704  58.4228925  30.9513188  47.3974702
  58.1406519  32.4353687  47.4965493  69.6933420  26.8949711  36.9713279
  70.3969270  27.0999713  37.5870935  68.9696068  27.4626473  37.2362363
  70.5231230  22.6459572  43.0915550  70.4666431  23.1028123  42.2523182
  71.0759572  21.8850257  42.9138392  74.3336036  18.4349304  43.9165669
  74.0772970  18.0345940  44.7473877  73.7088904  19.1493098  43.7915808
  78.6448374  21.1745377  46.4236961  78.0847932  21.2438566  47.1968523
  78.0391877  20.9986362  45.7036457  61.7143583  32.6082104  48.1755147
  61.5975967  33.5527537  48.0733837  60.8936029  32.3055666  48.5640946
  71.2566009  23.8364353  40.3868079  71.2014813  23.6708625  39.4456523
  70.6312065  24.5440386  40.5430268  56.0458524  19.0732418  54.2129501
  56.6917388  18.5631372  54.7016726  55.8375675  19.8101099  54.7872926
  68.5711916  26.1413265  59.7121642  69.4403076  26.3153917  59.3508276
  68.0918668  26.9607682  59.5897371  64.5662135  13.3372462  39.9653397
  64.5540805  14.2814302  40.1221668  65.4585557  13.1542608  39.6712858
  62.7398097  33.2610366  51.3911075  63.6425343  33.2933976  51.7077570
  62.5135467  32.3310817  51.4057411  64.4951699  32.0141353  48.0521154
  63.5447330  32.0143214  47.9385526  64.7984185  31.2674087  47.5357188
  68.3814254   9.9315239  44.2199334  67.6146650   9.3773726  44.3656016
  68.7924959  10.0037108  45.0813486  60.3856015  16.2200035  58.3104515
  61.2487477  15.8636840  58.5207840  59.8121426  15.8813930  58.9979919
  73.6656773  35.3259986  56.9409236  73.0355434  36.0076266  57.1744633
  73.5592861  35.2143067  55.9962374  68.9601746  34.9931782  47.8675160
  68.1700800  35.2489310  47.3915271  69.4512993  35.8080119  47.9727200
  67.2439449  35.2462272  50.2990151  67.4947487  36.1309282  50.5647727
  67.7798997  35.0666874  49.5265243  72.9437516  29.6280751  59.3034487
  72.5504462  29.0746950  59.9782131  73.7603656  29.9391330  59.6941004
  75.8605477  31.0438630  56.8954743  76.6015190  31.6445784  56.8159206
  76.0923400  30.3016268  56.3372786  71.0046815  36.2294998  55.1732973
  70.8900330  35.3280255  55.4740072  70.1491333  36.4758694  54.8217790
  78.0838653  44.1712738  56.7720474  77.6402507  43.3849117  56.4541378
  78.7455866  44.3591889  56.1064364  76.6392945  41.9659667  55.6425383
  77.1721282  41.2047956  55.4124691  76.1107026  41.6733319  56.3849538
  71.7831362  34.2000583  52.1036379  72.4554415  33.9917945  51.4549028
  70.9561148  34.0022669  51.6641611  72.1858859  37.4743186  52.8638816
  72.0478657  36.7423425  53.4650355  73.0963783  37.3852086  52.5823004
  73.5270094  34.1728363  54.1718135  72.9907451  33.7219102  54.8239732
  72.9386802  34.3074272  53.4288600  69.2609215  33.3084371  51.2571130
  69.1767404  32.7010040  50.5221540  68.4391921  33.7993389  51.2580626
  64.0342469  36.4994768  49.1003573  64.0726568  35.9658358  49.8940691
  63.5282762  35.9729973  48.4814550  71.4133231  31.3459308  52.5966115
  71.4774558  32.2074139  52.1843513  71.3500352  30.7333310  51.8638474
  70.8885504  33.4182441  56.2439150  71.5157543  33.0359518  56.8576674
  70.0313423  33.1996643  56.6094842  71.1945294  33.3014866  48.1585053
  70.4731879  33.9150834  48.0192526  71.9838549  33.8372631  48.0801699
  73.9971607  30.6369293  54.4325705  74.5206009  30.8831590  55.1952014
  73.7783940  31.4689328  54.0128842  75.2024152  31.5782988  52.1175375
  74.8620972  30.7790801  52.5196055  74.4963158  31.8784699  51.5452209
  75.8540624  28.6632300  50.5702698  76.6766693  28.1892779  50.4481589
  76.0978687  29.4422784  51.0701385  67.8524865  37.8956766  51.3182338
  67.3078333  38.6716573  51.4502613  68.7304215  38.2427570  51.1601460
  68.6390887  37.0226662  54.2112495  67.8972623  37.1709297  54.7977125
  68.3183631  37.2834927  53.3479244  74.1253561  32.7400347  57.9053069
  74.1741717  33.6162470  57.5230839  74.6676075  32.1977740  57.3324713
  75.2513375  34.1783412  60.0933011  75.1510102  35.1277769  60.0245102
  75.0334917  33.8501651  59.2209081  75.1144645  37.6080551  58.9098072
  74.6311727  38.4080911  59.1161962  75.2005584  37.6188496  57.9565516
  71.6317365  40.0686201  53.5137304  72.4510254  40.5630280  53.5372141
  71.9054172  39.1518170  53.4854871  66.8852279  34.4024335  54.2129501
  67.5311142  33.8923289  54.7016726  66.6769430  35.1393017  54.7872926
  79.4105671  41.4705183  59.7121642  80.2796831  41.6445835  59.3508276
  78.9312422  42.2899600  59.5897371  71.2249770  31.5491952  58.3104515
  72.0881231  31.1928757  58.5207840  70.6515180  31.2105847  58.9979919
  91.0698147  53.1793809  49.1166916  91.7076557  53.0600556  48.4130256
  90.9518990  54.1274653  49.1754868  87.8787853  53.1321237  49.0528441
  87.5406365  53.0162302  48.1648976  88.7477621  52.7312402  49.0329447
  83.7374669  54.9856713  45.0425332  83.1739534  54.8946650  44.2741620
  83.6227064  54.1656618  45.5227824  88.3607636  54.2856089  55.0114646
  88.3496277  53.8908887  54.1395150  88.5228275  53.5522161  55.6048418
  81.2839101  56.4807905  47.8809552  82.0760393  56.1398729  47.4655852
  81.5235751  56.5902880  48.8011706  89.3174227  58.6527681  40.3539797
  88.6662207  59.2381761  39.9673811  90.1118590  59.1833876  40.4134834
  85.0814897  57.0693200  53.9593830  84.7904763  57.9738831  53.8440497
  85.7171881  57.1109728  54.6737900  86.0071104  54.4470049  50.5495190
  86.6034676  54.2226071  49.8352153  86.0646076  53.7054794  51.1520638
  90.6239415  50.9045263  46.1920124  91.4102504  50.4864686  45.8410541
  90.8878120  51.8091355  46.3601773  90.7949493  56.3418113  40.8908781
  90.1595326  56.4152739  41.6029686  90.4646899  56.9311712  40.2127860
  96.0247842  50.8420496  47.0953103  96.7573014  50.2719713  47.3290932
  95.2687198  50.4542096  47.5359608  87.6423962  53.2647737  44.2916445
  87.2782169  52.7378358  45.0029367  88.4991078  52.8746206  44.1182931
  93.5473263  44.5542070  51.5547711  93.2156587  45.4237481  51.3308926
  92.9518876  44.2378354  52.2341742  90.0404782  56.7554616  50.9543624
  89.7405505  57.6579655  50.8459431  89.6955842  56.4886799  51.8064777
  83.4917264  53.2068413  46.9880329  82.5667760  53.0744627  47.1958020
  83.7401677  53.9862632  47.4850271  93.4401926  49.2737156  48.6341061
  92.5318803  49.2052564  48.3399822  93.3889522  49.7509101  49.4622887
  80.8526075  52.8501686  47.8224118  80.9818456  53.1036165  48.7363529
  80.1723526  53.4429394  47.5028773  85.0225562  63.5198936  43.9214592
  84.9449592  64.4706761  44.0003072  84.4187206  63.1744809  44.5789518
  87.5142792  50.6926802  56.5775959  86.7376126  51.2520722  56.5678823
  88.1533355  51.1783585  57.0990829  95.3063572  47.4753594  50.4118935
  94.6637953  47.7686128  49.7658730  94.8018501  47.3606515  51.2172132
  92.9603736  51.2216768  41.1004795  93.8721592  51.4544154  40.9252492
  92.4513383  51.8053812  40.5379873  85.7689164  53.5012255  56.1393926
  86.5103848  54.0397299  55.8628749  85.0626150  54.1278544  56.2965478
  91.2444504  55.6441395  54.7366087  91.6527860  55.2023806  53.9920720
  90.5221765  55.0694023  54.9900280  87.5975574  50.5814002  52.1099644
  88.4436769  51.0053416  52.2534293  87.5374211  49.9247627  52.8038207
  91.5673318  56.2042586  48.4918376  90.9382181  56.3688300  47.7894444
  91.1798980  56.6184196  49.2629340  95.4462550  57.1397024  45.8462740
  94.7613588  57.5195925  45.2959773  95.5306400  57.7492351  46.5794688
  90.7475019  48.2418371  53.7680818  90.5035951  48.9960431  53.2315093
  91.0234950  48.6203718  54.6028065  92.7013482  54.7856983  52.4458083
  92.9130377  55.4288743  51.7692464  92.6543230  53.9519300  51.9780013
  90.3039711  47.3974804  49.3494656  89.4424190  47.6956057  49.6411393
  90.3302145  47.6145203  48.4175688  87.1201280  55.9416994  45.7568461
  87.5839626  56.2204697  44.9673084  86.8558078  55.0400439  45.5741552
  84.0125361  55.4888476  48.6948224  84.5826718  55.9175744  48.0565709
  84.6033473  55.2071060  49.3932410  86.0570166  52.0640147  42.5658026
  86.7594210  52.5161190  43.0331953  85.7250795  51.4223965  43.1937919
  84.5050528  50.6551903  56.9409236  83.8749188  51.3368184  57.1744633
  84.3986616  50.5434985  55.9962374  79.7995500  50.3223699  47.8675160
  79.0094554  50.5781228  47.3915271  80.2906748  51.1372037  47.9727200
  93.8159310  57.6628938  50.6180441  94.6376754  57.2609126  50.3363122
  93.8121713  57.5597173  51.5696557  87.5815913  57.2112982  52.7741151
  87.6460346  57.6733389  53.6099323  86.8726837  56.5810347  52.9023461
  78.0833203  50.5754190  50.2990151  78.3341242  51.4601200  50.5647727
  78.6192752  50.3958791  49.5265243 101.9065303  54.0067687  46.9665412
 101.1529011  53.4375085  46.8109417 102.0412844  53.9730351  47.9136047
  87.2963931  58.8781089  42.6420132  87.1609606  59.7232625  43.0704979
  87.8373743  59.0800367  41.8786065  83.7831271  44.9572669  59.3034487
  83.3898216  44.4038868  59.9782131  84.5997411  45.2683248  59.6941004
  86.6999232  46.3730548  56.8954743  87.4408945  46.9737701  56.8159206
  86.9317154  45.6308186  56.3372786  81.8440570  51.5586915  55.1732973
  81.7294085  50.6572173  55.4740072  80.9885087  51.8050612  54.8217790
  88.9232407  59.5004656  56.7720474  88.4796262  58.7141034  56.4541378
  89.5849621  59.6883806  56.1064364  83.6819528  61.0300457  51.2981152
  84.2326954  60.9017521  50.5258146  82.8431004  61.3295346  50.9476045
  91.0213645  59.7807456  54.8001875  91.0032121  60.6016337  54.3082144
  91.9433565  59.6561531  55.0252016  87.4786700  57.2951585  55.6425383
  88.0115036  56.5339873  55.4124691  86.9500781  57.0025237  56.3849538
  90.6106677  52.3920262  39.6791460  90.0953301  53.1624867  39.9179848
  90.3383986  51.7185398  40.3024522  95.5840951  55.1452617  41.6144634
  94.8070394  54.8063776  41.1699796  96.2632432  55.1505240  40.9399599
  90.3992980  50.2647354  41.5051241  90.0943116  50.5793503  42.3561384
  91.3523423  50.3428774  41.5478574  88.8439412  56.4237578  43.1544195
  88.3160774  55.6890337  42.8417433  88.3426915  57.2012254  42.9084164
  93.8232258  54.6186598  48.2711242  93.1655933  55.3085859  48.3591370
  94.6272657  55.0083030  48.6145228  92.6337717  52.9730971  46.3215183
  93.1469599  53.6060963  46.8236893  93.2838941  52.3732166  45.9558543
  89.8960091  62.9515295  39.0775854  89.2221790  63.2546992  39.6860812
  90.2825913  63.7544375  38.7281312  89.1118548  50.4480426  48.5673524
  88.1941109  50.6695373  48.4095212  89.5278692  50.5226737  47.7085231
  89.8953596  51.8471842  43.6976204  90.6425415  52.3593239  43.3883326
  90.1645185  51.5255895  44.5580598  88.1680246  54.3430383  40.6803158
  87.2591465  54.0589416  40.7775628  88.1975330  54.7629461  39.8206465
  93.3999513  57.9536972  44.4494326  92.9461840  57.1127882  44.5059516
  92.7693480  58.5898371  44.7869106  92.3432433  48.8828958  45.6794993
  91.6055190  48.3706344  46.0105236  92.5959206  48.4429340  44.8678270
  91.8432453  59.7913469  45.3844144  92.1355427  60.3518526  44.6656510
  92.3531073  60.0842030  46.1397303  78.7368416  52.0635897  44.6618361
  78.5392816  51.4705258  43.9369427  78.1815080  51.7588107  45.3794299
  86.7165140  51.9559003  46.7812954  86.7713750  51.0032840  46.7055430
  85.9056342  52.1118442  47.2654252  87.8656334  55.8839126  38.0191237
  87.4275764  55.1674985  37.5596874  88.6066775  56.1115241  37.4576328
  84.6557500  50.5736063  44.5403333  83.8425365  50.8730234  44.9468525
  85.1516494  50.1791752  45.2577815  86.8066078  60.5693820  46.4737597
  86.7642257  60.7954666  45.5446129  87.7228777  60.3357195  46.6223398
  90.2531712  51.0377888  53.3718227  90.6081099  51.2649361  54.2312692
  90.9003843  51.3696264  52.7495482  95.9829448  54.1596323  44.0767556
  95.8447347  54.3497919  43.1488745  95.6265667  54.9215706  44.5335607
  96.0098828  56.2272850  49.0878827  96.4435335  56.1348140  49.9361881
  96.7230409  56.2030351  48.4498843  84.9231878  57.4456849  46.2699560
  85.7172477  56.9507169  46.0682135  84.2123571  56.9174712  45.9067266
  89.7426723  59.8274945  50.6211928  89.7963745  60.3965881  51.3889644
  88.8741504  59.9976830  50.2565965  82.6225116  49.5292501  52.1036379
  83.2948170  49.3209863  51.4549028  81.7954903  49.3314587  51.6641611
  96.8714378  56.2696551  51.6211712  97.0650268  57.1742362  51.8670987
  96.7714996  55.8103970  52.4550297  91.9329486  56.4203294  57.1952593
  91.7814993  56.1913846  56.2782677  91.9234166  57.3773895  57.2083938
  88.7014823  53.9935207  52.1798860  89.6306883  54.1446366  52.0067827
  88.2805853  54.0819227  51.3247506  87.5003154  58.0185871  49.9497397
  87.3614240  57.6504655  50.8223335  86.7117751  58.5333510  49.7781355
  88.0951306  63.1194967  41.2922934  88.2703062  62.6483011  42.1068556
  87.4084094  63.7460734  41.5204194  89.0508370  57.3967474  47.3386235
  88.7158202  57.3568244  48.2343885  88.5512315  56.7312190  46.8656645
  83.0252614  52.8035104  52.8638816  82.8872412  52.0715343  53.4650355
  83.9357537  52.7144004  52.5823004  91.9867561  54.7423508  37.6123295
  91.3696732  54.0170336  37.5156347  91.5184050  55.5032868  37.2690369
  85.6534914  52.5155063  52.3522496  86.3634533  51.8748255  52.3109114
  85.6104222  52.7667958  53.2748676  93.6421693  59.4522416  55.2729075
  93.5834239  58.7681637  54.6059658  94.0441211  60.1941406  54.8209701
  82.6612392  66.2684330  48.0662794  82.9008990  66.9002854  48.7441812
  81.8181588  65.9172370  48.3528153  93.6439100  57.4162000  53.5043055
  92.7565879  57.0787922  53.6269453  94.2137651  56.6845032  53.7411820
  80.1002969  48.6376289  51.2571130  80.0161158  48.0301958  50.5221540
  79.2785676  49.1285307  51.2580626  87.1740254  62.0763453  50.4704298
  87.1010425  62.8818424  50.9823602  86.7317647  62.2755418  49.6452319
  86.9630033  61.3135223  43.9807119  86.1797555  61.8556903  44.0745344
  87.6622778  61.8309202  44.3801361  98.1256441  52.8270218  48.2659616
  98.1146317  53.7094933  47.8953549  97.2573820  52.4741769  48.0714153
  89.6338937  61.9750287  52.6262456  90.3466909  62.6097752  52.5538358
  89.1428966  62.0714153  51.8102458  91.3556464  55.8801539  44.1979748
  90.4212743  56.0003002  44.0284452  91.5333132  54.9774006  43.9339758
  86.8561652  49.2647235  46.3513009  86.4859440  48.7118276  47.0393915
  87.3520745  48.6605369  45.7988009  94.7429015  51.7218859  44.7329782
  95.2089468  52.5546850  44.6590085  95.1936516  51.2563840  45.4375041
  84.6850851  59.7244730  53.4468027  85.3860310  60.3581213  53.5997422
  84.2145966  60.0659462  52.6863667  92.8105246  58.0662680  41.7315934
  93.0865090  57.9519275  42.6409808  91.9409745  57.6680165  41.6928107
  92.4852137  52.2789338  51.2720578  91.8323587  52.5265245  50.6173030
  92.8632517  51.4653476  50.9383055  89.4459310  62.3149031  45.3748748
  89.6281705  61.4970687  45.8376500  90.2692297  62.5316723  44.9373638
  89.7801476  61.2417216  42.6363796  90.3089242  60.7309671  42.0233959
  90.0429696  60.9259746  43.5009329  88.5339710  53.0209149  57.7586615
  87.8580347  52.9203278  58.4288990  89.3567344  52.8648362  58.2222612
  83.1357224  62.2932333  45.3961572  82.4667599  62.7778460  44.9125612
  82.9970094  62.5401553  46.3104951  87.2762493  64.3276076  51.9944231
  87.8280801  64.4907698  52.7593316  87.6168686  64.9180514  51.3224256
  81.7279258  48.7474358  56.2439150  82.3551297  48.3651436  56.8576674
  80.8707177  48.5288560  56.6094842  92.1273367  59.1537334  57.8492885
  92.6713271  59.7667292  57.3547840  91.5460212  59.7116912  58.3659898
  90.4130880  62.2758052  48.9807913  90.2882019  61.4747791  48.4718858
  91.0709971  62.7704245  48.4921883  82.0339048  48.6306784  48.1585053
  81.3125634  49.2442752  48.0192526  82.8232304  49.1664549  48.0801699
  92.4765788  60.0767072  50.6087463  91.5296124  59.9572423  50.5365790
  92.8248561  59.1889570  50.6913724  89.4812221  59.8719788  46.8091815
  89.3337184  58.9436495  46.9899385  90.3065715  59.8939879  46.3248890
  93.0846343  60.6948347  47.8956688  94.0092891  60.4891208  47.7581139
  92.9161647  60.4464748  48.8046029  84.2172957  50.6843339  48.3794677
  84.0717538  50.9983642  49.2718959  83.7398161  51.3028239  47.8265576
  86.0769340  47.6745887  48.4275567  86.0630909  46.7786980  48.0907865
  86.7941768  47.6816551  49.0613853  87.9295471  48.1083227  50.4728694
  87.6713249  49.0300298  50.4713024  87.3980511  47.7113662  51.1629158
  92.8741660  61.2134014  43.2518779  93.0478537  60.6480437  42.4992632
  93.3670551  62.0134909  43.0698269  98.7281051  53.9770437  44.8709079
  99.1712197  53.2277762  44.4728202  97.8507561  53.9680573  44.4882811
  93.8616832  60.5300779  40.3515678  94.5567737  61.1507471  40.5702992
  94.2039982  59.6796130  40.6268056  95.7608255  57.9800484  41.8803008
  96.2859579  58.3187757  41.1552328  95.6730608  57.0447499  41.6966143
  87.4228304  61.8934558  54.0092885  87.7315430  61.6483704  54.8815585
  88.2203786  62.0981196  53.5211755  87.4448916  64.0472467  46.2398262
  87.0053906  63.5548846  46.9331118  88.1957033  63.5045435  45.9990337
  84.8922788  59.5910476  48.3120563  84.2702797  58.9281181  48.0122791
  85.5627655  59.6171608  47.6294211  84.9647316  48.0692264  57.9053069
  85.0135471  48.9454387  57.5230839  85.5069830  47.5269657  57.3324713
  95.5700036  55.4625854  54.4986935  95.6198041  55.2975862  55.4402458
  95.4613960  54.5953113  54.1084816  92.8603799  51.4456782  55.8146242
  93.7613661  51.3063247  55.5230239  92.9351773  51.6111237  56.7544419
  97.0718233  57.8822796  54.7428956  96.7803041  58.2452776  55.5792417
  96.4590364  57.1689804  54.5642289  98.2713915  55.4475675  47.2631527
  99.1060807  55.8865479  47.4269087  98.4073044  54.9714329  46.4439772
  95.3205421  53.0055410  53.2109014  95.7959543  53.1983057  52.4027866
  94.3970987  53.0614596  52.9652398  87.9531700  60.6362530  39.2590771
  87.3805668  61.2552717  38.8061243  88.5264494  61.1861892  39.7930693
  94.0207090  49.8821170  51.4437320  94.9724513  49.9819268  51.4649544
  93.8510541  49.0899439  51.9535404  92.0421470  46.9676754  51.6296721
  91.4471402  47.2481766  50.9343210  91.7571166  47.4570654  52.4013462
  91.1728960  60.9199680  40.3899354  92.1059633  60.8545242  40.5932229
  91.0852173  61.7555947  39.9313886  93.8016977  60.2365551  37.3503301
  93.7230608  59.9025414  38.2439059  94.6226644  60.7287319  37.3494773
  96.4995168  53.1027290  50.5579620  96.4671488  52.1643291  50.7439304
  97.1095792  53.1811327  49.8245445  88.3378499  51.9723343  36.6006824
  89.2837604  51.8429551  36.6695242  87.9592744  51.2338005  37.0776252
  96.6489657  49.8938333  50.6037903  96.1328705  49.1096790  50.4167832
  97.5329605  49.5657050  50.7684422 102.3171718  54.1643297  49.6985657
 103.0475106  53.9028585  50.2593360 101.7078663  53.4272019  49.7387724
 100.3987015  52.3051159  50.2960108  99.6720179  52.1707124  49.6876599
  99.9834302  52.6127988  51.1016826  88.2217192  56.0241089  58.0607481
  89.1420201  56.2019688  58.2547527  88.1866775  55.0797134  57.9087180
  81.2179264  53.9342124  50.7030262  81.4365274  54.8659232  50.7218296
  81.6305038  53.5750098  51.4885066  86.0907129  49.5075330  60.0933011
  85.9903856  50.4569686  60.0245102  85.8728671  49.1793568  59.2209081
  85.9538399  52.9372468  58.9098072  85.4705481  53.7372828  59.1161962
  86.0399338  52.9480413  57.9565516  95.5792251  47.8135392  46.5919599
  96.3552641  48.3031845  46.8644216  94.8540386  48.2393447  47.0491468
  98.0164810  48.5263012  47.6493539  98.6109301  48.2858748  46.9386848
  98.0891394  47.8070142  48.2767076  80.2361966  62.3696623  47.9636704
  80.1016434  61.6097023  47.3974702  79.8194028  63.0937522  47.4965493
  91.3720929  57.5533546  36.9713279  92.0756779  57.7583549  37.5870935
  90.6483577  58.1210308  37.2362363  92.2018739  53.3043407  43.0915550
  92.1453940  53.7611959  42.2523182  92.7547081  52.5434092  42.9138392
  96.0123545  49.0933139  43.9165669  95.7560479  48.6929775  44.7473877
  95.3876413  49.8076933  43.7915808 100.3235883  51.8329212  46.4236961
  99.7635441  51.9022402  47.1968523  99.7179386  51.6570197  45.7036457
  83.3931092  63.2665940  48.1755147  83.2763476  64.2111372  48.0733837
  82.5723538  62.9639501  48.5640946  93.2807626  57.9916075  39.0211739
  94.1153230  57.5597274  38.8389214  93.1191969  57.8198089  39.9488634
  92.9353518  54.4948189  40.3868079  92.8802322  54.3292460  39.4456523
  92.3099574  55.2024222  40.5430268  90.2499425  56.7997100  59.7121642
  91.1190585  56.9737753  59.3508276  89.7706177  57.6191517  59.5897371
  84.4185606  63.9194201  51.3911075  85.3212852  63.9517812  51.7077570
  84.1922976  62.9894652  51.4057411  86.1739208  62.6725188  48.0521154
  85.2234839  62.6727050  47.9385526  86.4771694  61.9257923  47.5357188
  82.0643524  46.8783870  58.3104515  82.9274986  46.5220675  58.5207840
  81.4908935  46.5397765  58.9979919 101.9091901  68.5085726  49.1166916
 102.5470311  68.3892474  48.4130256 101.7912744  69.4566570  49.1754868
  98.7181607  68.4613155  49.0528441  98.3800119  68.3454219  48.1648976
  99.5871376  68.0604320  49.0329447  94.5768423  70.3148631  45.0425332
  94.0133288  70.2238568  44.2741620  94.4620818  69.4948535  45.5227824
  99.2001390  69.6148006  55.0114646  99.1890031  69.2200805  54.1395150
  99.3622030  68.8814079  55.6048418  92.1232855  71.8099823  47.8809552
  92.9154147  71.4690647  47.4655852  92.3629505  71.9194798  48.8011706
 100.1567982  73.9819599  40.3539797  99.5055962  74.5673679  39.9673811
 100.9512345  74.5125794  40.4134834  94.0823609  71.0708736  40.7526931
  94.8554485  70.5237723  40.6139807  94.4349008  71.9352985  40.9641393
  95.9208652  72.3985118  53.9593830  95.6298518  73.3030749  53.8440497
  96.5565636  72.4401646  54.6737900  96.8464858  69.7761967  50.5495190
  97.4428431  69.5517989  49.8352153  96.9039830  69.0346712  51.1520638
  96.4189887  67.2301402  38.3845381  96.6715408  66.7082923  37.6228844
  95.4814446  67.0667547  38.4872065 101.4633170  66.2337180  46.1920124
 102.2496259  65.8156603  45.8410541 101.7271874  67.1383272  46.3601773
 101.6343247  71.6710031  40.8908781 100.9989080  71.7444657  41.6029686
 101.3040653  72.2603629  40.2127860 106.8641597  66.1712413  47.0953103
 107.5966769  65.6011630  47.3290932 106.1080953  65.7834014  47.5359608
  96.1386176  69.1329508  40.5869756  96.0222434  68.4574411  41.2550840
  96.2488436  68.6461882  39.7701909  98.4817717  68.5939655  44.2916445
  98.1175924  68.0670276  45.0029367  99.3384832  68.2038124  44.1182931
 104.3867017  59.8833988  51.5547711 104.0550342  60.7529399  51.3308926
 103.7912631  59.5670272  52.2341742  98.1223204  63.6229555  39.2877794
  98.2897606  64.4909791  39.6548265  97.9320373  63.7856836  38.3639083
 100.8798537  72.0846534  50.9543624 100.5799260  72.9871572  50.8459431
 100.5349596  71.8178717  51.8064777  94.3311018  68.5360330  46.9880329
  93.4061515  68.4036544  47.1958020  94.5795431  69.3154550  47.4850271
 104.2795681  64.6029074  48.6341061 103.3712558  64.5344482  48.3399822
 104.2283276  65.0801019  49.4622887  98.1012424  66.0787212  40.2724461
  97.9812050  66.5244263  41.1109941  97.4065013  66.4272530  39.7137999
  91.6919829  68.1793604  47.8224118  91.8212210  68.4328083  48.7363529
  91.0117281  68.7721312  47.5028773  95.8619317  78.8490854  43.9214592
  95.7843346  79.7998679  44.0003072  95.2580960  78.5036726  44.5789518
 106.1457327  62.8045512  50.4118935 105.5031707  63.0978045  49.7658730
 105.6412255  62.6898432  51.2172132 103.7997491  66.5508685  41.1004795
 104.7115347  66.7836072  40.9252492 103.2907138  67.1345730  40.5379873
  96.6082919  68.8304173  56.1393926  97.3497603  69.3689217  55.8628749
  95.9019904  69.4570461  56.2965478 102.0838258  70.9733313  54.7366087
 102.4921614  70.5315724  53.9920720 101.3615520  70.3985941  54.9900280
  98.4369328  65.9105920  52.1099644  99.2830523  66.3345333  52.2534293
  98.3767966  65.2539544  52.8038207 102.4067073  71.5334504  48.4918376
 101.7775935  71.6980218  47.7894444 102.0192735  71.9476113  49.2629340
 106.2856305  72.4688942  45.8462740 105.6007343  72.8487843  45.2959773
 106.3700154  73.0784268  46.5794688 101.5868774  63.5710288  53.7680818
 101.3429705  64.3252349  53.2315093 101.8628704  63.9495636  54.6028065
 103.5407236  70.1148901  52.4458083 103.7524132  70.7580661  51.7692464
 103.4936985  69.2811217  51.9780013 101.1433465  62.7266721  49.3494656
 100.2817944  63.0247975  49.6411393 101.1695900  62.9437120  48.4175688
  97.9595035  71.2708912  45.7568461  98.4233380  71.5496615  44.9673084
  97.6951833  70.3692356  45.5741552  94.8519116  70.8180393  48.6948224
  95.4220473  71.2467662  48.0565709  95.4427228  70.5362978  49.3932410
  96.8963921  67.3932064  42.5658026  97.5987964  67.8453108  43.0331953
  96.5644549  66.7515883  43.1937919  95.3444282  65.9843821  56.9409236
  94.7142943  66.6660102  57.1744633  95.2380370  65.8726902  55.9962374
  90.6389255  65.6515617  47.8675160  89.8488309  65.9073145  47.3915271
  91.1300502  66.4663955  47.9727200 104.6553064  72.9920856  50.6180441
 105.4770508  72.5901043  50.3363122 104.6515467  72.8889090  51.5696557
  92.5904000  66.0160196  44.8258637  91.7935163  66.1278890  45.3442132
  92.3629592  66.3546848  43.9599527  98.4209668  72.5404899  52.7741151
  98.4854100  73.0025307  53.6099323  97.7120592  71.9102264  52.9023461
  88.9226958  65.9046107  50.2990151  89.1734996  66.7893117  50.5647727
  89.4586506  65.7250709  49.5265243 112.7459057  69.3359605  46.9665412
 111.9922766  68.7667003  46.8109417 112.8806599  69.3022269  47.9136047
  98.1357685  74.2073007  42.6420132  98.0003360  75.0524543  43.0704979
  98.6767498  74.4092284  41.8786065  94.6225025  60.2864587  59.3034487
  94.2291971  59.7330785  59.9782131  95.4391165  60.5975165  59.6941004
  91.5887083  71.7248445  43.2148057  92.1011603  72.5191695  43.3653621
  92.2409796  71.0274735  43.1481658  93.3981968  74.8414201  45.2970810
  93.5748596  75.7632166  45.1091794  94.1938801  74.5272620  45.7265190
  92.6834324  66.8878833  55.1732973  92.5687839  65.9864090  55.4740072
  91.8278842  67.1342530  54.8217790  99.7626162  74.8296573  56.7720474
  99.3190016  74.0432952  56.4541378 100.4243375  75.0175724  56.1064364
  94.5213283  76.3592375  51.2981152  95.0720708  76.2309438  50.5258146
  93.6824759  76.6587264  50.9476045 101.8607400  75.1099373  54.8001875
 101.8425875  75.9308254  54.3082144 102.7827320  74.9853449  55.0252016
  98.3180454  72.6243503  55.6425383  98.8508791  71.8631791  55.4124691
  97.7894535  72.3317155  56.3849538 101.4850149  57.7303569  51.1719025
 101.1414418  58.6205210  51.0958136 101.8529112  57.5405226  50.3088610
  89.5536000  70.0537099  43.9907627  90.3911222  70.4634108  43.7741335
  89.7314267  69.1136541  43.9607821 101.4500432  67.7212180  39.6791460
 100.9347055  68.4916784  39.9179848 101.1777740  67.0477316  40.3024522
  99.0347543  62.5661881  44.7376699  98.1789139  62.1768731  44.5582337
  99.4474495  62.6453841  43.8776484 100.5646689  60.1008224  49.1368258
 100.0611485  60.0638359  48.3236064 100.8577296  61.0100967  49.1964915
  96.8089575  60.1846954  48.1434440  97.6742572  59.9889762  47.7840329
  96.8767084  59.9557305  49.0703797 106.4234706  70.4744534  41.6144634
 105.6464149  70.1355694  41.1699796 107.1026187  70.4797158  40.9399599
 101.2386735  65.5939272  41.5051241 100.9336870  65.9085421  42.3561384
 102.1917177  65.6720692  41.5478574  99.6833167  71.7529495  43.1544195
  99.1554528  71.0182255  42.8417433  99.1820669  72.5304172  42.9084164
 104.6626013  69.9478516  48.2711242 104.0049687  70.6377777  48.3591370
 105.4666412  70.3374948  48.6145228  94.4151894  62.4149162  45.5150807
  94.9895646  62.1924343  44.7824000  95.0022877  62.4837856  46.2679408
 103.4731472  68.3022888  46.3215183 103.9863353  68.9352880  46.8236893
 104.1232695  67.7024084  45.9558543  94.7421481  64.4453623  39.5346692
  93.9058794  64.7828309  39.8555967  94.6026251  64.3102602  38.5973829
  96.7174562  59.2890410  44.2425876  96.0638974  58.9739428  43.6182491
  96.6755036  58.6666151  44.9685699  97.8285767  69.5709706  36.1579168
  96.9212829  69.3398959  36.3570317  98.3256799  68.7747325  36.3453150
 100.7353846  78.2807213  39.0775854 100.0615545  78.5838909  39.6860812
 101.1219668  79.0836293  38.7281312  99.9512302  65.7772344  48.5673524
  99.0334864  65.9987291  48.4095212 100.3672446  65.8518654  47.7085231
 100.7347350  67.1763760  43.6976204 101.4819169  67.6885157  43.3883326
 101.0038940  66.8547812  44.5580598  99.0074000  69.6722300  40.6803158
  98.0985220  69.3881333  40.7775628  99.0369084  70.0921379  39.8206465
 104.2393268  73.2828890  44.4494326 103.7855595  72.4419800  44.5059516
 103.6087234  73.9190288  44.7869106 103.1826187  64.2120876  45.6794993
 102.4448944  63.6998262  46.0105236 103.4352961  63.7721258  44.8678270
 102.6826207  75.1205387  45.3844144 102.9749181  75.6810444  44.6656510
 103.1924828  75.4133948  46.1397303 103.2837815  56.9897128  46.2736763
 103.5896691  56.1294491  45.9862678 104.0090419  57.5814748  46.0735757
  89.5762171  67.3927815  44.6618361  89.3786571  66.7997175  43.9369427
  89.0208835  67.0880025  45.3794299  97.5558894  67.2850921  46.7812954
  97.6107504  66.3324757  46.7055430  96.7450096  67.4410360  47.2654252
  98.7050088  71.2131044  38.0191237  98.2669518  70.4966903  37.5596874
  99.4460529  71.4407159  37.4576328  95.4951254  65.9027981  44.5403333
  94.6819120  66.2022151  44.9468525  95.9910248  65.5083670  45.2577815
  97.6459832  75.8985738  46.4737597  97.6036011  76.1246584  45.5446129
  98.5622531  75.6649112  46.6223398 101.0925466  66.3669805  53.3718227
 101.4474854  66.5941278  54.2312692 101.7397597  66.6988182  52.7495482
 106.8223203  69.4888241  44.0767556 106.6841102  69.6789837  43.1488745
 106.4659422  70.2507624  44.5335607  94.9865329  63.4746336  50.1564568
  95.6264708  63.3335095  49.4587531  94.1542860  63.1880850  49.7803170
 106.8492583  71.5564768  49.0878827 107.2829089  71.4640057  49.9361881
 107.5624163  71.5322269  48.4498843  95.7625633  72.7748767  46.2699560
  96.5566231  72.2799087  46.0682135  95.0517325  72.2466630  45.9067266
 100.5820477  75.1566862  50.6211928 100.6357500  75.7257799  51.3889644
  99.7135259  75.3268747  50.2565965  92.0708396  66.9191848  42.3459313
  91.1405985  66.8576304  42.5629275  92.1665868  66.3967801  41.5495954
  91.9893945  63.4446661  44.9337554  92.2500763  64.3591994  44.8246715
  92.8111118  62.9771104  45.0834167  93.4618871  64.8584418  52.1036379
  94.1341924  64.6501781  51.4549028  92.6348657  64.6606504  51.6641611
 107.7108132  71.5988469  51.6211712 107.9044022  72.5034279  51.8670987
 107.6108750  71.1395888  52.4550297  99.3644443  61.4846359  54.1202040
  98.7172358  62.1836309  54.0266516 100.1345458  61.9182503  54.4878288
 102.7723241  71.7495212  57.1952593 102.6208747  71.5205763  56.2782677
 102.7627920  72.7065813  57.2083938  99.5408577  69.3227124  52.1798860
 100.4700637  69.4738284  52.0067827  99.1199607  69.4111145  51.3247506
  98.3396909  73.3477789  49.9497397  98.2007995  72.9796573  50.8223335
  97.5511505  73.8625428  49.7781355  98.9345061  78.4486885  41.2922934
  99.1096817  77.9774928  42.1068556  98.2477849  79.0752651  41.5204194
  99.8902124  72.7259391  47.3386235  99.5551957  72.6860161  48.2343885
  99.3906070  72.0604107  46.8656645  93.8646368  68.1327021  52.8638816
  93.7266166  67.4007260  53.4650355  94.7751292  68.0435921  52.5823004
 102.8261316  70.0715426  37.6123295 102.2090486  69.3462254  37.5156347
 102.3577804  70.8324786  37.2690369  96.4928669  67.8446981  52.3522496
  97.2028287  67.2040173  52.3109114  96.4497977  68.0959876  53.2748676
 104.4815447  74.7814334  55.2729075 104.4227994  74.0973554  54.6059658
 104.8834966  75.5233324  54.8209701  95.2057603  64.8312199  54.1718135
  94.6694960  64.3802937  54.8239732  94.6174311  64.9658107  53.4288600
  93.5006146  81.5976248  48.0662794  93.7402744  82.2294772  48.7441812
  92.6575343  81.2464288  48.3528153  94.6159862  64.2900850  36.7344599
  93.7389328  64.1689651  36.3706846  95.0917615  63.4986928  36.4823487
 104.4832855  72.7453918  53.5043055 103.5959633  72.4079840  53.6269453
 105.0531406  72.0136949  53.7411820  86.1362002  69.0778010  46.8286106
  86.8233042  68.7639740  46.2407121  85.9810131  69.9819374  46.5553357
  90.9396724  63.9668206  51.2571130  90.8554913  63.3593876  50.5221540
  90.1179430  64.4577225  51.2580626  98.0134008  77.4055370  50.4704298
  97.9404180  78.2110342  50.9823602  97.5711401  77.6047336  49.6452319
  97.8023788  76.6427140  43.9807119  97.0191310  77.1848821  44.0745344
  98.5016533  77.1601120  44.3801361 101.1120438  62.4521770  46.6241325
 101.6089137  61.6991732  46.3042395 100.3407419  62.4886086  46.0584534
 108.9650195  68.1562135  48.2659616 108.9540071  69.0386851  47.8953549
 108.0967575  67.8033686  48.0714153 100.4732692  77.3042204  52.6262456
 101.1860664  77.9389669  52.5538358  99.9822720  77.4006070  51.8102458
 102.1950219  71.2093457  44.1979748 101.2606497  71.3294920  44.0284452
 102.3726887  70.3065924  43.9339758  97.6955407  64.5939153  46.3513009
  97.3253194  64.0410193  47.0393915  98.1914499  63.9897286  45.7988009
 105.5822770  67.0510776  44.7329782 106.0483222  67.8838768  44.6590085
 106.0330270  66.5855758  45.4375041  95.5244605  75.0536648  53.4468027
  96.2254065  75.6873131  53.5997422  95.0539720  75.3951379  52.6863667
 103.6499001  73.3954598  41.7315934 103.9258845  73.2811192  42.6409808
 102.7803500  72.9972082  41.6928107 103.5539433  59.4191363  48.7720684
 102.6402512  59.6495590  48.9402891 103.9832534  59.5029807  49.6234716
 103.3245891  67.6081255  51.2720578 102.6717341  67.8557163  50.6173030
 103.7026271  66.7945393  50.9383055 100.2853065  77.6440948  45.3748748
 100.4675460  76.8262604  45.8376500 101.1086051  77.8608641  44.9373638
 100.6195230  76.5709134  42.6363796 101.1482997  76.0601588  42.0233959
 100.8823450  76.2551664  43.5009329  99.3733464  68.3501066  57.7586615
  98.6974101  68.2495196  58.4288990 100.1961098  68.1940280  58.2222612
  91.1212323  74.5873003  50.3799130  91.7065760  73.8416691  50.5127034
  90.9237162  74.8976960  51.2635794  93.9750978  77.6224250  45.3961572
  93.3061354  78.1070378  44.9125612  93.8363848  77.8693471  46.3104951
  85.7129978  67.1578603  49.1003573  85.7514077  66.6242194  49.8940691
  85.2070271  66.6313809  48.4814550  98.1156247  79.6567994  51.9944231
  98.6674555  79.8199615  52.7593316  98.4562440  80.2472432  51.3224256
  93.0920740  62.0043144  52.5966115  93.1562067  62.8657974  52.1843513
  93.0287860  61.3917145  51.8638474  92.5673013  64.0766276  56.2439150
  93.1945052  63.6943353  56.8576674  91.7100932  63.8580478  56.6094842
 102.9667121  74.4829251  57.8492885 103.5107025  75.0959210  57.3547840
 102.3853966  75.0408830  58.3659898  89.3438556  65.8842705  42.1757505
  89.6391997  64.9753384  42.1224558  88.4426591  65.8630445  41.8538507
 101.2524634  77.6049969  48.9807913 101.1275774  76.8039709  48.4718858
 101.9103725  78.0996163  48.4921883  92.8732803  63.9598702  48.1585053
  92.1519388  64.5734670  48.0192526  93.6626058  64.4956467  48.0801699
 103.3159543  75.4058989  50.6087463 102.3689878  75.2864341  50.5365790
 103.6642316  74.5181487  50.6913724  95.6759116  61.2953128  54.4325705
  96.1993518  61.5415425  55.1952014  95.4571449  62.1273163  54.0128842
  91.0726397  63.5656803  42.2996830  90.7439103  62.6854182  42.1171936
  91.4265768  63.5104472  43.1873219 100.3205976  75.2011706  46.8091815
 100.1730938  74.2728413  46.9899385 101.1459469  75.2231796  46.3248890
  94.1868220  63.8529773  42.6672307  94.5264293  64.3815694  41.9450916
  94.6340341  64.1910179  43.4430874 103.9240098  76.0240264  47.8956688
 104.8486645  75.8183126  47.7581139 103.7555401  75.7756666  48.8046029
  96.8811661  62.2366823  52.1175375  96.5408481  61.4374636  52.5196055
  96.1750667  62.5368534  51.5452209  97.5328133  59.3216136  50.5702698
  98.3554202  58.8476614  50.4481589  97.7766196  60.1006620  51.0701385
  96.1736367  62.3504394  40.8665600  96.8944730  62.7285647  40.3629317
  95.5501672  63.0693271  40.9700578 100.3167490  63.0549543  41.8023932
 100.5331105  63.9374181  41.5012761  99.8361557  62.6635757  41.0729574
  95.0566712  66.0135256  48.3794677  94.9111292  66.3275560  49.2718959
  94.5791915  66.6320157  47.8265576  96.9163095  63.0037804  48.4275567
  96.9024663  62.1078898  48.0907865  97.6335523  63.0108468  49.0613853
  98.7689225  63.4375145  50.4728694  98.5107003  64.3592215  50.4713024
  98.2374266  63.0405579  51.1629158 103.7135414  76.5425932  43.2518779
 103.8872292  75.9772354  42.4992632 104.2064305  77.3426827  43.0698269
  89.5312374  68.5540601  51.3182338  88.9865842  69.3300409  51.4502613
  90.4091724  68.9011405  51.1601460  96.3199990  61.8852185  43.6963137
  96.4415902  60.9568831  43.8954024  96.0302033  61.8990871  42.7841452
  99.1891181  59.5707095  46.8329857  99.2112878  59.6346428  45.8781836
  99.6059240  58.7311604  47.0270363 109.5674805  69.3062355  44.8709079
 110.0105951  68.5569680  44.4728202 108.6901315  69.2972491  44.4882811
 104.7010587  75.8592696  40.3515678 105.3961491  76.4799389  40.5702992
 105.0433737  75.0088047  40.6268056  90.3178396  67.6810497  54.2112495
  89.5760132  67.8293133  54.7977125  89.9971140  67.9418763  53.3479244
 106.6002010  73.3092402  41.8803008 107.1253334  73.6479674  41.1552328
 106.5124362  72.3739417  41.6966143  98.2622058  77.2226475  54.0092885
  98.5709185  76.9775622  54.8815585  99.0597540  77.4273114  53.5211755
  98.2842670  79.3764385  46.2398262  97.8447661  78.8840764  46.9331118
  99.0350787  78.8337353  45.9990337  90.7635009  75.5675926  46.2422890
  91.5893029  75.2679698  45.8621533  90.4129061  74.7983548  46.6912678
  95.7316543  74.9202394  48.3120563  95.1096552  74.2573099  48.0122791
  96.4021409  74.9463526  47.6294211  88.9643614  73.4862252  47.2011823
  88.1275523  73.0584427  47.0195825  88.9367260  73.6794696  48.1382614
  95.8041070  63.3984182  57.9053069  95.8529225  64.2746305  57.5230839
  96.3463584  62.8561575  57.3324713 106.2895916  73.9425305  57.1854206
 105.4991459  73.9249444  56.6458706 106.0529270  74.4813599  57.9403243
 106.4093791  70.7917772  54.4986935 106.4591796  70.6267779  55.4402458
 106.3007714  69.9245031  54.1084816  95.2930049  73.4706317  41.7879024
  95.4418170  74.1541782  41.1345697  96.0996493  73.4511408  42.3028480
 103.6997553  66.7748700  55.8146242 104.6007416  66.6355165  55.5230239
 103.7745528  66.9403155  56.7544419  98.0340358  64.1515555  54.6599428
  97.1643668  64.4449121  54.3882017  98.2699839  64.7356000  55.3806692
 107.9111988  73.2114713  54.7428956 107.6196796  73.5744694  55.5792417
 107.2984119  72.4981722  54.5642289 109.1107670  70.7767593  47.2631527
 109.9454561  71.2157397  47.4269087 109.2466799  70.3006246  46.4439772
 106.1599176  68.3347328  53.2109014 106.6353297  68.5274974  52.4027866
 105.2364741  68.3906514  52.9652398  93.0482682  69.4971495  42.7940093
  92.8028724  68.5933825  42.9920303  93.2178597  69.4988646  41.8519571
 100.7379392  60.3695171  52.1764848 101.2561336  61.1056198  51.8511337
 100.3834525  60.6759165  53.0111607  92.3178330  65.2299853  40.2926254
  91.6247575  65.3044208  39.6366290  92.0730082  64.4660196  40.8147771
 100.9891986  56.7895454  47.6965745 101.2693740  56.1218643  48.3226171
 101.7742593  56.9824550  47.1840409  98.7925455  75.9654448  39.2590771
  98.2199422  76.5844635  38.8061243  99.3658249  76.5153810  39.7930693
 104.8600845  65.2113088  51.4437320 105.8118268  65.3111186  51.4649544
 104.6904295  64.4191357  51.9535404 102.8815224  62.2968671  51.6296721
 102.2865156  62.5773684  50.9343210 102.5964921  62.7862572  52.4013462
 102.0122715  76.2491598  40.3899354 102.9453388  76.1837160  40.5932229
 101.9245928  77.0847865  39.9313886 104.6410731  75.5657468  37.3503301
 104.5624363  75.2317332  38.2439059 105.4620398  76.0579236  37.3494773
 107.3388923  68.4319208  50.5579620 107.3065243  67.4935208  50.7439304
 107.9489546  68.5103244  49.8245445  99.1772253  67.3015261  36.6006824
 100.1231358  67.1721469  36.6695242  98.7986498  66.5629923  37.0776252
 107.4883411  65.2230251  50.6037903 106.9722460  64.4388708  50.4167832
 108.3723360  64.8948968  50.7684422 105.1494138  58.9671267  46.5633716
 104.9518959  58.6586355  47.4477048 105.7593844  59.6932906  46.6931645
 113.1565472  69.4935215  49.6985657 113.8868861  69.2320503  50.2593360
 112.5472418  68.7563936  49.7387724 111.2380770  67.6343077  50.2960108
 110.5113933  67.4999042  49.6876599 110.8228056  67.9419906  51.1016826
  99.0610946  71.3533007  58.0607481  99.9813955  71.5311606  58.2547527
  99.0260529  70.4089052  57.9087180  97.3615171  65.2265237  36.5361709
  96.4546626  64.9298350  36.6124423  97.6391152  64.9295055  35.6695995
  88.2793111  66.5471600  46.9860755  87.9595895  65.6936909  46.6935129
  87.7326539  66.7620179  47.7418723  92.0573019  69.2634041  50.7030262
  92.2759028  70.1951149  50.7218296  92.4698792  68.9042016  51.4885066
  98.9777236  59.7702127  42.6905950  98.1677965  59.4249212  43.0661196
  99.6661653  59.4609670  43.2793562 100.9067785  58.8480174  44.3130247
 101.4598823  59.2675627  44.9720270 101.1437871  57.9215922  44.3553203
  96.9300884  64.8367247  60.0933011  96.8297611  65.7861604  60.0245102
  96.7122426  64.5085486  59.2209081  96.1313955  62.0852172  36.6773688
  96.9933119  62.4107071  36.9369506  96.3164299  61.2983668  36.1646754
  88.1481371  70.1674512  48.9553877  87.4544842  69.7528465  48.4423831
  88.8954362  70.2095048  48.3587296 104.2846592  60.9580699  43.8208911
 103.7045261  61.6165503  43.4386964 104.0182524  60.1358043  43.4096329
 102.7350158  60.3585756  46.0230232 103.2349936  60.4702291  45.2144550
 103.3785766  60.0546809  46.6631040  96.7932154  68.2664386  58.9098072
  96.3099236  69.0664746  59.1161962  96.8793093  68.2772331  57.9565516
  90.0618114  70.0992766  46.8319892  90.0388802  70.1980453  45.8801775
  90.3718750  70.9457917  47.1537058  92.7205491  72.1568921  50.9466506
  93.6748745  72.1252863  50.8796438  92.5218015  71.6959544  51.7616732
  93.3104874  70.7270037  53.5137304  94.1297763  71.2214115  53.5372141
  93.5841681  69.8102005  53.4854871 103.0671470  63.1180789  42.8765259
 102.1797325  63.4030440  42.6585454 103.4825459  62.9574552  42.0292536
 106.4186006  63.1427310  46.5919599 107.1946396  63.6323763  46.8644216
 105.6934140  63.5685364  47.0491468 108.8558564  63.8554929  47.6493539
 109.4503055  63.6150665  46.9386848 108.9285148  63.1362060  48.2767076
  91.0755720  77.6988540  47.9636704  90.9410188  76.9388941  47.3974702
  90.6587782  78.4229440  47.4965493 102.2114683  72.8825464  36.9713279
 102.9150533  73.0875466  37.5870935 101.4877332  73.4502226  37.2362363
 103.0412493  68.6335325  43.0915550 102.9847695  69.0903876  42.2523182
 103.5940836  67.8726010  42.9138392 106.8517299  64.4225057  43.9165669
 106.5954234  64.0221693  44.7473877 106.2270167  65.1368851  43.7915808
 111.1629637  67.1621130  46.4236961 110.6029195  67.2314319  47.1968523
 110.5573141  66.9862115  45.7036457  94.2324846  78.5957857  48.1755147
  94.1157230  79.5403290  48.0733837  93.4117292  78.2931419  48.5640946
 104.1201381  73.3207993  39.0211739 104.9546985  72.8889191  38.8389214
 103.9585724  73.1490007  39.9488634 103.7747273  69.8240106  40.3868079
 103.7196077  69.6584378  39.4456523 103.1493328  70.5316139  40.5430268
  88.5639788  65.0608171  54.2129501  89.2098651  64.5507125  54.7016726
  88.3556939  65.7976852  54.7872926 101.0893180  72.1289018  59.7121642
 101.9584340  72.3029670  59.3508276 100.6099931  72.9483435  59.5897371
  97.0843398  59.3248215  39.9653397  97.0722068  60.2690055  40.1221668
  97.9766820  59.1418361  39.6712858  95.2579360  79.2486119  51.3911075
  96.1606607  79.2809729  51.7077570  95.0316730  78.3186570  51.4057411
  97.0132962  78.0017106  48.0521154  96.0628593  78.0018967  47.9385526
  97.3165448  77.2549840  47.5357188 100.8995518  55.9190992  44.2199334
 100.1327914  55.3649479  44.3656016 101.3106223  55.9912861  45.0813486
  92.9037279  62.2075788  58.3104515  93.7668740  61.8512593  58.5207840
  92.3302689  61.8689683  58.9979919 112.7485656  83.8377644  49.1166916
 113.3864066  83.7184391  48.4130256 112.6306499  84.7858488  49.1754868
 109.5575362  83.7905072  49.0528441 109.2193874  83.6746137  48.1648976
 110.4265130  83.3896237  49.0329447 105.4162178  85.6440549  45.0425332
 104.8527043  85.5530486  44.2741620 105.3014573  84.8240453  45.5227824
 110.0395145  84.9439924  55.0114646 110.0283786  84.5492722  54.1395150
 110.2015784  84.2105997  55.6048418 102.9626610  87.1391740  47.8809552
 103.7547902  86.7982565  47.4655852 103.2023260  87.2486715  48.8011706
 110.9961736  89.3111516  40.3539797 110.3449716  89.8965597  39.9673811
 111.7906099  89.8417711  40.4134834 104.9217364  86.4000653  40.7526931
 105.6948240  85.8529641  40.6139807 105.2742762  87.2644903  40.9641393
 106.7602406  87.7277036  53.9593830 106.4692272  88.6322667  53.8440497
 107.3959390  87.7693563  54.6737900 107.6858613  85.1053884  50.5495190
 108.2822185  84.8809907  49.8352153 107.7433585  84.3638630  51.1520638
 107.2583641  82.5593320  38.3845381 107.5109162  82.0374841  37.6228844
 106.3208200  82.3959465  38.4872065 112.3026924  81.5629098  46.1920124
 113.0890013  81.1448521  45.8410541 112.5665629  82.4675190  46.3601773
 112.4737002  87.0001948  40.8908781 111.8382835  87.0736575  41.6029686
 112.1434408  87.5895547  40.2127860 117.7035351  81.5004331  47.0953103
 118.4360523  80.9303548  47.3290932 116.9474707  81.1125932  47.5359608
 106.9779930  84.4621426  40.5869756 106.8616188  83.7866329  41.2550840
 107.0882190  83.9753799  39.7701909 109.3211471  83.9231573  44.2916445
 108.9569678  83.3962194  45.0029367 110.1778587  83.5330042  44.1182931
 115.2260772  75.2125905  51.5547711 114.8944096  76.0821316  51.3308926
 114.6306385  74.8962189  52.2341742 108.9616958  78.9521472  39.2877794
 109.1291360  79.8201709  39.6548265 108.7714127  79.1148754  38.3639083
 111.7192291  87.4138451  50.9543624 111.4193014  88.3163490  50.8459431
 111.3743351  87.1470634  51.8064777 105.1704773  83.8652248  46.9880329
 104.2455269  83.7328462  47.1958020 105.4189186  84.6446467  47.4850271
 115.1189435  79.9320991  48.6341061 114.2106312  79.8636400  48.3399822
 115.0677031  80.4092936  49.4622887 108.9406179  81.4079130  40.2724461
 108.8205804  81.8536181  41.1109941 108.2458767  81.7564447  39.7137999
 102.5313584  83.5085522  47.8224118 102.6605965  83.7620001  48.7363529
 101.8511035  84.1013230  47.5028773 106.7013071  94.1782772  43.9214592
 106.6237101  95.1290597  44.0003072 106.0974715  93.8328644  44.5789518
 109.1930301  81.3510637  56.5775959 108.4163635  81.9104557  56.5678823
 109.8320864  81.8367420  57.0990829 116.9851081  78.1337430  50.4118935
 116.3425462  78.4269963  49.7658730 116.4806010  78.0190350  51.2172132
 114.6391245  81.8800603  41.1004795 115.5509101  82.1127990  40.9252492
 114.1300892  82.4637647  40.5379873 107.4476673  84.1596090  56.1393926
 108.1891357  84.6981134  55.8628749 106.7413659  84.7862379  56.2965478
 112.9232013  86.3025231  54.7366087 113.3315369  85.8607641  53.9920720
 112.2009274  85.7277858  54.9900280 109.2763083  81.2397838  52.1099644
 110.1224278  81.6637251  52.2534293 109.2161720  80.5831462  52.8038207
 113.2460827  86.8626421  48.4918376 112.6169690  87.0272136  47.7894444
 112.8586489  87.2768031  49.2629340 117.1250059  87.7980859  45.8462740
 116.4401097  88.1779761  45.2959773 117.2093909  88.4076186  46.5794688
 112.4262528  78.9002206  53.7680818 112.1823460  79.6544266  53.2315093
 112.7022459  79.2787554  54.6028065 114.3800991  85.4440818  52.4458083
 114.5917886  86.0872578  51.7692464 114.3330739  84.6103135  51.9780013
 111.9827220  78.0558639  49.3494656 111.1211699  78.3539893  49.6411393
 112.0089654  78.2729038  48.4175688 108.7988789  86.6000830  45.7568461
 109.2627135  86.8788533  44.9673084 108.5345587  85.6984274  45.5741552
 105.6912870  86.1472311  48.6948224 106.2614227  86.5759579  48.0565709
 106.2820982  85.8654896  49.3932410 107.7357675  82.7223982  42.5658026
 108.4381719  83.1745026  43.0331953 107.4038304  82.0807801  43.1937919
 106.1838037  81.3135739  56.9409236 105.5536697  81.9952019  57.1744633
 106.0774125  81.2018820  55.9962374 101.4783009  80.9807535  47.8675160
 100.6882063  81.2365063  47.3915271 101.9694257  81.7955872  47.9727200
 115.4946819  88.3212774  50.6180441 116.3164263  87.9192961  50.3363122
 115.4909222  88.2181008  51.5696557 103.4297755  81.3452114  44.8258637
 102.6328918  81.4570808  45.3442132 103.2023347  81.6838766  43.9599527
 109.2603422  87.8696817  52.7741151 109.3247855  88.3317224  53.6099323
 108.5514346  87.2394182  52.9023461  99.7620712  81.2338025  50.2990151
 100.0128751  82.1185035  50.5647727 100.2980261  81.0542627  49.5265243
 108.9751440  89.5364925  42.6420132 108.8397115  90.3816460  43.0704979
 109.5161252  89.7384202  41.8786065 105.4618780  75.6156504  59.3034487
 105.0685725  75.0622703  59.9782131 106.2784920  75.9267083  59.6941004
 102.4280837  87.0540363  43.2148057 102.9405358  87.8483613  43.3653621
 103.0803550  86.3566653  43.1481658 104.2375722  90.1706119  45.2970810
 104.4142350  91.0924084  45.1091794 105.0332556  89.8564538  45.7265190
 108.3786741  77.0314383  56.8954743 109.1196454  77.6321537  56.8159206
 108.6104663  76.2892021  56.3372786 103.5228079  82.2170751  55.1732973
 103.4081594  81.3156008  55.4740072 102.6672596  82.4634447  54.8217790
 110.6019916  90.1588491  56.7720474 110.1583770  89.3724870  56.4541378
 111.2637130  90.3467642  56.1064364 105.3607037  91.6884293  51.2981152
 105.9114463  91.5601356  50.5258146 104.5218513  91.9879182  50.9476045
 112.7001154  90.4391291  54.8001875 112.6819630  91.2600172  54.3082144
 113.6221074  90.3145366  55.0252016 109.1574209  87.9535420  55.6425383
 109.6902545  87.1923709  55.4124691 108.6288290  87.6609072  56.3849538
 112.3243903  73.0595486  51.1719025 111.9808173  73.9497128  51.0958136
 112.6922866  72.8697144  50.3088610 100.3929754  85.3829017  43.9907627
 101.2304976  85.7926025  43.7741335 100.5708022  84.4428459  43.9607821
 112.2894186  83.0504098  39.6791460 111.7740810  83.8208702  39.9179848
 112.0171495  82.3769234  40.3024522 109.8741297  77.8953798  44.7376699
 109.0182894  77.5060649  44.5582337 110.2868249  77.9745759  43.8776484
 111.4040444  75.4300142  49.1368258 110.9005239  75.3930277  48.3236064
 111.6971051  76.3392884  49.1964915 107.6483330  75.5138871  48.1434440
 108.5136327  75.3181680  47.7840329 107.7160839  75.2849223  49.0703797
 117.2628460  85.8036452  41.6144634 116.4857903  85.4647612  41.1699796
 117.9419941  85.8089075  40.9399599 112.0780489  80.9231190  41.5051241
 111.7730625  81.2377339  42.3561384 113.0310932  81.0012610  41.5478574
 110.5226921  87.0821413  43.1544195 109.9948283  86.3474173  42.8417433
 110.0214424  87.8596089  42.9084164 115.5019767  85.2770433  48.2711242
 114.8443442  85.9669695  48.3591370 116.3060166  85.6666865  48.6145228
 105.2545649  77.7441079  45.5150807 105.8289401  77.5216261  44.7824000
 105.8416631  77.8129774  46.2679408 114.3125226  83.6314806  46.3215183
 114.8257108  84.2644798  46.8236893 114.9626450  83.0316002  45.9558543
 105.5815236  79.7745540  39.5346692 104.7452548  80.1120227  39.8555967
 105.4420006  79.6394520  38.5973829 107.5568317  74.6182328  44.2425876
 106.9032729  74.3031345  43.6182491 107.5148791  73.9958069  44.9685699
 108.6679521  84.9001623  36.1579168 107.7606583  84.6690877  36.3570317
 109.1650553  84.1039242  36.3453150 111.5747600  93.6099130  39.0775854
 110.9009299  93.9130827  39.6860812 111.9613422  94.4128211  38.7281312
 110.7906057  81.1064262  48.5673524 109.8728618  81.3279209  48.4095212
 111.2066201  81.1810572  47.7085231 111.5741105  82.5055677  43.6976204
 112.3212924  83.0177075  43.3883326 111.8432694  82.1839730  44.5580598
 109.8467755  85.0014218  40.6803158 108.9378974  84.7173251  40.7775628
 109.8762839  85.4213297  39.8206465 115.0787022  88.6120808  44.4494326
 114.6249349  87.7711717  44.5059516 114.4480989  89.2482206  44.7869106
 114.0219942  79.5412794  45.6794993 113.2842699  79.0290180  46.0105236
 114.2746715  79.1013175  44.8678270 113.5219961  90.4497304  45.3844144
 113.8142936  91.0102361  44.6656510 114.0318582  90.7425865  46.1397303
 114.1231569  72.3189046  46.2736763 114.4290446  71.4586409  45.9862678
 114.8484174  72.9106666  46.0735757 100.4155925  82.7219732  44.6618361
 100.2180325  82.1289093  43.9369427  99.8602589  82.4171942  45.3794299
 108.3952649  82.6142839  46.7812954 108.4501259  81.6616675  46.7055430
 107.5843851  82.7702278  47.2654252 109.5443843  86.5422962  38.0191237
 109.1063273  85.8258821  37.5596874 110.2854284  86.7699077  37.4576328
 106.3345009  81.2319898  44.5403333 105.5212874  81.5314069  44.9468525
 106.8304003  80.8375587  45.2577815 108.4853587  91.2277655  46.4737597
 108.4429765  91.4538502  45.5446129 109.4016286  90.9941030  46.6223398
 111.9319220  81.6961723  53.3718227 112.2868608  81.9233196  54.2312692
 112.5791352  82.0280100  52.7495482 117.6616957  84.8180159  44.0767556
 117.5234856  85.0081755  43.1488745 117.3053176  85.5799542  44.5335607
 105.8259084  78.8038254  50.1564568 106.4658463  78.6627013  49.4587531
 104.9936614  78.5172767  49.7803170 117.6886337  86.8856686  49.0878827
 118.1222844  86.7931975  49.9361881 118.4017918  86.8614186  48.4498843
 106.6019387  88.1040684  46.2699560 107.3959986  87.6091004  46.0682135
 105.8911080  87.5758547  45.9067266 111.4214232  90.4858780  50.6211928
 111.4751254  91.0549716  51.3889644 110.5529013  90.6560665  50.2565965
 102.9102151  82.2483766  42.3459313 101.9799739  82.1868222  42.5629275
 103.0059623  81.7259719  41.5495954 102.8287700  78.7738579  44.9337554
 103.0894517  79.6883912  44.8246715 103.6504872  78.3063021  45.0834167
 104.3012625  80.1876336  52.1036379 104.9735679  79.9793698  51.4549028
 103.4742412  79.9898422  51.6641611 118.5501887  86.9280386  51.6211712
 118.7437777  87.8326197  51.8670987 118.4502505  86.4687806  52.4550297
 110.2038197  76.8138277  54.1202040 109.5566112  77.5128227  54.0266516
 110.9739213  77.2474421  54.4878288 113.6116995  87.0787129  57.1952593
 113.4602502  86.8497681  56.2782677 113.6021675  88.0357731  57.2083938
 110.3802332  84.6519042  52.1798860 111.3094392  84.8030202  52.0067827
 109.9593362  84.7403063  51.3247506 109.1790663  88.6769706  49.9497397
 109.0401749  88.3088491  50.8223335 108.3905260  89.1917346  49.7781355
 109.7738815  93.7778803  41.2922934 109.9490571  93.3066846  42.1068556
 109.0871603  94.4044569  41.5204194 110.7295879  88.0551309  47.3386235
 110.3945711  88.0152079  48.2343885 110.2299824  87.3896025  46.8656645
 104.7040123  83.4618939  52.8638816 104.5659921  82.7299178  53.4650355
 105.6145046  83.3727839  52.5823004 113.6655070  85.4007343  37.6123295
 113.0484241  84.6754172  37.5156347 113.1971559  86.1616704  37.2690369
 107.3322423  83.1738898  52.3522496 108.0422042  82.5332091  52.3109114
 107.2891731  83.4251793  53.2748676 115.3209202  90.1106252  55.2729075
 115.2621748  89.4265472  54.6059658 115.7228720  90.8525242  54.8209701
 106.0451357  80.1604116  54.1718135 105.5088714  79.7094855  54.8239732
 105.4568066  80.2950025  53.4288600 104.3399901  96.9268166  48.0662794
 104.5796499  97.5586690  48.7441812 103.4969097  96.5756206  48.3528153
 105.4553616  79.6192768  36.7344599 104.5783082  79.4981568  36.3706846
 105.9311369  78.8278846  36.4823487 115.3226609  88.0745836  53.5043055
 114.4353388  87.7371757  53.6269453 115.8925160  87.3428867  53.7411820
  96.9755756  84.4069927  46.8286106  97.6626796  84.0931657  46.2407121
  96.8203885  85.3111292  46.5553357 101.7790478  79.2960124  51.2571130
 101.6948667  78.6885794  50.5221540 100.9573185  79.7869142  51.2580626
 108.8527763  92.7347288  50.4704298 108.7797934  93.5402260  50.9823602
 108.4105156  92.9339254  49.6452319 108.6417542  91.9719058  43.9807119
 107.8585064  92.5140738  44.0745344 109.3410287  92.4893038  44.3801361
 111.9514192  77.7813688  46.6241325 112.4482892  77.0283650  46.3042395
 111.1801174  77.8178004  46.0584534 119.8043950  83.4854053  48.2659616
 119.7933826  84.3678768  47.8953549 118.9361329  83.1325604  48.0714153
 111.3126446  92.6334122  52.6262456 112.0254418  93.2681587  52.5538358
 110.8216475  92.7297988  51.8102458 113.0343973  86.5385375  44.1979748
 112.1000252  86.6586837  44.0284452 113.2120641  85.6357841  43.9339758
 108.5349161  79.9231070  46.3513009 108.1646949  79.3702111  47.0393915
 109.0308254  79.3189204  45.7988009 116.4216524  82.3802694  44.7329782
 116.8876977  83.2130686  44.6590085 116.8724025  81.9147676  45.4375041
 106.3638360  90.3828566  53.4468027 107.0647819  91.0165048  53.5997422
 105.8933475  90.7243297  52.6863667 114.4892755  88.7246515  41.7315934
 114.7652599  88.6103110  42.6409808 113.6197254  88.3264000  41.6928107
 114.3933187  74.7483281  48.7720684 113.4796267  74.9787508  48.9402891
 114.8226289  74.8321725  49.6234716 114.1639646  82.9373173  51.2720578
 113.5111096  83.1849080  50.6173030 114.5420025  82.1237311  50.9383055
 111.1246819  92.9732866  45.3748748 111.3069214  92.1554522  45.8376500
 111.9479805  93.1900558  44.9373638 111.4588985  91.9001051  42.6363796
 111.9876751  91.3893506  42.0233959 111.7217205  91.5843581  43.5009329
 110.2127219  83.6792984  57.7586615 109.5367856  83.5787113  58.4288990
 111.0354853  83.5232198  58.2222612 101.9606078  89.9164921  50.3799130
 102.5459515  89.1708608  50.5127034 101.7630916  90.2268877  51.2635794
 104.8144733  92.9516168  45.3961572 104.1455108  93.4362296  44.9125612
 104.6757603  93.1985388  46.3104951  96.5523732  82.4870521  49.1003573
  96.5907832  81.9534111  49.8940691  96.0464025  81.9605726  48.4814550
 108.9550002  94.9859911  51.9944231 109.5068310  95.1491533  52.7593316
 109.2956195  95.5764349  51.3224256 103.9314495  77.3335061  52.5966115
 103.9955821  78.1949892  52.1843513 103.8681615  76.7209063  51.8638474
 103.4066767  79.4058194  56.2439150 104.0338806  79.0235271  56.8576674
 102.5494686  79.1872396  56.6094842 113.8060876  89.8121169  57.8492885
 114.3500780  90.4251127  57.3547840 113.2247721  90.3700747  58.3659898
 100.1832310  81.2134623  42.1757505 100.4785751  80.3045301  42.1224558
  99.2820346  81.1922362  41.8538507 112.0918389  92.9341887  48.9807913
 111.9669528  92.1331627  48.4718858 112.7497480  93.4288080  48.4921883
 103.7126557  79.2890619  48.1585053 102.9913143  79.9026587  48.0192526
 104.5019813  79.8248384  48.0801699 114.1553297  90.7350907  50.6087463
 113.2083633  90.6156258  50.5365790 114.5036070  89.8473405  50.6913724
 106.5152871  76.6245046  54.4325705 107.0387272  76.8707343  55.1952014
 106.2965204  77.4565081  54.0128842 101.9120152  78.8948721  42.2996830
 101.5832858  78.0146100  42.1171936 102.2659522  78.8396389  43.1873219
 111.1599730  90.5303623  46.8091815 111.0124693  89.6020331  46.9899385
 111.9853224  90.5523714  46.3248890 105.0261975  79.1821690  42.6672307
 105.3658047  79.7107612  41.9450916 105.4734095  79.5202096  43.4430874
 114.7633852  91.3532182  47.8956688 115.6880400  91.1475043  47.7581139
 114.5949156  91.1048583  48.8046029 107.7205416  77.5658741  52.1175375
 107.3802236  76.7666554  52.5196055 107.0144422  77.8660452  51.5452209
 108.3721887  74.6508054  50.5702698 109.1947957  74.1768532  50.4481589
 108.6159951  75.4298537  51.0701385 107.0130122  77.6796312  40.8665600
 107.7338484  78.0577565  40.3629317 106.3895426  78.3985189  40.9700578
 111.1561245  78.3841461  41.8023932 111.3724859  79.2666099  41.5012761
 110.6755312  77.9927674  41.0729574 105.8960466  81.3427174  48.3794677
 105.7505047  81.6567477  49.2718959 105.4185670  81.9612074  47.8265576
 107.7556849  78.3329722  48.4275567 107.7418418  77.4370815  48.0907865
 108.4729277  78.3400386  49.0613853 109.6082980  78.7667062  50.4728694
 109.3500758  79.6884133  50.4713024 109.0768020  78.3697497  51.1629158
 114.5529169  91.8717849  43.2518779 114.7266046  91.3064272  42.4992632
 115.0458060  92.6718744  43.0698269 100.3706128  83.8832519  51.3182338
  99.8259596  84.6592327  51.4502613 101.2485478  84.2303323  51.1601460
 107.1593745  77.2144102  43.6963137 107.2809656  76.2860749  43.8954024
 106.8695787  77.2282788  42.7841452 110.0284935  74.8999013  46.8329857
 110.0506632  74.9638346  45.8781836 110.4452994  74.0603522  47.0270363
 120.4068560  84.6354272  44.8709079 120.8499706  83.8861598  44.4728202
 119.5295070  84.6264409  44.4882811 115.5404341  91.1884614  40.3515678
 116.2355246  91.8091307  40.5702992 115.8827491  90.3379965  40.6268056
 101.1572150  83.0102415  54.2112495 100.4153886  83.1585050  54.7977125
 100.8364894  83.2710680  53.3479244 117.4395764  88.6384319  41.8803008
 117.9647088  88.9771592  41.1552328 117.3518117  87.7031335  41.6966143
 109.1015813  92.5518393  54.0092885 109.4102939  92.3067540  54.8815585
 109.8991295  92.7565032  53.5211755 109.1236425  94.7056303  46.2398262
 108.6841415  94.2132681  46.9331118 109.8744542  94.1629270  45.9990337
 101.6028764  90.8967844  46.2422890 102.4286784  90.5971615  45.8621533
 101.2522816  90.1275466  46.6912678 106.5710297  90.2494312  48.3120563
 105.9490306  89.5865017  48.0122791 107.2415164  90.2755444  47.6294211
  99.8037369  88.8154170  47.2011823  98.9669277  88.3876344  47.0195825
  99.7761014  89.0086613  48.1382614 106.6434825  78.7276100  57.9053069
 106.6922980  79.6038223  57.5230839 107.1857339  78.1853493  57.3324713
 117.1289670  89.2717223  57.1854206 116.3385214  89.2541362  56.6458706
 116.8923025  89.8105517  57.9403243 117.2487545  86.1209689  54.4986935
 117.2985550  85.9559697  55.4402458 117.1401469  85.2536948  54.1084816
 106.1323804  88.7998235  41.7879024 106.2811924  89.4833700  41.1345697
 106.9390247  88.7803325  42.3028480 114.5391308  82.1040617  55.8146242
 115.4401170  81.9647082  55.5230239 114.6139282  82.2695072  56.7544419
 108.8734113  79.4807472  54.6599428 108.0037422  79.7741038  54.3882017
 109.1093593  80.0647917  55.3806692 118.7505742  88.5406631  54.7428956
 118.4590550  88.9036611  55.5792417 118.1377873  87.8273639  54.5642289
 119.9501424  86.1059511  47.2631527 120.7848316  86.5449315  47.4269087
 120.0860553  85.6298164  46.4439772 116.9992930  83.6639246  53.2109014
 117.4747052  83.8566892  52.4027866 116.0758496  83.7198431  52.9652398
 103.8876437  84.8263413  42.7940093 103.6422479  83.9225743  42.9920303
 104.0572351  84.8280563  41.8519571 111.5773147  75.6987089  52.1764848
 112.0955091  76.4348116  51.8511337 111.2228280  76.0051082  53.0111607
 103.1572084  80.5591770  40.2926254 102.4641329  80.6336125  39.6366290
 102.9123836  79.7952114  40.8147771 111.8285741  72.1187372  47.6965745
 112.1087495  71.4510561  48.3226171 112.6136348  72.3116467  47.1840409
 109.6319209  91.2946366  39.2590771 109.0593177  91.9136553  38.8061243
 110.2052003  91.8445727  39.7930693 115.6994599  80.5405006  51.4437320
 116.6512022  80.6403103  51.4649544 115.5298050  79.7483274  51.9535404
 113.7208979  77.6260589  51.6296721 113.1258911  77.9065602  50.9343210
 113.4358675  78.1154490  52.4013462 112.8516469  91.5783516  40.3899354
 113.7847142  91.5129077  40.5932229 112.7639682  92.4139783  39.9313886
 115.4804486  90.8949386  37.3503301 115.4018117  90.5609250  38.2439059
 116.3014153  91.3871154  37.3494773 118.1782677  83.7611125  50.5579620
 118.1458997  82.8227126  50.7439304 118.7883301  83.8395162  49.8245445
 110.0166008  82.6307178  36.6006824 110.9625113  82.5013386  36.6695242
 109.6380253  81.8921840  37.0776252 118.3277166  80.5522169  50.6037903
 117.8116214  79.7680625  50.4167832 119.2117114  80.2240885  50.7684422
 115.9887892  74.2963184  46.5633716 115.7912714  73.9878273  47.4477048
 116.5987598  75.0224823  46.6931645 109.9004700  86.6824924  58.0607481
 110.8207710  86.8603523  58.2547527 109.8654284  85.7380970  57.9087180
 108.2008925  80.5557155  36.5361709 107.2940381  80.2590267  36.6124423
 108.4784906  80.2586973  35.6695995  99.1186865  81.8763518  46.9860755
  98.7989650  81.0228826  46.6935129  98.5720294  82.0912096  47.7418723
 102.8966773  84.5925959  50.7030262 103.1152783  85.5243067  50.7218296
 103.3092547  84.2333934  51.4885066 109.8170991  75.0994044  42.6905950
 109.0071719  74.7541129  43.0661196 110.5055408  74.7901588  43.2793562
 111.7461539  74.1772091  44.3130247 112.2992578  74.5967545  44.9720270
 111.9831625  73.2507839  44.3553203 107.7694638  80.1659165  60.0933011
 107.6691365  81.1153522  60.0245102 107.5516180  79.8377404  59.2209081
 106.9707710  77.4144090  36.6773688 107.8326874  77.7398988  36.9369506
 107.1558054  76.6275586  36.1646754  98.9875125  85.4966430  48.9553877
  98.2938597  85.0820382  48.4423831  99.7348116  85.5386966  48.3587296
 115.1240346  76.2872616  43.8208911 114.5439015  76.9457420  43.4386964
 114.8576279  75.4649961  43.4096329 113.5743913  75.6877674  46.0230232
 114.0743691  75.7994209  45.2144550 114.2179521  75.3838727  46.6631040
 107.6325908  83.5956304  58.9098072 107.1492990  84.3956664  59.1161962
 107.7186847  83.6064249  57.9565516 100.9011868  85.4284683  46.8319892
 100.8782556  85.5272371  45.8801775 101.2112505  86.2749834  47.1537058
 103.5599246  87.4860838  50.9466506 104.5142499  87.4544781  50.8796438
 103.3611769  87.0251462  51.7616732 104.1498628  86.0561954  53.5137304
 104.9691517  86.5506033  53.5372141 104.4235436  85.1393923  53.4854871
 113.9065224  78.4472707  42.8765259 113.0191079  78.7322357  42.6585454
 114.3219213  78.2866470  42.0292536 117.2579760  78.4719228  46.5919599
 118.0340150  78.9615680  46.8644216 116.5327895  78.8977282  47.0491468
 119.6952319  79.1846847  47.6493539 120.2896810  78.9442583  46.9386848
 119.7678903  78.4653978  48.2767076 101.9149475  93.0280458  47.9636704
 101.7803943  92.2680859  47.3974702 101.4981537  93.7521358  47.4965493
 113.0508438  88.2117381  36.9713279 113.7544288  88.4167384  37.5870935
 112.3271086  88.7794143  37.2362363 113.8806248  83.9627243  43.0915550
 113.8241449  84.4195794  42.2523182 114.4334590  83.2017927  42.9138392
 117.6911054  79.7516975  43.9165669 117.4347988  79.3513610  44.7473877
 117.0663922  80.4660769  43.7915808 105.0718601  93.9249775  48.1755147
 104.9550985  94.8695207  48.0733837 104.2511047  93.6223336  48.5640946
 114.9595135  88.6499911  39.0211739 115.7940739  88.2181109  38.8389214
 114.7979478  88.4781924  39.9488634 114.6141027  85.1532024  40.3868079
 114.5589831  84.9876295  39.4456523 113.9887083  85.8608057  40.5430268
  99.4033542  80.3900088  54.2129501 100.0492406  79.8799042  54.7016726
  99.1950693  81.1268770  54.7872926 111.9286934  87.4580936  59.7121642
 112.7978094  87.6321588  59.3508276 111.4493686  88.2775353  59.5897371
 107.9237153  74.6540133  39.9653397 107.9115823  75.5981973  40.1221668
 108.8160575  74.4710278  39.6712858 106.0973115  94.5778037  51.3911075
 107.0000361  94.6101647  51.7077570 105.8710485  93.6478488  51.4057411
 107.8526717  93.3309023  48.0521154 106.9022348  93.3310885  47.9385526
 108.1559203  92.5841758  47.5357188 111.7389272  71.2482910  44.2199334
 110.9721668  70.6941396  44.3656016 112.1499977  71.3204778  45.0813486
 103.7431033  77.5367705  58.3104515 104.6062495  77.1804510  58.5207840
 103.1696444  77.1981600  58.9979919 120.3969116  99.1196990  49.0528441
 120.0587628  99.0038055  48.1648976 121.2658885  98.7188155  49.0329447
 116.2555932 100.9732466  45.0425332 115.6920797 100.8822403  44.2741620
 116.1408327 100.1532371  45.5227824 120.8788899 100.2731842  55.0114646
 120.8677540  99.8784640  54.1395150 121.0409539  99.5397914  55.6048418
 113.8020364 102.4683658  47.8809552 114.5941656 102.1274483  47.4655852
 114.0417014 102.5778633  48.8011706 115.7611118 101.7292571  40.7526931
 116.5341994 101.1821558  40.6139807 116.1136517 102.5936820  40.9641393
 117.5996161 103.0568953  53.9593830 117.3086027 103.9614584  53.8440497
 118.2353145 103.0985481  54.6737900 118.5252367 100.4345802  50.5495190
 119.1215940 100.2101824  49.8352153 118.5827339  99.6930547  51.1520638
 118.0977396  97.8885237  38.3845381 118.3502917  97.3666759  37.6228844
 117.1601955  97.7251383  38.4872065 117.8173685  99.7913343  40.5869756
 117.7009943  99.1158247  41.2550840 117.9275944  99.3045717  39.7701909
 120.1605226  99.2523490  44.2916445 119.7963433  98.7254111  45.0029367
 121.0172341  98.8621959  44.1182931 119.8010713  94.2813390  39.2877794
 119.9685115  95.1493626  39.6548265 119.6107882  94.4440672  38.3639083
 116.0098527  99.1944166  46.9880329 115.0849024  99.0620380  47.1958020
 116.2582940  99.9738385  47.4850271 119.7799933  96.7371047  40.2724461
 119.6599559  97.1828098  41.1109941 119.0852522  97.0856365  39.7137999
 113.3707338  98.8377439  47.8224118 113.4999719  99.0911918  48.7363529
 112.6904790  99.4305147  47.5028773 120.0324055  96.6802555  56.5775959
 119.2557389  97.2396475  56.5678823 120.6714618  97.1659338  57.0990829
 118.2870428  99.4888008  56.1393926 119.0285112 100.0273052  55.8628749
 117.5807413 100.1154297  56.2965478 120.1156837  96.5689755  52.1099644
 120.9618032  96.9929169  52.2534293 120.0555475  95.9123380  52.8038207
 119.6382544 101.9292747  45.7568461 120.1020889 102.2080450  44.9673084
 119.3739342 101.0276192  45.5741552 116.5306625 101.4764229  48.6948224
 117.1007982 101.9051497  48.0565709 117.1214737 101.1946813  49.3932410
 118.5751430  98.0515900  42.5658026 119.2775473  98.5036943  43.0331953
 118.2432058  97.4099718  43.1937919 117.0231791  96.6427656  56.9409236
 116.3930452  97.3243937  57.1744633 116.9167879  96.5310738  55.9962374
 112.3176764  96.3099452  47.8675160 111.5275818  96.5656981  47.3915271
 112.8088011  97.1247790  47.9727200 114.2691509  96.6744031  44.8258637
 113.4722672  96.7862726  45.3442132 114.0417101  97.0130684  43.9599527
 120.0997177 103.1988735  52.7741151 120.1641609 103.6609142  53.6099323
 119.3908101 102.5686100  52.9023461 110.6014467  96.5629943  50.2990151
 110.8522505  97.4476953  50.5647727 111.1374015  96.3834544  49.5265243
 116.3012534  90.9448422  59.3034487 115.9079480  90.3914621  59.9782131
 117.1178674  91.2559001  59.6941004 113.2674592 102.3832280  43.2148057
 113.7799112 103.1775530  43.3653621 113.9197305 101.6858571  43.1481658
 115.0769477 105.4998037  45.2970810 115.2536105 106.4216001  45.1091794
 115.8726310 105.1856456  45.7265190 119.2180495  92.3606301  56.8954743
 119.9590208  92.9613454  56.8159206 119.4498418  91.6183939  56.3372786
 114.3621833  97.5462668  55.1732973 114.2475348  96.6447926  55.4740072
 113.5066351  97.7926365  54.8217790 116.2000792 107.0176210  51.2981152
 116.7508217 106.8893274  50.5258146 115.3612268 107.3171099  50.9476045
 119.9967963 103.2827338  55.6425383 120.5296300 102.5215626  55.4124691
 119.4682044 102.9900990  56.3849538 111.2323509 100.7120935  43.9907627
 112.0698731 101.1217943  43.7741335 111.4101776  99.7720377  43.9607821
 120.7135052  93.2245716  44.7376699 119.8576648  92.8352566  44.5582337
 121.1262003  93.3037677  43.8776484 118.4877084  90.8430789  48.1434440
 119.3530081  90.6473598  47.7840329 118.5554593  90.6141141  49.0703797
 121.3620676 102.4113331  43.1544195 120.8342037 101.6766090  42.8417433
 120.8608178 103.1888007  42.9084164 116.0939403  93.0732997  45.5150807
 116.6683155  92.8508178  44.7824000 116.6810386  93.1421691  46.2679408
 116.4208990  95.1037458  39.5346692 115.5846303  95.4412144  39.8555967
 116.2813760  94.9686438  38.5973829 118.3962071  89.9474246  44.2425876
 117.7426483  89.6323263  43.6182491 118.3542545  89.3249986  44.9685699
 119.5073276 100.2293541  36.1579168 118.6000338  99.9982794  36.3570317
 120.0044308  99.4331160  36.3453150 120.6861509 100.3306136  40.6803158
 119.7772729 100.0465169  40.7775628 120.7156593 100.7505214  39.8206465
 111.2549680  98.0511650  44.6618361 111.0574080  97.4581011  43.9369427
 110.6996344  97.7463860  45.3794299 119.2346403  97.9434756  46.7812954
 119.2895013  96.9908593  46.7055430 118.4237605  98.0994195  47.2654252
 120.3837597 101.8714879  38.0191237 119.9457027 101.1550738  37.5596874
 121.1248038 102.0990994  37.4576328 117.1738763  96.5611816  44.5403333
 116.3606629  96.8605987  44.9468525 117.6697757  96.1667505  45.2577815
 116.6652838  94.1330172  50.1564568 117.3052217  93.9918931  49.4587531
 115.8330369  93.8464685  49.7803170 117.4413142 103.4332602  46.2699560
 118.2353740 102.9382922  46.0682135 116.7304834 102.9050465  45.9067266
 113.7495905  97.5775684  42.3459313 112.8193494  97.5160139  42.5629275
 113.8453377  97.0551637  41.5495954 113.6681454  94.1030497  44.9337554
 113.9288272  95.0175830  44.8246715 114.4898627  93.6354939  45.0834167
 115.1406380  95.5168254  52.1036379 115.8129433  95.3085616  51.4549028
 114.3136166  95.3190340  51.6641611 120.0184418 104.0061624  49.9497397
 119.8795504 103.6380408  50.8223335 119.2299014 104.5209263  49.7781355
 121.5689633 103.3843227  47.3386235 121.2339466 103.3443997  48.2343885
 121.0693579 102.7187943  46.8656645 115.5433877  98.7910857  52.8638816
 115.4053675  98.0591096  53.4650355 116.4538801  98.7019757  52.5823004
 118.1716178  98.5030816  52.3522496 118.8815796  97.8624008  52.3109114
 118.1285486  98.7543711  53.2748676 116.8845112  95.4896034  54.1718135
 116.3482469  95.0386772  54.8239732 116.2961820  95.6241943  53.4288600
 116.2947371  94.9484685  36.7344599 115.4176837  94.8273486  36.3706846
 116.7705124  94.1570764  36.4823487 107.8149511  99.7361845  46.8286106
 108.5020551  99.4223575  46.2407121 107.6597639 100.6403210  46.5553357
 112.6184233  94.6252042  51.2571130 112.5342422  94.0177711  50.5221540
 111.7966939  95.1161060  51.2580626 119.3742916  95.2522988  46.3513009
 119.0040703  94.6994029  47.0393915 119.8702008  94.6481122  45.7988009
 117.2032114 105.7120483  53.4468027 117.9041574 106.3456966  53.5997422
 116.7327229 106.0535215  52.6863667 112.7999832 105.2456838  50.3799130
 113.3853269 104.5000526  50.5127034 112.6024671 105.5560795  51.2635794
 107.3917487  97.8162438  49.1003573 107.4301586  97.2826029  49.8940691
 106.8857780  97.2897644  48.4814550 114.7708249  92.6626979  52.5966115
 114.8349576  93.5241810  52.1843513 114.7075369  92.0500981  51.8638474
 114.2460522  94.7350111  56.2439150 114.8732561  94.3527189  56.8576674
 113.3888441  94.5164313  56.6094842 111.0226065  96.5426541  42.1757505
 111.3179506  95.6337219  42.1224558 110.1214100  96.5214280  41.8538507
 114.5520312  94.6182537  48.1585053 113.8306897  95.2318505  48.0192526
 115.3413567  95.1540302  48.0801699 117.3546625  91.9536964  54.4325705
 117.8781027  92.1999260  55.1952014 117.1358958  92.7856998  54.0128842
 112.7513906  94.2240638  42.2996830 112.4226612  93.3438017  42.1171936
 113.1053277  94.1688307  43.1873219 115.8655729  94.5113608  42.6672307
 116.2051802  95.0399529  41.9450916 116.3127850  94.8494014  43.4430874
 118.5599170  92.8950659  52.1175375 118.2195990  92.0958472  52.5196055
 117.8538176  93.1952370  51.5452209 119.2115642  89.9799971  50.5702698
 120.0341711  89.5060449  50.4481589 119.4553705  90.7590455  51.0701385
 117.8523876  93.0088230  40.8665600 118.5732239  93.3869482  40.3629317
 117.2289181  93.7277106  40.9700578 116.7354221  96.6719092  48.3794677
 116.5898801  96.9859395  49.2718959 116.2579424  97.2903992  47.8265576
 118.5950604  93.6621640  48.4275567 118.5812172  92.7662733  48.0907865
 119.3123032  93.6692304  49.0613853 120.4476734  94.0958980  50.4728694
 120.1894512  95.0176051  50.4713024 119.9161775  93.6989415  51.1629158
 111.2099883  99.2124436  51.3182338 110.6653351  99.9884244  51.4502613
 112.0879233  99.5595241  51.1601460 117.9987499  92.5436020  43.6963137
 118.1203411  91.6152666  43.8954024 117.7089542  92.5574706  42.7841452
 120.8678690  90.2290931  46.8329857 120.8900387  90.2930264  45.8781836
 121.2846749  89.3895439  47.0270363 111.9965905  98.3394333  54.2112495
 111.2547641  98.4876968  54.7977125 111.6758649  98.6002598  53.3479244
 112.4422518 106.2259761  46.2422890 113.2680538 105.9263533  45.8621533
 112.0916570 105.4567384  46.6912678 117.4104052 105.5786229  48.3120563
 116.7884061 104.9156934  48.0122791 118.0808918 105.6047361  47.6294211
 110.6431123 104.1446088  47.2011823 109.8063032 103.7168262  47.0195825
 110.6154769 104.3378531  48.1382614 117.4828579  94.0568017  57.9053069
 117.5316734  94.9330140  57.5230839 118.0251093  93.5145411  57.3324713
 116.9717558 104.1290153  41.7879024 117.1205679 104.8125617  41.1345697
 117.7784002 104.1095243  42.3028480 119.7127867  94.8099390  54.6599428
 118.8431177  95.1032956  54.3882017 119.9487348  95.3939835  55.3806692
 114.7270191 100.1555330  42.7940093 114.4816233  99.2517660  42.9920303
 114.8966106 100.1572481  41.8519571 113.9965839  95.8883688  40.2926254
 113.3035084  95.9628043  39.6366290 113.7517591  95.1244032  40.8147771
 119.0402680  95.8849072  36.5361709 118.1334135  95.5882185  36.6124423
 119.3178661  95.5878890  35.6695995 109.9580620  97.2055436  46.9860755
 109.6383404  96.3520744  46.6935129 109.4114048  97.4204014  47.7418723
 113.7360528  99.9217877  50.7030262 113.9546537 100.8534985  50.7218296
 114.1486301  99.5625851  51.4885066 120.6564745  90.4285962  42.6905950
 119.8465474  90.0833047  43.0661196 121.3449162  90.1193506  43.2793562
 118.6088393  95.4951083  60.0933011 118.5085120  96.4445440  60.0245102
 118.3909935  95.1669321  59.2209081 117.8101464  92.7436008  36.6773688
 118.6720628  93.0690906  36.9369506 117.9951808  91.9567504  36.1646754
 109.8268880 100.8258347  48.9553877 109.1332351 100.4112300  48.4423831
 110.5741871 100.8678884  48.3587296 118.4719663  98.9248221  58.9098072
 117.9886745  99.7248581  59.1161962 118.5580602  98.9356166  57.9565516
 111.7405623 100.7576601  46.8319892 111.7176311 100.8564288  45.8801775
 112.0506259 101.6041752  47.1537058 114.3993000 102.8152756  50.9466506
 115.3536254 102.7836698  50.8796438 114.2005524 102.3543380  51.7616732
 114.9892383 101.3853872  53.5137304 115.8085272 101.8797951  53.5372141
 115.2629190 100.4685840  53.4854871 112.7543229 108.3572376  47.9636704
 112.6197697 107.5972776  47.3974702 112.3375291 109.0813275  47.4965493
 110.2427297  95.7192006  54.2129501 110.8886160  95.2090960  54.7016726
 110.0344448  96.4560688  54.7872926 118.7630907  89.9832051  39.9653397
 118.7509577  90.9273891  40.1221668 119.6554329  89.8002196  39.6712858
 114.5824788  92.8659623  58.3104515 115.4456249  92.5096428  58.5207840
 114.0090198  92.5273518  58.9979919  52.5044300  -5.4614694  30.6459898
  52.4268329  -4.5106869  30.7248379  51.9005943  -5.8068822  31.3034825
  50.1431130  -2.7129300  34.7908100  50.3827728  -2.0810776  35.4687119
  49.3000326  -3.0641260  35.0773460  50.6175962  -6.6881298  32.1206879
  49.9486337  -6.2035170  31.6370919  50.4788831  -6.4412077  33.0350258
  54.7581230  -4.6537554  38.7189537  55.3099538  -4.4905933  39.4838623
  55.0987424  -4.0633116  38.0469562  47.7180703  -6.6117008  34.6882011
  47.5835171  -7.3716607  34.1220009  47.3012766  -5.8876108  34.2210800
  50.8749829  -5.7147691  34.9000453  50.7582214  -4.7702258  34.7979144
  50.0542276  -6.0174129  35.2886253  51.9004343  -5.0619429  38.1156382
  52.8031590  -5.0295819  38.4322877  51.6741714  -5.9918978  38.1302718
  66.2000345  -0.5200476  35.7773748  65.8618857  -0.6359411  34.8894282
  67.0690113  -0.9209311  35.7574754  62.0587161   1.3335000  31.7670639
  61.4952026   1.2424937  30.9986926  61.9439556   0.5134905  32.2473131
  66.6820128   0.6334376  41.7359953  66.6708769   0.2387174  40.8640457
  66.8440768  -0.0999552  42.3293725  59.6051593   2.8286192  34.6054859
  60.3972885   2.4877017  34.1901158  59.8448243   2.9381167  35.5257012
  67.6386720   5.0005968  27.0785103  66.9874699   5.5860049  26.6919117
  68.4331082   5.5312163  27.1380141  61.5642347   2.0895105  27.4772238
  62.3373223   1.5424092  27.3385114  61.9167746   2.9539355  27.6886699
  63.4027389   3.4171488  40.6839137  63.1117255   4.3217118  40.5685803
  64.0384374   3.4588015  41.3983207  64.3283596   0.7948336  37.2740497
  64.9247169   0.5704359  36.5597460  64.3858568   0.0533082  37.8765945
  69.1161985   2.6896400  27.6154088  68.4807818   2.7631027  28.3274992
  68.7859391   3.2789999  26.9373167  63.6204913   0.1515877  27.3115063
  63.5041172  -0.5239219  27.9796147  63.7307173  -0.3351749  26.4947216
  65.9636454  -0.3873975  31.0161752  65.5994662  -0.9143355  31.7274673
  66.8203570  -0.7775506  30.8428237  68.3617274   3.1032903  37.6788931
  68.0617998   4.0057942  37.5704738  68.0168334   2.8365086  38.5310084
  61.8129756  -0.4453300  33.7125635  60.8880252  -0.5777086  33.9203327
  62.0614169   0.3340919  34.2095578  59.1738567  -0.8020026  34.5469424
  59.3030948  -0.5485548  35.4608836  58.4936018  -0.2092318  34.2274079
  63.3438054   9.8677223  30.6459898  63.2662084  10.8185049  30.7248379
  62.7399698   9.5223096  31.3034825  64.0901656  -0.1509458  42.8639232
  64.8316341   0.3875586  42.5874056  63.3838642   0.4756831  43.0210784
  69.5656996   1.9919683  41.4611394  69.9740352   1.5502093  40.7166026
  68.8434258   1.4172310  41.7145587  69.8885811   2.5520873  35.2163683
  69.2594673   2.7166587  34.5139751  69.5011473   2.9662483  35.9874647
  73.7675043   3.4875311  32.5708046  73.0826081   3.8674213  32.0205080
  73.8518892   4.0970638  33.3039994  71.0225974   1.1335270  39.1703390
  71.2342869   1.7767030  38.4937771  70.9755722   0.2997587  38.7025320
  65.4413773   2.2895281  32.4813768  65.9052118   2.5682984  31.6918390
  65.1770571   1.3878726  32.2986859  62.3337854   1.8366763  35.4193531
  62.9039211   2.2654031  34.7811016  62.9245965   1.5549348  36.1177717
  58.1207993  -3.3298014  34.5920467  57.3307047  -3.0740485  34.1160577
  58.6119240  -2.5149676  34.6972507  72.1371802   4.0107226  37.3425747
  72.9589246   3.6087413  37.0608429  72.1334205   3.9075460  38.2941863
  60.0722738  -2.9653434  31.5503943  59.2753901  -2.8534740  32.0687439
  59.8448330  -2.6266782  30.6844834  65.9028406   3.5591269  39.4986458
  65.9672838   4.0211676  40.3344630  65.1939329   2.9288634  39.6268768
  56.4045696  -3.0767523  37.0235457  56.6553734  -2.1920513  37.2893033
  56.9405244  -3.2562922  36.2510549  65.6176423   5.2259376  29.3665438
  65.4822098   6.0710912  29.7950286  66.1586236   5.4278654  28.6031372
  59.0705821   2.7434814  29.9393363  59.5830341   3.5378065  30.0898928
  59.7228533   2.0461105  29.8726965  60.8800705   5.8600571  32.0216116
  61.0567334   6.7818535  31.8337100  61.6757539   5.5458990  32.4510496
  60.1653062  -2.0934797  41.8978280  60.0506577  -2.9949540  42.1985379
  59.3097580  -1.8471101  41.5463096  67.2444900   5.8482943  43.4965780
  66.8008754   5.0619321  43.1786685  67.9062113   6.0362093  42.8309671
  62.0032021   7.3778745  38.0226459  62.5539446   7.2495808  37.2503453
  61.1643497   7.6773634  37.6721352  69.3426138   6.1285743  41.5247182
  69.3244613   6.9494624  41.0327451  70.2646058   6.0039818  41.7497323
  65.7999192   3.6429872  42.3670690  66.3327529   2.8818161  42.1369998
  65.2713273   3.3503524  43.1094844  57.0354737   1.0723469  30.7152934
  57.8729959   1.4820477  30.4986642  57.2133005   0.1322911  30.6853128
  67.1651905   2.7715865  29.8789502  66.6373266   2.0368624  29.5662739
  66.6639407   3.5490541  29.6329470  72.1444751   0.9664885  34.9956548
  71.4868425   1.6564147  35.0836677  72.9485150   1.3561317  35.3390535
  65.3104505   0.5896075  22.8824475  64.4031566   0.3585329  23.0815624
  65.8075537  -0.2066306  23.0698457  68.2172584   9.2993582  25.8021161
  67.5434282   9.6025279  26.4106119  68.6038406  10.1022663  25.4526618
  66.4892738   0.6908670  27.4048465  65.5803957   0.4067703  27.5020935
  66.5187822   1.1107749  26.5451772  71.7212006   4.3015259  31.1739633
  71.2674333   3.4606169  31.2304823  71.0905972   4.9376658  31.5114413
  70.1644945   6.1391756  32.1089451  70.4567919   6.6996813  31.3901816
  70.6743565   6.4320317  32.8642610  57.0580909  -1.5885816  31.3863667
  56.8605308  -2.1816455  30.6614734  56.5027573  -1.8933606  32.1039606
  66.1868826   2.2317414  24.7436544  65.7488256   1.5153273  24.2842181
  66.9279267   2.4593528  24.1821635  65.1278570   6.9172107  33.1982904
  65.0854749   7.1432954  32.2691436  66.0441269   6.6835482  33.3468705
  74.3311320   2.5751138  35.8124134  74.7647827   2.4826427  36.6607188
  75.0442901   2.5508638  35.1744150  63.2444371   3.7935136  32.9944867
  64.0384969   3.2985456  32.7927442  62.5336063   3.2652999  32.6312572
  68.0639215   6.1753232  37.3457234  68.1176238   6.7444168  38.1134950
  67.1953997   6.3455117  36.9811271  59.5527134  -2.0621782  29.0704619
  58.6224722  -2.1237327  29.2874581  59.6484606  -2.5845829  28.2741261
  75.1926870   2.6174838  38.3457019  75.3862760   3.5220649  38.5916294
  75.0927488   2.1582257  39.1795604  70.2541979   2.7681581  43.9197900
  70.1027485   2.5392133  43.0027983  70.2446658   3.7252182  43.9329245
  67.0227315   0.3413494  38.9044166  67.9519375   0.4924653  38.7313133
  66.6018345   0.4297515  38.0492813  65.8215647   4.3664158  36.6742704
  65.6826732   3.9982943  37.5468642  65.0330243   4.8811798  36.5026662
  66.4163799   9.4673255  28.0168240  66.5915554   8.9961298  28.8313863
  65.7296587  10.0939021  28.2449501  67.3720862   3.7445761  34.0631542
  67.0370695   3.7046531  34.9589191  66.8724808   3.0790477  33.5901952
  61.3465106  -0.8486609  39.5884123  61.2084904  -1.5806370  40.1895662
  62.2570029  -0.9377709  39.3068310  70.3080054   1.0901795  24.3368601
  69.6909224   0.3648623  24.2401654  69.8396542   1.8511156  23.9935675
  63.9747407  -1.1366650  39.0767802  64.6847025  -1.7773458  39.0354421
  63.9316715  -0.8853755  39.9993983  71.9634185   5.8000704  41.9974382
  71.9046731   5.1159924  41.3304965  72.3653704   6.5419694  41.5455008
  60.9824884  12.6162617  34.7908100  61.2221482  13.2481142  35.4687119
  60.1394080  12.2650657  35.0773460  71.9651592   3.7640288  40.2288361
  71.0778371   3.4266209  40.3514760  72.5350144   3.0323319  40.4657127
  53.6180740   0.0964379  33.5531413  54.3051779  -0.2173891  32.9652428
  53.4628868   1.0005744  33.2798664  65.4952746   8.4241740  37.1949604
  65.4222917   9.2296711  37.7068909  65.0530139   8.6233706  36.3697626
  65.2842525   7.6613510  30.7052426  64.5010047   8.2035190  30.7990651
  65.9835271   8.1787490  31.1046667  67.9551429   8.3228574  39.3507763
  68.6679402   8.9576039  39.2783665  67.4641458   8.4192440  38.5347765
  69.6768956   2.2279827  30.9225055  68.7425235   2.3481289  30.7529759
  69.8545625   1.3252293  30.6585065  63.0063343   6.0723017  40.1713334
  63.7072802   6.7059500  40.3242728  62.5358458   6.4137749  39.4108973
  71.1317739   4.4140967  28.4561241  71.4077583   4.2997562  29.3655115
  70.2622237   4.0158452  28.4173414  67.7671803   8.6627318  32.0994055
  67.9494197   7.8448974  32.5621807  68.5904789   8.8795010  31.6618945
  68.1013968   7.5895503  29.3609103  68.6301735   7.0787958  28.7479265
  68.3642188   7.2738033  30.2254636  66.8552202  -0.6312564  44.4831921
  66.1792839  -0.7318435  45.1534297  67.6779836  -0.7873350  44.9467919
  58.6031061   5.6059372  37.1044437  59.1884498   4.8603060  37.2372341
  58.4055899   5.9163329  37.9881101  61.4569716   8.6410620  32.1206879
  60.7880091   9.1256747  31.6370919  61.3182586   8.8879840  33.0350258
  53.1948716  -1.8235027  35.8248880  53.2332815  -2.3571437  36.6185998
  52.6889009  -2.3499822  35.2059857  65.5974985  10.6754363  38.7189537
  66.1493293  10.8385985  39.4838623  65.9381178  11.2658801  38.0469562
  70.4485859   5.5015621  44.5738192  70.9925763   6.1145579  44.0793147
  69.8672704   6.0595199  45.0905205  56.8257293  -3.0970925  28.9002811
  57.1210734  -4.0060247  28.8469865  55.9245329  -3.1183186  28.5783813
  68.7343372   8.6236339  35.7053220  68.6094512   7.8226079  35.1964165
  69.3922463   9.1182532  35.2167189  70.7978280   6.4245359  37.3332770
  69.8508616   6.3050710  37.2611096  71.1461054   5.5367857  37.4159031
  67.8024714   6.2198075  33.5337122  67.6549676   5.2914783  33.7144692
  68.6278207   6.2418166  33.0494197  71.4058836   7.0426634  34.6201995
  72.3305383   6.8369495  34.4826446  71.2374139   6.7943035  35.5291336
  71.1954152   7.5612301  29.9764086  71.3691029   6.9958724  29.2237939
  71.6883043   8.3613196  29.7943576  57.0131112  -0.4273030  38.0427645
  56.4684580   0.3486778  38.1747919  57.8910461  -0.0802225  37.8846766
  72.1829324   6.8779066  27.0760984  72.8780229   7.4985758  27.2948299
  72.5252474   6.0274417  27.3513362  57.7997133  -1.3003133  40.9357802
  57.0578870  -1.1520498  41.5222432  57.4789878  -1.0394868  40.0724551
  74.0820747   4.3278771  28.6048315  74.6072072   4.6666044  27.8797635
  73.9943100   3.3925787  28.4211450  65.7440796   8.2412845  40.7338192
  66.0527923   7.9961992  41.6060891  66.5416278   8.4459483  40.2457062
  65.7661408  10.3950755  32.9643568  65.3266398   9.9027133  33.6576425
  66.5169525   9.8523722  32.7235644  58.2453747   6.5862295  32.9668196
  59.0711767   6.2866067  32.5866840  57.8947799   5.8169918  33.4157985
  63.2135280   5.9388764  35.0365870  62.5915290   5.2759469  34.7368098
  63.8840147   5.9649896  34.3539518  56.4462352   4.5048622  33.9257130
  55.6094261   4.0770796  33.7441131  56.4185998   4.6981065  34.8627921
  73.7714653   4.9611675  43.9099513  72.9810197   4.9435814  43.3704012
  73.5348008   5.4999969  44.6648550  62.7748787   4.4892687  28.5124330
  62.9236908   5.1728151  27.8591003  63.5815231   4.4697777  29.0273786
  75.3930725   4.2301083  41.4674263  75.1015534   4.5931063  42.3037724
  74.7802857   3.5168091  41.2887595  60.5301420   0.5157865  29.5185399
  60.2847462  -0.3879805  29.7165610  60.6997335   0.5175015  28.5764877
  66.2744193   6.9840817  25.9836078  65.7018160   7.6031005  25.5306550
  66.8476986   7.5340179  26.5176000  69.4941453   7.2677968  27.1144660
  70.4272126   7.2023529  27.3177536  69.4064665   8.1034234  26.6559193
  72.1229469   6.5843838  24.0748608  72.0443101   6.2503702  24.9684366
  72.9439136   7.0765606  24.0740080  66.5429684   2.3719376  44.7852787
  67.4632693   2.5497975  44.9792834  66.5079267   1.4275422  44.6332487
  55.7611849  -2.4342030  33.7106062  55.4414633  -3.2876722  33.4180436
  55.2145277  -2.2193452  34.4664029  59.5391756   0.2820411  37.4275569
  59.7577766   1.2137519  37.4463602  59.9517530  -0.0771615  38.2130372
  55.6300109   1.1860881  35.6799184  54.9363580   0.7714834  35.1669138
  56.3773100   1.2281418  35.0832603  64.2750892  -0.7149244  45.6343379
  63.7917973   0.0851116  45.8407268  64.3611831  -0.7041300  44.6810823
  57.5436851   1.1179135  33.5565198  57.5207539   1.2166823  32.6047082
  57.8537488   1.9644286  33.8782365  60.2024229   3.1755290  37.6711813
  61.1567483   3.1439233  37.6041744  60.0036753   2.7145914  38.4862039
  60.7923611   1.7456406  40.2382611  61.6116500   2.2400485  40.2617448
  61.0660419   0.8288374  40.2100178  58.5574458   8.7174910  34.6882011
  58.4228926   7.9575311  34.1220009  58.1406520   9.4415810  34.2210800
  69.6933421   3.9011833  23.6958586  70.3969271   4.1061836  24.3116242
  68.9696070   4.4688595  23.9607670  61.7143584   9.6144227  34.9000453
  61.5975968  10.5589659  34.7979144  60.8936030   9.3117788  35.2886253
  71.6020118   4.3394363  25.7457046  72.4365722   3.9075561  25.5634521
  71.4404461   4.1676376  26.6733941  71.2566011   0.8426476  27.1113385
  71.2014814   0.6770747  26.1701830  70.6312066   1.5502509  27.2675575
  56.0458526  -3.9205460  40.9374808  56.6917389  -4.4306506  41.4262033
  55.8375677  -3.1836778  41.5118233  68.5711918   3.1475388  46.4366948
  69.4403077   3.3216040  46.0753583  68.0918669   3.9669805  46.3142678
  62.7398098  10.2672489  38.1156382  63.6425345  10.2996099  38.4322877
  62.5135468   9.3372940  38.1302718  64.4951700   9.0203475  34.7766460
  63.5447331   9.0205337  34.6630833  64.7984186   8.2736210  34.2602495
  80.2304393  14.8564014  35.8412223  80.8682803  14.7370761  35.1375563
  80.1125236  15.8044858  35.9000175  77.0394100  14.8091442  35.7773748
  76.7012611  14.6932506  34.8894282  77.9083868  14.4082607  35.7574754
  72.8980915  16.6626918  31.7670639  72.3345781  16.5716855  30.9986926
  72.7833311  15.8426823  32.2473131  77.5213883  15.9626293  41.7359953
  77.5102524  15.5679092  40.8640457  77.6834522  15.2292366  42.3293725
  70.4445347  18.1578110  34.6054859  71.2366639  17.8168934  34.1901158
  70.6841998  18.2673085  35.5257012  78.4780474  20.3297886  27.0785103
  77.8268454  20.9151966  26.6919117  79.2724837  20.8604081  27.1380141
  72.4036101  17.4187023  27.4772238  73.1766977  16.8716010  27.3385114
  72.7561500  18.2831272  27.6886699  74.2421144  18.7463405  40.6839137
  73.9511010  19.6509036  40.5685803  74.8778128  18.7879933  41.3983207
  75.1677351  16.1240254  37.2740497  75.7640923  15.8996276  36.5597460
  75.2252322  15.3824999  37.8765945  74.7402379  13.5779689  25.1090688
  74.9927900  13.0561210  24.3474151  73.8026938  13.4145835  25.2117371
  79.7845662  12.5815467  32.9165431  80.5708751  12.1634891  32.5655848
  80.0484366  13.4861560  33.0847079  79.9555739  18.0188318  27.6154088
  79.3201572  18.0922944  28.3274992  79.6253146  18.6081917  26.9373167
  85.1854089  12.5190701  33.8198409  85.9179261  11.9489917  34.0536239
  84.4293445  12.1312301  34.2604915  74.4598668  15.4807795  27.3115063
  74.3434926  14.8052698  27.9796147  74.5700928  14.9940169  26.4947216
  76.8030209  14.9417942  31.0161752  76.4388416  14.4148563  31.7274673
  77.6597325  14.5516411  30.8428237  82.7079509   6.2312275  38.2793018
  82.3762834   7.1007686  38.0554233  82.1125123   5.9148559  38.9587048
  76.4435696   9.9707842  26.0123100  76.6110098  10.8388078  26.3793571
  76.2532865  10.1335124  25.0884390  79.2011029  18.4324821  37.6788931
  78.9011752  19.3349860  37.5704738  78.8562089  18.1657004  38.5310084
  72.6523510  14.8838618  33.7125635  71.7274007  14.7514832  33.9203327
  72.9007924  15.6632837  34.2095578  82.6008173  10.9507361  35.3586368
  81.6925050  10.8822769  35.0645129  82.5495769  11.4279306  36.1868194
  76.4224917  12.4265499  26.9969767  76.3024542  12.8722550  27.8355248
  75.7277505  12.7750817  26.4383305  70.0132322  14.5271891  34.5469424
  70.1424703  14.7806370  35.4608836  69.3329773  15.1199599  34.2274079
  74.1831809  25.1969141  30.6459898  74.1055838  26.1476966  30.7248379
  73.5793452  24.8515014  31.3034825  76.6749039  12.3697007  43.3021265
  75.8982373  12.9290927  43.2924130  77.3139602  12.8553790  43.8236135
  84.4669819   9.1523799  37.1364242  83.8244199   9.4456333  36.4904037
  83.9624748   9.0376720  37.9417439  82.1209983  12.8986973  27.8250101
  83.0327839  13.1314359  27.6497799  81.6119630  13.4824017  27.2625180
  74.9295411  15.1782460  42.8639232  75.6710095  15.7167504  42.5874056
  74.2232396  15.8048749  43.0210784  80.4050750  17.3211600  41.4611394
  80.8134107  16.8794011  40.7166026  79.6828012  16.7464228  41.7145587
  76.7581821  12.2584207  38.8344951  77.6043016  12.6823621  38.9779600
  76.6980458  11.6017831  39.5283514  80.7279565  17.8812791  35.2163683
  80.0988428  18.0458505  34.5139751  80.3405227  18.2954401  35.9874647
  84.6068797  18.8167229  32.5708046  83.9219835  19.1966130  32.0205080
  84.6912646  19.4262556  33.3039994  79.9081266   9.9188576  40.4926124
  79.6642198  10.6730636  39.9560400  80.1841196  10.2973923  41.3273371
  81.8619729  16.4627188  39.1703390  82.0736624  17.1058948  38.4937771
  81.8149477  15.6289504  38.7025320  79.4645958   9.0745009  36.0739962
  78.6030437   9.3726262  36.3656700  79.4908392   9.2915407  35.1420995
  76.2807527  17.6187199  32.4813768  76.7445873  17.8974902  31.6918390
  76.0164325  16.7170644  32.2986859  73.1731608  17.1658681  35.4193531
  73.7432965  17.5945949  34.7811016  73.7639720  16.8841265  36.1177717
  75.2176413  13.7410351  29.2903333  75.9200456  14.1931395  29.7577259
  74.8857042  13.0994170  29.9183226  73.6656775  12.3322108  43.6654542
  73.0355435  13.0138389  43.8989939  73.5592862  12.2205190  42.7207681
  68.9601747  11.9993904  34.5920467  68.1700801  12.2551433  34.1160577
  69.4512994  12.8142242  34.6972507  82.9765557  19.3399143  37.3425747
  83.7983000  18.9379331  37.0608429  82.9727959  19.2367377  38.2941863
  70.9116492  12.3638483  31.5503943  70.1147656  12.4757178  32.0687439
  70.6842085  12.7025136  30.6844834  76.7422160  18.8883187  39.4986458
  76.8066593  19.3503594  40.3344630  76.0333084  18.2580552  39.6268768
  67.2439450  12.2524395  37.0235457  67.4947488  13.1371404  37.2893033
  67.7798998  12.0728996  36.2510549  91.0671550  15.6837892  33.6910719
  90.3135258  15.1145290  33.5354723  91.2019091  15.6500556  34.6381354
  76.4570178  20.5551294  29.3665438  76.3215852  21.4002830  29.7950286
  76.9979990  20.7570572  28.6031372  72.9437517   6.6342874  46.0279793
  72.5504463   6.0809072  46.7027438  73.7603658   6.9453452  46.4186311
  69.9099575  18.0726732  29.9393363  70.4224096  18.8669982  30.0898928
  70.5622288  17.3753023  29.8726965  71.7194460  21.1892488  32.0216116
  71.8961088  22.1110453  31.8337100  72.5151293  20.8750908  32.4510496
  75.8605478   8.0500753  43.6200050  76.6015192   8.6507906  43.5404512
  76.0923401   7.3078391  43.0618093  71.0046816  13.2357120  41.8978280
  70.8900331  12.3342378  42.1985379  70.1491334  13.4820817  41.5463096
  78.0838654  21.1774861  43.4965780  77.6402508  20.3911239  43.1786685
  78.7455868  21.3654011  42.8309671  72.8425775  22.7070662  38.0226459
  73.3933200  22.5787726  37.2503453  72.0037251  23.0065551  37.6721352
  80.1819892  21.4577661  41.5247182  80.1638367  22.2786542  41.0327451
  81.1039812  21.3331736  41.7497323  76.6392946  18.9721790  42.3670690
  77.1721283  18.2110078  42.1369998  76.1107027  18.6795442  43.1094844
  79.8062641   4.0781856  37.8964332  79.4626911   4.9683498  37.8203442
  80.1741604   3.8883514  37.0333917  67.8748492  16.4015386  30.7152934
  68.7123714  16.8112395  30.4986642  68.0526760  15.4614829  30.6853128
  79.7712924  14.0690467  26.4036767  79.2559547  14.8395072  26.6425154
  79.4990232  13.3955603  27.0269828  77.3560035   8.9140168  31.4622005
  76.5001631   8.5247018  31.2827644  77.7686987   8.9932129  30.6021791
  78.8859182   6.4486511  35.8613565  78.3823977   6.4116646  35.0481370
  79.1789789   7.3579254  35.9210222  75.1302068   6.5325241  34.8679747
  75.9955064   6.3368050  34.5085636  75.1979576   6.3035593  35.7949103
  84.7447198  16.8222822  28.3389940  83.9676641  16.4833981  27.8945102
  85.4238679  16.8275445  27.6644905  79.5599227  11.9417559  28.2296548
  79.2549363  12.2563708  29.0806691  80.5129669  12.0198979  28.2723881
  78.0045659  18.1007782  29.8789502  77.4767021  17.3660542  29.5662739
  77.5033162  18.8782459  29.6329470  82.9838505  16.2956803  34.9956548
  82.3262179  16.9856064  35.0836677  83.7878904  16.6853235  35.3390535
  72.7364387   8.7627449  32.2396113  73.3108139   8.5402630  31.5069306
  73.3235369   8.8316143  32.9924715  81.7943964  14.6501176  33.0460490
  82.3075846  15.2831168  33.5482200  82.4445188  14.0502371  32.6803850
  73.0633974  10.7931910  26.2591999  72.2271286  11.1306596  26.5801273
  72.9238743  10.6580890  25.3219136  75.0387054   5.6368698  30.9671183
  74.3851467   5.3217715  30.3427798  74.9967528   5.0144438  31.6931006
  76.1498259  15.9187993  22.8824475  75.2425321  15.6877246  23.0815624
  76.6469291  15.1225612  23.0698457  79.0566338  24.6285500  25.8021161
  78.3828037  24.9317197  26.4106119  79.4432160  25.4314580  25.4526618
  78.2724795  12.1250631  35.2918830  77.3547356  12.3465578  35.1340519
  78.6884938  12.1996942  34.4330538  79.0559842  13.5242047  30.4221511
  79.8031661  14.0363444  30.1128633  79.3251432  13.2026100  31.2825904
  77.3286493  16.0200588  27.4048465  76.4197712  15.7359620  27.5020935
  77.3581576  16.4399666  26.5451772  82.5605760  19.6307177  31.1739633
  82.1068087  18.7898087  31.2304823  81.9299727  20.2668575  31.5114413
  81.5038680  10.5599163  32.4040300  80.7661436  10.0476549  32.7350543
  81.7565453  10.1199545  31.5923577  81.0038699  21.4683674  32.1089451
  81.2961674  22.0288731  31.3901816  81.5137320  21.7612235  32.8642610
  67.8974663  13.7406102  31.3863667  67.6999063  13.1475462  30.6614734
  67.3421327  13.4358312  32.1039606  75.8771387  13.6329208  33.5058260
  75.9319996  12.6803045  33.4300737  75.0662589  13.7888647  33.9899559
  77.0262580  17.5609331  24.7436544  76.5882010  16.8445190  24.2842181
  77.7673021  17.7885446  24.1821635  73.8163747  12.2506268  31.2648639
  73.0031612  12.5500439  31.6713831  74.3122741  11.8561957  31.9823122
  75.9672324  22.2464025  33.1982904  75.9248503  22.4724871  32.2691436
  76.8835023  22.0127399  33.3468705  79.4137958  12.7148092  40.0963533
  79.7687346  12.9419566  40.9557999  80.0610089  13.0466469  39.4740788
  85.1435695  15.8366528  30.8012862  85.0053594  16.0268124  29.8734051
  84.7871914  16.5985911  31.2580913  73.3077821   9.8224623  36.8809874
  73.9477201   9.6813383  36.1832838  72.4755352   9.5359137  36.5048476
  85.1705075  17.9043055  35.8124134  85.6041581  17.8118344  36.6607188
  85.8836656  17.8800556  35.1744150  74.0838125  19.1227054  32.9944867
  74.8778724  18.6277374  32.7927442  73.3729818  18.5944917  32.6312572
  78.9032970  21.5045149  37.3457234  78.9569992  22.0736086  38.1134950
  78.0347751  21.6747034  36.9811271  70.3920889  13.2670136  29.0704619
  69.4618477  13.2054591  29.2874581  70.4878361  12.7446088  28.2741261
  70.3106438   9.7924948  31.6582861  70.5713255  10.7070282  31.5492021
  71.1323610   9.3249391  31.8079474  71.7831363  11.2062706  38.8281686
  72.4554417  10.9980068  38.1794334  70.9561150  11.0084792  38.3886918
  86.0320624  17.9466756  38.3457019  86.2256514  18.8512566  38.5916294
  85.9321243  17.4874175  39.1795604  77.6856935   7.8324647  40.8447346
  77.0384850   8.5314596  40.7511823  78.4557951   8.2660790  41.2123595
  81.0935733  18.0973499  43.9197900  80.9421239  17.8684050  43.0027983
  81.0840413  19.0544100  43.9329245  77.8621069  15.6705411  38.9044166
  78.7913129  15.8216571  38.7313133  77.4412099  15.7589432  38.0492813
  76.6609401  19.6956076  36.6742704  76.5220487  19.3274860  37.5468642
  75.8723997  20.2103715  36.5026662  77.2557553  24.7965172  28.0168240
  77.4309309  24.3253216  28.8313863  76.5690341  25.4230939  28.2449501
  78.2114616  19.0737679  34.0631542  77.8764449  19.0338449  34.9589191
  77.7118562  18.4082395  33.5901952  72.1858860  14.4805309  39.5884123
  72.0478658  13.7485547  40.1895662  73.0963784  14.3914209  39.3068310
  81.1473808  16.4193713  24.3368601  80.5302979  15.6940541  24.2401654
  80.6790297  17.1803073  23.9935675  74.8141161  14.1925268  39.0767802
  75.5240780  13.5518460  39.0354421  74.7710469  14.4438163  39.9993983
  73.5270095  11.1790486  40.8963442  72.9907452  10.7281224  41.5485038
  72.9386803  11.3136395  40.1533906  71.8218638  27.9454535  34.7908100
  72.0615237  28.5773059  35.4687119  70.9787835  27.5942575  35.0773460
  72.9372354  10.6379137  23.4589905  72.0601820  10.5167938  23.0952152
  73.4130107   9.8465216  23.2068794  82.8045347  19.0932205  40.2288361
  81.9172126  18.7558127  40.3514760  83.3743898  18.3615236  40.4657127
  64.4574494  15.4256297  33.5531413  65.1445534  15.1118027  32.9652428
  64.3022623  16.3297662  33.2798664  69.2609216  10.3146494  37.9816436
  69.1767405   9.7072163  37.2466846  68.4391923  10.8055512  37.9825933
  76.3346500  23.7533658  37.1949604  76.2616672  24.5588629  37.7068909
  75.8923893  23.9525623  36.3697626  76.1236280  22.9905428  30.7052426
  75.3403802  23.5327108  30.7990651  76.8229025  23.5079407  31.1046667
  79.4332930   8.8000057  33.3486631  79.9301630   8.0470019  33.0287702
  78.6619912   8.8364374  32.7829841  87.2862688  14.5040423  34.9904923
  87.2752564  15.3865138  34.6198856  86.4180067  14.1511973  34.7959460
  78.7945184  23.6520492  39.3507763  79.5073156  24.2867956  39.2783665
  78.3035213  23.7484358  38.5347765  80.5162711  17.5571744  30.9225055
  79.5818990  17.6773207  30.7529759  80.6939379  16.6544211  30.6585065
  76.0167899  10.9417440  33.0758316  75.6465686  10.3888480  33.7639222
  76.5126991  10.3375574  32.5233316  83.9035262  13.3989064  31.4575089
  84.3695714  14.2317055  31.3835392  84.3542763  12.9334045  32.1620347
  73.8457097  21.4014935  40.1713334  74.5466557  22.0351418  40.3242728
  73.3752212  21.7429667  39.4108973  81.9711493  19.7432885  28.4561241
  82.2471337  19.6289479  29.3655115  81.1015992  19.3450370  28.4173414
  81.8751925   5.7669651  35.4965990  80.9615005   5.9973877  35.6648197
  82.3045026   5.8508095  36.3480023  81.6458383  13.9559543  37.9965884
  80.9929834  14.2035450  37.3418337  82.0238763  13.1423681  37.6628362
  78.6065557  23.9919236  32.0994055  78.7887952  23.1740892  32.5621807
  79.4298543  24.2086928  31.6618945  78.9407723  22.9187421  29.3609103
  79.4695489  22.4079875  28.7479265  79.2035942  22.6029951  30.2254636
  77.6945956  14.6979354  44.4831921  77.0186593  14.5973483  45.1534297
  78.5173590  14.5418567  44.9467919  69.4424815  20.9351290  37.1044437
  70.0278252  20.1894978  37.2372341  69.2449654  21.2455247  37.9881101
  72.2963471  23.9702538  32.1206879  71.6273846  24.4548665  31.6370919
  72.1576340  24.2171758  33.0350258  64.0342470  13.5056890  35.8248880
  64.0726570  12.9720481  36.6185998  63.5282763  12.9792096  35.2059857
  71.4133233   8.3521431  39.3211422  71.4774559   9.2136262  38.9088820
  71.3500353   7.7395432  38.5883781  70.8885505  10.4244563  42.9684456
  71.5157544  10.0421641  43.5821981  70.0313424  10.2058765  43.3340149
  67.6651048  12.2320992  28.9002811  67.9604489  11.3231671  28.8469865
  66.7639084  12.2108732  28.5783813  71.1945295  10.3076989  34.8830360
  70.4731881  10.9212957  34.7437833  71.9838551  10.8434754  34.8047006
  73.9971608   7.6431416  41.1571012  74.5206010   7.8893712  41.9197321
  73.7783942   8.4751450  40.7374149  69.3938889   9.9135090  29.0242136
  69.0651596   9.0332469  28.8417242  69.7478260   9.8582759  29.9118526
  78.6418468  21.5489993  33.5337122  78.4943431  20.6206700  33.7144692
  79.4671962  21.5710084  33.0494197  72.5080713  10.2008060  29.3917614
  72.8476785  10.7293981  28.6696222  72.9552833  10.5388466  30.1676181
  75.2024153   8.5845111  38.8420682  74.8620974   7.7852924  39.2441362
  74.4963160   8.8846822  38.2697515  75.8540625   5.6694423  37.2948005
  76.6766695   5.1954901  37.1726895  76.0978689   6.4484907  37.7946691
  74.4948860   8.6982682  27.5910907  75.2157222   9.0763934  27.0874624
  73.8714164   9.4171558  27.6945885  78.6379983   9.4027831  28.5269239
  78.8543597  10.2852468  28.2258067  78.1574050   9.0114044  27.7974881
  73.3779204  12.3613544  35.1039984  73.2323785  12.6753847  35.9964265
  72.9004408  12.9798444  34.5510882  75.2375587   9.3516092  35.1520873
  75.2237156   8.4557185  34.8153171  75.9548015   9.3586755  35.7859159
  77.0901718   9.7853432  37.1974001  76.8319495  10.7070503  37.1958331
  76.5586758   9.3883866  37.8874465  82.0347906  22.8904219  29.9764086
  82.2084784  22.3250642  29.2237939  82.5276798  23.6905114  29.7943576
  67.8524866  14.9018888  38.0427645  67.3078334  15.6778696  38.1747919
  68.7304216  15.2489693  37.8846766  74.6412483   8.2330472  30.4208443
  74.7628394   7.3047118  30.6199331  74.3514525   8.2469158  29.5086759
  77.5103673   5.9185382  33.5575163  77.5325370   5.9824716  32.6027143
  77.9271732   5.0789891  33.7515669  87.8887297  15.6540642  31.5954386
  88.3318444  14.9047967  31.1973509  87.0113808  15.6450778  31.2128118
  83.0223079  22.2070983  27.0760984  83.7173983  22.8277676  27.2948299
  83.3646229  21.3566335  27.3513362  68.6390888  14.0288784  40.9357802
  67.8972624  14.1771420  41.5222432  68.3183632  14.2897050  40.0724551
  84.9214502  19.6570689  28.6048315  85.4465826  19.9957962  27.8797635
  84.8336854  18.7217704  28.4211450  76.6055163  25.7242672  32.9643568
  76.1660153  25.2319051  33.6576425  77.3563280  25.1815640  32.7235644
  69.0847502  21.9154213  32.9668196  69.9105522  21.6157985  32.5866840
  68.7341554  21.1461836  33.4157985  74.0529035  21.2680681  35.0365870
  73.4309044  20.6051386  34.7368098  74.7233902  21.2941813  34.3539518
  67.2856107  19.8340540  33.9257130  66.4488015  19.4062714  33.7441131
  67.2579752  20.0272983  34.8627921  74.1253562   9.7462469  44.6298376
  74.1741718  10.6224592  44.2476146  74.6676077   9.2039862  44.0570019
  84.7306283  17.1396059  41.2232242  84.7804288  16.9746066  42.1647764
  84.6220206  16.2723318  40.8330122  73.6142542  19.8184605  28.5124330
  73.7630662  20.5020069  27.8591003  74.4208985  19.7989695  29.0273786
  82.0210045  13.1226987  42.5391548  82.9219908  12.9833452  42.2475546
  82.0958020  13.2881442  43.4789726  76.3552851  10.4993842  41.3844735
  75.4856160  10.7927408  41.1127323  76.5912331  11.0834287  42.1051998
  86.2324480  19.5593001  41.4674263  85.9409288  19.9222981  42.3037724
  85.6196611  18.8460009  41.2887595  87.4320162  17.1245880  33.9876833
  88.2667054  17.5635684  34.1514394  87.5679291  16.6484533  33.1685079
  84.4811668  14.6825615  39.9354321  84.9565790  14.8753261  39.1273172
  83.5577233  14.7384801  39.6897705  71.3695175  15.8449782  29.5185399
  71.1241217  14.9412112  29.7165610  71.5391089  15.8466933  28.5764877
  79.0591885   6.7173459  38.9010155  79.5773828   7.4534486  38.5756644
  78.7047017   7.0237452  39.7356914  70.6390822  11.5778140  27.0171561
  69.9460067  11.6522495  26.3611597  70.3942574  10.8138484  27.5393078
  77.1137947  22.3132735  25.9836078  76.5411914  22.9322922  25.5306550
  77.6870741  22.8632097  26.5176000  83.1813337  11.5591375  38.1682627
  84.1330760  11.6589473  38.1894851  83.0116788  10.7669644  38.6780711
  81.2027717   8.6446958  38.3542028  80.6077649   8.9251971  37.6588516
  80.9177413   9.1340859  39.1258769  80.3335207  22.5969885  27.1144660
  81.2665880  22.5315447  27.3177536  80.2458420  23.4326152  26.6559193
  82.9623224  21.9135756  24.0748608  82.8836855  21.5795619  24.9684366
  83.7832890  22.4057524  24.0740080  85.6601415  14.7797495  37.2824926
  85.6277735  13.8413496  37.4684610  86.2702039  14.8581532  36.5490751
  77.4984746  13.6493548  23.3252130  78.4443850  13.5199756  23.3940548
  77.1198991  12.9108210  23.8021559  85.8095903  11.5708538  37.3283210
  85.2934952  10.7866995  37.1413138  86.6935852  11.2427255  37.4929729
  83.4706630   5.3149554  33.2879022  83.2731451   5.0064642  34.1722354
  84.0806336   6.0411193  33.4176952  91.4777965  15.8413502  36.4230963
  92.2081353  15.5798790  36.9838666  90.8684910  15.1042224  36.4633031
  89.5593262  13.9821364  37.0205414  88.8326425  13.8477329  36.4121906
  89.1440549  14.2898193  37.8262132  77.3823438  17.7011294  44.7852787
  78.3026448  17.8789893  44.9792834  77.3473021  16.7567339  44.6332487
  75.6827663  11.5743524  23.2607016  74.7759118  11.2776637  23.3369729
  75.9603644  11.2773342  22.3941302  66.6005603  12.8949888  33.7106062
  66.2808388  12.0415196  33.4180436  66.0539031  13.1098466  34.4664029
  70.3785511  15.6112329  37.4275569  70.5971521  16.5429436  37.4463602
  70.7911285  15.2520303  38.2130372  77.2989729   6.1180414  29.4151257
  76.4890457   5.7727499  29.7906503  77.9874146   5.8087958  30.0038868
  79.2280277   5.1958461  31.0375554  79.7811316   5.6153914  31.6965577
  79.4650363   4.2694209  31.0798510  75.2513376  11.1845534  46.8178317
  75.1510103  12.1339891  46.7490409  75.0334918  10.8563773  45.9454388
  74.4526448   8.4330459  23.4018995  75.3145612   8.7585358  23.6614812
  74.6376792   7.6461955  22.8892061  66.4693863  16.5152799  35.6799184
  65.7757335  16.1006752  35.1669138  67.2166854  16.5573336  35.0832603
  82.6059084   7.3058986  30.5454218  82.0257753   7.9643790  30.1632270
  82.3395017   6.4836331  30.1341635  81.0562650   6.7064044  32.7475538
  81.5562429   6.8180578  31.9389857  81.6998258   6.4025097  33.3876347
  75.1144646  14.6142673  45.6343379  74.6311728  15.4143033  45.8407268
  75.2005585  14.6250618  44.6810823  68.3830606  16.4471053  33.5565198
  68.3601294  16.5458740  32.6047082  68.6931242  17.2936204  33.8782365
  71.0417984  18.5047208  37.6711813  71.9961237  18.4731150  37.6041744
  70.8430507  18.0437832  38.4862039  71.6317366  17.0748324  40.2382611
  72.4510255  17.5692403  40.2617448  71.9054174  16.1580292  40.2100178
  81.3883962   9.4659076  29.6010566  80.5009817   9.7508727  29.3830761
  81.8037951   9.3052840  28.7537843  84.7398498   9.4905597  33.3164905
  85.5158888   9.9802050  33.5889522  84.0146632   9.9163652  33.7736775
  87.1771057  10.2033217  34.3738846  87.7715548   9.9628952  33.6632154
  87.2497640   9.4840347  35.0012382  69.3968212  24.0466827  34.6882011
  69.2622680  23.2867228  34.1220009  68.9800275  24.7707727  34.2210800
  80.5327175  19.2303751  23.6958586  81.2363026  19.4353754  24.3116242
  79.8089824  19.7980513  23.9607670  81.3624986  14.9813612  29.8160856
  81.3060187  15.4382164  28.9768489  81.9153328  14.2204297  29.6383699
  85.1729792  10.7703344  30.6410976  84.9166726  10.3699980  31.4719183
  84.5482660  11.4847138  30.5161115  89.4842130  13.5099417  33.1482267
  88.9241688  13.5792607  33.9213829  88.8785633  13.3340402  32.4281763
  72.5537338  24.9436144  34.9000453  72.4369722  25.8881577  34.7979144
  71.7329785  24.6409706  35.2886253  82.4413873  19.6686280  25.7457046
  83.2759477  19.2367479  25.5634521  82.2798216  19.4968294  26.6733941
  82.0959765  16.1718394  27.1113385  82.0408569  16.0062665  26.1701830
  81.4705820  16.8794426  27.2675575  66.8852280  11.4086458  40.9374808
  67.5311144  10.8985412  41.4262033  66.6769431  12.1455140  41.5118233
  79.4105672  18.4767305  46.4366948  80.2796832  18.6507958  46.0753583
  78.9312424  19.2961722  46.3142678  75.4055891   5.6726503  26.6898704
  75.3934560   6.6168342  26.8466975  76.2979312   5.4896648  26.3958165
  75.3345454  24.3495393  34.7766460  74.3841085  24.3497255  34.6630833
  75.6377941  23.6028127  34.2602495  71.2249771   8.5554075  45.0349822
  72.0881233   8.1990880  45.2453146  70.6515182   8.2167970  45.7225226
  83.2429856  32.7478941  27.4772238  84.0160732  32.2007928  27.3385114
  83.5955255  33.6123190  27.6886699  85.5796134  28.9071607  25.1090688
  85.8321654  28.3853128  24.3474151  84.6420693  28.7437752  25.2117371
  96.0247844  27.8482618  33.8198409  96.7573016  27.2781835  34.0536239
  95.2687199  27.4604219  34.2604915  85.2992422  30.8099713  27.3115063
  85.1828680  30.1344616  27.9796147  85.4094682  30.3232087  26.4947216
  87.2829450  25.2999760  26.0123100  87.4503853  26.1679996  26.3793571
  87.0926619  25.4627041  25.0884390  92.9603737  28.2278890  27.8250101
  93.8721593  28.4606277  27.6497799  92.4513384  28.8115934  27.2625180
 101.9065304  31.0129809  33.6910719 101.1529013  30.4437208  33.5354723
 102.0412845  30.9792474  34.6381354  90.6456396  19.4073774  37.8964332
  90.3020665  20.2975415  37.8203442  91.0135358  19.2175431  37.0333917
  90.6106678  29.3982385  26.4036767  90.0953302  30.1686989  26.6425154
  90.3383987  28.7247521  27.0269828  89.7252936  21.7778429  35.8613565
  89.2217732  21.7408564  35.0481370  90.0183543  22.6871172  35.9210222
  85.9695822  21.8617159  34.8679747  86.8348819  21.6659967  34.5085636
  86.0373331  21.6327510  35.7949103  95.5840953  32.1514739  28.3389940
  94.8070395  31.8125899  27.8945102  96.2632434  32.1567363  27.6644905
  83.5758141  24.0919366  32.2396113  84.1501893  23.8694548  31.5069306
  84.1629124  24.1608061  32.9924715  83.9027728  26.1223827  26.2591999
  83.0665040  26.4598514  26.5801273  83.7632498  25.9872807  25.3219136
  85.8780809  20.9660615  30.9671183  85.2245221  20.6509633  30.3427798
  85.8361283  20.3436356  31.6931006  86.9892014  31.2479910  22.8824475
  86.0819075  31.0169164  23.0815624  87.4863046  30.4517530  23.0698457
  88.1680247  31.3492505  27.4048465  87.2591466  31.0651538  27.5020935
  88.1975331  31.7691584  26.5451772  92.4444061  18.6667333  32.9982069
  92.7502938  17.8064696  32.7107984  93.1696666  19.2584953  32.7981063
  87.8656335  32.8901249  24.7436544  87.4275765  32.1737108  24.2842181
  88.6066776  33.1177364  24.1821635  95.9829450  31.1658446  30.8012862
  95.8447348  31.3560042  29.8734051  95.6265669  31.9277829  31.2580913
  81.2314643  28.5962053  29.0704619  80.3012231  28.5346509  29.2874581
  81.3272115  28.0738006  28.2741261  81.1500192  25.1216866  31.6582861
  81.4107010  26.0362199  31.5492021  81.9717365  24.6541309  31.8079474
  91.9867563  31.7485631  24.3368601  91.3696733  31.0232459  24.2401654
  91.5184051  32.5094991  23.9935675  83.7766108  25.9671055  23.4589905
  82.8995575  25.8459856  23.0952152  84.2523862  25.1757133  23.2068794
  98.1256442  29.8332340  34.9904923  98.1146318  30.7157056  34.6198856
  97.2573821  29.4803891  34.7959460  94.7429017  28.7280981  31.4575089
  95.2089469  29.5608973  31.3835392  95.1936517  28.2625963  32.1620347
  92.7145679  21.0961568  35.4965990  91.8008759  21.3265795  35.6648197
  93.1438781  21.1800012  36.3480023  78.5044802  27.5612910  28.9002811
  78.7998243  26.6523589  28.8469865  77.6032838  27.5400650  28.5783813
  80.2332644  25.2427008  29.0242136  79.9045350  24.3624387  28.8417242
  80.5872015  25.1874677  29.9118526  83.3474467  25.5299978  29.3917614
  83.6870540  26.0585899  28.6696222  83.7946588  25.8680384  30.1676181
  86.6934380  20.9986341  37.2948005  87.5160449  20.5246819  37.1726895
  86.9372443  21.7776825  37.7946691  85.3342614  24.0274599  27.5910907
  86.0550977  24.4055852  27.0874624  84.7107918  24.7463476  27.6945885
  85.4806237  23.5622390  30.4208443  85.6022148  22.6339036  30.6199331
  85.1908280  23.5761076  29.5086759  88.3497428  21.2477300  33.5575163
  88.3719124  21.3116633  32.6027143  88.7665487  20.4081809  33.7515669
  98.7281052  30.9832560  31.5954386  99.1712198  30.2339885  31.1973509
  97.8507562  30.9742696  31.2128118  93.8616833  37.5362901  27.0760984
  94.5567738  38.1569594  27.2948299  94.2039983  36.6858252  27.3513362
  81.4784577  26.9070058  27.0171561  80.7853822  26.9814413  26.3611597
  81.2336329  26.1430401  27.5393078  90.1498233  18.4665659  34.4211052
  90.4299987  17.7988848  35.0471478  90.9348840  18.6594755  33.9085715
  93.8016978  37.2427673  24.0748608  93.7230610  36.9087537  24.9684366
  94.6226645  37.7349441  24.0740080  88.3378500  28.9785466  23.3252130
  89.2837605  28.8491674  23.3940548  87.9592745  28.2400127  23.8021559
  96.6489658  26.9000456  37.3283210  96.1328707  26.1158913  37.1413138
  97.5329606  26.5719173  37.4929729  94.3100385  20.6441472  33.2879022
  94.1125206  20.3356560  34.1722354  94.9200090  21.3703111  33.4176952
 102.3171719  31.1705419  36.4230963 103.0475108  30.9090708  36.9838666
 101.7078665  30.4334141  36.4633031  86.5221417  26.9035442  23.2607016
  85.6152873  26.6068555  23.3369729  86.7997398  26.6065260  22.3941302
  88.1383483  21.4472332  29.4151257  87.3284211  21.1019417  29.7906503
  88.8267900  21.1379875  30.0038868  90.0674031  20.5250378  31.0375554
  90.6205070  20.9445832  31.6965577  90.3044118  19.5986127  31.0798510
  85.2920202  23.7622377  23.4018995  86.1539366  24.0877275  23.6614812
  85.4770546  22.9753873  22.8892061  93.4452838  22.6350904  30.5454218
  92.8651508  23.2935708  30.1632270  93.1788771  21.8128248  30.1341635
  91.8956405  22.0355961  32.7475538  92.3956183  22.1472496  31.9389857
  92.5392013  21.7317014  33.3876347  95.5792253  24.8197515  33.3164905
  96.3552643  25.3093967  33.5889522  94.8540387  25.2455569  33.7736775
  98.0164811  25.5325134  34.3738846  98.6109302  25.2920870  33.6632154
  98.0891395  24.8132265  35.0012382  91.3720930  34.5595669  23.6958586
  92.0756780  34.7645671  24.3116242  90.6483579  35.1272431  23.9607670
  96.0123546  26.0995262  30.6410976  95.7560480  25.6991897  31.4719183
  95.3876414  26.8139056  30.5161115 100.3235884  28.8391335  33.1482267
  99.7635442  28.9084524  33.9213829  99.7179387  28.6632320  32.4281763
  93.2807627  34.9978198  25.7457046  94.1153231  34.5659396  25.5634521
  93.1191970  34.8260212  26.6733941  92.9353520  31.5010311  27.1113385
  92.8802323  31.3354583  26.1701830  92.3099575  32.2086344  27.2675575
  86.2449645  21.0018420  26.6898704  86.2328315  21.9460260  26.8466975
  87.1373067  20.8188566  26.3958165  90.0601764  17.5961197  30.9444641
  89.2934160  17.0419684  31.0901323  90.4712469  17.6683066  31.8058792
 101.9091902  45.5147849  35.8412223 102.5470312  45.3954596  35.1375563
 101.7912745  46.4628693  35.9000175  98.7181609  45.4675277  35.7773748
  98.3800120  45.3516342  34.8894282  99.5871377  45.0666442  35.7574754
  94.5768424  47.3210754  31.7670639  94.0133290  47.2300690  30.9986926
  94.4620819  46.5010658  32.2473131  99.2001392  46.6210129  41.7359953
  99.1890033  46.2262927  40.8640457  99.3622031  45.8876201  42.3293725
  92.1232856  48.8161945  34.6054859  92.9154148  48.4752770  34.1901158
  92.3629507  48.9256920  35.5257012 100.1567983  50.9881721  27.0785103
  99.5055963  51.5735802  26.6919117 100.9512346  51.5187916  27.1380141
  94.0823610  48.0770858  27.4772238  94.8554486  47.5299845  27.3385114
  94.4349009  48.9415108  27.6886699  95.9208653  49.4047241  40.6839137
  95.6298519  50.3092871  40.5685803  96.5565637  49.4463768  41.3983207
  96.8464860  46.7824089  37.2740497  97.4428432  46.5580112  36.5597460
  96.9039831  46.0408835  37.8765945  96.4189888  44.2363524  25.1090688
  96.6715409  43.7145046  24.3474151  95.4814447  44.0729670  25.2117371
 101.4633171  43.2399303  32.9165431 102.2496260  42.8218726  32.5655848
 101.7271875  44.1445395  33.0847079 101.6343248  48.6772153  27.6154088
 100.9989081  48.7506780  28.3274992 101.3040655  49.2665752  26.9373167
 106.8641598  43.1774536  33.8198409 107.5966770  42.6073753  34.0536239
 106.1080954  42.7896136  34.2604915  96.1386177  46.1391630  27.3115063
  96.0222435  45.4636534  27.9796147  96.2488437  45.6524004  26.4947216
  98.4817718  45.6001778  31.0161752  98.1175925  45.0732399  31.7274673
  99.3384834  45.2100247  30.8428237 104.3867018  36.8896110  38.2793018
 104.0550343  37.7591521  38.0554233 103.7912632  36.5732394  38.9587048
  98.1223205  40.6291677  26.0123100  98.2897607  41.4971914  26.3793571
  97.9320374  40.7918959  25.0884390 100.8798538  49.0908656  37.6788931
 100.5799261  49.9933695  37.5704738 100.5349597  48.8240839  38.5310084
  94.3311019  45.5422453  33.7125635  93.4061516  45.4098667  33.9203327
  94.5795433  46.3216672  34.2095578 104.2795682  41.6091196  35.3586368
 103.3712559  41.5406605  35.0645129 104.2283278  42.0863141  36.1868194
  98.1012426  43.0849335  26.9969767  97.9812051  43.5306386  27.8355248
  97.4065014  43.4334652  26.4383305  95.8619318  55.8552976  30.6459898
  95.7843347  56.8060802  30.7248379  95.2580961  55.5098849  31.3034825
 106.1457328  39.8107635  37.1364242 105.5031708  40.1040168  36.4904037
 105.6412257  39.6960555  37.9417439 103.7997492  43.5570808  27.8250101
 104.7115348  43.7898195  27.6497799 103.2907139  44.1407852  27.2625180
  96.6082920  45.8366295  42.8639232  97.3497604  46.3751339  42.5874056
  95.9019905  46.4632584  43.0210784 102.0838259  47.9795436  41.4611394
 102.4921616  47.5377846  40.7166026 101.3615521  47.4048063  41.7145587
 102.4067074  48.5396626  35.2163683 101.7775937  48.7042340  34.5139751
 102.0192736  48.9538236  35.9874647 106.2856306  49.4751064  32.5708046
 105.6007344  49.8549966  32.0205080 106.3700155  50.0846391  33.3039994
 103.5407238  47.1211023  39.1703390 103.7524133  47.7642783  38.4937771
 103.4936986  46.2873340  38.7025320  97.9595036  48.2771034  32.4813768
  98.4233382  48.5558737  31.6918390  97.6951834  47.3754479  32.2986859
  94.8519117  47.8242516  35.4193531  95.4220474  48.2529784  34.7811016
  95.4427229  47.5425101  36.1177717  96.8963922  44.3994187  29.2903333
  97.5987965  44.8515230  29.7577259  96.5644551  43.7578006  29.9183226
 104.6553066  49.9982979  37.3425747 105.4770509  49.5963166  37.0608429
 104.6515468  49.8951213  38.2941863  98.4209669  49.5467022  39.4986458
  98.4854102  50.0087429  40.3344630  97.7120593  48.9164387  39.6268768
 112.7459059  46.3421727  33.6910719 111.9922767  45.7729125  33.5354723
 112.8806600  46.3084392  34.6381354  98.1357687  51.2135129  29.3665438
  98.0003361  52.0586665  29.7950286  98.6767499  51.4154407  28.6031372
  91.5887084  48.7310567  29.9393363  92.1011605  49.5253818  30.0898928
  92.2409797  48.0336858  29.8726965  93.3981969  51.8476324  32.0216116
  93.5748597  52.7694288  31.8337100  94.1938802  51.5334743  32.4510496
  99.7626163  51.8358696  43.4965780  99.3190017  51.0495075  43.1786685
 100.4243377  52.0237846  42.8309671  94.5213284  53.3654498  38.0226459
  95.0720709  53.2371561  37.2503453  93.6824760  53.6649387  37.6721352
 101.8607401  52.1161496  41.5247182 101.8425876  52.9370377  41.0327451
 102.7827321  51.9915571  41.7497323  98.3180455  49.6305625  42.3670690
  98.8508792  48.8693914  42.1369998  97.7894536  49.3379277  43.1094844
  89.5536001  47.0599222  30.7152934  90.3911223  47.4696230  30.4986642
  89.7314269  46.1198664  30.6853128 101.4500433  44.7274302  26.4036767
 100.9347056  45.4978907  26.6425154 101.1777741  44.0539439  27.0269828
  99.0347544  39.5724003  31.4622005  98.1789140  39.1830854  31.2827644
  99.4474496  39.6515964  30.6021791 106.4234707  47.4806657  28.3389940
 105.6464150  47.1417817  27.8945102 107.1026188  47.4859280  27.6644905
 101.2386736  42.6001395  28.2296548 100.9336872  42.9147544  29.0806691
 102.1917178  42.6782814  28.2723881  99.6833168  48.7591618  29.8789502
  99.1554530  48.0244377  29.5662739  99.1820671  49.5366294  29.6329470
 104.6626014  46.9540638  34.9956548 104.0049688  47.6439900  35.0836677
 105.4666413  47.3437070  35.3390535 103.4731473  45.3085011  33.0460490
 103.9863355  45.9415003  33.5482200 104.1232697  44.7086207  32.6803850
  94.7421483  41.4515745  26.2591999  93.9058795  41.7890432  26.5801273
  94.6026252  41.3164725  25.3219136  97.8285768  46.5771828  22.8824475
  96.9212830  46.3461082  23.0815624  98.3256800  45.7809447  23.0698457
 100.7353847  55.2869335  25.8021161 100.0615546  55.5901032  26.4106119
 101.1219669  56.0898416  25.4526618  99.9512304  42.7834467  35.2918830
  99.0334865  43.0049414  35.1340519 100.3672447  42.8580777  34.4330538
 100.7347351  44.1825882  30.4221511 101.4819170  44.6947279  30.1128633
 101.0038941  43.8609935  31.2825904  99.0074002  46.6784423  27.4048465
  98.0985221  46.3943456  27.5020935  99.0369085  47.0983502  26.5451772
 104.2393269  50.2891012  31.1739633 103.7855596  49.4481922  31.2304823
 103.6087236  50.9252411  31.5114413 103.1826189  41.2182999  32.4040300
 102.4448945  40.7060385  32.7350543 103.4352962  40.7783380  31.5923577
 102.6826208  52.1267509  32.1089451 102.9749183  52.6872566  31.3901816
 103.1924829  52.4196070  32.8642610 103.2837816  33.9959251  32.9982069
 103.5896693  33.1356614  32.7107984 104.0090421  34.5876871  32.7981063
  97.5558896  44.2913044  33.5058260  97.6107505  43.3386880  33.4300737
  96.7450098  44.4472483  33.9899559  98.7050089  48.2193167  24.7436544
  98.2669519  47.5029026  24.2842181  99.4460530  48.4469281  24.1821635
  95.4951256  42.9090103  31.2648639  94.6819121  43.2084274  31.6713831
  95.9910250  42.5145792  31.9823122  97.6459833  52.9047860  33.1982904
  97.6036012  53.1308707  32.2691436  98.5622532  52.6711235  33.3468705
 101.0925467  43.3731928  40.0963533 101.4474855  43.6003401  40.9557999
 101.7397598  43.7050305  39.4740788 106.8223204  46.4950364  30.8012862
 106.6841103  46.6851960  29.8734051 106.4659423  47.2569747  31.2580913
 106.8492584  48.5626891  35.8124134 107.2829090  48.4702180  36.6607188
 107.5624164  48.5384391  35.1744150  95.7625634  49.7810889  32.9944867
  96.5566233  49.2861209  32.7927442  95.0517327  49.2528752  32.6312572
 100.5820479  52.1628985  37.3457234 100.6357501  52.7319921  38.1134950
  99.7135260  52.3330870  36.9811271  92.0708398  43.9253971  29.0704619
  91.1405986  43.8638426  29.2874581  92.1665870  43.4029924  28.2741261
 107.7108133  48.6050591  38.3457019 107.9044023  49.5096402  38.5916294
 107.6108752  48.1458010  39.1795604 102.7723242  48.7557334  43.9197900
 102.6208748  48.5267886  43.0027983 102.7627922  49.7127936  43.9329245
  99.5408578  46.3289247  38.9044166 100.4700638  46.4800406  38.7313133
  99.1199608  46.4173268  38.0492813  98.3396910  50.3539911  36.6742704
  98.2007996  49.9858696  37.5468642  97.5511506  50.8687551  36.5026662
  98.9345062  55.4549008  28.0168240  99.1096818  54.9837051  28.8313863
  98.2477850  56.0814774  28.2449501  99.8902125  49.7321514  34.0631542
  99.5551958  49.6922284  34.9589191  99.3906071  49.0666230  33.5901952
 102.8261317  47.0777548  24.3368601 102.2090488  46.3524376  24.2401654
 102.3577805  47.8386909  23.9935675 104.4815449  51.7876457  41.9974382
 104.4227995  51.1035677  41.3304965 104.8834967  52.5295447  41.5455008
  93.5006147  58.6038370  34.7908100  93.7402746  59.2356895  35.4687119
  92.6575344  58.2526411  35.0773460  94.6159863  41.2962973  23.4589905
  93.7389329  41.1751773  23.0952152  95.0917616  40.5049051  23.2068794
 104.4832856  49.7516041  40.2288361 103.5959635  49.4141962  40.3514760
 105.0531407  49.0199072  40.4657127  98.0134009  54.4117493  37.1949604
  97.9404181  55.2172464  37.7068909  97.5711402  54.6109459  36.3697626
  97.8023789  53.6489263  30.7052426  97.0191311  54.1910943  30.7990651
  98.5016534  54.1663243  31.1046667 101.1120439  39.4583892  33.3486631
 101.6089139  38.7053855  33.0287702 100.3407421  39.4948209  32.7829841
 108.9650196  45.1624258  34.9904923 108.9540073  46.0448973  34.6198856
 108.0967576  44.8095809  34.7959460 100.4732693  54.3104327  39.3507763
 101.1860665  54.9451792  39.2783665  99.9822722  54.4068193  38.5347765
 102.1950220  48.2155580  30.9225055 101.2606499  48.3357042  30.7529759
 102.3726888  47.3128046  30.6585065  97.6955408  41.6001275  33.0758316
  97.3253195  41.0472316  33.7639222  98.1914500  40.9959409  32.5233316
 105.5822771  44.0572899  31.4575089 106.0483223  44.8900891  31.3835392
 106.0330272  43.5917880  32.1620347  95.5244606  52.0598770  40.1713334
  96.2254066  52.6935253  40.3242728  95.0539721  52.4013502  39.4108973
 103.6499002  50.4016720  28.4561241 103.9258846  50.2873315  29.3655115
 102.7803501  50.0034205  28.4173414 103.5539434  36.4253486  35.4965990
 102.6402514  36.6557713  35.6648197 103.9832535  36.5091930  36.3480023
 103.3245892  44.6143378  37.9965884 102.6717343  44.8619285  37.3418337
 103.7026272  43.8007516  37.6628362 100.2853066  54.6503071  32.0994055
 100.4675461  53.8324727  32.5621807 101.1086052  54.8670763  31.6618945
 100.6195232  53.5771256  29.3609103 101.1482998  53.0663711  28.7479265
 100.8823451  53.2613786  30.2254636  99.3733465  45.3563189  44.4831921
  98.6974102  45.2557318  45.1534297 100.1961099  45.2002403  44.9467919
  91.1212324  51.5935125  37.1044437  91.7065761  50.8478813  37.2372341
  90.9237163  51.9039082  37.9881101  93.9750980  54.6286373  32.1206879
  93.3061355  55.1132500  31.6370919  93.8363849  54.8755593  33.0350258
  98.1156248  56.6630116  38.7189537  98.6674556  56.8261738  39.4838623
  98.4562442  57.2534554  38.0469562 102.9667123  51.4891374  44.5738192
 103.5107027  52.1021332  44.0793147 102.3853967  52.0470952  45.0905205
 101.2524636  54.6112092  35.7053220 101.1275775  53.8101832  35.1964165
 101.9103727  55.1058285  35.2167189 103.3159544  52.4121112  37.3332770
 102.3689879  52.2926463  37.2611096 103.6642317  51.5243610  37.4159031
 100.3205977  52.2073828  33.5337122 100.1730940  51.2790536  33.7144692
 101.1459471  52.2293919  33.0494197  94.1868222  40.8591895  29.3917614
  94.5264294  41.3877817  28.6696222  94.6340342  41.1972301  30.1676181
 103.9240099  53.0302387  34.6201995 104.8486647  52.8245248  34.4826446
 103.7555402  52.7818788  35.5291336  96.1736369  39.3566517  27.5910907
  96.8944731  39.7347770  27.0874624  95.5501673  40.0755394  27.6945885
 100.3167492  40.0611666  28.5269239 100.5331106  40.9436304  28.2258067
  99.8361559  39.6697879  27.7974881 103.7135415  53.5488054  29.9764086
 103.8872293  52.9834477  29.2237939 104.2064307  54.3488949  29.7943576
 109.5674806  46.3124477  31.5954386 110.0105952  45.5631803  31.1973509
 108.6901317  46.3034614  31.2128118 104.7010588  52.8654819  27.0760984
 105.3961492  53.4861511  27.2948299 105.0433738  52.0150170  27.3513362
 106.6002011  50.3154524  28.6048315 107.1253335  50.6541797  27.8797635
 106.5124363  49.3801540  28.4211450  98.2622060  54.2288598  40.7338192
  98.5709186  53.9837745  41.6060891  99.0597542  54.4335236  40.2457062
  98.2842672  56.3826508  32.9643568  97.8447662  55.8902886  33.6576425
  99.0350789  55.8399475  32.7235644  90.7635011  52.5738048  32.9668196
  91.5893031  52.2741820  32.5866840  90.4129063  51.8045671  33.4157985
  95.7316544  51.9264517  35.0365870  95.1096553  51.2635222  34.7368098
  96.4021411  51.9525649  34.3539518  88.9643616  50.4924375  33.9257130
  88.1275524  50.0646549  33.7441131  88.9367261  50.6856818  34.8627921
 106.2895917  50.9487428  43.9099513 105.4991461  50.9311567  43.3704012
 106.0529272  51.4875722  44.6648550 106.4093792  47.7979894  41.2232242
 106.4591797  47.6329902  42.1647764 106.3007715  46.9307153  40.8330122
  95.2930051  50.4768440  28.5124330  95.4418171  51.1603904  27.8591003
  96.0996494  50.4573530  29.0273786 103.6997554  43.7810822  42.5391548
 104.6007417  43.6417287  42.2475546 103.7745529  43.9465277  43.4789726
 107.9111989  50.2176836  41.4674263 107.6196797  50.5806816  42.3037724
 107.2984120  49.5043844  41.2887595 109.1107671  47.7829716  33.9876833
 109.9454563  48.2219520  34.1514394 109.2466800  47.3068369  33.1685079
 106.1599177  45.3409450  39.9354321 106.6353299  45.5337097  39.1273172
 105.2364742  45.3968636  39.6897705  93.0482684  46.5033618  29.5185399
  92.8028726  45.5995948  29.7165610  93.2178598  46.5050768  28.5764877
  92.3178331  42.2361975  27.0171561  91.6247576  42.3106330  26.3611597
  92.0730083  41.4722319  27.5393078  98.7925456  52.9716570  25.9836078
  98.2199423  53.5906758  25.5306550  99.3658250  53.5215932  26.5176000
 104.8600846  42.2175211  38.1682627 105.8118269  42.3173308  38.1894851
 104.6904296  41.4253479  38.6780711 102.0122716  53.2553721  27.1144660
 102.9453389  53.1899282  27.3177536 101.9245929  54.0909987  26.6559193
 104.6410733  52.5719591  24.0748608 104.5624364  52.2379455  24.9684366
 105.4620399  53.0641359  24.0740080 107.3388924  45.4381330  37.2824926
 107.3065244  44.4997331  37.4684610 107.9489548  45.5165367  36.5490751
  99.1772255  44.3077383  23.3252130 100.1231359  44.1783591  23.3940548
  98.7986500  43.5692045  23.8021559 107.4883412  42.2292374  37.3283210
 106.9722461  41.4450830  37.1413138 108.3723361  41.9011090  37.4929729
 105.1494139  35.9733389  33.2879022 104.9518960  35.6648477  34.1722354
 105.7593845  36.6995028  33.4176952 113.1565474  46.4997337  36.4230963
 113.8868862  46.2382625  36.9838666 112.5472419  45.7626059  36.4633031
 111.2380771  44.6405200  37.0205414 110.5113934  44.5061165  36.4121906
 110.8228058  44.9482028  37.8262132  99.0610947  48.3595129  44.7852787
  99.9813957  48.5373728  44.9792834  99.0260530  47.4151175  44.6332487
  97.3615172  42.2327360  23.2607016  96.4546627  41.9360472  23.3369729
  97.6391153  41.9357178  22.3941302 100.9067786  35.8542296  31.0375554
 101.4598824  36.2737750  31.6965577 101.1437872  34.9278044  31.0798510
  96.1313957  39.0914295  23.4018995  96.9933120  39.4169193  23.6614812
  96.3164301  38.3045791  22.8892061 104.2846593  37.9642821  30.5454218
 103.7045262  38.6227625  30.1632270 104.0182526  37.1420166  30.1341635
 102.7350159  37.3647879  32.7475538 103.2349938  37.4764414  31.9389857
 103.3785767  37.0608932  33.3876347  96.7932155  45.2726509  45.6343379
  96.3099237  46.0726869  45.8407268  96.8793094  45.2834453  44.6810823
  90.0618115  47.1054888  33.5565198  90.0388803  47.2042576  32.6047082
  90.3718751  47.9520039  33.8782365  92.7205493  49.1631043  37.6711813
  93.6748746  49.1314986  37.6041744  92.5218016  48.7021667  38.4862039
 103.0671471  40.1242912  29.6010566 102.1797326  40.4092562  29.3830761
 103.4825460  39.9636675  28.7537843 106.4186007  40.1489433  33.3164905
 107.1946397  40.6385885  33.5889522 105.6934141  40.5747487  33.7736775
 108.8558566  40.8617052  34.3738846 109.4503057  40.6212788  33.6632154
 108.9285149  40.1424182  35.0012382  91.0755721  54.7050663  34.6882011
  90.9410189  53.9451064  34.1220009  90.6587784  55.4291563  34.2210800
 102.2114684  49.8887586  23.6958586 102.9150535  50.0937589  24.3116242
 101.4877333  50.4564348  23.9607670 103.0412495  45.6397448  29.8160856
 102.9847696  46.0965999  28.9768489 103.5940837  44.8788132  29.6383699
 106.8517301  41.4287179  30.6410976 106.5954235  41.0283815  31.4719183
 106.2270169  42.1430973  30.5161115 111.1629639  44.1683253  33.1482267
 110.6029196  44.2376442  33.9213829 110.5573142  43.9924237  32.4281763
  94.2324847  55.6019980  34.9000453  94.1157231  56.5465412  34.7979144
  93.4117294  55.2993541  35.2886253 104.1201382  50.3270116  25.7457046
 104.9546986  49.8951314  25.5634521 103.9585725  50.1552129  26.6733941
 103.7747274  46.8302229  27.1113385 103.7196078  46.6646500  26.1701830
 103.1493329  47.5378262  27.2675575 101.0893181  49.1351141  46.4366948
 101.9584341  49.3091793  46.0753583 100.6099933  49.9545558  46.3142678
  97.0843400  36.3310338  26.6898704  97.0722069  37.2752178  26.8466975
  97.9766821  36.1480483  26.3958165  95.2579361  56.2548242  38.1156382
  96.1606608  56.2871852  38.4322877  95.0316732  55.3248693  38.1302718
  97.0132963  55.0079228  34.7766460  96.0628594  55.0081090  34.6630833
  97.3165450  54.2611963  34.2602495 100.8995519  32.9253115  30.9444641
 100.1327915  32.3711601  31.0901323 101.3106224  32.9974983  31.8058792
 112.7485657  60.8439767  35.8412223 113.3864067  60.7246514  35.1375563
 112.6306500  61.7920611  35.9000175 109.5575363  60.7967195  35.7773748
 109.2193875  60.6808259  34.8894282 110.4265131  60.3958360  35.7574754
 105.4162179  62.6502671  31.7670639 104.8527044  62.5592608  30.9986926
 105.3014574  61.8302576  32.2473131 110.0395146  61.9502047  41.7359953
 110.0283787  61.5554845  40.8640457 110.2015786  61.2168119  42.3293725
 102.9626611  64.1453863  34.6054859 103.7547903  63.8044687  34.1901158
 103.2023261  64.2548838  35.5257012 110.9961738  66.3173639  27.0785103
 110.3449717  66.9027719  26.6919117 111.7906100  66.8479834  27.1380141
 104.9217365  63.4062776  27.4772238 105.6948241  62.8591763  27.3385114
 105.2742764  64.2707025  27.6886699 106.7602407  64.7339158  40.6839137
 106.4692273  65.6384789  40.5685803 107.3959392  64.7755686  41.3983207
 107.6858614  62.1116007  37.2740497 108.2822186  61.8872029  36.5597460
 107.7433586  61.3700752  37.8765945 107.2583643  59.5655442  25.1090688
 107.5109163  59.0436963  24.3474151 106.3208202  59.4021588  25.2117371
 112.3026925  58.5691221  32.9165431 113.0890015  58.1510644  32.5655848
 112.5665630  59.4737313  33.0847079 112.4737003  64.0064071  27.6154088
 111.8382836  64.0798697  28.3274992 112.1434409  64.5957670  26.9373167
 117.7035353  58.5066454  33.8198409 118.4360525  57.9365671  34.0536239
 116.9474708  58.1188054  34.2604915 106.9779931  61.4683548  27.3115063
 106.8616189  60.7928451  27.9796147 107.0882191  60.9815922  26.4947216
 109.3211472  60.9293695  31.0161752 108.9569680  60.4024316  31.7274673
 110.1778588  60.5392164  30.8428237 115.2260773  52.2188028  38.2793018
 114.8944098  53.0883439  38.0554233 114.6306386  51.9024312  38.9587048
 108.9616959  55.9583595  26.0123100 109.1291362  56.8263831  26.3793571
 108.7714128  56.1210877  25.0884390 111.7192292  64.4200574  37.6788931
 111.4193016  65.3225613  37.5704738 111.3743352  64.1532757  38.5310084
 105.1704774  60.8714371  33.7125635 104.2455270  60.7390585  33.9203327
 105.4189187  61.6508590  34.2095578 115.1189436  56.9383114  35.3586368
 114.2106314  56.8698522  35.0645129 115.0677032  57.4155059  36.1868194
 108.9406180  58.4141252  26.9969767 108.8205805  58.8598303  27.8355248
 108.2458769  58.7626570  26.4383305 102.5313585  60.5147644  34.5469424
 102.6605966  60.7682123  35.4608836 101.8511036  61.1075352  34.2274079
 106.7013072  71.1844894  30.6459898 106.6237102  72.1352719  30.7248379
 106.0974716  70.8390767  31.3034825 109.1930302  58.3572760  43.3021265
 108.4163636  58.9166680  43.2924130 109.8320865  58.8429543  43.8236135
 116.9851083  55.1399552  37.1364242 116.3425463  55.4332086  36.4904037
 116.4806011  55.0252473  37.9417439 114.6391246  58.8862726  27.8250101
 115.5509102  59.1190112  27.6497799 114.1300893  59.4699770  27.2625180
 107.4476674  61.1658213  42.8639232 108.1891359  61.7043257  42.5874056
 106.7413660  61.7924502  43.0210784 112.9232014  63.3087353  41.4611394
 113.3315370  62.8669764  40.7166026 112.2009275  62.7339981  41.7145587
 109.2763084  58.2459960  38.8344951 110.1224279  58.6699374  38.9779600
 109.2161722  57.5893585  39.5283514 113.2460829  63.8688544  35.2163683
 112.6169691  64.0334258  34.5139751 112.8586491  64.2830154  35.9874647
 117.1250061  64.8042982  32.5708046 116.4401099  65.1841883  32.0205080
 117.2093910  65.4138309  33.3039994 112.4262529  55.9064329  40.4926124
 112.1823461  56.6606389  39.9560400 112.7022460  56.2849676  41.3273371
 114.3800992  62.4502941  39.1703390 114.5917887  63.0934701  38.4937771
 114.3330740  61.6165257  38.7025320 111.9827221  55.0620762  36.0739962
 111.1211700  55.3602015  36.3656700 112.0089656  55.2791160  35.1420995
 108.7988790  63.6062952  32.4813768 109.2627136  63.8850655  31.6918390
 108.5345589  62.7046397  32.2986859 105.6912872  63.1534434  35.4193531
 106.2614229  63.5821702  34.7811016 106.2820983  62.8717018  36.1177717
 107.7357677  59.7286105  29.2903333 108.4381720  60.1807148  29.7577259
 107.4038305  59.0869923  29.9183226 106.1838038  58.3197861  43.6654542
 105.5536699  59.0014142  43.8989939 106.0774126  58.2080943  42.7207681
 101.4783011  57.9869657  34.5920467 100.6882064  58.2427186  34.1160577
 101.9694258  58.8017995  34.6972507 115.4946820  65.3274896  37.3425747
 116.3164264  64.9255084  37.0608429 115.4909223  65.2243131  38.2941863
 103.4297756  58.3514236  31.5503943 102.6328919  58.4632931  32.0687439
 103.2023348  58.6900889  30.6844834 109.2603424  64.8758940  39.4986458
 109.3247856  65.3379347  40.3344630 108.5514347  64.2456305  39.6268768
  99.7620713  58.2400148  37.0235457 100.0128752  59.1247158  37.2893033
 100.2980262  58.0604749  36.2510549 108.9751441  66.5427047  29.3665438
 108.8397116  67.3878583  29.7950286 109.5161254  66.7446325  28.6031372
 105.4618781  52.6218627  46.0279793 105.0685726  52.0684826  46.7027438
 106.2784921  52.9329205  46.4186311 102.4280839  64.0602485  29.9393363
 102.9405359  64.8545735  30.0898928 103.0803551  63.3628776  29.8726965
 104.2375723  67.1768241  32.0216116 104.4142352  68.0986206  31.8337100
 105.0332557  66.8626661  32.4510496 108.3786742  54.0376506  43.6200050
 109.1196455  54.6383659  43.5404512 108.6104665  53.2954144  43.0618093
 103.5228080  59.2232873  41.8978280 103.4081595  58.3218131  42.1985379
 102.6672598  59.4696570  41.5463096 110.6019918  67.1650614  43.4965780
 110.1583772  66.3786992  43.1786685 111.2637131  67.3529764  42.8309671
 105.3607039  68.6946415  38.0226459 105.9114464  68.5663479  37.2503453
 104.5218515  68.9941304  37.6721352 112.7001156  67.4453414  41.5247182
 112.6819631  68.2662295  41.0327451 113.6221076  67.3207489  41.7497323
 109.1574210  64.9597543  42.3670690 109.6902547  64.1985831  42.1369998
 108.6288291  64.6671195  43.1094844 112.3243905  50.0657609  37.8964332
 111.9808174  50.9559251  37.8203442 112.6922867  49.8759267  37.0333917
 100.3929755  62.3891139  30.7152934 101.2304977  62.7988148  30.4986642
 100.5708023  61.4490582  30.6853128 112.2894187  60.0566220  26.4036767
 111.7740811  60.8270825  26.6425154 112.0171496  59.3831356  27.0269828
 109.8741298  54.9015921  31.4622005 109.0182895  54.5122771  31.2827644
 110.2868250  54.9807882  30.6021791 111.4040445  52.4362264  35.8613565
 110.9005241  52.3992399  35.0481370 111.6971052  53.3455007  35.9210222
 107.6483331  52.5200994  34.8679747 108.5136328  52.3243803  34.5085636
 107.7160840  52.2911346  35.7949103 117.2628462  62.8098575  28.3389940
 116.4857904  62.4709734  27.8945102 117.9419943  62.8151198  27.6644905
 112.0780491  57.9293312  28.2296548 111.7730626  58.2439461  29.0806691
 113.0310933  58.0074732  28.2723881 110.5226922  64.0883536  29.8789502
 109.9948284  63.3536295  29.5662739 110.0214425  64.8658212  29.6329470
 115.5019768  62.2832556  34.9956548 114.8443443  62.9731817  35.0836677
 116.3060168  62.6728988  35.3390535 105.2545650  54.7503202  32.2396113
 105.8289402  54.5278383  31.5069306 105.8416633  54.8191896  32.9924715
 114.3125227  60.6376929  33.0460490 114.8257109  61.2706921  33.5482200
 114.9626451  60.0378124  32.6803850 105.5815237  56.7807663  26.2591999
 104.7452549  57.1182349  26.5801273 105.4420007  56.6456643  25.3219136
 107.5568318  51.6244451  30.9671183 106.9032730  51.3093468  30.3427798
 107.5148792  51.0020191  31.6931006 108.6679523  61.9063746  22.8824475
 107.7606584  61.6752999  23.0815624 109.1650555  61.1101365  23.0698457
 111.5747602  70.6161253  25.8021161 110.9009300  70.9192950  26.4106119
 111.9613424  71.4190333  25.4526618 110.7906058  58.1126384  35.2918830
 109.8728620  58.3341331  35.1340519 111.2066202  58.1872695  34.4330538
 111.5741106  59.5117800  30.4221511 112.3212925  60.0239197  30.1128633
 111.8432695  59.1901853  31.2825904 109.8467756  62.0076341  27.4048465
 108.9378975  61.7235373  27.5020935 109.8762840  62.4275419  26.5451772
 115.0787024  65.6182930  31.1739633 114.6249351  64.7773840  31.2304823
 114.4480990  66.2544329  31.5114413 114.0219943  56.5474916  32.4040300
 113.2842700  56.0352302  32.7350543 114.2746717  56.1075298  31.5923577
 113.5219963  67.4559427  32.1089451 113.8142937  68.0164484  31.3901816
 114.0318583  67.7487988  32.8642610 114.1231570  49.3251168  32.9982069
 114.4290447  48.4648532  32.7107984 114.8484175  49.9168788  32.7981063
 100.4155926  59.7281855  31.3863667 100.2180326  59.1351215  30.6614734
  99.8602590  59.4234065  32.1039606 108.3952650  59.6204961  33.5058260
 108.4501260  58.6678798  33.4300737 107.5843852  59.7764400  33.9899559
 109.5443844  63.5485084  24.7436544 109.1063274  62.8320943  24.2842181
 110.2854285  63.7761199  24.1821635 106.3345010  58.2382021  31.2648639
 105.5212876  58.5376192  31.6713831 106.8304004  57.8437710  31.9823122
 108.4853588  68.2339778  33.1982904 108.4429767  68.4600624  32.2691436
 109.4016287  68.0003153  33.3468705 111.9319222  58.7023845  40.0963533
 112.2868609  58.9295319  40.9557999 112.5791353  59.0342222  39.4740788
 117.6616959  61.8242281  30.8012862 117.5234857  62.0143877  29.8734051
 117.3053177  62.5861664  31.2580913 105.8259085  55.8100377  36.8809874
 106.4658464  55.6689136  36.1832838 104.9936615  55.5234890  36.5048476
 117.6886338  63.8918808  35.8124134 118.1222845  63.7994097  36.6607188
 118.4017919  63.8676309  35.1744150 106.6019389  65.1102807  32.9944867
 107.3959987  64.6153127  32.7927442 105.8911081  64.5820670  32.6312572
 111.4214233  67.4920902  37.3457234 111.4751255  68.0611839  38.1134950
 110.5529015  67.6622788  36.9811271 102.9102152  59.2545889  29.0704619
 101.9799740  59.1930344  29.2874581 103.0059624  58.7321841  28.2741261
 102.8287701  55.7800702  31.6582861 103.0894519  56.6946035  31.5492021
 103.6504874  55.3125144  31.8079474 104.3012627  57.1938459  38.8281686
 104.9735680  56.9855821  38.1794334 103.4742413  56.9960545  38.3886918
 118.5501888  63.9342509  38.3457019 118.7437778  64.8388320  38.5916294
 118.4502506  63.4749928  39.1795604 110.2038199  53.8200400  40.8447346
 109.5566114  54.5190349  40.7511823 110.9739214  54.2536544  41.2123595
 113.6116997  64.0849252  43.9197900 113.4602503  63.8559803  43.0027983
 113.6021676  65.0419853  43.9329245 110.3802333  61.6581165  38.9044166
 111.3094393  61.8092324  38.7313133 109.9593363  61.7465185  38.0492813
 109.1790665  65.6831829  36.6742704 109.0401750  65.3150613  37.5468642
 108.3905261  66.1979468  36.5026662 109.7738817  70.7840925  28.0168240
 109.9490572  70.3128969  28.8313863 109.0871605  71.4106692  28.2449501
 110.7295880  65.0613432  34.0631542 110.3945712  65.0214202  34.9589191
 110.2299826  64.3958148  33.5901952 104.7040124  60.4681062  39.5884123
 104.5659922  59.7361300  40.1895662 105.6145047  60.3789962  39.3068310
 113.6655072  62.4069466  24.3368601 113.0484242  61.6816294  24.2401654
 113.1971560  63.1678826  23.9935675 107.3322424  60.1801021  39.0767802
 108.0422043  59.5394213  39.0354421 107.2891733  60.4313916  39.9993983
 115.3209203  67.1168374  41.9974382 115.2621749  66.4327594  41.3304965
 115.7228722  67.8587364  41.5455008 106.0451358  57.1666239  40.8963442
 105.5088715  56.7156977  41.5485038 105.4568067  57.3012148  40.1533906
 104.3399902  73.9330288  34.7908100 104.5796500  74.5648812  35.4687119
 103.4969098  73.5818328  35.0773460 105.4553617  56.6254890  23.4589905
 104.5783084  56.5043691  23.0952152 105.9311370  55.8340969  23.2068794
 115.3226610  65.0807958  40.2288361 114.4353389  64.7433880  40.3514760
 115.8925162  64.3490989  40.4657127  96.9755758  61.4132050  33.5531413
  97.6626797  61.0993780  32.9652428  96.8203886  62.3173415  33.2798664
 101.7790480  56.3022247  37.9816436 101.6948668  55.6947916  37.2466846
 100.9573186  56.7931265  37.9825933 108.8527764  69.7409411  37.1949604
 108.7797935  70.5464382  37.7068909 108.4105157  69.9401376  36.3697626
 108.6417543  68.9781181  30.7052426 107.8585065  69.5202861  30.7990651
 109.3410289  69.4955160  31.1046667 111.9514194  54.7875810  33.3486631
 112.4482893  54.0345772  33.0287702 111.1801175  54.8240127  32.7829841
 119.8043951  60.4916176  34.9904923 119.7933827  61.3740891  34.6198856
 118.9361330  60.1387726  34.7959460 111.3126447  69.6396245  39.3507763
 112.0254420  70.2743709  39.2783665 110.8216476  69.7360111  38.5347765
 113.0343974  63.5447497  30.9225055 112.1000253  63.6648960  30.7529759
 113.2120643  62.6419964  30.6585065 108.5349162  56.9293193  33.0758316
 108.1646950  56.3764233  33.7639222 109.0308255  56.3251327  32.5233316
 116.4216526  59.3864817  31.4575089 116.8876978  60.2192808  31.3835392
 116.8724026  58.9209798  32.1620347 106.3638361  67.3890688  40.1713334
 107.0647820  68.0227171  40.3242728 105.8933476  67.7305420  39.4108973
 114.4892757  65.7308638  28.4561241 114.7652601  65.6165232  29.3655115
 113.6197255  65.3326123  28.4173414 114.3933188  51.7545404  35.4965990
 113.4796268  51.9849630  35.6648197 114.8226290  51.8383848  36.3480023
 114.1639647  59.9435296  37.9965884 113.5111097  60.1911203  37.3418337
 114.5420027  59.1299434  37.6628362 111.1246821  69.9794989  32.0994055
 111.3069215  69.1616645  32.5621807 111.9479807  70.1962681  31.6618945
 111.4588986  68.9063174  29.3609103 111.9876753  68.3955628  28.7479265
 111.7217206  68.5905704  30.2254636 110.2127220  60.6855107  44.4831921
 109.5367857  60.5849236  45.1534297 111.0354854  60.5294320  44.9467919
 101.9606079  66.9227043  37.1044437 102.5459516  66.1770731  37.2372341
 101.7630917  67.2331000  37.9881101 104.8144734  69.9578291  32.1206879
 104.1455109  70.4424418  31.6370919 104.6757604  70.2047511  33.0350258
  96.5523734  59.4932643  35.8248880  96.5907833  58.9596234  36.6185998
  96.0464027  58.9667849  35.2059857 108.9550003  71.9922034  38.7189537
 109.5068311  72.1553656  39.4838623 109.2956196  72.5826472  38.0469562
 103.9314496  54.3397184  39.3211422 103.9955822  55.2012015  38.9088820
 103.8681616  53.7271186  38.5883781 103.4066769  56.4120316  42.9684456
 104.0338807  56.0297394  43.5821981 102.5494687  56.1934518  43.3340149
 113.8060877  66.8183292  44.5738192 114.3500781  67.4313250  44.0793147
 113.2247722  67.3762870  45.0905205 100.1832311  58.2196746  28.9002811
 100.4785752  57.3107424  28.8469865  99.2820347  58.1984485  28.5783813
 112.0918390  69.9404010  35.7053220 111.9669529  69.1393749  35.1964165
 112.7497481  70.4350203  35.2167189 103.7126558  56.2952742  34.8830360
 102.9913144  56.9088710  34.7437833 104.5019814  56.8310507  34.8047006
 114.1553298  67.7413030  37.3332770 113.2083634  67.6218381  37.2611096
 114.5036072  66.8535528  37.4159031 106.5152872  53.6307169  41.1571012
 107.0387274  53.8769465  41.9197321 106.2965205  54.4627203  40.7374149
 101.9120153  55.9010843  29.0242136 101.5832859  55.0208222  28.8417242
 102.2659524  55.8458512  29.9118526 111.1599732  67.5365746  33.5337122
 111.0124694  66.6082453  33.7144692 111.9853225  67.5585837  33.0494197
 105.0261976  56.1883813  29.3917614 105.3658049  56.7169734  28.6696222
 105.4734096  56.5264219  30.1676181 114.7633854  68.3594305  34.6201995
 115.6880401  68.1537166  34.4826446 114.5949157  68.1110706  35.5291336
 107.7205417  54.5720864  38.8420682 107.3802237  53.7728677  39.2441362
 107.0144423  54.8722575  38.2697515 108.3721889  51.6570176  37.2948005
 109.1947958  51.1830654  37.1726895 108.6159952  52.4360660  37.7946691
 107.0130123  54.6858435  27.5910907 107.7338486  55.0639687  27.0874624
 106.3895427  55.4047311  27.6945885 111.1561246  55.3903584  28.5269239
 111.3724860  56.2728221  28.2258067 110.6755313  54.9989797  27.7974881
 105.8960467  58.3489297  35.1039984 105.7505048  58.6629600  35.9964265
 105.4185671  58.9674197  34.5510882 107.7556850  55.3391845  35.1520873
 107.7418419  54.4432938  34.8153171 108.4729278  55.3462508  35.7859159
 109.6082981  55.7729185  37.1974001 109.3500759  56.6946256  37.1958331
 109.0768021  55.3759619  37.8874465 114.5529170  68.8779972  29.9764086
 114.7266047  68.3126395  29.2237939 115.0458061  69.6780867  29.7943576
 100.3706130  60.8894641  38.0427645  99.8259598  61.6654449  38.1747919
 101.2485479  61.2365446  37.8846766 107.1593746  54.2206225  30.4208443
 107.2809657  53.2922871  30.6199331 106.8695789  54.2344911  29.5086759
 110.0284937  51.9061135  33.5575163 110.0506633  51.9700469  32.6027143
 110.4452996  51.0665644  33.7515669 120.4068561  61.6416395  31.5954386
 120.8499707  60.8923720  31.1973509 119.5295071  61.6326531  31.2128118
 115.5404342  68.1946736  27.0760984 116.2355247  68.8153429  27.2948299
 115.8827492  67.3442088  27.3513362 101.1572151  60.0164537  40.9357802
 100.4153887  60.1647173  41.5222432 100.8364896  60.2772803  40.0724551
 117.4395765  65.6446442  28.6048315 117.9647089  65.9833715  27.8797635
 117.3518118  64.7093457  28.4211450 109.1015814  69.5580516  40.7338192
 109.4102941  69.3129662  41.6060891 109.8991296  69.7627154  40.2457062
 109.1236426  71.7118425  32.9643568 108.6841416  71.2194804  33.6576425
 109.8744543  71.1691393  32.7235644 101.6028765  67.9029966  32.9668196
 102.4286785  67.6033738  32.5866840 101.2522817  67.1337589  33.4157985
 106.5710298  67.2556434  35.0365870 105.9490308  66.5927139  34.7368098
 107.2415165  67.2817566  34.3539518  99.8037370  65.8216293  33.9257130
  98.9669278  65.3938467  33.7441131  99.7761016  66.0148736  34.8627921
 106.6434826  55.7338222  44.6298376 106.6922981  56.6100345  44.2476146
 107.1857340  55.1915615  44.0570019 117.1289671  66.2779346  43.9099513
 116.3385215  66.2603484  43.3704012 116.8923026  66.8167639  44.6648550
 117.2487546  63.1271812  41.2232242 117.2985551  62.9621819  42.1647764
 117.1401470  62.2599071  40.8330122 106.1323805  65.8060358  28.5124330
 106.2811926  66.4895822  27.8591003 106.9390249  65.7865448  29.0273786
 114.5391309  59.1102740  42.5391548 115.4401172  58.9709205  42.2475546
 114.6139283  59.2757195  43.4789726 108.8734114  56.4869595  41.3844735
 108.0037424  56.7803161  41.1127323 109.1093595  57.0710040  42.1051998
 118.7505743  65.5468754  41.4674263 118.4590552  65.9098734  42.3037724
 118.1377875  64.8335762  41.2887595 119.9501426  63.1121633  33.9876833
 120.7848317  63.5511437  34.1514394 120.0860554  62.6360287  33.1685079
 116.9992932  60.6701368  39.9354321 117.4747053  60.8629014  39.1273172
 116.0758497  60.7260554  39.6897705 103.8876438  61.8325535  29.5185399
 103.6422480  60.9287865  29.7165610 104.0572353  61.8342686  28.5764877
 111.5773148  52.7049212  38.9010155 112.0955092  53.4410239  38.5756644
 111.2228281  53.0113205  39.7356914 103.1572086  57.5653893  27.0171561
 102.4641331  57.6398248  26.3611597 102.9123838  56.8014237  27.5393078
 111.8285742  49.1249494  34.4211052 112.1087496  48.4572683  35.0471478
 112.6136349  49.3178590  33.9085715 109.6319211  68.3008488  25.9836078
 109.0593178  68.9198675  25.5306550 110.2052004  68.8507850  26.5176000
 115.6994601  57.5467128  38.1682627 116.6512023  57.6465226  38.1894851
 115.5298051  56.7545397  38.6780711 113.7208980  54.6322711  38.3542028
 113.1258912  54.9127724  37.6588516 113.4358677  55.1216612  39.1258769
 112.8516470  68.5845638  27.1144660 113.7847144  68.5191200  27.3177536
 112.7639683  69.4201905  26.6559193 115.4804487  67.9011509  24.0748608
 115.4018119  67.5671372  24.9684366 116.3014154  68.3933277  24.0740080
 118.1782678  60.7673248  37.2824926 118.1458998  59.8289249  37.4684610
 118.7883302  60.8457285  36.5490751 110.0166009  59.6369301  23.3252130
 110.9625114  59.5075509  23.3940548 109.6380254  58.8983963  23.8021559
 118.3277167  57.5584291  37.3283210 117.8116215  56.7742748  37.1413138
 119.2117115  57.2303008  37.4929729 115.9887894  51.3025307  33.2879022
 115.7912715  50.9940395  34.1722354 116.5987599  52.0286946  33.4176952
 109.9004702  63.6887047  44.7852787 110.8207711  63.8665646  44.9792834
 109.8654285  62.7443092  44.6332487 108.2008926  57.5619277  23.2607016
 107.2940382  57.2652390  23.3369729 108.4784907  57.2649095  22.3941302
  99.1186867  58.8825641  33.7106062  98.7989651  58.0290949  33.4180436
  98.5720295  59.0974219  34.4664029 102.8966774  61.5988082  37.4275569
 103.1152784  62.5305190  37.4463602 103.3092548  61.2396056  38.2130372
 109.8170992  52.1056167  29.4151257 109.0071720  51.7603252  29.7906503
 110.5055409  51.7963711  30.0038868 111.7461540  51.1834214  31.0375554
 112.2992579  51.6029667  31.6965577 111.9831627  50.2569962  31.0798510
 107.7694640  57.1721287  46.8178317 107.6691367  58.1215644  46.7490409
 107.5516182  56.8439526  45.9454388 106.9707711  54.4206213  23.4018995
 107.8326875  54.7461111  23.6614812 107.1558055  53.6337708  22.8892061
  98.9875127  62.5028552  35.6799184  98.2938598  62.0882505  35.1669138
  99.7348118  62.5449089  35.0832603 115.1240347  53.2934739  30.5454218
 114.5439017  53.9519543  30.1632270 114.8576280  52.4712084  30.1341635
 113.5743914  52.6939797  32.7475538 114.0743692  52.8056331  31.9389857
 114.2179522  52.3900850  33.3876347 107.6325910  60.6018426  45.6343379
 107.1492991  61.4018786  45.8407268 107.7186849  60.6126371  44.6810823
 100.9011869  62.4346806  33.5565198 100.8782557  62.5334493  32.6047082
 101.2112506  63.2811957  33.8782365 103.5599247  64.4922961  37.6711813
 104.5142501  64.4606903  37.6041744 103.3611771  64.0313585  38.4862039
 104.1498629  63.0624077  40.2382611 104.9691518  63.5568156  40.2617448
 104.4235437  62.1456045  40.2100178 113.9065225  55.4534829  29.6010566
 113.0191081  55.7384480  29.3830761 114.3219215  55.2928593  28.7537843
 117.2579762  55.4781350  33.3164905 118.0340152  55.9677803  33.5889522
 116.5327896  55.9039405  33.7736775 119.6952320  56.1908970  34.3738846
 120.2896811  55.9504706  33.6632154 119.7678904  55.4716100  35.0012382
 101.9149476  70.0342581  34.6882011 101.7803944  69.2742981  34.1220009
 101.4981538  70.7583480  34.2210800 113.0508439  65.2179504  23.6958586
 113.7544289  65.4229507  24.3116242 112.3271088  65.7856266  23.9607670
 113.8806249  60.9689365  29.8160856 113.8241451  61.4257917  28.9768489
 114.4334592  60.2080050  29.6383699 117.6911055  56.7579097  30.6410976
 117.4347989  56.3575733  31.4719183 117.0663923  57.4722891  30.5161115
 105.0718602  70.9311898  34.9000453 104.9550986  71.8757330  34.7979144
 104.2511048  70.6285459  35.2886253 114.9595136  65.6562033  25.7457046
 115.7940740  65.2243232  25.5634521 114.7979479  65.4844047  26.6733941
 114.6141029  62.1594147  27.1113385 114.5589832  61.9938418  26.1701830
 113.9887084  62.8670179  27.2675575  99.4033544  57.3962211  40.9374808
 100.0492407  56.8861165  41.4262033  99.1950695  58.1330893  41.5118233
 111.9286936  64.4643058  46.4366948 112.7978095  64.6383711  46.0753583
 111.4493687  65.2837475  46.3142678 107.9237154  51.6602256  26.6898704
 107.9115824  52.6044095  26.8466975 108.8160576  51.4772401  26.3958165
 106.0973116  71.5840159  38.1156382 107.0000363  71.6163770  38.4322877
 105.8710486  70.6540610  38.1302718 107.8526718  70.3371146  34.7766460
 106.9022349  70.3373008  34.6630833 108.1559204  69.5903881  34.2602495
 111.7389273  48.2545032  30.9444641 110.9721669  47.7003519  31.0901323
 112.1499978  48.3266901  31.8058792 103.7431035  54.5429828  45.0349822
 104.6062496  54.1866633  45.2453146 103.1696445  54.2043723  45.7225226
 120.3969118  76.1259112  35.7773748 120.0587629  76.0100177  34.8894282
 121.2658886  75.7250278  35.7574754 116.2555933  77.9794589  31.7670639
 115.6920799  77.8884526  30.9986926 116.1408328  77.1594493  32.2473131
 120.8788901  77.2793964  41.7359953 120.8677541  76.8846762  40.8640457
 121.0409540  76.5460037  42.3293725 113.8020365  79.4745780  34.6054859
 114.5941657  79.1336605  34.1901158 114.0417016  79.5840756  35.5257012
 115.7611119  78.7354694  27.4772238 116.5341995  78.1883681  27.3385114
 116.1136518  79.5998943  27.6886699 117.5996162  80.0631076  40.6839137
 117.3086028  80.9676707  40.5685803 118.2353146  80.1047604  41.3983207
 118.5252369  77.4407925  37.2740497 119.1215941  77.2163947  36.5597460
 118.5827340  76.6992670  37.8765945 118.0977397  74.8947360  25.1090688
 118.3502918  74.3728881  24.3474151 117.1601956  74.7313505  25.2117371
 117.8173686  76.7975466  27.3115063 117.7009944  76.1220369  27.9796147
 117.9275946  76.3107840  26.4947216 120.1605227  76.2585613  31.0161752
 119.7963434  75.7316234  31.7274673 121.0172343  75.8684082  30.8428237
 119.8010714  71.2875513  26.0123100 119.9685116  72.1555749  26.3793571
 119.6107883  71.4502794  25.0884390 116.0098528  76.2006288  33.7125635
 115.0849025  76.0682502  33.9203327 116.2582942  76.9800508  34.2095578
 119.7799935  73.7433170  26.9969767 119.6599560  74.1890221  27.8355248
 119.0852523  74.0918488  26.4383305 113.3707339  75.8439562  34.5469424
 113.4999721  76.0974041  35.4608836 112.6904791  76.4367270  34.2274079
 117.5406827  86.5136812  30.6459898 117.4630856  87.4644637  30.7248379
 116.9368470  86.1682684  31.3034825 120.0324057  73.6864677  43.3021265
 119.2557391  74.2458597  43.2924130 120.6714620  74.1721460  43.8236135
 118.2870429  76.4950131  42.8639232 119.0285113  77.0335175  42.5874056
 117.5807414  77.1216419  43.0210784 120.1156839  73.5751878  38.8344951
 120.9618034  73.9991291  38.9779600 120.0555476  72.9185502  39.5283514
 119.6382545  78.9354870  32.4813768 120.1020891  79.2142573  31.6918390
 119.3739343  78.0338314  32.2986859 116.5306626  78.4826351  35.4193531
 117.1007983  78.9113620  34.7811016 117.1214738  78.2008936  36.1177717
 118.5751431  75.0578022  29.2903333 119.2775474  75.5099066  29.7577259
 118.2432060  74.4161841  29.9183226 117.0231793  73.6489779  43.6654542
 116.3930453  74.3306060  43.8989939 116.9167880  73.5372860  42.7207681
 112.3176765  73.3161575  34.5920467 111.5275819  73.5719103  34.1160577
 112.8088012  74.1309913  34.6972507 114.2691510  73.6806154  31.5503943
 113.4722674  73.7924848  32.0687439 114.0417103  74.0192806  30.6844834
 120.0997178  80.2050857  39.4986458 120.1641611  80.6671265  40.3344630
 119.3908102  79.5748222  39.6268768 110.6014468  73.5692065  37.0235457
 110.8522506  74.4539075  37.2893033 111.1374016  73.3896667  36.2510549
 119.8145196  81.8718965  29.3665438 119.6790870  82.7170501  29.7950286
 120.3555008  82.0738242  28.6031372 116.3012535  67.9510545  46.0279793
 115.9079481  67.3976743  46.7027438 117.1178676  68.2621123  46.4186311
 113.2674593  79.3894403  29.9393363 113.7799114  80.1837653  30.0898928
 113.9197306  78.6920693  29.8726965 115.0769478  82.5060159  32.0216116
 115.2536106  83.4278124  31.8337100 115.8726311  82.1918578  32.4510496
 119.2180496  69.3668424  43.6200050 119.9590210  69.9675577  43.5404512
 119.4498419  68.6246062  43.0618093 114.3621834  74.5524791  41.8978280
 114.2475349  73.6510048  42.1985379 113.5066352  74.7988488  41.5463096
 116.2000793  84.0238333  38.0226459 116.7508218  83.8955396  37.2503453
 115.3612269  84.3233222  37.6721352 119.9967964  80.2889461  42.3670690
 120.5296301  79.5277749  42.1369998 119.4682045  79.9963113  43.1094844
 111.2323510  77.7183057  30.7152934 112.0698732  78.1280066  30.4986642
 111.4101778  76.7782499  30.6853128 120.7135053  70.2307839  31.4622005
 119.8576649  69.8414689  31.2827644 121.1262005  70.3099799  30.6021791
 118.4877085  67.8492912  34.8679747 119.3530082  67.6535720  34.5085636
 118.5554594  67.6203263  35.7949103 121.3620677  79.4175453  29.8789502
 120.8342039  78.6828213  29.5662739 120.8608180  80.1950130  29.6329470
 116.0939405  70.0795119  32.2396113 116.6683156  69.8570301  31.5069306
 116.6810387  70.1483814  32.9924715 116.4208992  72.1099581  26.2591999
 115.5846304  72.4474267  26.5801273 116.2813761  71.9748560  25.3219136
 118.3962072  66.9536368  30.9671183 117.7426485  66.6385386  30.3427798
 118.3542546  66.3312109  31.6931006 119.5073277  77.2355663  22.8824475
 118.6000339  77.0044917  23.0815624 120.0044309  76.4393283  23.0698457
 120.6861511  77.3368258  27.4048465 119.7772730  77.0527291  27.5020935
 120.7156594  77.7567337  26.5451772 111.2549681  75.0573772  31.3863667
 111.0574081  74.4643133  30.6614734 110.6996345  74.7525983  32.1039606
 119.2346405  74.9496879  33.5058260 119.2895014  73.9970715  33.4300737
 118.4237607  75.1056318  33.9899559 120.3837598  78.8777002  24.7436544
 119.9457028  78.1612861  24.2842181 121.1248039  79.1053117  24.1821635
 117.1738765  73.5673939  31.2648639 116.3606630  73.8668109  31.6713831
 117.6697759  73.1729627  31.9823122 119.3247342  83.5631696  33.1982904
 119.2823521  83.7892542  32.2691436 120.2410041  83.3295070  33.3468705
 116.6652839  71.1392294  36.8809874 117.3052219  70.9981053  36.1832838
 115.8330370  70.8526808  36.5048476 117.4413143  80.4394725  32.9944867
 118.2353742  79.9445045  32.7927442 116.7304836  79.9112588  32.6312572
 113.7495907  74.5837806  29.0704619 112.8193495  74.5222262  29.2874581
 113.8453379  74.0613759  28.2741261 113.6681456  71.1092619  31.6582861
 113.9288273  72.0237952  31.5492021 114.4898628  70.6417062  31.8079474
 115.1406381  72.5230376  38.8281686 115.8129434  72.3147738  38.1794334
 114.3136168  72.3252462  38.3886918 120.0184419  81.0123747  36.6742704
 119.8795505  80.6442531  37.5468642 119.2299015  81.5271386  36.5026662
 120.6132571  86.1132843  28.0168240 120.7884327  85.6420886  28.8313863
 119.9265359  86.7398609  28.2449501 121.5689634  80.3905349  34.0631542
 121.2339467  80.3506119  34.9589191 121.0693580  79.7250065  33.5901952
 115.5433878  75.7972979  39.5884123 115.4053676  75.0653218  40.1895662
 116.4538802  75.7081879  39.3068310 118.1716179  75.5092939  39.0767802
 118.8815798  74.8686131  39.0354421 118.1285487  75.7605834  39.9993983
 116.8845113  72.4958157  40.8963442 116.3482470  72.0448895  41.5485038
 116.2961821  72.6304065  40.1533906 115.1793656  89.2622206  34.7908100
 115.4190255  89.8940730  35.4687119 114.3362853  88.9110246  35.0773460
 116.2947372  71.9546808  23.4589905 115.4176838  71.8335609  23.0952152
 116.7705125  71.1632886  23.2068794 107.8149512  76.7423968  33.5531413
 108.5020552  76.4285698  32.9652428 107.6597641  77.6465332  33.2798664
 112.6184234  71.6314164  37.9816436 112.5342423  71.0239834  37.2466846
 111.7966941  72.1223183  37.9825933 119.6921518  85.0701328  37.1949604
 119.6191690  85.8756300  37.7068909 119.2498911  85.2693294  36.3697626
 119.4811298  84.3073098  30.7052426 118.6978820  84.8494779  30.7990651
 120.1804043  84.8247078  31.1046667 119.3742917  72.2585111  33.0758316
 119.0040704  71.7056151  33.7639222 119.8702009  71.6543244  32.5233316
 117.2032115  82.7182606  40.1713334 117.9041575  83.3519089  40.3242728
 116.7327230  83.0597337  39.4108973 112.7999833  82.2518961  37.1044437
 113.3853270  81.5062649  37.2372341 112.6024672  82.5622918  37.9881101
 115.6538489  85.2870208  32.1206879 114.9848864  85.7716336  31.6370919
 115.5151358  85.5339429  33.0350258 107.3917488  74.8224561  35.8248880
 107.4301588  74.2888152  36.6185998 106.8857781  74.2959767  35.2059857
 119.7943757  87.3213952  38.7189537 120.3462065  87.4845573  39.4838623
 120.1349951  87.9118390  38.0469562 114.7708250  69.6689102  39.3211422
 114.8349577  70.5303932  38.9088820 114.7075371  69.0563103  38.5883781
 114.2460523  71.7412234  42.9684456 114.8732562  71.3589311  43.5821981
 113.3888442  71.5226436  43.3340149 111.0226066  73.5488663  28.9002811
 111.3179507  72.6399342  28.8469865 110.1214102  73.5276403  28.5783813
 114.5520313  71.6244660  34.8830360 113.8306899  72.2380627  34.7437833
 115.3413569  72.1602425  34.8047006 117.3546626  68.9599086  41.1571012
 117.8781028  69.2061383  41.9197321 117.1358960  69.7919121  40.7374149
 112.7513907  71.2302761  29.0242136 112.4226613  70.3500140  28.8417242
 113.1053278  71.1750430  29.9118526 115.8655731  71.5175731  29.3917614
 116.2051803  72.0461652  28.6696222 116.3127851  71.8556137  30.1676181
 118.5599171  69.9012781  38.8420682 118.2195992  69.1020594  39.2441362
 117.8538178  70.2014492  38.2697515 119.2115643  66.9862094  37.2948005
 120.0341712  66.5122572  37.1726895 119.4553707  67.7652578  37.7946691
 117.8523878  70.0150352  27.5910907 118.5732240  70.3931605  27.0874624
 117.2289182  70.7339229  27.6945885 116.7354222  73.6781214  35.1039984
 116.5898803  73.9921518  35.9964265 116.2579426  74.2966115  34.5510882
 118.5950605  70.6683762  35.1520873 118.5812174  69.7724856  34.8153171
 119.3123033  70.6754426  35.7859159 120.4476736  71.1021103  37.1974001
 120.1894513  72.0238173  37.1958331 119.9161776  70.7051537  37.8874465
 111.2099884  76.2186559  38.0427645 110.6653352  76.9946367  38.1747919
 112.0879234  76.5657363  37.8846766 117.9987501  69.5498143  30.4208443
 118.1203412  68.6214789  30.6199331 117.7089543  69.5636829  29.5086759
 120.8678691  67.2353053  33.5575163 120.8900388  67.2992386  32.6027143
 121.2846750  66.3957562  33.7515669 111.9965906  75.3456455  40.9357802
 111.2547642  75.4939090  41.5222432 111.6758650  75.6064721  40.0724551
 119.9409569  84.8872433  40.7338192 120.2496695  84.6421580  41.6060891
 120.7385051  85.0919072  40.2457062 119.9630181  87.0410343  32.9643568
 119.5235171  86.5486722  33.6576425 120.7138298  86.4983311  32.7235644
 112.4422520  83.2321884  32.9668196 113.2680540  82.9325656  32.5866840
 112.0916572  82.4629506  33.4157985 117.4104053  82.5848352  35.0365870
 116.7884062  81.9219057  34.7368098 118.0808920  82.6109484  34.3539518
 110.6431125  81.1508210  33.9257130 109.8063033  80.7230385  33.7441131
 110.6154770  81.3440654  34.8627921 117.4828580  71.0630140  44.6298376
 117.5316736  71.9392263  44.2476146 118.0251094  70.5207533  44.0570019
 116.9717560  81.1352275  28.5124330 117.1205680  81.8187740  27.8591003
 117.7784003  81.1157365  29.0273786 119.7127869  71.8161512  41.3844735
 118.8431178  72.1095079  41.1127323 119.9487349  72.4001957  42.1051998
 114.7270193  77.1617453  29.5185399 114.4816235  76.2579783  29.7165610
 114.8966107  77.1634603  28.5764877 113.9965840  72.8945811  27.0171561
 113.3035085  72.9690166  26.3611597 113.7517592  72.1306154  27.5393078
 120.4712965  83.6300406  25.9836078 119.8986932  84.2490593  25.5306550
 121.0445759  84.1799768  26.5176000 119.0402681  72.8911195  23.2607016
 118.1334136  72.5944308  23.3369729 119.3178662  72.5941013  22.3941302
 109.9580621  74.2117558  33.7106062 109.6383406  73.3582867  33.4180436
 109.4114049  74.4266137  34.4664029 113.7360529  76.9279999  37.4275569
 113.9546539  77.8597107  37.4463602 114.1486303  76.5687974  38.2130372
 120.6564747  67.4348085  29.4151257 119.8465475  67.0895170  29.7906503
 121.3449164  67.1255628  30.0038868 118.6088394  72.5013205  46.8178317
 118.5085121  73.4507562  46.7490409 118.3909936  72.1731444  45.9454388
 117.8101465  69.7498130  23.4018995 118.6720629  70.0753029  23.6614812
 117.9951810  68.9629626  22.8892061 109.8268881  77.8320470  35.6799184
 109.1332353  77.4174423  35.1669138 110.5741872  77.8741006  35.0832603
 118.4719664  75.9310344  45.6343379 117.9886746  76.7310704  45.8407268
 118.5580603  75.9418289  44.6810823 111.7405624  77.7638724  33.5565198
 111.7176312  77.8626411  32.6047082 112.0506260  78.6103874  33.8782365
 114.3993002  79.8214879  37.6711813 115.3536255  79.7898821  37.6041744
 114.2005525  79.3605502  38.4862039 114.9892384  78.3915995  40.2382611
 115.8085273  78.8860073  40.2617448 115.2629191  77.4747963  40.2100178
 112.7543230  85.3634498  34.6882011 112.6197698  84.6034899  34.1220009
 112.3375293  86.0875398  34.2210800 115.9112356  86.2603815  34.9000453
 115.7944740  87.2049248  34.7979144 115.0904803  85.9577377  35.2886253
 110.2427298  72.7254129  40.9374808 110.8886162  72.2153083  41.4262033
 110.0344449  73.4622810  41.5118233 118.7630908  66.9894173  26.6898704
 118.7509578  67.9336013  26.8466975 119.6554330  66.8064319  26.3958165
 116.9366870  86.9132077  38.1156382 117.8394117  86.9455687  38.4322877
 116.7104240  85.9832528  38.1302718 118.6920472  85.6663064  34.7766460
 117.7416103  85.6664925  34.6630833 118.9952959  84.9195798  34.2602495
 114.5824789  69.8721746  45.0349822 115.4456251  69.5158551  45.2453146
 114.0090200  69.5335640  45.7225226 118.6543267  92.0715885  33.5531413
 119.3414306  91.7577615  32.9652428 118.4991395  92.9757250  33.2798664
 118.2311243  90.1516479  35.8248880 118.2695342  89.6180069  36.6185998
 117.7251535  89.6251684  35.2059857 121.4824879  96.4800128  33.9257130
 120.6456787  96.0522302  33.7441131 121.4548525  96.6732571  34.8627921
 120.7974376  89.5409476  33.7106062 120.4777160  88.6874784  33.4180436
 120.2507804  89.7558054  34.4664029 120.6662636  93.1612388  35.6799184
 119.9726107  92.7466340  35.1669138 121.4135627  93.2032924  35.0832603
  74.1831810   2.2031264  17.3705205  74.1055840   3.1539089  17.4493686
  73.5793454   1.8577136  18.0280131  71.8218640   4.9516658  21.5153407
  72.0615238   5.5835182  22.1932426  70.9787836   4.6004698  21.8018766
  72.2963472   0.9764660  18.8452186  71.6273847   1.4610788  18.3616226
  72.1576342   1.2233881  19.7595564  76.4368741   3.0108404  25.4434844
  76.9887049   3.1740025  26.2083929  76.7774934   3.6012841  24.7714869
  69.3968214   1.0528950  21.4127317  69.2622682   0.2929351  20.8465315
  68.9800276   1.7769850  20.9456106  72.5537340   1.9498267  21.6245760
  72.4369724   2.8943700  21.5224450  71.7329786   1.6471829  22.0131559
  73.5791854   2.6026529  24.8401688  74.4819100   2.6350139  25.1568183
  73.3529224   1.6726980  24.8548024  87.8787856   7.1445482  22.5019054
  87.5406367   7.0286547  21.6139589  88.7477624   6.7436647  22.4820060
  83.7374671   8.9980958  18.4915945  83.1739536   8.9070895  17.7232233
  83.6227066   8.1780863  18.9718438  88.3607639   8.2980334  28.4605260
  88.3496279   7.9033132  27.5885763  88.5228278   7.5646406  29.0539031
  81.2839103  10.4932150  21.3300166  82.0760395  10.1522975  20.9146465
  81.5235753  10.6027125  22.2502319  89.3174230  12.6651926  13.8030410
  88.6662210  13.2506007  13.4164424  90.1118593  13.1958121  13.8625448
  83.2429857   9.7541063  14.2017544  84.0160733   9.2070050  14.0630420
  83.5955256  10.6185313  14.4132006  85.0814900  11.0817446  27.4084444
  84.7904766  11.9863076  27.2931110  85.7171884  11.1233973  28.1228513
  86.0071107   8.4594294  23.9985803  86.6034679   8.2350316  23.2842766
  86.0646078   7.7179040  24.6011251  85.2992424   7.8161835  14.0360369
  85.1828682   7.1406739  14.7041454  85.4094684   7.3294209  13.2192522
  87.6423965   7.2771982  17.7407059  87.2782172   6.7502603  18.4519980
  88.4991080   6.8870452  17.5673544  90.0404785  10.7678861  24.4034237
  89.7405508  11.6703900  24.2950045  89.6955844  10.5011044  25.2555390
  83.4917266   7.2192658  20.4370942  82.5667763   7.0868872  20.6448634
  83.7401679   7.9986877  20.9340884  80.8526077   6.8625931  21.2714731
  80.9818458   7.1160410  22.1854143  80.1723529   7.4553639  20.9519386
  85.0225565  17.5323181  17.3705205  84.9449594  18.4831006  17.4493686
  84.4187208  17.1869054  18.0280131  85.7689167   7.5136500  29.5884539
  86.5103851   8.0521544  29.3119363  85.0626152   8.1402789  29.7456091
  91.2444506   9.6565641  28.1856700  91.6527862   9.2148051  27.4411333
  90.5221768   9.0818268  28.4390893  91.5673321  10.2166831  21.9408989
  90.9382183  10.3812545  21.2385057  91.1798983  10.6308441  22.7119953
  95.4462553  11.1521269  19.2953353  94.7613591  11.5320170  18.7450386
  95.5306402  11.7616596  20.0285301  92.7013484   8.7981228  25.8948697
  92.9130380   9.4412988  25.2183078  92.6543233   7.9643545  25.4270627
  87.1201283   9.9541239  19.2059074  87.5839628  10.2328942  18.4163697
  86.8558081   9.0524684  19.0232165  84.0125364   9.5012721  22.1438838
  84.5826721   9.9299989  21.5056322  84.6033476   9.2195306  22.8423023
  79.7995503   4.3347944  21.3165773  79.0094557   4.5905473  20.8405884
  80.2906750   5.1496282  21.4217814  93.8159312  11.6753184  24.0671054
  94.6376756  11.2733371  23.7853736  93.8121715  11.5721418  25.0187170
  81.7510248   4.6992524  18.2749250  80.9541411   4.8111218  18.7932746
  81.5235840   5.0379176  17.4090140  87.5815916  11.2237227  26.2231764
  87.6460348  11.6857634  27.0589936  86.8726840  10.5934592  26.3514074
  78.0833206   4.5878435  23.7480764  78.3341244   5.4725445  24.0138340
  78.6192754   4.4083036  22.9755856  87.2963933  12.8905334  16.0910745
  87.1609608  13.7356870  16.5195593  87.8373746  13.0924612  15.3276679
  80.7493331  10.4080772  16.6638670  81.2617851  11.2024023  16.8144235
  81.4016044   9.7107063  16.5972271  82.5588216  13.5246529  18.7461423
  82.7354844  14.4464493  18.5582407  83.3545049  13.2104948  19.1755803
  81.8440572   5.5711161  28.6223586  81.7294087   4.6696418  28.9230685
  80.9885090   5.8174857  28.2708403  88.9232410  13.5128901  30.2211087
  88.4796264  12.7265279  29.9031991  89.5849623  13.7008051  29.5554978
  83.6819531  15.0424702  24.7471765  84.2326956  14.9141766  23.9748759
  82.8431007  15.3419591  24.3966658  91.0213648  13.7931701  28.2492488
  91.0032123  14.6140582  27.7572757  91.9433568  13.6685776  28.4742629
  87.4786702  11.3075830  29.0915997  88.0115039  10.5464118  28.8615305
  86.9500783  11.0149482  29.8340151  78.7142248   8.7369427  17.4398240
  79.5517470   9.1466435  17.2231948  78.8920515   7.7968869  17.4098434
  88.8439415  10.4361823  16.6034809  88.3160776   9.7014582  16.2908046
  88.3426917  11.2136499  16.3574777  93.8232261   8.6310843  21.7201855
  93.1655935   9.3210105  21.8081983  94.6272660   9.0207275  22.0635841
  89.8960094  16.9639540  12.5266468  89.2221793  17.2671237  13.1351426
  90.2825916  17.7668621  12.1771925  93.3999516  11.9661217  17.8984939
  92.9461843  11.1252127  17.9550130  92.7693482  12.6022616  18.2359719
  91.8432455  13.8037714  18.8334757  92.1355429  14.3642771  18.1147123
  92.3531076  14.0966275  19.5887916  78.7368419   6.0760142  18.1108974
  78.5392819   5.4829503  17.3860040  78.1815083   5.7712352  18.8284913
  86.8066080  14.5818065  19.9228211  86.7642259  14.8078911  18.9936743
  87.7228779  14.3481440  20.0714012  96.0098831  10.2397096  22.5369440
  96.4435337  10.1472385  23.3852494  96.7230411  10.2154596  21.8989456
  84.9231881  11.4581094  19.7190173  85.7172479  10.9631414  19.5172748
  84.2123573  10.9298957  19.3557879  89.7426725  13.8399190  24.0702541
  89.7963748  14.4090126  24.8380257  88.8741507  14.0101075  23.7056578
  81.2314644   5.6024176  15.7949926  80.3012233   5.5408631  16.0119888
  81.3272116   5.0800129  14.9986567  96.8714380  10.2820796  25.0702326
  97.0650270  11.1866607  25.3161601  96.7714998   9.8228215  25.9040911
  91.9329489  10.4327539  30.6443206  91.7814995  10.2038091  29.7273290
  91.9234168  11.3898140  30.6574551  88.7014825   8.0059452  25.6289473
  89.6306885   8.1570611  25.4558440  88.2805855   8.0943473  24.7738119
  87.5003157  12.0310116  23.3988010  87.3614243  11.6628901  24.2713949
  86.7117753  12.5457756  23.2271968  88.0951309  17.1319213  14.7413547
  88.2703065  16.6607256  15.5559170  87.4084097  17.7584979  14.9694808
  89.0508372  11.4091719  20.7876848  88.7158205  11.3692489  21.6834498
  88.5512318  10.7436435  20.3147258  83.0252616   6.8159349  26.3129429
  82.8872414   6.0839588  26.9140968  83.9357540   6.7268249  26.0313617
  85.6534917   6.5279308  25.8013109  86.3634535   5.8872500  25.7599727
  85.6104225   6.7792203  26.7239290  93.6421695  13.4646662  28.7219688
  93.5834242  12.7805882  28.0550271  94.0441214  14.2065652  28.2700314
  82.6612394  20.2808575  21.5153407  82.9008992  20.9127100  22.1932426
  81.8181591  19.9296615  21.8018766  93.6439103  11.4286246  26.9533668
  92.7565881  11.0912167  27.0760067  94.2137654  10.6969277  27.1902433
  75.2968250   7.7610337  20.2776719  75.9839290   7.4472067  19.6897735
  75.1416379   8.6651702  20.0043971  87.1740256  16.0887698  23.9194911
  87.1010428  16.8942669  24.4314216  86.7317649  16.2879664  23.0942932
  86.9630036  15.3259468  17.4297733  86.1797558  15.8681148  17.5235957
  87.6622781  15.8433448  17.8291974  89.6338940  15.9874532  26.0753070
  90.3466912  16.6221997  26.0028971  89.1428968  16.0838398  25.2593072
  91.3556467   9.8925785  17.6470361  90.4212745  10.0127247  17.4775066
  91.5333135   8.9898251  17.3830371  84.6850853  13.7368975  26.8958641
  85.3860313  14.3705458  27.0488035  84.2145968  14.0783707  26.1354280
  89.4459313  16.3273276  18.8239361  89.6281708  15.5094932  19.2867114
  90.2692299  16.5440968  18.3864251  89.7801479  15.2541461  16.0854410
  90.3089245  14.7433916  15.4724572  90.0429698  14.9383991  16.9499943
  88.5339712   7.0333394  31.2077228  87.8580349   6.9327523  31.8779603
  89.3567346   6.8772608  31.6713225  80.2818571  13.2705330  23.8289743
  80.8672008  12.5249018  23.9617647  80.0843410  13.5809287  24.7126407
  83.1357226  16.3056578  18.8452186  82.4667602  16.7902705  18.3616226
  82.9970096  16.5525798  19.7595564  74.8736226   5.8410931  22.5494186
  74.9120325   5.3074521  23.3431304  74.3676519   5.3146136  21.9305164
  87.2762495  18.3400321  25.4434844  87.8280803  18.5031943  26.2083929
  87.6168688  18.9304759  24.7714869  92.1273369  13.1661579  31.2983498
  92.6713273  13.7791537  30.8038453  91.5460214  13.7241157  31.8150511
  78.5044804   4.5675033  15.6248118  78.7998245   3.6585711  15.5715171
  77.6032839   4.5462772  15.3029120  90.4130882  16.2882297  22.4298526
  90.2882022  15.4872037  21.9209472  91.0709973  16.7828490  21.9412496
  92.4765791  14.0891317  24.0578076  91.5296126  13.9696668  23.9856403
  92.8248564  13.2013815  24.1404338  89.4812224  13.8844033  20.2582428
  89.3337186  12.9560741  20.4389999  90.3065718  13.9064124  19.7739504
  93.0846346  14.7072592  21.3447301  94.0092893  14.5015453  21.2071752
  92.9161649  14.4588993  22.2536643  92.8741662  15.2258259  16.7009393
  93.0478540  14.6604682  15.9483245  93.3670553  16.0259154  16.5188883
  78.6918622   7.2372928  24.7672951  78.1472090   8.0132736  24.8993226
  79.5697972   7.5843733  24.6092073  79.4784644   6.3642825  27.6603108
  78.7366380   6.5125460  28.2467739  79.1577388   6.6251090  26.7969858
  87.4228306  15.9058803  27.4583498  87.7315433  15.6607950  28.3306198
  88.2203788  16.1105441  26.9702369  87.4448918  18.0596713  19.6888875
  87.0053909  17.5673091  20.3821732  88.1957035  17.5169680  19.4480950
  79.9241257  14.2508253  19.6913503  80.7499277  13.9512025  19.3112147
  79.5735309  13.4815876  20.1403292  84.8922791  13.6034722  21.7611177
  84.2702800  12.9405427  21.4613404  85.5627657  13.6295854  21.0784824
  78.1249862  12.1694580  20.6502437  77.2881771  11.7416754  20.4686438
  78.0973508  12.3627023  21.5873228  95.4502164  12.6257633  30.6344820
  94.6597707  12.6081772  30.0949319  95.2135518  13.1645927  31.3893856
  84.4536297  12.1538645  15.2369637  84.6024418  12.8374109  14.5836310
  85.2602741  12.1343735  15.7519093  97.0718236  11.8947041  28.1919570
  96.7803044  12.2577021  29.0283031  96.4590367  11.1814049  28.0132902
  82.2088930   8.1803823  16.2430706  81.9634972   7.2766153  16.4410916
  82.3784845   8.1820973  15.3010184  87.9531703  14.6486775  12.7081385
  87.3805670  15.2676963  12.2551856  88.5264497  15.1986137  13.2421306
  88.2217194  10.0365334  31.5098094  89.1420203  10.2143933  31.7038141
  88.1866777   9.0921380  31.3577793  77.4399359   5.2303928  20.4351369
  77.1202143   4.3769236  20.1425743  76.8932787   5.4452506  21.1909336
  81.2179267   7.9466369  24.1520875  81.4365276   8.8783477  24.1708909
  81.6305040   7.5874343  24.9375679  77.3087619   8.8506839  22.4044490
  76.6151090   8.4360792  21.8914445  78.0560610   8.8927376  21.8077909
  85.9538402   6.9496714  32.3588686  85.4705484   7.7497074  32.5652575
  86.0399341   6.9604658  31.4056130  79.2224362   8.7825093  20.2810505
  79.1995050   8.8812780  19.3292388  79.5324998   9.6290244  20.6027671
  81.8811739  10.8401248  24.3957120  82.8354993  10.8085191  24.3287051
  81.6824263  10.3791872  25.2107345  82.4711122   9.4102364  26.9627917
  83.2904011   9.9046443  26.9862754  82.7447929   8.4934332  26.9345485
  80.2361968  16.3820868  21.4127317  80.1016436  15.6221269  20.8465315
  79.8194030  17.1061768  20.9456106  83.3931094  17.2790185  21.6245760
  83.2763478  18.2235617  21.5224450  82.5723540  16.9763746  22.0131559
  77.7246036   3.7440498  27.6620114  78.3704899   3.2339452  28.1507339
  77.5163187   4.4809180  28.2363540  90.2499428  10.8121346  33.1612255
  91.1190588  10.9861998  32.7998890  89.7706179  11.6315762  33.0387984
  84.4185608  17.9318447  24.8401688  85.3212855  17.9642057  25.1568183
  84.1922978  17.0018898  24.8548024  86.1739210  16.6849433  21.5011767
  85.2234841  16.6851295  21.3876139  86.4771696  15.9382168  20.9847802
 101.9091904  22.5209972  22.5657530 102.5470314  22.4016719  21.8620870
 101.7912747  23.4690816  22.6245482  98.7181610  22.4737400  22.5019054
  98.3800122  22.3578464  21.6139589  99.5871378  22.0728565  22.4820060
  94.5768426  24.3272876  18.4915945  94.0133291  24.2362813  17.7232233
  94.4620821  23.5072781  18.9718438  99.2001393  23.6272251  28.4605260
  99.1890034  23.2325050  27.5885763  99.3622032  22.8938324  29.0539031
  92.1232858  25.8224068  21.3300166  92.9154150  25.4814892  20.9146465
  92.3629508  25.9319043  22.2502319 100.1567984  27.9943844  13.8030410
  99.5055964  28.5797924  13.4164424 100.9512347  28.5250039  13.8625448
  94.0823612  25.0832981  14.2017544  94.8554488  24.5361968  14.0630420
  94.4349010  25.9477230  14.4132006  95.9208654  26.4109363  27.4084444
  95.6298520  27.3154994  27.2931110  96.5565638  26.4525891  28.1228513
  96.8464861  23.7886212  23.9985803  97.4428433  23.5642234  23.2842766
  96.9039833  23.0470957  24.6011251  96.1386178  23.1453753  14.0360369
  96.0222436  22.4698656  14.7041454  96.2488438  22.6586127  13.2192522
  98.4817719  22.6063900  17.7407059  98.1175926  22.0794521  18.4519980
  99.3384835  22.2162369  17.5673544 104.3867020  13.8958233  25.0038325
 104.0550344  14.7653644  24.7799540 103.7912633  13.5794517  25.6832355
 100.8798539  26.0970779  24.4034237 100.5799262  26.9995818  24.2950045
 100.5349599  25.8302962  25.2555390  94.3311021  22.5484576  20.4370942
  93.4061517  22.4160790  20.6448634  94.5795434  23.3278795  20.9340884
 104.2795683  18.6153319  22.0831675 103.3712560  18.5468727  21.7890436
 104.2283279  19.0925264  22.9113500  91.6919832  22.1917849  21.2714731
  91.8212213  22.4452328  22.1854143  91.0117283  22.7845557  20.9519386
  95.8619319  32.8615099  17.3705205  95.7843349  33.8122924  17.4493686
  95.2580963  32.5160972  18.0280131  98.3536549  20.0342965  30.0266572
  97.5769883  20.5936885  30.0169437  98.9927112  20.5199747  30.5481442
  96.6082921  22.8428418  29.5884539  97.3497605  23.3813462  29.3119363
  95.9019907  23.4694707  29.7456091 102.0838261  24.9857558  28.1856700
 102.4921617  24.5439969  27.4411333 101.3615522  24.4110186  28.4390893
  98.4369331  19.9230165  25.5590257  99.2830526  20.3469579  25.7024906
  98.3767968  19.2663789  26.2528821 102.4067075  25.5458749  21.9408989
 101.7775938  25.7104463  21.2385057 102.0192737  25.9600359  22.7119953
 106.2856307  26.4813187  19.2953353 105.6007345  26.8612088  18.7450386
 106.3700157  27.0908513  20.0285301 101.5868776  17.5834533  27.2171431
 101.3429708  18.3376594  26.6805707 101.8628707  17.9619881  28.0518678
 103.5407239  24.1273146  25.8948697 103.7524134  24.7704906  25.2183078
 103.4936987  23.2935462  25.4270627  97.9595037  25.2833157  19.2059074
  98.4233383  25.5620860  18.4163697  97.6951835  24.3816602  19.0232165
  94.8519118  24.8304639  22.1438838  95.4220475  25.2591907  21.5056322
  95.4427230  24.5487223  22.8423023  96.8963923  21.4056309  16.0148640
  97.5987967  21.8577353  16.4822566  96.5644552  20.7640128  16.6428533
  95.3444285  19.9968066  30.3899849  94.7142945  20.6784347  30.6235246
  95.2380373  19.8851148  29.4452987  90.6389257  19.6639862  21.3165773
  89.8488311  19.9197391  20.8405884  91.1300505  20.4788200  21.4217814
 104.6553067  27.0045101  24.0671054 105.4770511  26.6025289  23.7853736
 104.6515470  26.9013335  25.0187170  92.5904003  20.0284441  18.2749250
  91.7935166  20.1403136  18.7932746  92.3629595  20.3671094  17.4090140
  98.4209670  26.5529145  26.2231764  98.4854103  27.0149552  27.0589936
  97.7120594  25.9226509  26.3514074  88.9226960  19.9170353  23.7480764
  89.1734999  20.8017362  24.0138340  89.4586509  19.7374954  22.9755856
  98.1357688  28.2197252  16.0910745  98.0003363  29.0648788  16.5195593
  98.6767500  28.4216530  15.3276679  94.6225028  14.2988832  32.7525100
  94.2291973  13.7455030  33.4272744  95.4391168  14.6099410  33.1431618
  91.5887085  25.7372690  16.6638670  92.1011606  26.5315940  16.8144235
  92.2409798  25.0398981  16.5972271  93.3981970  28.8538446  18.7461423
  93.5748598  29.7756411  18.5582407  94.1938804  28.5396866  19.1755803
  97.5392989  15.7146711  30.3445357  98.2802702  16.3153864  30.2649819
  97.7710911  14.9724349  29.7863399  92.6834327  20.9003078  28.6223586
  92.5687842  19.9988335  28.9230685  91.8278844  21.1466775  28.2708403
  99.7626164  28.8420819  30.2211087  99.3190019  28.0557197  29.9031991
 100.4243378  29.0299969  29.5554978  94.5213285  30.3716620  24.7471765
  95.0720711  30.2433684  23.9748759  93.6824761  30.6711509  24.3966658
 101.8607402  29.1223618  28.2492488 101.8425878  29.9432500  27.7572757
 102.7827322  28.9977694  28.4742629  98.3180457  26.6367748  29.0915997
  98.8508793  25.8756036  28.8615305  97.7894538  26.3441400  29.8340151
  89.5536002  24.0661344  17.4398240  90.3911224  24.4758353  17.2231948
  89.7314270  23.1260787  17.4098434 100.5646692  14.1132469  22.5858872
 100.0611487  14.0762604  21.7726677 100.8577299  15.0225212  22.6455528
  96.8089578  14.1971199  21.5925053  97.6742575  14.0014007  21.2330943
  96.8767087  13.9681551  22.5194410  99.6833169  25.7653740  16.6034809
  99.1554531  25.0306500  16.2908046  99.1820672  26.5428417  16.3574777
 104.6626015  23.9602761  21.7201855 104.0049690  24.6502022  21.8081983
 105.4666414  24.3499193  22.0635841  94.4151897  16.4273407  18.9641420
  94.9895649  16.2048588  18.2314613  95.0022879  16.4962101  19.7170021
 100.7353848  32.2931458  12.5266468 100.0615547  32.5963155  13.1351426
 101.1219670  33.0960538  12.1771925 104.2393270  27.2953135  17.8984939
 103.7855597  26.4544045  17.9550130 103.6087237  27.9314533  18.2359719
 102.6826210  29.1329632  18.8334757 102.9749184  29.6934689  18.1147123
 103.1924830  29.4258193  19.5887916  89.5762173  21.4052060  18.1108974
  89.3786573  20.8121420  17.3860040  89.0208837  21.1004270  18.8284913
  97.5558897  21.2975166  20.2303567  97.6107507  20.3449003  20.1546044
  96.7450099  21.4534605  20.7144865  95.4951257  19.9152226  17.9893946
  94.6819122  20.2146396  18.3959138  95.9910251  19.5207915  18.7068428
  97.6459835  29.9109983  19.9228211  97.6036014  30.1370829  18.9936743
  98.5622534  29.6773357  20.0714012 101.0925469  20.3794050  26.8208840
 101.4474856  20.6065524  27.6803306 101.7397600  20.7112427  26.1986095
  94.9865332  17.4870581  23.6055181  95.6264711  17.3459341  22.9078144
  94.1542862  17.2005095  23.2293783 106.8492585  25.5689013  22.5369440
 107.2829092  25.4764302  23.3852494 107.5624166  25.5446514  21.8989456
  95.7625635  26.7873012  19.7190173  96.5566234  26.2923332  19.5172748
  95.0517328  26.2590875  19.3557879 100.5820480  29.1691107  24.0702541
 100.6357502  29.7382044  24.8380257  99.7135261  29.3392992  23.7056578
  92.0708399  20.9316094  15.7949926  91.1405987  20.8700549  16.0119888
  92.1665871  20.4092046  14.9986567  91.9893948  17.4570906  18.3828168
  92.2500765  18.3716240  18.2737328  92.8111120  16.9895349  18.5324780
  93.4618873  18.8708664  25.5526992  94.1341927  18.6626026  24.9039641
  92.6348660  18.6730750  25.1132224 107.7108135  25.6112714  25.0702326
 107.9044025  26.5158524  25.3161601 107.6108753  25.1520133  25.9040911
  99.3644445  15.4970605  27.5692653  98.7172360  16.1960554  27.4757129
 100.1345461  15.9306748  27.9368901 102.7723243  25.7619457  30.6443206
 102.6208750  25.5330008  29.7273290 102.7627923  26.7190058  30.6574551
  99.5408580  23.3351369  25.6289473 100.4700640  23.4862529  25.4558440
  99.1199610  23.4235390  24.7738119  98.3396911  27.3602034  23.3988010
  98.2007997  26.9920818  24.2713949  97.5511508  27.8749673  23.2271968
  98.9345063  32.4611130  14.7413547  99.1096819  31.9899174  15.5559170
  98.2477851  33.0876897  14.9694808  99.8902127  26.7383637  20.7876848
  99.5551959  26.6984407  21.6834498  99.3906072  26.0728352  20.3147258
  93.8646371  22.1451267  26.3129429  93.7266169  21.4131505  26.9140968
  94.7751294  22.0560167  26.0313617  96.4928671  21.8571226  25.8013109
  97.2028290  21.2164418  25.7599727  96.4497979  22.1084121  26.7239290
 104.4815450  28.7938579  28.7219688 104.4227996  28.1097799  28.0550271
 104.8834968  29.5357569  28.2700314  95.2057605  18.8436444  27.6208748
  94.6694962  18.3927182  28.2730345  94.6174314  18.9782353  26.8779213
  93.5006149  35.6100493  21.5153407  93.7402747  36.2419017  22.1932426
  92.6575345  35.2588533  21.8018766 104.4832857  26.7578163  26.9533668
 103.5959636  26.4204085  27.0760067 105.0531408  26.0261194  27.1902433
  86.1362004  23.0902255  20.2776719  86.8233044  22.7763985  19.6897735
  85.9810133  23.9943620  20.0043971  90.9396726  17.9792451  24.7061743
  90.8554915  17.3718121  23.9712153  90.1179433  18.4701470  24.7071239
  98.0134011  31.4179616  23.9194911  97.9404182  32.2234587  24.4314216
  97.5711404  31.6171581  23.0942932  97.8023790  30.6551386  17.4297733
  97.0191312  31.1973066  17.5235957  98.5016535  31.1725365  17.8291974
 100.4732694  31.3166450  26.0753070 101.1860666  31.9513914  26.0028971
  99.9822723  31.4130316  25.2593072 102.1950221  25.2217702  17.6470361
 101.2606500  25.3419165  17.4775066 102.3726889  24.3190169  17.3830371
  97.6955409  18.6063398  19.8003623  97.3253197  18.0534438  20.4884528
  98.1914502  18.0021531  19.2478623  95.5244608  29.0660893  26.8958641
  96.2254067  29.6997376  27.0488035  95.0539723  29.4075625  26.1354280
 103.3245894  21.6205500  24.7211191 102.6717344  21.8681408  24.0663644
 103.7026274  20.8069639  24.3873668 100.2853068  31.6565194  18.8239361
 100.4675462  30.8386850  19.2867114 101.1086054  31.8732886  18.3864251
 100.6195233  30.5833379  16.0854410 101.1482999  30.0725833  15.4724572
 100.8823453  30.2675909  16.9499943  99.3733467  22.3625312  31.2077228
  98.6974104  22.2619441  31.8779603 100.1961101  22.2064525  31.6713225
  91.1212326  28.5997248  23.8289743  91.7065763  27.8540936  23.9617647
  90.9237164  28.9101205  24.7126407  93.9750981  31.6348495  18.8452186
  93.3061356  32.1194623  18.3616226  93.8363851  31.8817716  19.7595564
  85.7129980  21.1702848  22.5494186  85.7514080  20.6366439  23.3431304
  85.2070273  20.6438054  21.9305164  98.1156250  33.6692239  25.4434844
  98.6674558  33.8323860  26.2083929  98.4562443  34.2596677  24.7714869
  93.0920743  16.0167389  26.0456729  93.1562069  16.8782220  25.6334126
  93.0287863  15.4041390  25.3129087  92.5673015  18.0890521  29.6929763
  93.1945054  17.7067599  30.3067287  91.7100934  17.8704723  30.0585455
 102.9667124  28.4953496  31.2983498 103.5107028  29.1083455  30.8038453
 102.3853969  29.0533075  31.8150511  89.3438558  19.8966950  15.6248118
  89.6391999  18.9877629  15.5715171  88.4426594  19.8754690  15.3029120
 101.2524637  31.6174215  22.4298526 101.1275776  30.8163954  21.9209472
 101.9103728  32.1120408  21.9412496  92.8732805  17.9722947  21.6075666
  92.1519391  18.5858915  21.4683140  93.6626061  18.5080712  21.5292312
 103.3159545  29.4183235  24.0578076 102.3689881  29.2988586  23.9856403
 103.6642318  28.5305733  24.1404338  95.6759119  15.3077374  27.8816318
  96.1993520  15.5539670  28.6442627  95.4571452  16.1397408  27.4619455
  91.0726400  17.5781048  15.7487443  90.7439106  16.6978427  15.5662549
  91.4265770  17.5228717  16.6363832 100.3205978  29.2135951  20.2582428
 100.1730941  28.2852658  20.4389999 101.1459472  29.2356042  19.7739504
  94.1868223  17.8654018  16.1162921  94.5264295  18.3939939  15.3941529
  94.6340343  18.2034424  16.8921487 103.9240100  30.0364510  21.3447301
 104.8486648  29.8307371  21.2071752 103.7555404  29.7880911  22.2536643
  96.8811664  16.2491069  25.5665989  96.5408484  15.4498882  25.9686669
  96.1750670  16.5492779  24.9942822  97.5328135  13.3340381  24.0193312
  98.3554205  12.8600859  23.8972202  97.7766199  14.1130865  24.5191998
  95.0566714  20.0259502  21.8285290  94.9111295  20.3399805  22.7209572
  94.5791918  20.6444402  21.2756189  96.9163097  17.0162050  21.8766180
  96.9024666  16.1203143  21.5398478  97.6335525  17.0232713  22.5104466
  98.7689228  17.4499390  23.9219307  98.5107006  18.3716461  23.9203638
  98.2374268  17.0529824  24.6119771 103.7135417  30.5550177  16.7009393
 103.8872294  29.9896599  15.9483245 104.2064308  31.3551072  16.5188883
  89.5312376  22.5664846  24.7672951  88.9865844  23.3424654  24.8993226
  90.4091726  22.9135651  24.6092073  90.3178398  21.6934742  27.6603108
  89.5760134  21.8417378  28.2467739  89.9971142  21.9543008  26.7969858
  98.2622061  31.2350721  27.4583498  98.5709187  30.9899867  28.3306198
  99.0597543  31.4397359  26.9702369  98.2842673  33.3888630  19.6888875
  97.8447663  32.8965009  20.3821732  99.0350790  32.8461598  19.4480950
  90.7635012  29.5800171  19.6913503  91.5893032  29.2803943  19.3112147
  90.4129064  28.8107793  20.1403292  95.7316545  28.9326639  21.7611177
  95.1096554  28.2697344  21.4613404  96.4021412  28.9587771  21.0784824
  88.9643617  27.4986498  20.6502437  88.1275525  27.0708672  20.4686438
  88.9367262  27.6918941  21.5873228  95.8041073  17.4108427  31.3543683
  95.8529228  18.2870550  30.9721452  96.3463587  16.8685820  30.7815326
 106.2895918  27.9549551  30.6344820 105.4991462  27.9373689  30.0949319
 106.0529273  28.4937844  31.3893856 106.4093793  24.8042017  27.9477548
 106.4591798  24.6392024  28.8893071 106.3007717  23.9369276  27.5575429
  95.2930052  27.4830563  15.2369637  95.4418172  28.1666027  14.5836310
  96.0996495  27.4635653  15.7519093 103.6997556  20.7872945  29.2636855
 104.6007418  20.6479410  28.9720853 103.7745530  20.9527400  30.2035032
  98.0340361  18.1639800  28.1090041  97.1643670  18.4573366  27.8372630
  98.2699841  18.7480245  28.8297305 107.9111990  27.2238958  28.1919570
 107.6196798  27.5868939  29.0283031 107.2984121  26.5105967  28.0132902
 106.1599178  22.3471573  26.6599628 106.6353300  22.5399219  25.8518479
 105.2364744  22.4030759  26.4143011  93.0482685  23.5095740  16.2430706
  92.8028727  22.6058070  16.4410916  93.2178599  23.5112891  15.3010184
 100.7379395  14.3819417  25.6255462 101.2561339  15.1180444  25.3001950
 100.3834528  14.6883410  26.4602221  92.3178332  19.2424098  13.7416867
  91.6247577  19.3168453  13.0856903  92.0730084  18.4784441  14.2638384
  98.7925457  29.9778693  12.7081385  98.2199425  30.5968880  12.2551856
  99.3658251  30.5278055  13.2421306 104.8600847  19.2237333  24.8927933
 105.8118270  19.3235431  24.9140157 104.6904298  18.4315602  25.4026018
 102.8815227  16.3092916  25.0787334 102.2865159  16.5897929  24.3833823
 102.5964924  16.7986817  25.8504075 107.3388925  22.4443453  24.0070233
 107.3065245  21.5059454  24.1929917 107.9489549  22.5227490  23.2736058
  99.0610949  25.3657252  31.5098094  99.9813958  25.5435851  31.7038141
  99.0260532  24.4213297  31.3577793  88.2793114  20.5595846  20.4351369
  87.9595898  19.7061154  20.1425743  87.7326542  20.7744424  21.1909336
  92.0573021  23.2758287  24.1520875  92.2759031  24.2075394  24.1708909
  92.4698795  22.9166261  24.9375679  96.9300886  18.8491492  33.5423624
  96.8297613  19.7985849  33.4735715  96.7122428  18.5209731  32.6699694
  88.1481374  24.1798757  22.4044490  87.4544845  23.7652710  21.8914445
  88.8954365  24.2219294  21.8077909  96.7932156  22.2788631  32.3588686
  96.3099238  23.0788991  32.5652575  96.8793095  22.2896576  31.4056130
  90.0618116  24.1117011  20.2810505  90.0388804  24.2104698  19.3292388
  90.3718753  24.9582162  20.6027671  92.7205494  26.1693166  24.3957120
  93.6748747  26.1377108  24.3287051  92.5218018  25.7083790  25.2107345
  93.3104876  24.7394282  26.9627917  94.1297765  25.2338361  26.9862754
  93.5841684  23.8226250  26.9345485  91.0755723  31.7112785  21.4127317
  90.9410191  30.9513186  20.8465315  90.6587785  32.4353685  20.9456106
  94.2324849  32.6082102  21.6245760  94.1157233  33.5527535  21.5224450
  93.4117295  32.3055664  22.0131559  88.5639790  19.0732416  27.6620114
  89.2098654  18.5631370  28.1507339  88.3556941  19.8101097  28.2363540
 101.0893182  26.1413263  33.1612255 101.9584342  26.3153916  32.7998890
 100.6099934  26.9607680  33.0387984  95.2579363  33.2610364  24.8401688
  96.1606609  33.2933975  25.1568183  95.0316733  32.3310815  24.8548024
  97.0132965  32.0141351  21.5011767  96.0628596  32.0143212  21.3876139
  97.3165451  31.2674085  20.9847802  92.9037281  16.2200033  31.7595129
  93.7668743  15.8636838  31.9698453  92.3302692  15.8813928  32.4470533
 112.7485658  37.8501889  22.5657530 113.3864068  37.7308637  21.8620870
 112.6306501  38.7982733  22.6245482 109.5575365  37.8029317  22.5019054
 109.2193876  37.6870382  21.6139589 110.4265133  37.4020482  22.4820060
 105.4162180  39.6564794  18.4915945 104.8527045  39.5654731  17.7232233
 105.3014575  38.8364698  18.9718438 110.0395147  38.9564169  28.4605260
 110.0283788  38.5616967  27.5885763 110.2015787  38.2230242  29.0539031
 102.9626612  41.1515985  21.3300166 103.7547904  40.8106810  20.9146465
 103.2023262  41.2610960  22.2502319 110.9961739  43.3235761  13.8030410
 110.3449719  43.9089842  13.4164424 111.7906102  43.8541956  13.8625448
 104.9217366  40.4124899  14.2017544 105.6948242  39.8653886  14.0630420
 105.2742765  41.2769148  14.4132006 106.7602409  41.7401281  27.4084444
 106.4692275  42.6446912  27.2931110 107.3959393  41.7817809  28.1228513
 107.6858615  39.1178129  23.9985803 108.2822188  38.8934152  23.2842766
 107.7433587  38.3762875  24.6011251 106.9779933  38.4745671  14.0360369
 106.8616191  37.7990574  14.7041454 107.0882193  37.9878045  13.2192522
 109.3211474  37.9355818  17.7407059 108.9569681  37.4086439  18.4519980
 110.1778589  37.5454287  17.5673544 115.2260774  29.2250150  25.0038325
 114.8944099  30.0945561  24.7799540 114.6306388  28.9086434  25.6832355
 111.7192294  41.4262696  24.4034237 111.4193017  42.3287735  24.2950045
 111.3743353  41.1594880  25.2555390 105.1704775  37.8776493  20.4370942
 104.2455272  37.7452707  20.6448634 105.4189188  38.6570712  20.9340884
 115.1189438  33.9445237  22.0831675 114.2106315  33.8760645  21.7890436
 115.0677033  34.4217182  22.9113500 102.5313586  37.5209767  21.2714731
 102.6605967  37.7744246  22.1854143 101.8511038  38.1137475  20.9519386
 106.7013074  48.1907017  17.3705205 106.6237103  49.1414842  17.4493686
 106.0974717  47.8452889  18.0280131 109.1930303  35.3634882  30.0266572
 108.4163637  35.9228802  30.0169437 109.8320866  35.8491665  30.5481442
 107.4476676  38.1720336  29.5884539 108.1891360  38.7105380  29.3119363
 106.7413661  38.7986624  29.7456091 112.9232015  40.3149476  28.1856700
 113.3315371  39.8731887  27.4411333 112.2009277  39.7402104  28.4390893
 109.2763085  35.2522083  25.5590257 110.1224280  35.6761496  25.7024906
 109.2161723  34.5955707  26.2528821 113.2460830  40.8750667  21.9408989
 112.6169692  41.0396381  21.2385057 112.8586492  41.2892276  22.7119953
 117.1250062  41.8105104  19.2953353 116.4401100  42.1904006  18.7450386
 117.2093911  42.4200431  20.0285301 112.4262531  32.9126451  27.2171431
 112.1823462  33.6668512  26.6805707 112.7022461  33.2911799  28.0518678
 114.3800993  39.4565064  25.8948697 114.5917889  40.0996823  25.2183078
 114.3330742  38.6227380  25.4270627 111.9827222  32.0682884  22.7985269
 111.1211701  32.3664138  23.0902006 112.0089657  32.2853283  21.8666301
 108.7988792  40.6125075  19.2059074 109.2627137  40.8912778  18.4163697
 108.5345590  39.7108519  19.0232165 105.6912873  40.1596556  22.1438838
 106.2614230  40.5883825  21.5056322 106.2820985  39.8779141  22.8423023
 107.7357678  36.7348227  16.0148640 108.4381721  37.1869271  16.4822566
 107.4038306  36.0932046  16.6428533 106.1838039  35.3259984  30.3899849
 105.5536700  36.0076265  30.6235246 106.0774127  35.2143065  29.4452987
 101.4783012  34.9931780  21.3165773 100.6882066  35.2489308  20.8405884
 101.9694259  35.8080118  21.4217814 115.4946821  42.3337019  24.0671054
 116.3164265  41.9317206  23.7853736 115.4909224  42.2305253  25.0187170
 103.4297757  35.3576359  18.2749250 102.6328920  35.4695053  18.7932746
 103.2023349  35.6963011  17.4090140 109.2603425  41.8821062  26.2231764
 109.3247857  42.3441469  27.0589936 108.5514349  41.2518427  26.3514074
  99.7620715  35.2462270  23.7480764 100.0128753  36.1309280  24.0138340
 100.2980263  35.0666872  22.9755856 108.9751442  43.5489170  16.0910745
 108.8397117  44.3940705  16.5195593 109.5161255  43.7508447  15.3276679
 105.4618782  29.6280750  32.7525100 105.0685728  29.0746948  33.4272744
 106.2784922  29.9391328  33.1431618 102.4280840  41.0664608  16.6638670
 102.9405360  41.8607858  16.8144235 103.0803553  40.3690898  16.5972271
 104.2375725  44.1830364  18.7461423 104.4142353  45.1048329  18.5582407
 105.0332558  43.8688783  19.1755803 108.3786743  31.0438629  30.3445357
 109.1196456  31.6445782  30.2649819 108.6104666  30.3016266  29.7863399
 103.5228081  36.2294996  28.6223586 103.4081596  35.3280253  28.9230685
 102.6672599  36.4758693  28.2708403 110.6019919  44.1712736  30.2211087
 110.1583773  43.3849115  29.9031991 111.2637132  44.3591887  29.5554978
 105.3607040  45.7008538  24.7471765 105.9114465  45.5725601  23.9748759
 104.5218516  46.0003427  24.3966658 112.7001157  44.4515536  28.2492488
 112.6819632  45.2724417  27.7572757 113.6221077  44.3269611  28.4742629
 109.1574211  41.9659666  29.0915997 109.6902548  41.2047954  28.8615305
 108.6288292  41.6733317  29.8340151 100.3929757  39.3953262  17.4398240
 101.2304979  39.8050270  17.2231948 100.5708024  38.4552704  17.4098434
 111.4040446  29.4424387  22.5858872 110.9005242  29.4054522  21.7726677
 111.6971053  30.3517129  22.6455528 107.6483332  29.5263116  21.5925053
 108.5136329  29.3305925  21.2330943 107.7160841  29.2973468  22.5194410
 110.5226924  41.0945658  16.6034809 109.9948285  40.3598418  16.2908046
 110.0214426  41.8720334  16.3574777 115.5019770  39.2894679  21.7201855
 114.8443444  39.9793940  21.8081983 116.3060169  39.6791111  22.0635841
 105.2545651  31.7565324  18.9641420 105.8289403  31.5340506  18.2314613
 105.8416634  31.8254019  19.7170021 111.5747603  47.6223376  12.5266468
 110.9009302  47.9255072  13.1351426 111.9613425  48.4252456  12.1771925
 110.7906059  35.1188507  22.0164137 109.8728621  35.3403454  21.8585825
 111.2066203  35.1934817  21.1575844 115.0787025  42.6245053  17.8984939
 114.6249352  41.7835963  17.9550130 114.4480991  43.2606451  18.2359719
 113.5219964  44.4621549  18.8334757 113.8142938  45.0226607  18.1147123
 114.0318585  44.7550110  19.5887916 100.4155928  36.7343977  18.1108974
 100.2180328  36.1413338  17.3860040  99.8602592  36.4296188  18.8284913
 108.3952651  36.6267084  20.2303567 108.4501261  35.6740920  20.1546044
 107.5843853  36.7826523  20.7144865 106.3345011  35.2444144  17.9893946
 105.5212877  35.5438314  18.3959138 106.8304006  34.8499832  18.7068428
 108.4853589  45.2401901  19.9228211 108.4429768  45.4662747  18.9936743
 109.4016288  45.0065275  20.0714012 111.9319223  35.7085968  26.8208840
 112.2868611  35.9357441  27.6803306 112.5791354  36.0404345  26.1986095
 105.8259086  32.8162499  23.6055181 106.4658465  32.6751258  22.9078144
 104.9936617  32.5297013  23.2293783 117.6886340  40.8980931  22.5369440
 118.1222846  40.8056220  23.3852494 118.4017920  40.8738431  21.8989456
 106.6019390  42.1164930  19.7190173 107.3959988  41.6215250  19.5172748
 105.8911082  41.5882793  19.3557879 111.4214234  44.4983025  24.0702541
 111.4751257  45.0673961  24.8380257 110.5529016  44.6684910  23.7056578
 102.9102153  36.2608011  15.7949926 101.9799742  36.1992467  16.0119888
 103.0059625  35.7383964  14.9986567 102.8287702  32.7862824  18.3828168
 103.0894520  33.7008157  18.2737328 103.6504875  32.3187267  18.5324780
 104.3012628  34.2000581  25.5526992 104.9735681  33.9917943  24.9039641
 103.4742414  34.0022667  25.1132224 118.5501889  40.9404632  25.0702326
 118.7437779  41.8450442  25.3161601 118.4502507  40.4812051  25.9040911
 110.2038200  30.8262522  27.5692653 109.5566115  31.5252472  27.4757129
 110.9739215  31.2598666  27.9368901 113.6116998  41.0911374  30.6443206
 113.4602504  40.8621926  29.7273290 113.6021677  42.0481976  30.6574551
 110.3802334  38.6643287  25.6289473 111.3094394  38.8154447  25.4558440
 109.9593364  38.7527308  24.7738119 109.1790666  42.6893952  23.3988010
 109.0401752  42.3212736  24.2713949 108.3905262  43.2041591  23.2271968
 109.7738818  47.7903048  14.7413547 109.9490574  47.3191091  15.5559170
 109.0871606  48.4168814  14.9694808 110.7295881  42.0675554  20.7876848
 110.3945714  42.0276324  21.6834498 110.2299827  41.4020270  20.3147258
 104.7040125  37.4743184  26.3129429 104.5659923  36.7423423  26.9140968
 105.6145049  37.3852084  26.0313617 107.3322426  37.1863144  25.8013109
 108.0422044  36.5456336  25.7599727 107.2891734  37.4376038  26.7239290
 115.3209204  44.1230497  28.7219688 115.2621751  43.4389717  28.0550271
 115.7228723  44.8649487  28.2700314 106.0451360  34.1728361  27.6208748
 105.5088717  33.7219100  28.2730345 105.4568068  34.3074270  26.8779213
 104.3399903  50.9392411  21.5153407 104.5796501  51.5710935  22.1932426
 103.4969100  50.5880451  21.8018766 115.3226612  42.0870081  26.9533668
 114.4353390  41.7496003  27.0760067 115.8925163  41.3553112  27.1902433
  96.9755759  38.4194173  20.2776719  97.6626799  38.1055903  19.6897735
  96.8203888  39.3235537  20.0043971 101.7790481  33.3084369  24.7061743
 101.6948670  32.7010039  23.9712153 100.9573187  33.7993387  24.7071239
 108.8527765  46.7471533  23.9194911 108.7797937  47.5526505  24.4314216
 108.4105158  46.9463499  23.0942932 108.6417545  45.9843303  17.4297733
 107.8585067  46.5264983  17.5235957 109.3410290  46.5017283  17.8291974
 111.3126449  46.6458367  26.0753070 112.0254421  47.2805832  26.0028971
 110.8216477  46.7422233  25.2593072 113.0343976  40.5509620  17.6470361
 112.1000254  40.6711082  17.4775066 113.2120644  39.6482087  17.3830371
 108.5349164  33.9355316  19.8003623 108.1646951  33.3826356  20.4884528
 109.0308256  33.3313449  19.2478623 106.3638362  44.3952811  26.8958641
 107.0647822  45.0289294  27.0488035 105.8933477  44.7367542  26.1354280
 114.1639648  36.9497418  24.7211191 113.5111098  37.1973326  24.0663644
 114.5420028  36.1361556  24.3873668 111.1246822  46.9857111  18.8239361
 111.3069217  46.1678767  19.2867114 111.9479808  47.2024804  18.3864251
 111.4588987  45.9125296  16.0854410 111.9876754  45.4017751  15.4724572
 111.7217207  45.5967827  16.9499943 110.2127221  37.6917229  31.2077228
 109.5367858  37.5911359  31.8779603 111.0354855  37.5356443  31.6713225
 101.9606080  43.9289166  23.8289743 102.5459517  43.1832854  23.9617647
 101.7630919  44.2393122  24.7126407 104.8144735  46.9640413  18.8452186
 104.1455111  47.4486541  18.3616226 104.6757605  47.2109634  19.7595564
  96.5523735  36.4994766  22.5494186  96.5907834  35.9658357  23.3431304
  96.0464028  35.9729971  21.9305164 108.9550004  48.9984157  25.4434844
 109.5068312  49.1615778  26.2083929 109.2956197  49.5888594  24.7714869
 103.9314497  31.3459306  26.0456729 103.9955824  32.2074137  25.6334126
 103.8681617  30.7333308  25.3129087 103.4066770  33.4182439  29.6929763
 104.0338809  33.0359516  30.3067287 102.5494689  33.1996641  30.0585455
 113.8060878  43.8245414  31.2983498 114.3500782  44.4375372  30.8038453
 113.2247723  44.3824993  31.8150511 100.1832313  35.2258868  15.6248118
 100.4785754  34.3169547  15.5715171  99.2820348  35.2046608  15.3029120
 112.0918391  46.9466132  22.4298526 111.9669531  46.1455872  21.9209472
 112.7497482  47.4412326  21.9412496 103.7126560  33.3014865  21.6075666
 102.9913145  33.9150832  21.4683140 104.5019815  33.8372630  21.5292312
 114.1553300  44.7475152  24.0578076 113.2083635  44.6280503  23.9856403
 114.5036073  43.8597650  24.1404338 106.5152873  30.6369291  27.8816318
 107.0387275  30.8831588  28.6442627 106.2965206  31.4689326  27.4619455
 101.9120154  32.9072966  15.7487443 101.5832860  32.0270345  15.5662549
 102.2659525  32.8520634  16.6363832 111.1599733  44.5427868  20.2582428
 111.0124695  43.6144576  20.4389999 111.9853226  44.5647959  19.7739504
 105.0261977  33.1945936  16.1162921 105.3658050  33.7231857  15.3941529
 105.4734098  33.5326342  16.8921487 114.7633855  45.3656427  21.3447301
 115.6880402  45.1599289  21.2071752 114.5949158  45.1172828  22.2536643
 107.7205418  31.5782986  25.5665989 107.3802238  30.7790799  25.9686669
 107.0144424  31.8784697  24.9942822 108.3721890  28.6632299  24.0193312
 109.1947959  28.1892777  23.8972202 108.6159953  29.4422782  24.5191998
 105.8960469  35.3551419  21.8285290 105.7505049  35.6691722  22.7209572
 105.4185672  35.9736320  21.2756189 107.7556852  32.3453967  21.8766180
 107.7418420  31.4495061  21.5398478 108.4729280  32.3524631  22.5104466
 109.6082982  32.7791308  23.9219307 109.3500760  33.7008378  23.9203638
 109.0768023  32.3821742  24.6119771 114.5529171  45.8842095  16.7009393
 114.7266049  45.3188517  15.9483245 115.0458062  46.6842990  16.5188883
 100.3706131  37.8956764  24.7672951  99.8259599  38.6716572  24.8993226
 101.2485481  38.2427568  24.6092073 101.1572153  37.0226660  27.6603108
 100.4153889  37.1709295  28.2467739 100.8364897  37.2834926  26.7969858
 109.1015815  46.5642638  27.4583498 109.4102942  46.3191785  28.3306198
 109.8991297  46.7689277  26.9702369 109.1236427  48.7180548  19.6888875
 108.6841418  48.2256927  20.3821732 109.8744544  48.1753516  19.4480950
 101.6028766  44.9092089  19.6913503 102.4286786  44.6095861  19.3112147
 101.2522818  44.1399711  20.1403292 106.5710300  44.2618557  21.7611177
 105.9490309  43.5989262  21.4613404 107.2415166  44.2879689  21.0784824
  99.8037371  42.8278415  20.6502437  98.9669280  42.4000590  20.4686438
  99.7761017  43.0210859  21.5873228 106.6434827  32.7400345  31.3543683
 106.6922982  33.6162468  30.9721452 107.1857341  32.1977738  30.7815326
 117.1289673  43.2841468  30.6344820 116.3385216  43.2665607  30.0949319
 116.8923027  43.8229762  31.3893856 117.2487548  40.1333935  27.9477548
 117.2985553  39.9683942  28.8893071 117.1401471  39.2661194  27.5575429
 106.1323806  42.8122480  15.2369637 106.2811927  43.4957945  14.5836310
 106.9390250  42.7927570  15.7519093 114.5391310  36.1164863  29.2636855
 115.4401173  35.9771327  28.9720853 114.6139285  36.2819317  30.2035032
 108.8734115  33.4931717  28.1090041 108.0037425  33.7865283  27.8372630
 109.1093596  34.0772162  28.8297305 118.7505745  42.5530876  28.1919570
 118.4590553  42.9160857  29.0283031 118.1377876  41.8397884  28.0132902
 116.9992933  37.6763491  26.6599628 117.4747054  37.8691137  25.8518479
 116.0758498  37.7322677  26.4143011 103.8876439  38.8387658  16.2430706
 103.6422481  37.9349988  16.4410916 104.0572354  38.8404808  15.3010184
 111.5773149  29.7111334  25.6255462 112.0955093  30.4472361  25.3001950
 111.2228282  30.0175328  26.4602221 103.1572087  34.5716016  13.7416867
 102.4641332  34.6460371  13.0856903 102.9123839  33.8076359  14.2638384
 109.6319212  45.3070611  12.7081385 109.0593179  45.9260798  12.2551856
 110.2052006  45.8569972  13.2421306 115.6994602  34.5529251  24.8927933
 116.6512025  34.6527349  24.9140157 115.5298052  33.7607519  25.4026018
 113.7208981  31.6384834  25.0787334 113.1258913  31.9189847  24.3833823
 113.4358678  32.1278735  25.8504075 118.1782680  37.7735371  24.0070233
 118.1459000  36.8351371  24.1929917 118.7883303  37.8519407  23.2736058
 109.9004703  40.6949170  31.5098094 110.8207712  40.8727769  31.7038141
 109.8654286  39.7505215  31.3577793  99.1186868  35.8887763  20.4351369
  98.7989652  35.0353072  20.1425743  98.5720296  36.1036341  21.1909336
 102.8966776  38.6050204  24.1520875 103.1152785  39.5367312  24.1708909
 103.3092549  38.2458179  24.9375679 107.7694641  34.1783410  33.5423624
 107.6691368  35.1277767  33.4735715 107.5516183  33.8501649  32.6699694
  98.9875128  39.5090675  22.4044490  98.2938599  39.0944628  21.8914445
  99.7348119  39.5511211  21.8077909 107.6325911  37.6080549  32.3588686
 107.1492993  38.4080909  32.5652575 107.7186850  37.6188494  31.4056130
 100.9011871  39.4408929  20.2810505 100.8782559  39.5396616  19.3292388
 101.2112507  40.2874079  20.6027671 103.5599248  41.4985084  24.3957120
 104.5142502  41.4669026  24.3287051 103.3611772  41.0375707  25.2107345
 104.1498631  40.0686200  26.9627917 104.9691520  40.5630278  26.9862754
 104.4235438  39.1518168  26.9345485 101.9149477  47.0404703  21.4127317
 101.7803945  46.2805104  20.8465315 101.4981539  47.7645603  20.9456106
 105.0718603  47.9374020  21.6245760 104.9550987  48.8819453  21.5224450
 104.2511049  47.6347582  22.0131559  99.4033545  34.4024334  27.6620114
 100.0492408  33.8923287  28.1507339  99.1950696  35.1393015  28.2363540
 111.9286937  41.4705181  33.1612255 112.7978097  41.6445833  32.7998890
 111.4493688  42.2899598  33.0387984 106.0973117  48.5902282  24.8401688
 107.0000364  48.6225892  25.1568183 105.8710487  47.6602733  24.8548024
 107.8526719  47.3433269  21.5011767 106.9022350  47.3435130  21.3876139
 108.1559205  46.5966003  20.9847802 103.7431036  31.5491951  31.7595129
 104.6062497  31.1928755  31.9698453 103.1696446  31.2105845  32.4470533
 120.3969119  53.1321235  22.5019054 120.0587631  53.0162300  21.6139589
 121.2658887  52.7312400  22.4820060 116.2555935  54.9856711  18.4915945
 115.6920800  54.8946648  17.7232233 116.1408330  54.1656616  18.9718438
 120.8788902  54.2856087  28.4605260 120.8677543  53.8908885  27.5885763
 121.0409541  53.5522159  29.0539031 113.8020367  56.4807903  21.3300166
 114.5941659  56.1398728  20.9146465 114.0417017  56.5902878  22.2502319
 115.7611121  55.7416816  14.2017544 116.5341997  55.1945803  14.0630420
 116.1136519  56.6061066  14.4132006 117.5996163  57.0693199  27.4084444
 117.3086029  57.9738829  27.2931110 118.2353147  57.1109726  28.1228513
 118.5252370  54.4470047  23.9985803 119.1215942  54.2226069  23.2842766
 118.5827342  53.7054793  24.6011251 117.8173687  53.8037588  14.0360369
 117.7009945  53.1282492  14.7041454 117.9275947  53.3169962  13.2192522
 120.1605228  53.2647735  17.7407059 119.7963435  52.7378356  18.4519980
 121.0172344  52.8746205  17.5673544 116.0098530  53.2068411  20.4370942
 115.0849026  53.0744625  20.6448634 116.2582943  53.9862630  20.9340884
 113.3707341  52.8501684  21.2714731 113.4999722  53.1036163  22.1854143
 112.6904792  53.4429392  20.9519386 117.5406828  63.5198934  17.3705205
 117.4630858  64.4706760  17.4493686 116.9368472  63.1744807  18.0280131
 120.0324058  50.6926800  30.0266572 119.2557392  51.2520720  30.0169437
 120.6714621  51.1783583  30.5481442 118.2870430  53.5012253  29.5884539
 119.0285114  54.0397297  29.3119363 117.5807416  54.1278542  29.7456091
 120.1156840  50.5814000  25.5590257 120.9618035  51.0053414  25.7024906
 120.0555477  49.9247625  26.2528821 119.6382546  55.9416992  19.2059074
 120.1020892  56.2204695  18.4163697 119.3739344  55.0400437  19.0232165
 116.5306627  55.4888474  22.1438838 117.1007984  55.9175742  21.5056322
 117.1214739  55.2071059  22.8423023 118.5751432  52.0640145  16.0148640
 119.2775476  52.5161188  16.4822566 118.2432061  51.4223964  16.6428533
 117.0231794  50.6551901  30.3899849 116.3930454  51.3368182  30.6235246
 116.9167882  50.5434983  29.4452987 112.3176766  50.3223697  21.3165773
 111.5275820  50.5781226  20.8405884 112.8088014  51.1372035  21.4217814
 114.2691512  50.6868277  18.2749250 113.4722675  50.7986971  18.7932746
 114.0417104  51.0254929  17.4090140 120.0997179  57.2112980  26.2231764
 120.1641612  57.6733387  27.0589936 119.3908103  56.5810345  26.3514074
 110.6014469  50.5754188  23.7480764 110.8522508  51.4601198  24.0138340
 111.1374018  50.3958789  22.9755856 119.8145197  58.8781087  16.0910745
 119.6790872  59.7232623  16.5195593 120.3555009  59.0800365  15.3276679
 116.3012537  44.9572667  32.7525100 115.9079482  44.4038866  33.4272744
 117.1178677  45.2683246  33.1431618 113.2674594  56.3956525  16.6638670
 113.7799115  57.1899776  16.8144235 113.9197307  55.6982816  16.5972271
 115.0769479  59.5122282  18.7461423 115.2536107  60.4340246  18.5582407
 115.8726313  59.1980701  19.1755803 119.2180498  46.3730546  30.3445357
 119.9590211  46.9737699  30.2649819 119.4498420  45.6308184  29.7863399
 114.3621836  51.5586914  28.6223586 114.2475351  50.6572171  28.9230685
 113.5066353  51.8050610  28.2708403 116.2000794  61.0300455  24.7471765
 116.7508220  60.9017519  23.9748759 115.3612270  61.3295345  24.3966658
 119.9967966  57.2951583  29.0915997 120.5296302  56.5339871  28.8615305
 119.4682047  57.0025235  29.8340151 111.2323511  54.7245180  17.4398240
 112.0698733  55.1342188  17.2231948 111.4101779  53.7844622  17.4098434
 118.4877087  44.8555034  21.5925053 119.3530084  44.6597843  21.2330943
 118.5554596  44.6265386  22.5194410 121.3620678  56.4237576  16.6034809
 120.8342040  55.6890335  16.2908046 120.8608181  57.2012252  16.3574777
 116.0939406  47.0857242  18.9641420 116.6683158  46.8632424  18.2314613
 116.6810388  47.1545937  19.7170021 111.2549682  52.0635895  18.1108974
 111.0574082  51.4705256  17.3860040 110.6996346  51.7588105  18.8284913
 119.2346406  51.9559002  20.2303567 119.2895016  51.0032838  20.1546044
 118.4237608  52.1118441  20.7144865 117.1738766  50.5736061  17.9893946
 116.3606631  50.8730232  18.3959138 117.6697760  50.1791750  18.7068428
 119.3247344  60.5693818  19.9228211 119.2823522  60.7954665  18.9936743
 120.2410043  60.3357193  20.0714012 116.6652841  48.1454417  23.6055181
 117.3052220  48.0043176  22.9078144 115.8330371  47.8588930  23.2293783
 117.4413144  57.4456847  19.7190173 118.2353743  56.9507167  19.5172748
 116.7304837  56.9174710  19.3557879 113.7495908  51.5899929  15.7949926
 112.8193496  51.5284384  16.0119888 113.8453380  51.0675882  14.9986567
 113.6681457  48.1154742  18.3828168 113.9288274  49.0300075  18.2737328
 114.4898629  47.6479184  18.5324780 115.1406382  49.5292499  25.5526992
 115.8129436  49.3209861  24.9039641 114.3136169  49.3314585  25.1132224
 120.0184420  58.0185869  23.3988010 119.8795506  57.6504654  24.2713949
 119.2299017  58.5333509  23.2271968 120.6132572  63.1194966  14.7413547
 120.7884328  62.6483009  15.5559170 119.9265360  63.7460732  14.9694808
 121.5689636  57.3967472  20.7876848 121.2339468  57.3568242  21.6834498
 121.0693581  56.7312188  20.3147258 115.5433880  52.8035102  26.3129429
 115.4053678  52.0715341  26.9140968 116.4538803  52.7144002  26.0313617
 118.1716180  52.5155061  25.8013109 118.8815799  51.8748253  25.7599727
 118.1285488  52.7667956  26.7239290 116.8845114  49.5020279  27.6208748
 116.3482471  49.0511018  28.2730345 116.2961823  49.6366188  26.8779213
 115.1793658  66.2684328  21.5153407 115.4190256  66.9002853  22.1932426
 114.3362854  65.9172368  21.8018766 107.8149513  53.7486090  20.2776719
 108.5020553  53.4347820  19.6897735 107.6597642  54.6527455  20.0043971
 112.6184235  48.6376287  24.7061743 112.5342424  48.0301956  23.9712153
 111.7966942  49.1285305  24.7071239 119.6921520  62.0763451  23.9194911
 119.6191691  62.8818422  24.4314216 119.2498913  62.2755417  23.0942932
 119.4811299  61.3135221  17.4297733 118.6978821  61.8556901  17.5235957
 120.1804044  61.8309201  17.8291974 119.3742918  49.2647233  19.8003623
 119.0040706  48.7118274  20.4884528 119.8702011  48.6605367  19.2478623
 117.2032117  59.7244728  26.8958641 117.9041576  60.3581211  27.0488035
 116.7327232  60.0659460  26.1354280 112.7999835  59.2581083  23.8289743
 113.3853272  58.5124771  23.9617647 112.6024673  59.5685040  24.7126407
 115.6538490  62.2932331  18.8452186 114.9848865  62.7778458  18.3616226
 115.5151360  62.5401551  19.7595564 107.3917489  51.8286684  22.5494186
 107.4301589  51.2950274  23.3431304 106.8857782  51.3021889  21.9305164
 119.7943759  64.3276074  25.4434844 120.3462067  64.4907696  26.2083929
 120.1349952  64.9180512  24.7714869 114.7708252  46.6751224  26.0456729
 114.8349578  47.5366055  25.6334126 114.7075372  46.0625226  25.3129087
 114.2460524  48.7474357  29.6929763 114.8732563  48.3651434  30.3067287
 113.3888443  48.5288559  30.0585455 111.0226067  50.5550786  15.6248118
 111.3179508  49.6461464  15.5715171 110.1214103  50.5338525  15.3029120
 114.5520314  48.6306782  21.6075666 113.8306900  49.2442750  21.4683140
 115.3413570  49.1664547  21.5292312 117.3546628  45.9661209  27.8816318
 117.8781029  46.2123505  28.6442627 117.1358961  46.7981244  27.4619455
 112.7513909  48.2364883  15.7487443 112.4226615  47.3562262  15.5662549
 113.1053279  48.1812552  16.6363832 115.8655732  48.5237853  16.1162921
 116.2051804  49.0523774  15.3941529 116.3127852  48.8618259  16.8921487
 118.5599173  46.9074904  25.5665989 118.2195993  46.1082717  25.9686669
 117.8538179  47.2076615  24.9942822 119.2115644  43.9924216  24.0193312
 120.0341714  43.5184695  23.8972202 119.4553708  44.7714700  24.5191998
 116.7354223  50.6843337  21.8285290 116.5898804  50.9983640  22.7209572
 116.2579427  51.3028237  21.2756189 118.5950606  47.6745885  21.8766180
 118.5812175  46.7786978  21.5398478 119.3123034  47.6816549  22.5104466
 120.4476737  48.1083225  23.9219307 120.1894515  49.0300296  23.9203638
 119.9161777  47.7113660  24.6119771 111.2099885  53.2248681  24.7672951
 110.6653353  54.0008489  24.8993226 112.0879235  53.5719486  24.6092073
 111.9965907  52.3518578  27.6603108 111.2547643  52.5001213  28.2467739
 111.6758651  52.6126843  26.7969858 119.9409570  61.8934556  27.4583498
 120.2496696  61.6483703  28.3306198 120.7385052  62.0981194  26.9702369
 119.9630182  64.0472466  19.6888875 119.5235172  63.5548844  20.3821732
 120.7138299  63.5045433  19.4480950 112.4422521  60.2384006  19.6913503
 113.2680541  59.9387778  19.3112147 112.0916573  59.4691629  20.1403292
 117.4104054  59.5910475  21.7611177 116.7884063  58.9281180  21.4613404
 118.0808921  59.6171607  21.0784824 110.6431126  58.1570333  20.6502437
 109.8063034  57.7292507  20.4686438 110.6154771  58.3502776  21.5873228
 117.4828582  48.0692263  31.3543683 117.5316737  48.9454385  30.9721452
 118.0251096  47.5269656  30.7815326 116.9717561  58.1414398  15.2369637
 117.1205681  58.8249862  14.5836310 117.7784004  58.1219488  15.7519093
 119.7127870  48.8223635  28.1090041 118.8431179  49.1157201  27.8372630
 119.9487350  49.4064080  28.8297305 114.7270194  54.1679576  16.2430706
 114.4816236  53.2641906  16.4410916 114.8966108  54.1696726  15.3010184
 113.9965841  49.9007933  13.7416867 113.3035086  49.9752288  13.0856903
 113.7517593  49.1368277  14.2638384 120.4712966  60.6362528  12.7081385
 119.8986934  61.2552716  12.2551856 121.0445760  61.1861890  13.2421306
 109.9580622  51.2179681  20.4351369 109.6383407  50.3644989  20.1425743
 109.4114051  51.4328259  21.1909336 113.7360530  53.9342122  24.1520875
 113.9546540  54.8659230  24.1708909 114.1486304  53.5750096  24.9375679
 118.6088395  49.5075328  33.5423624 118.5085122  50.4569685  33.4735715
 118.3909937  49.1793567  32.6699694 109.8268882  54.8382592  22.4044490
 109.1332354  54.4236545  21.8914445 110.5741873  54.8803129  21.8077909
 118.4719665  52.9372467  32.3588686 117.9886747  53.7372827  32.5652575
 118.5580604  52.9480411  31.4056130 111.7405625  54.7700846  20.2810505
 111.7176313  54.8688534  19.3292388 112.0506262  55.6165997  20.6027671
 114.3993003  56.8277001  24.3957120 115.3536256  56.7960944  24.3287051
 114.2005526  56.3667625  25.2107345 114.9892385  55.3978117  26.9627917
 115.8085274  55.8922196  26.9862754 115.2629193  54.4810085  26.9345485
 112.7543232  62.3696621  21.4127317 112.6197700  61.6097022  20.8465315
 112.3375294  63.0937521  20.9456106 115.9112358  63.2665938  21.6245760
 115.7944742  64.2111370  21.5224450 115.0904804  62.9639499  22.0131559
 110.2427299  49.7316251  27.6620114 110.8886163  49.2215205  28.1507339
 110.0344450  50.4684933  28.2363540 116.9366872  63.9194200  24.8401688
 117.8394118  63.9517810  25.1568183 116.7104242  62.9894651  24.8548024
 118.6920474  62.6725186  21.5011767 117.7416105  62.6727048  21.3876139
 118.9952960  61.9257921  20.9847802 114.5824790  46.8783868  31.7595129
 115.4456252  46.5220673  31.9698453 114.0090201  46.5397763  32.4470533
 118.6543268  69.0778008  20.2776719 119.3414308  68.7639738  19.6897735
 118.4991396  69.9819373  20.0043971 118.2311244  67.1578601  22.5494186
 118.2695343  66.6242192  23.3431304 117.7251537  66.6313807  21.9305164
 121.4824880  73.4862251  20.6502437 120.6456789  73.0584425  20.4686438
 121.4548526  73.6794694  21.5873228 120.7974377  66.5471599  20.4351369
 120.4777161  65.6936907  20.1425743 120.2507805  66.7620177  21.1909336
 120.6662637  70.1674510  22.4044490 119.9726108  69.7528463  21.8914445
 121.4135628  70.2095047  21.8077909   4.3521507  54.0067690 100.0684183
   3.5985216  53.4375089  99.9128187   4.4869049  53.9730355 101.0154817
   0.7170120  55.4475679 100.3650297   1.5517011  55.8865483 100.5287857
   0.8529249  54.9714332  99.5458543   4.7627923  54.1643300 102.8004427
   5.4931311  53.9028589 103.3612130   4.1534868  53.4272022 102.8406495
   2.8443220  52.3051163 103.3978878   2.1176383  52.1707128 102.7895370
   2.4290507  52.6127992 104.2035596   0.4621015  48.5263015 100.7512310
   1.0565505  48.2858751 100.0405618   0.5347598  47.8070146 101.3785846
   2.7692087  51.8329216  99.5255731   2.2091645  51.9022405 100.2987293
   2.1635591  51.6570201  98.8055227   4.3548106  68.5085730 102.2185687
   4.9926516  68.3892477 101.5149027   4.2368949  69.4566574 102.2773639
   1.1637812  68.4613158 102.1547211   0.8256324  68.3454223 101.2667746
   2.0327580  68.0604323 102.1348217   2.6024186  73.9819602  93.4558567
   1.9512166  74.5673683  93.0692581   3.3968549  74.5125797  93.5153605
   3.9089374  66.2337184  99.2938895   4.6952463  65.8156607  98.9429312
   4.1728079  67.1383276  99.4620543   4.0799452  71.6710034  93.9927551
   3.4445285  71.7444661  94.7048456   3.7496858  72.2603633  93.3146631
   9.3097801  66.1712417 100.1971873  10.0422973  65.6011634 100.4309703
   8.5537157  65.7834017 100.6378379   0.9273921  68.5939659  97.3935216
   0.5632128  68.0670279  98.1048137   1.7841037  68.2038128  97.2201701
   6.8323222  59.8833991 104.6566482   6.5006547  60.7529402 104.4327697
   6.2368835  59.5670275 105.3360512   3.3254741  72.0846537 104.0562394
   3.0255464  72.9871576 103.9478202   2.9805801  71.8178720 104.9083547
   6.7251885  64.6029077 101.7359832   5.8168762  64.5344486 101.4418593
   6.6739481  65.0801022 102.5641657   8.5913531  62.8045516 103.5137706
   7.9487912  63.0978049 102.8677500   8.0868460  62.6898436 104.3190902
   6.2453695  66.5508689  94.2023565   7.1571551  66.7836076  94.0271263
   5.7363342  67.1345733  93.6398644   0.8825533  65.9105923 105.2118415
   1.7286728  66.3345337 105.3553064   0.8224170  65.2539548 105.9056978
   4.8523277  71.5334507 101.5937146   4.2232140  71.6980221 100.8913214
   4.4648940  71.9476117 102.3648110   8.7312509  72.4688945  98.9481510
   8.0463547  72.8487847  98.3978544   8.8156359  73.0784272  99.6813458
   4.0324978  63.5710292 106.8699588   3.7885910  64.3252352 106.3333864
   4.3084909  63.9495639 107.7046835   5.9863441  70.1148904 105.5476854
   6.1980336  70.7580664 104.8711235   5.9393189  69.2811221 105.0798784
   3.5889670  62.7266725 102.4513426   2.7274149  63.0247978 102.7430163
   3.6152105  62.9437124 101.5194459   7.1009269  72.9920860 103.7199211
   7.9226713  72.5901047 103.4381893   7.0971672  72.8889094 104.6715327
  15.1915262  69.3359608 100.0684183  14.4378970  68.7667006  99.9128187
  15.3262803  69.3022273 101.0154817   0.5813890  74.2073010  95.7438902
   0.4459565  75.0524546  96.1723750   1.1223702  74.4092288  94.9804836
   3.9306354  57.7303572 104.2737795   3.5870623  58.6205214 104.1976906
   4.2985316  57.5405230 103.4107380   3.8956636  67.7212183  92.7810230
   3.3803260  68.4916788  93.0198618   3.6233945  67.0477320  93.4043292
   1.4803747  62.5661884  97.8395469   0.6245344  62.1768735  97.6601108
   1.8930699  62.6453845  96.9795254   3.0102894  60.1008227 102.2387029
   2.5067690  60.0638363 101.4254834   3.3033501  61.0100970 102.2983685
   8.8690910  70.4744538  94.7163404   8.0920353  70.1355698  94.2718566
   9.5482391  70.4797161  94.0418369   3.6842939  65.5939275  94.6070012
   3.3793075  65.9085425  95.4580155   4.6373382  65.6720695  94.6497345
   2.1289371  71.7529499  96.2562966   1.6010733  71.0182258  95.9436203
   1.6276874  72.5304175  96.0102934   7.1082217  69.9478519 101.3730012
   6.4505892  70.6377781 101.4610141   7.9122617  70.3374951 101.7163998
   5.9187676  68.3022892  99.4233954   6.4319558  68.9352884  99.9255663
   6.5688900  67.7024087  99.0577314   3.1810050  78.2807216  92.1794625
   2.5071749  78.5838913  92.7879583   3.5675872  79.0836297  91.8300082
   2.3968507  65.7772348 101.6692294   1.4791068  65.9987295 101.5113982
   2.8128651  65.8518658 100.8104002   3.1803555  67.1763763  96.7994974
   3.9275374  67.6885160  96.4902097   3.4495144  66.8547816  97.6599368
   1.4530205  69.6722304  93.7821929   0.5441424  69.3881337  93.8794399
   1.4825289  70.0921383  92.9225236   6.6849472  73.2828893  97.5513096
   6.2311799  72.4419803  97.6078287   6.0543439  73.9190292  97.8887876
   5.6282392  64.2120879  98.7813764   4.8905149  63.6998266  99.1124006
   5.8809165  63.7721261  97.9697041   5.1282412  75.1205390  98.4862914
   5.4205386  75.6810447  97.7675280   5.6381032  75.4133951  99.2416074
   5.7294019  56.9897131  99.3755533   6.0352896  56.1294495  99.0881448
   6.4546624  57.5814752  99.1754527   1.1506293  71.2131048  91.1210007
   0.7125723  70.4966907  90.6615645   1.8916734  71.4407162  90.5595099
   3.5381671  66.3669809 106.4736997   3.8931058  66.5941282 107.3331463
   4.1853802  66.6988186 105.8514252   9.2679407  69.4888245  97.1786326
   9.1297306  69.6789841  96.2507515   8.9115626  70.2507627  97.6354377
   9.2948787  71.5564772 102.1897597   9.7285294  71.4640061 103.0380651
  10.0080368  71.5322272 101.5517613  10.1564337  71.5988472 104.7230483
  10.3500227  72.5034283 104.9689758  10.0564955  71.1395891 105.5569068
   1.8100647  61.4846363 107.2220810   1.1628562  62.1836313 107.1285287
   2.5801663  61.9182507 107.5897058   1.9864782  69.3227128 105.2817630
   2.9156842  69.4738287 105.1086597   1.5655812  69.4111149 104.4266276
   1.3801265  78.4486889  94.3941704   1.5553021  77.9774932  95.2087327
   0.6934054  79.0752655  94.6222965   2.3358329  72.7259395 100.4405005
   2.0008161  72.6860165 101.3362655   1.8362274  72.0604111  99.9675416
   5.2717520  70.0715429  90.7142065   4.6546691  69.3462257  90.6175118
   4.8034009  70.8324790  90.3709139   6.9289059  72.7453922 106.6061825
   6.0415838  72.4079843 106.7288224   7.4987610  72.0136953 106.8430590
   3.5576642  62.4521773  99.7260095   4.0545342  61.6991736  99.4061165
   2.7863624  62.4886090  99.1603304  11.4106400  68.1562139 101.3678387
  11.3996276  69.0386854 100.9972320  10.5423779  67.8033690 101.1732924
   4.6406423  71.2093461  97.2998519   3.7062702  71.3294923  97.1303223
   4.8183092  70.3065927  97.0358528   8.0278974  67.0510780  97.8348553
   8.4939427  67.8838771  97.7608855   8.4786475  66.5855761  98.5393811
   6.0955206  73.3954601  94.8334705   6.3715049  73.2811196  95.7428579
   5.2259704  72.9972086  94.7946878   5.9995637  59.4191367 101.8739454
   5.0858717  59.6495594 102.0421661   6.4288739  59.5029811 102.7253486
   5.7702096  67.6081259 104.3739348   5.1173546  67.8557166 103.7191801
   6.1482476  66.7945397 104.0401825   2.7309270  77.6440952  98.4767518
   2.9131664  76.8262608  98.9395271   3.5542256  77.8608644  98.0392408
   3.0651435  76.5709137  95.7382567   3.5939201  76.0601592  95.1252729
   3.3279655  76.2551667  96.6028100   3.6980839  77.6049973 102.0826683
   3.5731978  76.8039713 101.5737629   4.3559930  78.0996166 101.5940653
   5.7615747  75.4058993 103.7106233   4.8146083  75.2864344 103.6384560
   6.1098520  74.5181491 103.7932495   2.7662181  75.2011709  99.9110586
   2.6187143  74.2728417 100.0918156   3.5915674  75.2231800  99.4267661
   6.3696302  76.0240268 100.9975458   7.2942850  75.8183129 100.8599909
   6.2011606  75.7756669 101.9064800   2.7623695  63.0549547  94.9042703
   2.9787309  63.9374185  94.6031531   2.2817762  62.6635760  94.1748345
   1.2145430  63.4375148 103.5747464   0.9563208  64.3592219 103.5731795
   0.6830470  63.0405583 104.2647929   6.1591619  76.5425935  96.3537550
   6.3328496  75.9772358  95.6011402   6.6520510  77.3426830  96.1717040
   1.6347385  59.5707099  99.9348627   1.6569082  59.6346432  98.9800606
   2.0515444  58.7311607 100.1289133  12.0131010  69.3062358  97.9727850
  12.4562156  68.5569684  97.5746973  11.1357520  69.2972495  97.5901581
   7.1466791  75.8592700  93.4534448   7.8417696  76.4799392  93.6721763
   7.4889941  75.0088051  93.7286826   9.0458214  73.3092405  94.9821779
   9.5709538  73.6479678  94.2571099   8.9580567  72.3739421  94.7984913
   8.8549995  70.7917775 107.6005705   8.9048000  70.6267783 108.5421228
   8.7463919  69.9245034 107.2103586   6.1453758  66.7748703 108.9165012
   7.0463620  66.6355168 108.6249010   6.2201732  66.9403158 109.8563189
  10.3568192  73.2114717 107.8447727  10.0653000  73.5744697 108.6811188
   9.7440323  72.4981725 107.6661059  11.5563874  70.7767597 100.3650297
  12.3910766  71.2157401 100.5287857  11.6923003  70.3006250  99.5458543
   8.6055380  68.3347331 106.3127785   9.0809502  68.5274978 105.5046636
   7.6820946  68.3906517 106.0671169   3.1835597  60.3695175 105.2783619
   3.7017541  61.1056202 104.9530107   2.8290730  60.6759168 106.1130378
   3.4348191  56.7895458 100.7984515   3.7149945  56.1218647 101.4244942
   4.2198798  56.9824553 100.2859179   1.2381660  75.9654451  92.3609542
   0.6655627  76.5844639  91.9080014   1.8114453  76.5153813  92.8949464
   7.3057049  65.2113092 104.5456090   8.2574472  65.3111189 104.5668314
   7.1360500  64.4191360 105.0554175   5.3271429  62.2968675 104.7315491
   4.7321361  62.5773687 104.0361980   5.0421126  62.7862576 105.5032232
   4.4578919  76.2491602  93.4918124   5.3909592  76.1837163  93.6950999
   4.3702132  77.0847868  93.0332657   7.0866936  75.5657472  90.4522071
   7.0080568  75.2317336  91.3457829   7.9076603  76.0579240  90.4513544
   9.7845127  68.4319211 103.6598390   9.7521447  67.4935212 103.8458074
  10.3945751  68.5103248 102.9264215   1.6228458  67.3015264  89.7025594
   2.5687563  67.1721472  89.7714012   1.2442703  66.5629926  90.1795022
   9.9339616  65.2230255 103.7056673   9.4178664  64.4388711 103.5186602
  10.8179564  64.8948971 103.8703193   7.5950343  58.9671270  99.6652486
   7.3975164  58.6586358 100.5495818   8.2050048  59.6932909  99.7950416
  15.6021677  69.4935218 102.8004427  16.3325065  69.2320506 103.3612130
  14.9928622  68.7563940 102.8406495  13.6836974  67.6343081 103.3978878
  12.9570138  67.4999046 102.7895370  13.2684261  67.9419909 104.2035596
   1.4233441  59.7702130  95.7924721   0.6134169  59.4249215  96.1679967
   2.1117858  59.4609674  96.3812332   3.3523989  58.8480177  97.4149017
   3.9055028  59.2675631  98.0739040   3.5894076  57.9215925  97.4571973
   6.7302796  60.9580702  96.9227682   6.1501465  61.6165506  96.5405734
   6.4638729  60.1358047  96.5115099   5.1806363  60.3585760  99.1249002
   5.6806141  60.4702295  98.3163321   5.8241971  60.0546813  99.7649810
   5.5127674  63.1180793  95.9784030   4.6253529  63.4030443  95.7604225
   5.9281663  62.9574556  95.1311307   8.8642210  63.1427314  99.6938369
   9.6402601  63.6323766  99.9662986   8.1390345  63.5685368 100.1510239
  11.3014769  63.8554933 100.7512310  11.8959260  63.6150669 100.0405618
  11.3741353  63.1362063 101.3785846   4.6570888  72.8825467  90.0732050
   5.3606738  73.0875470  90.6889705   3.9333537  73.4502229  90.3381133
   5.4868698  68.6335329  96.1934320   5.4303899  69.0903880  95.3541952
   6.0397041  67.8726013  96.0157163   9.2973504  64.4225060  97.0184439
   9.0410438  64.0221696  97.8492647   8.6726372  65.1368854  96.8934579
  13.6085842  67.1621134  99.5255731  13.0485400  67.2314323 100.2987293
  13.0029345  66.9862118  98.8055227   6.5657585  73.3207997  92.1230510
   7.4003189  72.8889195  91.9407985   6.4041928  73.1490010  93.0507404
   6.2203477  69.8240110  93.4886849   6.1652281  69.6584381  92.5475293
   5.5949533  70.5316143  93.6449039   3.3451722  55.9190995  97.3218104
   2.5784118  55.3649482  97.4674787   3.7562427  55.9912864  98.1832256
  15.1941860  83.8377648 102.2185687  15.8320270  83.7184395 101.5149027
  15.0762703  84.7858492 102.2773639  12.0031567  83.7905076 102.1547211
  11.6650078  83.6746140 101.2667746  12.8721335  83.3896241 102.1348217
   7.8618382  85.6440552  98.1444102   7.2983247  85.5530489  97.3760390
   7.7470777  84.8240457  98.6246595  13.4417941  89.3111520  93.4558567
  12.7905921  89.8965600  93.0692581  14.2362304  89.8417715  93.5153605
   7.3673568  86.4000657  93.8545702   8.1404444  85.8529644  93.7158577
   7.7198967  87.2644906  94.0660163  10.1314818  85.1053888 103.6513960
  10.7278390  84.8809910 102.9370923  10.1889789  84.3638633 104.2539408
   9.7039846  82.5593323  91.4864151   9.9565367  82.0374844  90.7247614
   8.7664405  82.3959469  91.5890835  14.7483129  81.5629101  99.2938895
  15.5346218  81.1448525  98.9429312  15.0121833  82.4675194  99.4620543
  14.9193206  87.0001952  93.9927551  14.2839039  87.0736578  94.7048456
  14.5890613  87.5895551  93.3146631  20.1491556  81.5004335 100.1971873
  20.8816728  80.9303551 100.4309703  19.3930912  81.1125935 100.6378379
   9.4236135  84.4621429  93.6888526   9.3072393  83.7866332  94.3569611
   9.5338395  83.9753803  92.8720679  11.7667676  83.9231576  97.3935216
  11.4025883  83.3962197  98.1048137  12.6234792  83.5330045  97.2201701
  17.6716976  75.2125909 104.6566482  17.3400301  76.0821320 104.4327697
  17.0762590  74.8962193 105.3360512  11.4073163  78.9521476  92.3896564
  11.5747565  79.8201712  92.7567035  11.2170332  79.1148758  91.4657853
  14.1648496  87.4138455 104.0562394  13.8649219  88.3163494 103.9478202
  13.8199555  87.1470638 104.9083547   7.6160977  83.8652252 100.0899099
   6.6911474  83.7328466 100.2976791   7.8645390  84.6446471 100.5869041
  17.5645640  79.9320995 101.7359832  16.6562517  79.8636403 101.4418593
  17.5133235  80.4092940 102.5641657  11.3862383  81.4079133  93.3743231
  11.2662009  81.8536184  94.2128711  10.6914972  81.7564451  92.8156769
   9.1469276  94.1782775  97.0233362   9.0693305  95.1290600  97.1021843
   8.5430919  93.8328648  97.6808288  19.4307286  78.1337433 103.5137706
  18.7881666  78.4269967 102.8677500  18.9262214  78.0190354 104.3190902
  17.0847450  81.8800607  94.2023565  17.9965306  82.1127993  94.0271263
  16.5757097  82.4637651  93.6398644  11.7219287  81.2397841 105.2118415
  12.5680483  81.6637255 105.3553064  11.6617925  80.5831465 105.9056978
  15.6917032  86.8626425 101.5937146  15.0625894  87.0272139 100.8913214
  15.3042694  87.2768035 102.3648110  19.5706264  87.7980863  98.9481510
  18.8857302  88.1779764  98.3978544  19.6550113  88.4076190  99.6813458
  14.8718733  78.9002210 106.8699588  14.6279665  79.6544270 106.3333864
  15.1478663  79.2787557 107.7046835  16.8257195  85.4440822 105.5476854
  17.0374091  86.0872582 104.8711235  16.7786944  84.6103138 105.0798784
  14.4283424  78.0558643 102.4513426  13.5667903  78.3539896 102.7430163
  14.4545859  78.2729041 101.5194459  11.2444994  86.6000833  98.8587232
  11.7083339  86.8788536  98.0691854  10.9801792  85.6984278  98.6760322
   8.1369075  86.1472315 101.7966995   8.7070432  86.5759583 101.1584479
   8.7277187  85.8654899 102.4951180  10.1813880  82.7223985  95.6676797
  10.8837923  83.1745029  96.1350723   9.8494508  82.0807804  96.2956690
   3.9239214  80.9807538 100.9693930   3.1338268  81.2365067 100.4934041
   4.4150461  81.7955876 101.0745971  17.9403023  88.3212777 103.7199211
  18.7620467  87.9192965 103.4381893  17.9365426  88.2181011 104.6715327
   5.8753959  81.3452117  97.9277407   5.0785122  81.4570812  98.4460903
   5.6479551  81.6838770  97.0618297  26.0309016  84.6651526 100.0684183
  25.2772725  84.0958924  99.9128187  26.1656558  84.6314190 101.0154817
  11.4207644  89.5364928  95.7438902  11.2853319  90.3816464  96.1723750
  11.9617457  89.7384206  94.9804836   4.8737042  87.0540366  96.3166827
   5.3861562  87.8483616  96.4672392   5.5259755  86.3566657  96.2500428
   6.6831927  90.1706122  98.3989580   6.8598555  91.0924087  98.2110564
   7.4788760  89.8564542  98.8283960  14.7700108  73.0595490 104.2737795
  14.4264377  73.9497132 104.1976906  15.1379071  72.8697148 103.4107380
   2.8385959  85.3829020  97.0926398   3.6761181  85.7926029  96.8760105
   3.0164226  84.4428463  97.0626591  14.7350391  83.0504101  92.7810230
  14.2197014  83.8208706  93.0198618  14.4627699  82.3769237  93.4043292
  12.3197502  77.8953802  97.8395469  11.4639098  77.5060652  97.6601108
  12.7324454  77.9745763  96.9795254  13.8496648  75.4300145 102.2387029
  13.3461444  75.3930280 101.4254834  14.1427255  76.3392888 102.2983685
  10.0939534  75.5138875 101.2453210  10.9592531  75.3181684 100.8859100
  10.1617043  75.2849227 102.1722567  19.7084665  85.8036456  94.7163404
  18.9314108  85.4647615  94.2718566  20.3876146  85.8089079  94.0418369
  14.5236694  80.9231193  94.6070012  14.2186830  81.2377342  95.4580155
  15.4767136  81.0012613  94.6497345  12.9683126  87.0821416  96.2562966
  12.4404487  86.3474176  95.9436203  12.4670629  87.8596093  96.0102934
  17.9475972  85.2770437 101.3730012  17.2899646  85.9669698 101.4610141
  18.7516371  85.6666869 101.7163998   7.7001853  77.7441083  98.6169577
   8.2745605  77.5216264  97.8842770   8.2872836  77.8129777  99.3698178
  16.7581431  83.6314810  99.4233954  17.2713312  84.2644802  99.9255663
  17.4082654  83.0316005  99.0577314   8.0271440  79.7745544  92.6365462
   7.1908753  80.1120230  92.9574737   7.8876210  79.6394524  91.6992599
  10.0024521  74.6182332  97.3444647   9.3488933  74.3031349  96.7201261
   9.9604995  73.9958072  98.0704470  11.1135726  84.9001627  89.2597939
  10.2062788  84.6690880  89.4589088  11.6106758  84.1039246  89.4471920
  14.0203805  93.6099134  92.1794625  13.3465504  93.9130831  92.7879583
  14.4069627  94.4128214  91.8300082  13.2362261  81.1064265 101.6692294
  12.3184823  81.3279212 101.5113982  13.6522405  81.1810576 100.8104002
  14.0197309  82.5055681  96.7994974  14.7669128  83.0177078  96.4902097
  14.2888899  82.1839734  97.6599368  12.2923959  85.0014222  93.7821929
  11.3835179  84.7173254  93.8794399  12.3219043  85.4213300  92.9225236
  17.5243227  88.6120811  97.5513096  17.0705554  87.7711721  97.6078287
  16.8937194  89.2482209  97.8887876  16.4676146  79.5412797  98.7813764
  15.7298903  79.0290183  99.1124006  16.7202920  79.1013179  97.9697041
  15.9676166  90.4497308  98.4862914  16.2599140  91.0102365  97.7675280
  16.4774787  90.7425869  99.2416074  16.5687774  72.3189049  99.3755533
  16.8746650  71.4586413  99.0881448  17.2940379  72.9106669  99.1754527
   2.8612130  82.7219736  97.7637131   2.6636530  82.1289096  97.0388198
   2.3058794  82.4171946  98.4813070  10.8408853  82.6142842  99.8831724
  10.8957463  81.6616679  99.8074201  10.0300055  82.7702281 100.3673023
  11.9900047  86.5422965  91.1210007  11.5519477  85.8258824  90.6615645
  12.7310488  86.7699080  90.5595099   8.7801213  81.2319902  97.6422103
   7.9669079  81.5314073  98.0487295   9.2760208  80.8375591  98.3596585
  10.9309791  91.2277659  99.5756368  10.8885970  91.4538505  98.6464900
  11.8472490  90.9941033  99.7242169  14.3775425  81.6961726 106.4736997
  14.7324813  81.9233200 107.3331463  15.0247556  82.0280103 105.8514252
  20.1073162  84.8180162  97.1786326  19.9691061  85.0081758  96.2507515
  19.7509381  85.5799545  97.6354377   8.2715288  78.8038257 103.2583338
   8.9114667  78.6627017 102.5606301   7.4392819  78.5172771 102.8821940
  20.1342542  86.8856689 102.1897597  20.5679048  86.7931978 103.0380651
  20.8474122  86.8614190 101.5517613   9.0475592  88.1040688  99.3718330
   9.8416191  87.6091008  99.1700905   8.3367284  87.5758551  99.0086036
   5.3558355  82.2483770  95.4478083   4.4255944  82.1868225  95.6648045
   5.4515827  81.7259722  94.6514724   5.2743905  78.7738582  98.0356325
   5.5350722  79.6883916  97.9265485   6.0961077  78.3063025  98.1852938
  20.9958091  86.9280390 104.7230483  21.1893981  87.8326200 104.9689758
  20.8958709  86.4687809 105.5569068  12.6494402  76.8138281 107.2220810
  12.0022317  77.5128230 107.1285287  13.4195417  77.2474424 107.5897058
  12.8258536  84.6519045 105.2817630  13.7550596  84.8030205 105.1086597
  12.4049566  84.7403066 104.4266276  12.2195020  93.7778806  94.3941704
  12.3946776  93.3066850  95.2087327  11.5327808  94.4044573  94.6222965
  13.1752083  88.0551313 100.4405005  12.8401916  88.0152083 101.3362655
  12.6756029  87.3896029  99.9675416  16.1111275  85.4007347  90.7142065
  15.4940445  84.6754175  90.6175118  15.6427763  86.1616707  90.3709139
   7.9009821  79.6192771  89.8363369   7.0239287  79.4981572  89.4725616
   8.3767574  78.8278850  89.5842258  17.7682814  88.0745839 106.6061825
  16.8809593  87.7371761 106.7288224  18.3381365  87.3428870 106.8430590
  11.0873747  91.9719062  97.0825890  10.3041269  92.5140742  97.1764114
  11.7866492  92.4893041  97.4820131  14.3970397  77.7813691  99.7260095
  14.8939096  77.0283653  99.4061165  13.6257378  77.8178008  99.1603304
  22.2500154  83.4854057 101.3678387  22.2390031  84.3678772 100.9972320
  21.3817534  83.1325607 101.1732924  15.4800178  86.5385378  97.2998519
  14.5456456  86.6586841  97.1303223  15.6576846  85.6357845  97.0358528
  10.9805366  79.9231074  99.4531780  10.6103153  79.3702114 100.1412685
  11.4764458  79.3189208  98.9006780  18.8672729  82.3802698  97.8348553
  19.3333181  83.2130689  97.7608855  19.3180229  81.9147679  98.5393811
  16.9348960  88.7246519  94.8334705  17.2108804  88.6103113  95.7428579
  16.0653459  88.3264004  94.7946878  16.8389392  74.7483285 101.8739454
  15.9252471  74.9787511 102.0421661  17.2682493  74.8321729 102.7253486
  16.6095850  82.9373177 104.3739348  15.9567300  83.1849084 103.7191801
  16.9876230  82.1237315 104.0401825  13.5703024  92.9732870  98.4767518
  13.7525419  92.1554526  98.9395271  14.3936010  93.1900562  98.0392408
  13.9045190  91.9001055  95.7382567  14.4332956  91.3893509  95.1252729
  14.1673409  91.5843585  96.6028100   6.3770699  77.3335065 105.6984886
   6.4412026  78.1949896 105.2862283   6.3137820  76.7209066 104.9657244
   2.6288515  81.2134626  95.2776275   2.9241956  80.3045305  95.2243329
   1.7276550  81.1922366  94.9557277  14.5374593  92.9341891 102.0826683
  14.4125733  92.1331630 101.5737629  15.1953684  93.4288084 101.5940653
   6.1582762  79.2890623 101.2603823   5.4369347  79.9026591 101.1211297
   6.9476017  79.8248388 101.1820469  16.6009502  90.7350911 103.7106233
  15.6539837  90.6156262 103.6384560  16.9492275  89.8473409 103.7932495
   8.9609075  76.6245050 107.5344475   9.4843477  76.8707346 108.2970785
   8.7421408  77.4565084 107.1147613   4.3576356  78.8948724  95.4015600
   4.0289062  78.0146103  95.2190706   4.7115727  78.8396393  96.2891989
  13.6055935  90.5303627  99.9110586  13.4580897  89.6020334 100.0918156
  14.4309429  90.5523718  99.4267661   7.4718179  79.1821694  95.7691078
   7.8114252  79.7107615  95.0469686   7.9190300  79.5202100  96.5449644
  17.2090057  91.3532186 100.9975458  18.1336604  91.1475047 100.8599909
  17.0405360  91.1048587 101.9064800  10.1661620  77.5658745 105.2194146
   9.8258440  76.7666558 105.6214826   9.4600626  77.8660456 104.6470979
  10.8178092  74.6508057 103.6721469  11.6404161  74.1768535 103.5500359
  11.0616155  75.4298541 104.1720155   9.4586326  77.6796316  93.9684370
  10.1794689  78.0577568  93.4648087   8.8351631  78.3985192  94.0719348
  13.6017449  78.3841464  94.9042703  13.8181064  79.2666102  94.6031531
  13.1211516  77.9927678  94.1748345   8.3416671  81.3427178 101.4813447
   8.1961251  81.6567481 102.3737729   7.8641874  81.9612078 100.9284346
  10.2013054  78.3329726 101.5294337  10.1874622  77.4370819 101.1926635
  10.9185482  78.3400389 102.1632623  12.0539184  78.7667066 103.5747464
  11.7956962  79.6884137 103.5731795  11.5224225  78.3697500 104.2647929
  16.9985373  91.8717853  96.3537550  17.1722251  91.3064276  95.6011402
  17.4914264  92.6718748  96.1717040   9.6049950  77.2144106  96.7981907
   9.7265861  76.2860752  96.9972795   9.3151992  77.2282792  95.8860223
  12.4741140  74.8999016  99.9348627  12.4962837  74.9638350  98.9800606
  12.8909199  74.0603525 100.1289133  22.8524764  84.6354276  97.9727850
  23.2955910  83.8861601  97.5746973  21.9751275  84.6264412  97.5901581
  17.9860546  91.1884617  93.4534448  18.6811450  91.8091310  93.6721763
  18.3283696  90.3379969  93.7286826  19.8851969  88.6384323  94.9821779
  20.4103293  88.9771596  94.2571099  19.7974321  87.7031338  94.7984913
  19.6943750  86.1209693 107.6005705  19.7441755  85.9559700 108.5421228
  19.5857673  85.2536952 107.2103586   8.5780008  88.7998239  94.8897794
   8.7268129  89.4833703  94.2364467   9.3846452  88.7803329  95.4047250
  16.9847512  82.1040621 108.9165012  17.8857375  81.9647086 108.6249010
  17.0595487  82.2695076 109.8563189  11.3190318  79.4807476 107.7618198
  10.4493627  79.7741042 107.4900787  11.5549798  80.0647921 108.4825462
  21.1961947  88.5406634 107.8447727  20.9046755  88.9036615 108.6811188
  20.5834078  87.8273643 107.6661059  22.3957629  86.1059514 100.3650297
  23.2304520  86.5449318 100.5287857  22.5316758  85.6298167  99.5458543
  19.4449135  83.6639249 106.3127785  19.9203256  83.8566895 105.5046636
  18.5214700  83.7198435 106.0671169   6.3332641  84.8263416  95.8958863
   6.0878683  83.9225746  96.0939073   6.5028556  84.8280567  94.9538341
  14.0229351  75.6987093 105.2783619  14.5411295  76.4348120 104.9530107
  13.6684484  76.0051086 106.1130378   5.6028289  80.5591774  93.3945025
   4.9097534  80.6336129  92.7385061   5.3580041  79.7952118  93.9166542
  14.2741946  72.1187375 100.7984515  14.5543699  71.4510564 101.4244942
  15.0592552  72.3116471 100.2859179  12.0775414  91.2946369  92.3609542
  11.5049381  91.9136556  91.9080014  12.6508208  91.8445731  92.8949464
  18.1450804  80.5405009 104.5456090  19.0968227  80.6403107 104.5668314
  17.9754254  79.7483278 105.0554175  16.1665183  77.6260592 104.7315491
  15.5715115  77.9065605 104.0361980  15.8814880  78.1154493 105.5032232
  15.2972674  91.5783519  93.4918124  16.2303347  91.5129081  93.6950999
  15.2095887  92.4139786  93.0332657  17.9260690  90.8949390  90.4522071
  17.8474322  90.5609253  91.3457829  18.7470357  91.3871158  90.4513544
  20.6238882  83.7611129 103.6598390  20.5915202  82.8227130 103.8458074
  21.2339505  83.8395166 102.9264215  12.4622213  82.6307182  89.7025594
  13.4081317  82.5013390  89.7714012  12.0836457  81.8921844  90.1795022
  20.7733370  80.5522172 103.7056673  20.2572419  79.7680629 103.5186602
  21.6573319  80.2240889 103.8703193  18.4344097  74.2963188  99.6652486
  18.2368918  73.9878276 100.5495818  19.0443803  75.0224827  99.7950416
  26.4415431  84.8227136 102.8004427  27.1718820  84.5612424 103.3612130
  25.8322377  84.0855858 102.8406495  24.5230729  82.9634998 103.3978878
  23.7963892  82.8290963 102.7895370  24.1078015  83.2711827 104.2035596
  10.6465130  80.5557158  89.6380479   9.7396585  80.2590271  89.7143193
  10.9241111  80.2586976  88.7714766  12.2627195  75.0994048  95.7924721
  11.4527924  74.7541133  96.1679967  12.9511612  74.7901592  96.3812332
  14.1917744  74.1772095  97.4149017  14.7448782  74.5967548  98.0739040
  14.4287830  73.2507843  97.4571973   9.4163914  77.4144093  89.7792459
  10.2783078  77.7398992  90.0388276   9.6014258  76.6275589  89.2665524
  17.5696551  76.2872620  96.9227682  16.9895220  76.9457424  96.5405734
  17.3032483  75.4649965  96.5115099  16.0200117  75.6877678  99.1249002
  16.5199895  75.7994212  98.3163321  16.6635725  75.3838730  99.7649810
  16.3521429  78.4472710  95.9784030  15.4647284  78.7322361  95.7604225
  16.7675418  78.2866474  95.1311307  19.7035965  78.4719231  99.6938369
  20.4796355  78.9615684  99.9662986  18.9784099  78.8977285 100.1510239
  22.1408524  79.1846851 100.7512310  22.7353014  78.9442586 100.0405618
  22.2135107  78.4653981 101.3785846  15.4964642  88.2117385  90.0732050
  16.2000492  88.4167387  90.6889705  14.7727291  88.7794147  90.3381133
  16.3262453  83.9627246  96.1934320  16.2697654  84.4195798  95.3541952
  16.8790795  83.2017931  96.0157163  20.1367258  79.7516978  97.0184439
  19.8804193  79.3513614  97.8492647  19.5120126  80.4660772  96.8934579
  24.4479596  82.4913051  99.5255731  23.8879154  82.5606241 100.2987293
  23.8423100  82.3154036  98.8055227  17.4051340  88.6499914  92.1230510
  18.2396944  88.2181113  91.9407985  17.2435683  88.4781928  93.0507404
  17.0597232  85.1532028  93.4886849  17.0046036  84.9876299  92.5475293
  16.4343287  85.8608060  93.6449039  10.3693357  74.6540137  93.0672168
  10.3572027  75.5981976  93.2240438  11.2616779  74.4710282  92.7731629
  14.1845477  71.2482913  97.3218104  13.4177873  70.6941400  97.4674787
  14.5956182  71.3204782  98.1832256  26.0335615  99.1669565 102.2185687
  26.6714025  99.0476313 101.5149027  25.9156458 100.1150409 102.2773639
  22.8425321  99.1196993 102.1547211  22.5043833  99.0038058 101.2667746
  23.7115089  98.7188159 102.1348217  18.7012137 100.9732470  98.1444102
  18.1377002 100.8822407  97.3760390  18.5864532 100.1532374  98.6246595
  24.2811695 104.6403438  93.4558567  23.6299675 105.2257518  93.0692581
  25.0756058 105.1709632  93.5153605  18.2067323 101.7292575  93.8545702
  18.9798199 101.1821562  93.7158577  18.5592721 102.5936824  94.0660163
  20.9708572 100.4345805 103.6513960  21.5672144 100.2101828 102.9370923
  21.0283544  99.6930551 104.2539408  20.5433600  97.8885241  91.4864151
  20.7959121  97.3666762  90.7247614  19.6058160  97.7251386  91.5890835
  25.5876883  96.8921019  99.2938895  26.3739972  96.4740442  98.9429312
  25.8515588  97.7967111  99.4620543  25.7586961 102.3293869  93.9927551
  25.1232794 102.4028496  94.7048456  25.4284367 102.9187468  93.3146631
  30.9885310  96.8296252 100.1971873  31.7210482  96.2595469 100.4309703
  30.2324666  96.4417853 100.6378379  20.2629889  99.7913347  93.6888526
  20.1466147  99.1158250  94.3569611  20.3732149  99.3045721  92.8720679
  22.6061430  99.2523494  97.3935216  22.2419637  98.7254115  98.1048137
  23.4628546  98.8621963  97.2201701  28.5110731  90.5417826 104.6566482
  28.1794055  91.4113237 104.4327697  27.9156344  90.2254110 105.3360512
  22.2466917  94.2813394  92.3896564  22.4141319  95.1493630  92.7567035
  22.0564086  94.4440675  91.4657853  25.0042250 102.7430372 104.0562394
  24.7042973 103.6455411 103.9478202  24.6593310 102.4762556 104.9083547
  18.4554732  99.1944169 100.0899099  17.5305228  99.0620383 100.2976791
  18.7039145  99.9738389 100.5869041  28.4039394  95.2612913 101.7359832
  27.4956271  95.1928321 101.4418593  28.3526990  95.7384858 102.5641657
  22.2256138  96.7371051  93.3743231  22.1055763  97.1828102  94.2128711
  21.5308726  97.0856369  92.8156769  19.9863030 109.5074693  97.0233362
  19.9087060 110.4582518  97.1021843  19.3824674 109.1620565  97.6808288
  30.2701040  93.4629351 103.5137706  29.6275421  93.7561884 102.8677500
  29.7655969  93.3482271 104.3190902  27.9241204  97.2092524  94.2023565
  28.8359060  97.4419911  94.0271263  27.4150851  97.7929568  93.6398644
  22.5613042  96.5689759 105.2118415  23.4074237  96.9929172 105.3553064
  22.5011679  95.9123383 105.9056978  26.5310786 102.1918343 101.5937146
  25.9019649 102.3564057 100.8913214  26.1436448 102.6059952 102.3648110
  30.4100018 103.1272781  98.9481510  29.7251056 103.5071682  98.3978544
  30.4943868 103.7368107  99.6813458  25.7112487  94.2294127 106.8699588
  25.4673419  94.9836188 106.3333864  25.9872418  94.6079475 107.7046835
  27.6650950 100.7732740 105.5476854  27.8767845 101.4164499 104.8711235
  27.6180698  99.9395056 105.0798784  25.2677179  93.3850560 102.4513426
  24.4061658  93.6831814 102.7430163  25.2939614  93.6020959 101.5194459
  22.0838748 101.9292751  98.8587232  22.5477094 102.2080454  98.0691854
  21.8195546 101.0276195  98.6760322  18.9762829 101.4764232 101.7966995
  19.5464186 101.9051501 101.1584479  19.5670941 101.1946817 102.4951180
  21.0207634  98.0515903  95.6676797  21.7231678  98.5036947  96.1350723
  20.6888263  97.4099722  96.2956690  14.7632968  96.3099456 100.9693930
  13.9732022  96.5656984 100.4934041  15.2544216  97.1247794 101.0745971
  28.7796778 103.6504695 103.7199211  29.6014222 103.2484882 103.4381893
  28.7759181 103.5472929 104.6715327  16.7147714  96.6744035  97.9277407
  15.9178877  96.7862729  98.4460903  16.4873306  97.0130687  97.0618297
  36.8702771  99.9943443 100.0684183  36.1166479  99.4250842  99.9128187
  37.0050312  99.9606108 101.0154817  22.2601399 104.8656846  95.7438902
  22.1247074 105.7108381  96.1723750  22.8011211 105.0676123  94.9804836
  15.7130796 102.3832284  96.3166827  16.2255317 103.1775534  96.4672392
  16.3653509 101.6858574  96.2500428  17.5225681 105.4998040  98.3989580
  17.6992309 106.4216005  98.2110564  18.3182515 105.1856459  98.8283960
  25.6093863  88.3887408 104.2737795  25.2658132  89.2789049 104.1976906
  25.9772825  88.1989065 103.4107380  13.6779713 100.7120938  97.0926398
  14.5154935 101.1217946  96.8760105  13.8557981  99.7720380  97.0626591
  25.5744145  98.3796019  92.7810230  25.0590769  99.1500623  93.0198618
  25.3021454  97.7061155  93.4043292  23.1591256  93.2245720  97.8395469
  22.3032853  92.8352570  97.6601108  23.5718208  93.3037680  96.9795254
  24.6890403  90.7592063 102.2387029  24.1855199  90.7222198 101.4254834
  24.9821010  91.6684806 102.2983685  20.9333289  90.8430793 101.2453210
  21.7986286  90.6473601 100.8859100  21.0010798  90.6141144 102.1722567
  30.5478419 101.1328373  94.7163404  29.7707862 100.7939533  94.2718566
  31.2269900 101.1380997  94.0418369  25.3630448  96.2523111  94.6070012
  25.0580584  96.5669260  95.4580155  26.3160891  96.3304531  94.6497345
  23.8076880 102.4113334  96.2562966  23.2798242 101.6766094  95.9436203
  23.3064383 103.1888011  96.0102934  28.7869726 100.6062355 101.3730012
  28.1293401 101.2961616 101.4610141  29.5910126 100.9958787 101.7163998
  18.5395608  93.0733000  98.6169577  19.1139360  92.8508182  97.8842770
  19.1266590  93.1421695  99.3698178  27.5975185  98.9606727  99.4233954
  28.1107067  99.5936719  99.9255663  28.2476409  98.3607923  99.0577314
  18.8665195  95.1037461  92.6365462  18.0302507  95.4412148  92.9574737
  18.7269965  94.9686441  91.6992599  20.8418276  89.9474249  97.3444647
  20.1882688  89.6323267  96.7201261  20.7998750  89.3249990  98.0704470
  21.9529480 100.2293544  89.2597939  21.0456542  99.9982798  89.4589088
  22.4500512  99.4331164  89.4471920  24.8597559 108.9391052  92.1794625
  24.1859258 109.2422748  92.7879583  25.2463381 109.7420132  91.8300082
  24.0756016  96.4356183 101.6692294  23.1578577  96.6571130 101.5113982
  24.4916160  96.5102493 100.8104002  24.8591064  97.8347599  96.7994974
  25.6062883  98.3468996  96.4902097  25.1282653  97.5131651  97.6599368
  23.1317714 100.3306139  93.7821929  22.2228933 100.0465172  93.8794399
  23.1612798 100.7505218  92.9225236  28.3636981 103.9412729  97.5513096
  27.9099308 103.1003639  97.6078287  27.7330948 104.5774127  97.8887876
  27.3069901  94.8704715  98.7813764  26.5692658  94.3582101  99.1124006
  27.5596674  94.4305096  97.9697041  26.8069921 105.7789225  98.4862914
  27.0992895 106.3394283  97.7675280  27.3168541 106.0717786  99.2416074
  27.4081528  87.6480967  99.3755533  27.7140405  86.7878330  99.0881448
  28.1334133  88.2398587  99.1754527  13.7005884  98.0511653  97.7637131
  13.5030284  97.4581014  97.0388198  13.1452548  97.7463864  98.4813070
  21.6802608  97.9434760  99.8831724  21.7351218  96.9908596  99.8074201
  20.8693810  98.0994199 100.3673023  22.8293802 101.8714883  91.1210007
  22.3913232 101.1550742  90.6615645  23.5704243 102.0990998  90.5595099
  19.6194968  96.5611820  97.6422103  18.8062833  96.8605990  98.0487295
  20.1153962  96.1667508  98.3596585  21.7703546 106.5569577  99.5756368
  21.7279725 106.7830423  98.6464900  22.6866245 106.3232951  99.7242169
  25.2169180  97.0253644 106.4736997  25.5718567  97.2525117 107.3331463
  25.8641311  97.3572021 105.8514252  30.9466916 100.1472080  97.1786326
  30.8084815 100.3373676  96.2507515  30.5903135 100.9091463  97.6354377
  19.1109043  94.1330175 103.2583338  19.7508422  93.9918934 102.5606301
  18.2786573  93.8464689 102.8821940  30.9736296 102.2148607 102.1897597
  31.4072803 102.1223896 103.0380651  31.6867877 102.1906107 101.5517613
  19.8869347 103.4332606  99.3718330  20.6809945 102.9382926  99.1700905
  19.1761039 102.9050469  99.0086036  16.1952110  97.5775687  95.4478083
  15.2649698  97.5160143  95.6648045  16.2909582  97.0551640  94.6514724
  16.1137659  94.1030500  98.0356325  16.3744476  95.0175833  97.9265485
  16.9354831  93.6354943  98.1852938  31.8351846 102.2572308 104.7230483
  32.0287736 103.1618118 104.9689758  31.7352464 101.7979727 105.5569068
  23.4888156  92.1430198 107.2220810  22.8416071  92.8420148 107.1285287
  24.2589172  92.5766342 107.5897058  23.6652291  99.9810963 105.2817630
  24.5944351 100.1322123 105.1086597  23.2443321 100.0694984 104.4266276
  23.0588774 109.1070724  94.3941704  23.2340530 108.6358767  95.2087327
  22.3721563 109.7336490  94.6222965  24.0145838 103.3843230 100.4405005
  23.6795670 103.3444000 101.3362655  23.5149783 102.7187946  99.9675416
  26.9505029 100.7299265  90.7142065  26.3334200 100.0046093  90.6175118
  26.4821518 101.4908625  90.3709139  18.7403575  94.9484689  89.8363369
  17.8633042  94.8273490  89.4725616  19.2161328  94.1570767  89.5842258
  28.6076568 103.4037757 106.6061825  27.7203347 103.0663679 106.7288224
  29.1775119 102.6720788 106.8430590  21.9267501 107.3010979  97.0825890
  21.1435023 107.8432659  97.1764114  22.6260246 107.8184959  97.4820131
  25.2364151  93.1105609  99.7260095  25.7332851  92.3575571  99.4061165
  24.4651133  93.1469925  99.1603304  33.0893909  98.8145974 101.3678387
  33.0783785  99.6970690 100.9972320  32.2211288  98.4617525 101.1732924
  26.3193932 101.8677296  97.2998519  25.3850211 101.9878758  97.1303223
  26.4970601 100.9649763  97.0358528  21.8199120  95.2522992  99.4531780
  21.4496908  94.6994032 100.1412685  22.3158213  94.6481125  98.9006780
  29.7066483  97.7094615  97.8348553  30.1726936  98.5422607  97.7608855
  30.1573984  97.2439597  98.5393811  27.7742715 104.0538437  94.8334705
  28.0502558 103.9395031  95.7428579  26.9047213 103.6555921  94.7946878
  27.6783146  90.0775202 101.8739454  26.7646226  90.3079429 102.0421661
  28.1076248  90.1613646 102.7253486  27.4489605  98.2665094 104.3739348
  26.7961055  98.5141002 103.7191801  27.8269985  97.4529232 104.0401825
  24.4096779 108.3024787  98.4767518  24.5919173 107.4846443  98.9395271
  25.2329765 108.5192480  98.0392408  24.7438944 107.2292972  95.7382567
  25.2726710 106.7185427  95.1252729  25.0067164 106.9135503  96.6028100
  17.2164454  92.6626983 105.6984886  17.2805780  93.5241813 105.2862283
  17.1531574  92.0500984 104.9657244  13.4682269  96.5426544  95.2776275
  13.7635710  95.6337223  95.2243329  12.5670305  96.5214284  94.9557277
  25.3768348 108.2633808 102.0826683  25.2519487 107.4623548 101.5737629
  26.0347439 108.7580002 101.5940653  16.9976516  94.6182541 101.2603823
  16.2763102  95.2318508 101.1211297  17.7869772  95.1540306 101.1820469
  27.4403256 106.0642828 103.7106233  26.4933592 105.9448179 103.6384560
  27.7886029 105.1765326 103.7932495  19.8002830  91.9536967 107.5344475
  20.3237231  92.1999264 108.2970785  19.5815163  92.7857002 107.1147613
  15.1970111  94.2240642  95.4015600  14.8682817  93.3438021  95.2190706
  15.5509481  94.1688311  96.2891989  24.4449690 105.8595545  99.9110586
  24.2974652 104.9312252 100.0918156  25.2703183 105.8815635  99.4267661
  18.3111934  94.5113612  95.7691078  18.6508006  95.0399533  95.0469686
  18.7584054  94.8494018  96.5449644  28.0483811 106.6824103 100.9975458
  28.9730359 106.4766965 100.8599909  27.8799115 106.4340504 101.9064800
  21.0055375  92.8950662 105.2194146  20.6652195  92.0958475 105.6214826
  20.2994381  93.1952373 104.6470979  21.6571846  89.9799975 103.6721469
  22.4797916  89.5060453 103.5500359  21.9009910  90.7590459 104.1720155
  20.2980081  93.0088233  93.9684370  21.0188443  93.3869486  93.4648087
  19.6745385  93.7277110  94.0719348  24.4411204  93.7133382  94.9042703
  24.6574818  94.5958020  94.6031531  23.9605271  93.3219596  94.1748345
  19.1810425  96.6719095 101.4813447  19.0355006  96.9859398 102.3737729
  18.7035629  97.2903996 100.9284346  21.0406808  93.6621643 101.5294337
  21.0268377  92.7662737 101.1926635  21.7579236  93.6692307 102.1632623
  22.8932939  94.0958984 103.5747464  22.6350717  95.0176054 103.5731795
  22.3617979  93.6989418 104.2647929  27.8379128 107.2009771  96.3537550
  28.0116005 106.6356193  95.6011402  28.3308019 108.0010666  96.1717040
  20.4443704  92.5436024  96.7981907  20.5659615  91.6152670  96.9972795
  20.1545746  92.5574710  95.8860223  23.3134894  90.2290934  99.9348627
  23.3356591  90.2930267  98.9800606  23.7302953  89.3895443 100.1289133
  33.6918519  99.9646194  97.9727850  34.1349665  99.2153519  97.5746973
  32.8145029  99.9556330  97.5901581  28.8254300 106.5176535  93.4534448
  29.5205205 107.1383228  93.6721763  29.1677450 105.6671886  93.7286826
  30.7245723 103.9676241  94.9821779  31.2497047 104.3063513  94.2571099
  30.6368076 103.0323256  94.7984913  30.5337504 101.4501611 107.6005705
  30.5835509 101.2851618 108.5421228  30.4251428 100.5828870 107.2103586
  19.4173763 104.1290156  94.8897794  19.5661883 104.8125621  94.2364467
  20.2240206 104.1095246  95.4047250  27.8241267  97.4332539 108.9165012
  28.7251129  97.2939004 108.6249010  27.8989241  97.5986994 109.8563189
  22.1584072  94.8099393 107.7618198  21.2887381  95.1032959 107.4900787
  22.3943552  95.3939838 108.4825462  32.0355701 103.8698552 107.8447727
  31.7440509 104.2328533 108.6811188  31.4227832 103.1565560 107.6661059
  33.2351383 101.4351432 100.3650297  34.0698275 101.8741236 100.5287857
  33.3710512 100.9590085  99.5458543  30.2842889  98.9931167 106.3127785
  30.7597011  99.1858813 105.5046636  29.3608455  99.0490353 106.0671169
  17.1726396 100.1555334  95.8958863  16.9272438  99.2517664  96.0939073
  17.3422310 100.1572484  94.9538341  24.8623106  91.0279010 105.2783619
  25.3805050  91.7640037 104.9530107  24.5078239  91.3343004 106.1130378
  16.4422043  95.8883692  93.3945025  15.7491288  95.9628047  92.7385061
  16.1973795  95.1244035  93.9166542  25.1135700  87.4479293 100.7984515
  25.3937454  86.7802482 101.4244942  25.8986307  87.6408389 100.2859179
  22.9169169 106.6238287  92.3609542  22.3443136 107.2428474  91.9080014
  23.4901962 107.1737648  92.8949464  28.9844558  95.8696927 104.5456090
  29.9361981  95.9695025 104.5668314  28.8148009  95.0775195 105.0554175
  27.0058938  92.9552510 104.7315491  26.4108870  93.2357523 104.0361980
  26.7208635  93.4446411 105.5032232  26.1366428 106.9075437  93.4918124
  27.0697101 106.8420999  93.6950999  26.0489641 107.7431704  93.0332657
  28.7654445 106.2241307  90.4522071  28.6868076 105.8901171  91.3457829
  29.5864112 106.7163075  90.4513544  31.4632636  99.0903047 103.6598390
  31.4308956  98.1519047 103.8458074  32.0733260  99.1687083 102.9264215
  23.3015967  97.9599100  89.7025594  24.2475072  97.8305308  89.7714012
  22.9230212  97.2213761  90.1795022  31.6127125  95.8814090 103.7056673
  31.0966173  95.0972547 103.5186602  32.4967073  95.5532807 103.8703193
  29.2737852  89.6255106  99.6652486  29.0762673  89.3170194 100.5495818
  29.8837557  90.3516744  99.7950416  37.2809186 100.1519053 102.8004427
  38.0112574  99.8904342 103.3612130  36.6716131  99.4147775 102.8406495
  35.3624483  98.2926916 103.3978878  34.6357647  98.1582881 102.7895370
  34.9471770  98.6003745 104.2035596  21.4858884  95.8849076  89.6380479
  20.5790340  95.5882189  89.7143193  21.7634865  95.5878894  88.7714766
  23.1020950  90.4285966  95.7924721  22.2921678  90.0833051  96.1679967
  23.7905367  90.1193509  96.3812332  25.0311498  89.5064012  97.4149017
  25.5842537  89.9259466  98.0739040  25.2681585  88.5799761  97.4571973
  20.2557669  92.7436011  89.7792459  21.1176833  93.0690909  90.0388276
  20.4408013  91.9567507  89.2665524  28.4090305  91.6164538  96.9227682
  27.8288974  92.2749342  96.5405734  28.1426238  90.7941882  96.5115099
  26.8593872  91.0169595  99.1249002  27.3593650  91.1286130  98.3163321
  27.5029480  90.7130648  99.7649810  27.1915183  93.7764628  95.9784030
  26.3041038  94.0614279  95.7604225  27.6069172  93.6158391  95.1311307
  30.5429719  93.8011149  99.6938369  31.3190110  94.2907601  99.9662986
  29.8177854  94.2269203 100.1510239  32.9802278  94.5138768 100.7512310
  33.5746769  94.2734504 100.0405618  33.0528862  93.7945899 101.3785846
  26.3358397 103.5409303  90.0732050  27.0394247 103.7459305  90.6889705
  25.6121046 104.1086065  90.3381133  27.1656207  99.2919164  96.1934320
  27.1091408  99.7487715  95.3541952  27.7184549  98.5309849  96.0157163
  30.9761013  95.0808896  97.0184439  30.7197947  94.6805531  97.8492647
  30.3513881  95.7952690  96.8934579  35.2873351  97.8204969  99.5255731
  34.7272909  97.8898158 100.2987293  34.6816854  97.6445954  98.8055227
  28.2445094 103.9791832  92.1230510  29.0790698 103.5473030  91.9407985
  28.0829437 103.8073846  93.0507404  27.8990986 100.4823945  93.4886849
  27.8439790 100.3168217  92.5475293  27.2737042 101.1899978  93.6449039
  21.2087112  89.9832054  93.0672168  21.1965782  90.9273894  93.2240438
  22.1010534  89.8002200  92.7731629  25.0239231  86.5774831  97.3218104
  24.2571627  86.0233318  97.4674787  25.4349936  86.6496700  98.1832256
  36.8729369 114.4961483 102.2185687  37.5107779 114.3768230 101.5149027
  36.7550212 115.4442327 102.2773639  33.6819076 114.4488911 102.1547211
  33.3437587 114.3329976 101.2667746  34.5508844 114.0480076 102.1348217
  31.3827355 113.2177158  91.4864151  31.6352876 112.6958680  90.7247614
  30.4451914 113.0543304  91.5890835  36.4270638 112.2212937  99.2938895
  37.2133727 111.8032360  98.9429312  36.6909342 113.1259029  99.4620543
  41.8279065 112.1588170 100.1971873  42.5604237 111.5887387 100.4309703
  41.0718421 111.7709770 100.6378379  33.4455185 114.5815412  97.3935216
  33.0813392 114.0546033  98.1048137  34.3022300 114.1913881  97.2201701
  39.3504485 105.8709744 104.6566482  39.0187810 106.7405155 104.4327697
  38.7550099 105.5546028 105.3360512  33.0860672 109.6105311  92.3896564
  33.2535074 110.4785548  92.7567035  32.8957841 109.7732593  91.4657853
  39.2433149 110.5904830 101.7359832  38.3350026 110.5220239 101.4418593
  39.1920744 111.0676775 102.5641657  33.0649892 112.0662969  93.3743231
  32.9449518 112.5120019  94.2128711  32.3702481 112.4148286  92.8156769
  41.1094795 108.7921269 103.5137706  40.4669175 109.0853802 102.8677500
  40.6049723 108.6774189 104.3190902  38.7634959 112.5384442  94.2023565
  39.6752815 112.7711829  94.0271263  38.2544606 113.1221486  93.6398644
  33.4006796 111.8981677 105.2118415  34.2467991 112.3221090 105.3553064
  33.3405434 111.2415301 105.9056978  36.5506242 109.5586045 106.8699588
  36.3067174 110.3128105 106.3333864  36.8266172 109.9371392 107.7046835
  38.5044704 116.1024657 105.5476854  38.7161600 116.7456417 104.8711235
  38.4574453 115.2686974 105.0798784  36.1070933 108.7142478 102.4513426
  35.2455412 109.0123731 102.7430163  36.1333368 108.9312877 101.5194459
  31.8601389 113.3807821  95.6676797  32.5625432 113.8328864  96.1350723
  31.5282017 112.7391640  96.2956690  25.6026723 111.6391373 100.9693930
  24.8125777 111.8948902 100.4934041  26.0937970 112.4539711 101.0745971
  27.5541468 112.0035953  97.9277407  26.7572631 112.1154647  98.4460903
  27.3267060 112.3422605  97.0618297  47.7096525 115.3235361 100.0684183
  46.9560234 114.7542759  99.9128187  47.8444067 115.2898026 101.0154817
  36.4487617 103.7179325 104.2737795  36.1051886 104.6080967 104.1976906
  36.8166580 103.5280983 103.4107380  36.4137900 113.7087936  92.7810230
  35.8984523 114.4792541  93.0198618  36.1415208 113.0353073  93.4043292
  33.9985011 108.5537637  97.8395469  33.1426607 108.1644488  97.6601108
  34.4111963 108.6329598  96.9795254  35.5284157 106.0883980 102.2387029
  35.0248953 106.0514116 101.4254834  35.8214764 106.9976723 102.2983685
  31.7727043 106.1722710 101.2453210  32.6380040 105.9765519 100.8859100
  31.8404552 105.9433062 102.1722567  41.3872174 116.4620291  94.7163404
  40.6101617 116.1231451  94.2718566  42.0663655 116.4672914  94.0418369
  36.2024203 111.5815029  94.6070012  35.8974338 111.8961178  95.4580155
  37.1554645 111.6596448  94.6497345  39.6263481 115.9354272 101.3730012
  38.9687155 116.6253534 101.4610141  40.4303880 116.3250704 101.7163998
  29.3789362 108.4024918  98.6169577  29.9533114 108.1800100  97.8842770
  29.9660345 108.4713613  99.3698178  38.4368940 114.2898645  99.4233954
  38.9500821 114.9228637  99.9255663  39.0870163 113.6899841  99.0577314
  29.7058949 110.4329379  92.6365462  28.8696262 110.7704066  92.9574737
  29.5663719 110.2978359  91.6992599  31.6812030 105.2766167  97.3444647
  31.0276442 104.9615184  96.7201261  31.6392504 104.6541907  98.0704470
  34.9149770 111.7648101 101.6692294  33.9972332 111.9863048 101.5113982
  35.3309914 111.8394411 100.8104002  35.6984818 113.1639516  96.7994974
  36.4456637 113.6760913  96.4902097  35.9676408 112.8423569  97.6599368
  38.1463655 110.1996633  98.7813764  37.4086412 109.6874019  99.1124006
  38.3990429 109.7597014  97.9697041  38.2475283 102.9772885  99.3755533
  38.5534159 102.1170248  99.0881448  38.9727887 103.5690505  99.1754527
  32.5196362 113.2726678  99.8831724  32.5744972 112.3200514  99.8074201
  31.7087564 113.4286117 100.3673023  30.4588722 111.8903737  97.6422103
  29.6456588 112.1897908  98.0487295  30.9547717 111.4959426  98.3596585
  36.0562934 112.3545562 106.4736997  36.4112322 112.5817035 107.3331463
  36.7035065 112.6863939 105.8514252  41.7860671 115.4763998  97.1786326
  41.6478570 115.6665594  96.2507515  41.4296890 116.2383380  97.6354377
  29.9502797 109.4622093 103.2583338  30.5902176 109.3210852 102.5606301
  29.1180328 109.1756606 102.8821940  41.8130051 117.5440525 102.1897597
  42.2466557 117.4515814 103.0380651  42.5261631 117.5198025 101.5517613
  27.0345864 112.9067605  95.4478083  26.1043453 112.8452060  95.6648045
  27.1303336 112.3843558  94.6514724  26.9531414 109.4322418  98.0356325
  27.2138231 110.3467751  97.9265485  27.7748586 108.9646860  98.1852938
  42.6745600 117.5864225 104.7230483  42.8681490 118.4910036 104.9689758
  42.5746218 117.1271644 105.5569068  34.3281911 107.4722116 107.2220810
  33.6809826 108.1712066 107.1285287  35.0982926 107.9058260 107.5897058
  34.5046045 115.3102881 105.2817630  35.4338105 115.4614040 105.1086597
  34.0837075 115.3986902 104.4266276  37.7898784 116.0591182  90.7142065
  37.1727954 115.3338010  90.6175118  37.3215272 116.8200543  90.3709139
  29.5797330 110.2776607  89.8363369  28.7026796 110.1565407  89.4725616
  30.0555083 109.4862685  89.5842258  36.0757906 108.4397526  99.7260095
  36.5726605 107.6867489  99.4061165  35.3044887 108.4761843  99.1603304
  43.9287663 114.1437892 101.3678387  43.9177540 115.0262607 100.9972320
  43.0605043 113.7909443 101.1732924  32.6592875 110.5814909  99.4531780
  32.2890662 110.0285950 100.1412685  33.1551967 109.9773043  98.9006780
  40.5460238 113.0386533  97.8348553  41.0120690 113.8714525  97.7608855
  40.9967738 112.5731514  98.5393811  38.5176901 105.4067120 101.8739454
  37.6039980 105.6371347 102.0421661  38.9470002 105.4905564 102.7253486
  38.2883359 113.5957012 104.3739348  37.6354809 113.8432919 103.7191801
  38.6663739 112.7821150 104.0401825  28.0558208 107.9918900 105.6984886
  28.1199535 108.8533731 105.2862283  27.9925329 107.3792902 104.9657244
  24.3076024 111.8718462  95.2776275  24.6029465 110.9629140  95.2243329
  23.4064059 111.8506201  94.9557277  27.8370271 109.9474458 101.2603823
  27.1156856 110.5610426 101.1211297  28.6263526 110.4832223 101.1820469
  30.6396584 107.2828885 107.5344475  31.1630986 107.5291181 108.2970785
  30.4208917 108.1148920 107.1147613  26.0363865 109.5532559  95.4015600
  25.7076571 108.6729938  95.2190706  26.3903236 109.4980228  96.2891989
  29.1505688 109.8405529  95.7691078  29.4901761 110.3691451  95.0469686
  29.5977809 110.1785935  96.5449644  31.8449129 108.2242580 105.2194146
  31.5045949 107.4250393 105.6214826  31.1388135 108.5244291 104.6470979
  32.4965601 105.3091892 103.6721469  33.3191670 104.8352371 103.5500359
  32.7403664 106.0882376 104.1720155  31.1373835 108.3380151  93.9684370
  31.8582198 108.7161404  93.4648087  30.5139140 109.0569028  94.0719348
  35.2804958 109.0425300  94.9042703  35.4968573 109.9249938  94.6031531
  34.7999025 108.6511513  94.1748345  30.0204180 112.0011013 101.4813447
  29.8748760 112.3151316 102.3737729  29.5429383 112.6195913 100.9284346
  31.8800563 108.9913561 101.5294337  31.8662131 108.0954654 101.1926635
  32.5972991 108.9984225 102.1632623  33.7326693 109.4250901 103.5747464
  33.4744471 110.3467972 103.5731795  33.2011734 109.0281336 104.2647929
  31.2837459 107.8727941  96.7981907  31.4053370 106.9444588  96.9972795
  30.9939501 107.8866627  95.8860223  34.1528649 105.5582852  99.9348627
  34.1750346 105.6222185  98.9800606  34.5696708 104.7187360 100.1289133
  44.5312273 115.2938111  97.9727850  44.9743419 114.5445437  97.5746973
  43.6538784 115.2848248  97.5901581  41.3731259 116.7793528 107.6005705
  41.4229264 116.6143536 108.5421228  41.2645182 115.9120787 107.2103586
  38.6635021 112.7624456 108.9165012  39.5644884 112.6230921 108.6249010
  38.7382996 112.9278911 109.8563189  32.9977826 110.1391311 107.7618198
  32.1281136 110.4324877 107.4900787  33.2337307 110.7231756 108.4825462
  44.0745138 116.7643350 100.3650297  44.9092029 117.2033154 100.5287857
  44.2104267 116.2882003  99.5458543  41.1236644 114.3223084 106.3127785
  41.5990765 114.5150731 105.5046636  40.2002209 114.3782270 106.0671169
  35.7016860 106.3570928 105.2783619  36.2198804 107.0931955 104.9530107
  35.3471993 106.6634921 106.1130378  27.2815798 111.2175609  93.3945025
  26.5885043 111.2919964  92.7385061  27.0367550 110.4535953  93.9166542
  35.9529454 102.7771211 100.7984515  36.2331208 102.1094400 101.4244942
  36.7380061 102.9700306 100.2859179  39.8238313 111.1988845 104.5456090
  40.7755736 111.2986942 104.5668314  39.6541763 110.4067113 105.0554175
  37.8452692 108.2844428 104.7315491  37.2502624 108.5649440 104.0361980
  37.5602389 108.7738329 105.5032232  42.3026391 114.4194964 103.6598390
  42.2702711 113.4810965 103.8458074  42.9127014 114.4979001 102.9264215
  34.1409721 113.2891017  89.7025594  35.0868826 113.1597225  89.7714012
  33.7623966 112.5505679  90.1795022  42.4520879 111.2106008 103.7056673
  41.9359928 110.4264464 103.5186602  43.3360828 110.8824724 103.8703193
  40.1131606 104.9547023  99.6652486  39.9156427 104.6462111 100.5495818
  40.7231312 105.6808662  99.7950416  48.1202940 115.4810971 102.8004427
  48.8506329 115.2196259 103.3612130  47.5109886 114.7439693 102.8406495
  46.2018238 113.6218834 103.3978878  45.4751401 113.4874799 102.7895370
  45.7865524 113.9295662 104.2035596  32.3252639 111.2140994  89.6380479
  31.4184094 110.9174106  89.7143193  32.6028620 110.9170812  88.7714766
  33.9414704 105.7577883  95.7924721  33.1315433 105.4124968  96.1679967
  34.6299121 105.4485427  96.3812332  35.8705253 104.8355930  97.4149017
  36.4236291 105.2551384  98.0739040  36.1075339 103.9091678  97.4571973
  31.0951423 108.0727929  89.7792459  31.9570587 108.3982827  90.0388276
  31.2801767 107.2859425  89.2665524  39.2484060 106.9456455  96.9227682
  38.6682729 107.6041259  96.5405734  38.9819992 106.1233800  96.5115099
  37.6987626 106.3461513  99.1249002  38.1987404 106.4578048  98.3163321
  38.3423234 106.0422566  99.7649810  38.0308938 109.1056546  95.9784030
  37.1434793 109.3906196  95.7604225  38.4462927 108.9450309  95.1311307
  41.3823474 109.1303067  99.6938369  42.1583864 109.6199519  99.9662986
  40.6571608 109.5561121 100.1510239  43.8196033 109.8430686 100.7512310
  44.4140523 109.6026422 100.0405618  43.8922616 109.1237816 101.3785846
  38.0049962 114.6211082  96.1934320  37.9485163 115.0779633  95.3541952
  38.5578304 113.8601766  96.0157163  41.8154767 110.4100813  97.0184439
  41.5591702 110.0097449  97.8492647  41.1907635 111.1244607  96.8934579
  46.1267105 113.1496887  99.5255731  45.5666663 113.2190076 100.2987293
  45.5210609 112.9737871  98.8055227  38.7384741 115.8115863  93.4886849
  38.6833545 115.6460134  92.5475293  38.1130796 116.5191896  93.6449039
  32.0480866 105.3123972  93.0672168  32.0359536 106.2565812  93.2240438
  32.9404288 105.1294117  92.7731629  35.8632986 101.9066748  97.3218104
  35.0965382 101.3525235  97.4674787  36.2743691 101.9788617  98.1832256
  47.2881372 119.0471243 104.2737795  46.9445641 119.9372885 104.1976906
  47.6560334 118.8572901 103.4107380  49.0869037 118.3064802  99.3755533
  49.3927914 117.4462166  99.0881448  49.8121642 118.8982422  99.1754527
  46.7923209 118.1063128 100.7984515  47.0724963 117.4386317 101.4244942
  47.5773816 118.2992224 100.2859179  50.9525361 120.2838941  99.6652486
  50.7550182 119.9754029 100.5495818  51.5625066 121.0100580  99.7950416
  46.7026740 117.2358666  97.3218104  45.9359136 116.6817153  97.4674787
  47.1137445 117.3080535  98.1832256   4.3521509  31.0129813  86.7929489
   3.5985217  30.4437211  86.6373494   4.4869050  30.9792478  87.7400124
   0.7170121  32.4537802  87.0895604   1.5517013  32.8927606  87.2533164
   0.8529250  31.9776455  86.2703849   4.7627924  31.1705423  89.5249734
   5.4931312  30.9090711  90.0857437   4.1534869  30.4334145  89.5651801
   2.8443221  29.3113286  90.1224185   2.1176384  29.1769251  89.5140676
   2.4290508  29.6190114  90.9280903   0.4621016  25.5325138  87.4757616
   1.0565507  25.2920874  86.7650925   0.5347600  24.8132268  88.1031153
   2.7692089  28.8391339  86.2501038   2.2091647  28.9084528  87.0232600
   2.1635592  28.6632323  85.5300534   4.3548107  45.5147853  88.9430993
   4.9926517  45.3954600  88.2394333   4.2368950  46.4628697  89.0018945
   1.1637813  45.4675281  88.8792518   0.8256325  45.3516345  87.9913053
   2.0327581  45.0666446  88.8593524   1.6457596  46.6210132  94.8378723
   1.6346237  46.2262931  93.9659227   1.8078236  45.8876205  95.4312495
   2.6024188  50.9881725  80.1803874   1.9512167  51.5735805  79.7937888
   3.3968551  51.5187920  80.2398911   3.9089376  43.2399306  86.0184201
   4.6952465  42.8218730  85.6674618   4.1728080  44.1445399  86.1865850
   4.0799453  48.6772157  80.7172858   3.4445286  48.7506783  81.4293763
   3.7496859  49.2665756  80.0391937   9.3097803  43.1774540  86.9217180
  10.0422975  42.6073756  87.1555009   8.5537158  42.7896140  87.3623685
   0.9273922  45.6001781  84.1180522   0.5632130  45.0732402  84.8293444
   1.7841038  45.2100250  83.9447008   6.8323223  36.8896114  91.3811788
   6.5006548  37.7591525  91.1573003   6.2368836  36.5732398  92.0605819
   3.3254743  49.0908660  90.7807701   3.0255466  49.9933699  90.6723508
   2.9805802  48.8240843  91.6328854   6.7251886  41.6091200  88.4605138
   5.8168764  41.5406608  88.1663899   6.6739482  42.0863145  89.2886964
   8.5913533  39.8107638  90.2383012   7.9487913  40.1040171  89.5922807
   8.0868461  39.6960559  91.0436209   6.2453696  43.5570811  80.9268872
   7.1571552  43.7898198  80.7516569   5.7363343  44.1407856  80.3643950
   4.5294464  47.9795439  94.5630164   4.9377820  47.5377850  93.8184797
   3.8071726  47.4048067  94.8164357   0.8825534  42.9168046  91.9363721
   1.7286729  43.3407460  92.0798370   0.8224172  42.2601670  92.6302284
   4.8523279  48.5396630  88.3182453   4.2232141  48.7042344  87.6158521
   4.4648941  48.9538239  89.0893417   8.7312511  49.4751068  85.6726817
   8.0463549  49.8549969  85.1223850   8.8156360  50.0846394  86.4058765
   4.0324979  40.5772414  93.5944895   3.7885911  41.3314475  93.0579170
   4.3084910  40.9557762  94.4292142   5.9863442  47.1211027  92.2722160
   6.1980337  47.7642787  91.5956541   5.9393190  46.2873343  91.8044090
   3.5889671  39.7328847  89.1758733   2.7274150  40.0310101  89.4675470
   3.6152106  39.9499246  88.2439765   7.1009270  49.9982982  90.4444518
   7.9226714  49.5963169  90.1627199   7.0971673  49.8951216  91.3960634
  15.1915263  46.3421731  86.7929489  14.4378972  45.7729129  86.6373494
  15.3262804  46.3084395  87.7400124   0.5813891  51.2135133  82.4684209
   0.4459566  52.0586669  82.8969056   1.1223704  51.4154411  81.7050142
   2.2082368  51.8358700  96.5984551   1.7646222  51.0495078  96.2805455
   2.8699581  52.0237850  95.9328441   4.3063606  52.1161499  94.6265952
   4.2882081  52.9370380  94.1346221   5.2283526  51.9915575  94.8516093
   3.9306355  34.7365695  90.9983102   3.5870624  35.6267337  90.9222213
   4.2985317  34.5467353  90.1352687   3.8956638  44.7274306  79.5055537
   3.3803261  45.4978911  79.7443925   3.6233946  44.0539442  80.1288599
   1.4803749  39.5724007  84.5640776   0.6245345  39.1830857  84.3846414
   1.8930700  39.6515968  83.7040561   3.0102895  37.1070350  88.9632335
   2.5067691  37.0700485  88.1500141   3.3033502  38.0163093  89.0228992
   8.8690912  47.4806661  81.4408711   8.0920354  47.1417820  80.9963873
   9.5482393  47.4859284  80.7663676   3.6842941  42.6001398  81.3315318
   3.3793076  42.9147547  82.1825461   4.6373383  42.6782818  81.3742651
   2.1289373  48.7591621  82.9808272   1.6010734  48.0244381  82.6681510
   1.6276875  49.5366298  82.7348241   7.1082219  46.9540642  88.0975319
   6.4505893  47.6439903  88.1855447   7.9122618  47.3437074  88.4409305
   5.9187677  45.3085015  86.1479260   6.4319559  45.9415006  86.6500970
   6.5688901  44.7086210  85.7822620   3.1810052  55.2869339  78.9039931
   2.5071750  55.5901036  79.5124889   3.5675874  56.0898419  78.5545389
   2.3968508  42.7834470  88.3937601   1.4791070  43.0049417  88.2359289
   2.8128652  42.8580781  87.5349308   3.1803556  44.1825886  83.5240281
   3.9275375  44.6947283  83.2147403   3.4495146  43.8609939  84.3844675
   1.4530206  46.6784427  80.5067235   0.5441425  46.3943459  80.6039705
   1.4825290  47.0983505  79.6470542   6.6849474  50.2891016  84.2758403
   6.2311801  49.4481926  84.3323593   6.0543440  50.9252414  84.6133183
   5.6282393  41.2183002  85.5059070   4.8905150  40.7060388  85.8369313
   5.8809167  40.7783384  84.6942347   5.1282413  52.1267513  85.2108221
   5.4205387  52.6872570  84.4920587   5.6381033  52.4196074  85.9661380
   5.7294020  33.9959254  86.1000840   6.0352897  33.1356617  85.8126755
   6.4546625  34.5876874  85.8999834   1.1506294  48.2193170  77.8455314
   0.7125724  47.5029029  77.3860951   1.8916735  48.4469285  77.2840405
   3.5381672  43.3731931  93.1982304   3.8931060  43.6003404  94.0576769
   4.1853803  43.7050308  92.5759559   9.2679409  46.4950367  83.9031633
   9.1297307  46.6851963  82.9752822   8.9115628  47.2569750  84.3599684
   9.2948788  48.5626894  88.9142904   9.7285295  48.4702183  89.7625958
  10.0080369  48.5384395  88.2762920   3.0276683  52.1628988  90.4476005
   3.0813706  52.7319925  91.2153721   2.1591465  52.3330873  90.0830042
  10.1564338  48.6050595  91.4475789  10.3500228  49.5096405  91.6935064
  10.0564956  48.1458014  92.2814374   1.8100649  38.4908485  93.9466117
   1.1628564  39.1898435  93.8530593   2.5801664  38.9244629  94.3142365
   5.2179447  48.7557338  97.0216670   5.0664953  48.5267889  96.1046754
   5.2084126  49.7127939  97.0348015   1.9864783  46.3289250  92.0062937
   2.9156843  46.4800410  91.8331904   1.5655813  46.4173271  91.1511583
   1.3801267  55.4549011  81.1187011   1.5553022  54.9837054  81.9332633
   0.6934055  56.0814777  81.3468271   2.3358330  49.7321518  87.1650312
   2.0008163  49.6922287  88.0607962   1.8362276  49.0666233  86.6920722
   5.2717522  47.0777552  77.4387372   4.6546692  46.3524380  77.3420424
   4.8034010  47.8386912  77.0954446   6.9271653  51.7876460  95.0993152
   6.8684199  51.1035680  94.4323735   7.3291172  52.5295450  94.6473778
   6.9289061  49.7516044  93.3307132   6.0415839  49.4141966  93.4533530
   7.4987612  49.0199075  93.5675897   3.5576644  39.4583896  86.4505402
   4.0545343  38.7053858  86.1306472   2.7863625  39.4948213  85.8848611
  11.4106401  45.1624262  88.0923693  11.3996277  46.0448977  87.7217626
  10.5423780  44.8095812  87.8978230   2.9188897  54.3104331  92.4526533
   3.6316870  54.9451795  92.3802435   2.4278926  54.4068197  91.6366535
   4.6406424  48.2155583  84.0243825   3.7062703  48.3357046  83.8548529
   4.8183093  47.3128050  83.7603835   8.0278976  44.0572902  84.5593859
   8.4939428  44.8900894  84.4854162   8.4786476  43.5917884  85.2639118
   6.0955207  50.4016724  81.5580011   6.3715051  50.2873318  82.4673885
   5.2259706  50.0034209  81.5192184   5.9995638  36.4253489  88.5984761
   5.0858718  36.6557716  88.7666968   6.4288740  36.5091934  89.4498793
   5.7702097  44.6143381  91.0984655   5.1173547  44.8619289  90.4437107
   6.1482477  43.8007520  90.7647132   2.7309271  54.6503075  85.2012825
   2.9131665  53.8324731  85.6640577   3.5542257  54.8670767  84.7637715
   3.0651436  53.5771260  82.4627873   3.5939203  53.0663714  81.8498036
   3.3279656  53.2613790  83.3273406   1.8189670  45.3563192  97.5850692
   1.1430307  45.2557322  98.2553067   2.6417304  45.2002406  98.0486689
   0.5612453  56.6630120  91.8208308   1.1130761  56.8261741  92.5857393
   0.9018646  57.2534558  91.1488333   5.4123327  51.4891377  97.6756962
   5.9563231  52.1021336  97.1811917   4.8310172  52.0470956  98.1923975
   3.6980840  54.6112095  88.8071990   3.5731980  53.8101835  88.2982935
   4.3559931  55.1058289  88.3185960   5.7615748  52.4121116  90.4351540
   4.8146084  52.2926467  90.3629867   6.1098522  51.5243614  90.5177801
   2.7662182  52.2073832  86.6355892   2.6187144  51.2790539  86.8163462
   3.5915675  52.2293922  86.1512967   6.3696304  53.0302390  87.7220765
   7.2942851  52.8245252  87.5845216   6.2011607  52.7818792  88.6310106
   2.7623696  40.0611669  81.6288009   2.9787310  40.9436307  81.3276838
   2.2817763  39.6697883  80.8993651   1.2145431  40.4437271  90.2992771
   0.9563209  41.3654341  90.2977101   0.6830471  40.0467705  90.9893235
   6.1591620  53.5488058  83.0782856   6.3328497  52.9834480  82.3256709
   6.6520511  54.3488953  82.8962346   1.6347387  36.5769221  86.6593934
   1.6569084  36.6408554  85.7045913   2.0515446  35.7373730  86.8534440
  12.0131011  46.3124481  84.6973156  12.4562157  45.5631806  84.2992279
  11.1357521  46.3034617  84.3146888   7.1466792  52.8654822  80.1779755
   7.8417697  53.4861515  80.3967069   7.4889942  52.0150174  80.4532133
   9.0458215  50.3154528  81.7067085   9.5709540  50.6541801  80.9816405
   8.9580568  49.3801543  81.5230220   0.7078264  54.2288602  93.8356962
   1.0165391  53.9837748  94.7079662   1.5053746  54.4335240  93.3475832
   8.7352122  50.9487432  97.0118283   7.9447665  50.9311570  96.4722783
   8.4985476  51.4875725  97.7667320   8.8549997  47.7979898  94.3251012
   8.9048001  47.6329905  95.2666535   8.7463920  46.9307157  93.9348893
   6.1453759  43.7810826  95.6410319   7.0463622  43.6417291  95.3494316
   6.2201733  43.9465281  96.5808496  10.3568193  50.2176839  94.5693033
  10.0653002  50.5806820  95.4056494   9.7440325  49.5043848  94.3906366
  11.5563876  47.7829719  87.0895604  12.3910767  48.2219523  87.2533164
  11.6923005  47.3068372  86.2703849   8.6055382  45.3409454  93.0373091
   9.0809503  45.5337100  92.2291943   7.6820947  45.3968640  92.7916475
   3.1835598  37.3757298  92.0028925   3.7017542  38.1118325  91.6775414
   2.8290731  37.6821291  92.8375684   3.4348192  33.7957580  87.5229822
   3.7149946  33.1280769  88.1490249   4.2198799  33.9886676  87.0104486
   1.2381661  52.9716574  79.0854848   0.6655628  53.5906761  78.6325320
   1.8114454  53.5215936  79.6194770   7.3057051  42.2175214  91.2701397
   8.2574474  42.3173312  91.2913621   7.1360501  41.4253483  91.7799481
   5.3271430  39.3030797  91.4560798   4.7321362  39.5835810  90.7607287
   5.0421127  39.7924698  92.2277539   4.4578921  53.2553724  80.2163431
   5.3909594  53.1899286  80.4196306   4.3702133  54.0909991  79.7577963
   7.0866937  52.5719595  77.1767378   7.0080569  52.2379458  78.0703136
   7.9076604  53.0641362  77.1758850   9.7845128  45.4381334  90.3843697
   9.7521449  44.4997335  90.5703381  10.3945752  45.5165371  89.6509522
   1.6228459  44.3077387  76.4270901   2.5687564  44.1783595  76.4959319
   1.2442704  43.5692049  76.9040329   9.9339617  42.2292377  90.4301980
   9.4178666  41.4450834  90.2431909  10.8179565  41.9011094  90.5948499
   7.5950344  35.9733393  86.3897793   7.3975165  35.6648481  87.2741125
   8.2050049  36.6995032  86.5195722  15.6021678  46.4997341  89.5249734
  16.3325067  46.2382629  90.0857437  14.9928624  45.7626063  89.5651801
  13.6836975  44.6405203  90.1224185  12.9570139  44.5061168  89.5140676
  13.2684262  44.9482032  90.9280903   1.5067152  48.3595133  97.8871558
   2.4270161  48.5373732  98.0811604   1.4716735  47.4151178  97.7351257
   1.4233442  36.7764253  82.5170027   0.6134170  36.4311338  82.8925273
   2.1117859  36.4671797  83.1057639   3.3523990  35.8542300  84.1394324
   3.9055029  36.2737753  84.7984347   3.5894077  34.9278048  84.1817280
   6.7302798  37.9642825  83.6472988   6.1501467  38.6227629  83.2651041
   6.4638730  37.1420169  83.2360406   5.1806364  37.3647883  85.8494309
   5.6806142  37.4764417  85.0408627   5.8241972  37.0608935  86.4895117
   5.5127676  40.1242915  82.7029336   4.6253531  40.4092566  82.4849531
   5.9281665  39.9636679  81.8556613   8.8642212  40.1489436  86.4183676
   9.6402602  40.6385889  86.6908293   8.1390346  40.5747490  86.8755545
  11.3014770  40.8617055  87.4757616  11.8959261  40.6212791  86.7650925
  11.3741354  40.1424186  88.1031153   4.6570889  49.8887590  76.7977356
   5.3606739  50.0937592  77.4135012   3.9333538  50.4564352  77.0626440
   5.4868699  45.6397451  82.9179627   5.4303901  46.0966003  82.0787259
   6.0397042  44.8788136  82.7402469   9.2973505  41.4287183  83.7429746
   9.0410439  41.0283819  84.5737954   8.6726373  42.1430977  83.6179885
  13.6085843  44.1683256  86.2501038  13.0485401  44.2376446  87.0232600
  13.0029346  43.9924241  85.5300534   6.5657586  50.3270119  78.8475816
   7.4003190  49.8951318  78.6653291   6.4041929  50.1552133  79.7752711
   6.2203479  46.8302232  80.2132156   6.1652282  46.6646504  79.2720600
   5.5949534  47.5378265  80.3694346   3.5349386  49.1351144  99.5385719
   4.4040545  49.3091797  99.1772353   3.0556137  49.9545561  99.4161448
   3.3451724  32.9253118  84.0463411   2.5784119  32.3711605  84.1920093
   3.7562428  32.9974987  84.9077563  15.1941862  60.8439770  88.9430993
  15.8320271  60.7246518  88.2394333  15.0762704  61.7920614  89.0018945
  12.0031568  60.7967198  88.8792518  11.6650079  60.6808263  87.9913053
  12.8721336  60.3958363  88.8593524   7.8618383  62.6502675  84.8689409
   7.2983249  62.5592612  84.1005697   7.7470779  61.8302579  85.3491901
  12.4851351  61.9502050  94.8378723  12.4739992  61.5554848  93.9659227
  12.6471990  61.2168123  95.4312495   5.4082815  64.1453866  87.7073629
   6.2004107  63.8044691  87.2919929   5.6479466  64.2548841  88.6275783
  13.4417942  66.3173642  80.1803874  12.7905922  66.9027723  79.7937888
  14.2362305  66.8479837  80.2398911   7.3673569  63.4062780  80.5791008
   8.1404445  62.8591767  80.4403884   7.7198968  64.2707029  80.7905470
   9.2058612  64.7339162  93.7857907   8.9148478  65.6384793  93.6704574
   9.8415596  64.7755689  94.5001977  10.1314819  62.1116010  90.3759267
  10.7278391  61.8872033  89.6616230  10.1889790  61.3700756  90.9784715
   9.7039847  59.5655446  78.2109458   9.9565368  59.0436967  77.4492921
   8.7664406  59.4021591  78.3136142  14.7483130  58.5691224  86.0184201
  15.5346219  58.1510647  85.6674618  15.0121834  59.4737316  86.1865850
  14.9193207  64.0064074  80.7172858  14.2839040  64.0798701  81.4293763
  14.5890614  64.5957673  80.0391937  20.1491557  58.5066457  86.9217180
  20.8816729  57.9365674  87.1555009  19.3930913  58.1188058  87.3623685
   9.4236136  61.4683552  80.4133833   9.3072394  60.7928455  81.0814917
   9.5338396  60.9815926  79.5965986  11.7667677  60.9293699  84.1180522
  11.4025884  60.4024320  84.8293444  12.6234793  60.5392168  83.9447008
  17.6716977  52.2188031  91.3811788  17.3400302  53.0883442  91.1573003
  17.0762591  51.9024315  92.0605819  11.4073164  55.9583598  79.1141871
  11.5747566  56.8263835  79.4812342  11.2170333  56.1210880  78.1903160
  14.1648497  64.4200577  90.7807701  13.8649220  65.3225616  90.6723508
  13.8199557  64.1532761  91.6328854   7.6160978  60.8714374  86.8144406
   6.6911475  60.7390588  87.0222097   7.8645392  61.6508593  87.3114348
  17.5645641  56.9383118  88.4605138  16.6562518  56.8698526  88.1663899
  17.5133237  57.4155062  89.2886964  11.3862385  58.4141256  80.0988538
  11.2662010  58.8598307  80.9374018  10.6914973  58.7626574  79.5402076
   4.9769790  60.5147648  87.6488195   5.1062171  60.7682127  88.5627606
   4.2967241  61.1075356  87.3292850   9.1469277  71.1844898  83.7478669
   9.0693307  72.1352723  83.8267149   8.5430920  70.8390770  84.4053595
  11.6386507  58.3572763  96.4040036  10.8619841  58.9166683  96.3942900
  12.2777070  58.8429546  96.9254906  19.4307287  55.1399556  90.2383012
  18.7881667  55.4332089  89.5922807  18.9262216  55.0252476  91.0436209
  17.0847451  58.8862729  80.9268872  17.9965307  59.1190116  80.7516569
  16.5757098  59.4699773  80.3643950   9.8932879  61.1658217  95.9658003
  10.6347563  61.7043260  95.6892826   9.1869864  61.7924505  96.1229555
  15.3688219  63.3087357  94.5630164  15.7771575  62.8669767  93.8184797
  14.6465480  62.7339984  94.8164357  11.7219289  58.2459964  91.9363721
  12.5680484  58.6699377  92.0798370  11.6617926  57.5893588  92.6302284
  15.6917033  63.8688548  88.3182453  15.0625896  64.0334262  87.6158521
  15.3042695  64.2830157  89.0893417  19.5706265  64.8042985  85.6726817
  18.8857303  65.1841887  85.1223850  19.6550114  65.4138312  86.4058765
  14.8718734  55.9064332  93.5944895  14.6279666  56.6606393  93.0579170
  15.1478664  56.2849680  94.4292142  16.8257197  62.4502944  92.2722160
  17.0374092  63.0934704  91.5956541  16.7786945  61.6165261  91.8044090
  14.4283426  55.0620765  89.1758733  13.5667905  55.3602019  89.4675470
  14.4545860  55.2791164  88.2439765  11.2444995  63.6062956  85.5832538
  11.7083341  63.8850659  84.7937161  10.9801793  62.7046400  85.4005629
   8.1369076  63.1534437  88.5212301   8.7070433  63.5821706  87.8829786
   8.7277188  62.8717022  89.2196487  10.1813881  59.7286108  82.3922103
  10.8837924  60.1807152  82.8596030   9.8494510  59.0869927  83.0201996
   8.6294243  58.3197865  96.7673313   7.9992903  59.0014146  97.0008710
   8.5230331  58.2080946  95.8226451   3.9239215  57.9869661  87.6939237
   3.1338269  58.2427189  87.2179348   4.4150462  58.8017999  87.7991277
  17.9403025  65.3274900  90.4444518  18.7620468  64.9255087  90.1627199
  17.9365427  65.2243134  91.3960634   5.8753960  58.3514240  84.6522714
   5.0785124  58.4632934  85.1706209   5.6479553  58.6900892  83.7863604
  11.7059628  64.8758943  92.6005228  11.7704061  65.3379350  93.4363400
  10.9970552  64.2456308  92.7287538   2.2076918  58.2400151  90.1254228
   2.4584956  59.1247161  90.3911804   2.7436466  58.0604753  89.3529320
  26.0309018  61.6713648  86.7929489  25.2772726  61.1021046  86.6373494
  26.1656559  61.6376313  87.7400124  11.4207646  66.5427051  82.4684209
  11.2853321  67.3878586  82.8969056  11.9617458  66.7446328  81.7050142
   7.9074985  52.6218631  99.1298564   7.5141931  52.0684829  99.8046208
   8.7241126  52.9329209  99.5205081   4.8737043  64.0602489  83.0412134
   5.3861564  64.8545739  83.1917698   5.5259756  63.3628779  82.9745735
   6.6831928  67.1768245  85.1234887   6.8598556  68.0986210  84.9355871
   7.4788761  66.8626664  85.5529267  10.8242946  54.0376510  96.7218820
  11.5652660  54.6383663  96.6423283  11.0560869  53.2954147  96.1636863
   5.9684284  59.2232877  94.9997050   5.8537799  58.3218134  95.3004149
   5.1128802  59.4696574  94.6481867  13.0476122  67.1650617  96.5984551
  12.6039976  66.3786996  96.2805455  13.7093336  67.3529768  95.9328441
   7.8063243  68.6946419  91.1245229   8.3570668  68.5663482  90.3522223
   6.9674719  68.9941308  90.7740122  15.1457360  67.4453417  94.6265952
  15.1275836  68.2662298  94.1346221  16.0677280  67.3207492  94.8516093
  11.6030414  64.9597547  95.4689460  12.1358751  64.1985835  95.2388768
  11.0744495  64.6671198  96.2113615  14.7700109  50.0657613  90.9983102
  14.4264379  50.9559254  90.9222213  15.1379072  49.8759270  90.1352687
   2.8385960  62.3891143  83.8171704   3.6761182  62.7988151  83.6005412
   3.0164228  61.4490585  83.7871898  14.7350392  60.0566224  79.5055537
  14.2197015  60.8270828  79.7443925  14.4627700  59.3831360  80.1288599
  12.3197503  54.9015924  84.5640776  11.4639099  54.5122775  84.3846414
  12.7324455  54.9807885  83.7040561  13.8496650  52.4362268  88.9632335
  13.3461445  52.3992403  88.1500141  14.1427257  53.3455010  89.0228992
  10.0939536  52.5200997  87.9698517  10.9592532  52.3243806  87.6104406
  10.1617044  52.2911349  88.8967874  19.7084666  62.8098578  81.4408711
  18.9314109  62.4709738  80.9963873  20.3876147  62.8151201  80.7663676
  14.5236695  57.9293316  81.3315318  14.2186831  58.2439465  82.1825461
  15.4767137  58.0074736  81.3742651  12.9683127  64.0883539  82.9808272
  12.4404489  63.3536299  82.6681510  12.4670630  64.8658215  82.7348241
  17.9475973  62.2832560  88.0975319  17.2899647  62.9731821  88.1855447
  18.7516372  62.6728992  88.4409305   7.7001855  54.7503205  85.3414884
   8.2745607  54.5278387  84.6088077   8.2872837  54.8191900  86.0943485
  16.7581432  60.6376932  86.1479260  17.2713314  61.2706924  86.6500970
  17.4082656  60.0378128  85.7822620   8.0271442  56.7807666  79.3610769
   7.1908754  57.1182353  79.6820044   7.8876211  56.6456646  78.4237906
  10.0024522  51.6244454  84.0689953   9.3488935  51.3093471  83.4446568
   9.9604996  51.0020195  84.7949776  11.1135727  61.9063749  75.9843245
  10.2062789  61.6753003  76.1834394  11.6106759  61.1101369  76.1717227
  14.0203806  70.6161257  78.9039931  13.3465505  70.9192953  79.5124889
  14.4069628  71.4190337  78.5545389  13.2362263  58.1126388  88.3937601
  12.3184824  58.3341335  88.2359289  13.6522406  58.1872698  87.5349308
  14.0197310  59.5117803  83.5240281  14.7669129  60.0239201  83.2147403
  14.2888900  59.1901856  84.3844675  12.2923961  62.0076344  80.5067235
  11.3835180  61.7235377  80.6039705  12.3219044  62.4275423  79.6470542
  17.5243228  65.6182934  84.2758403  17.0705555  64.7773844  84.3323593
  16.8937195  66.2544332  84.6133183  16.4676148  56.5474920  85.5059070
  15.7298904  56.0352306  85.8369313  16.7202921  56.1075301  84.6942347
  15.9676167  67.4559430  85.2108221  16.2599142  68.0164488  84.4920587
  16.4774788  67.7487991  85.9661380  16.5687775  49.3251172  86.1000840
  16.8746652  48.4648535  85.8126755  17.2940380  49.9168792  85.8999834
   2.8612131  59.7281858  84.4882438   2.6636531  59.1351219  83.7633504
   2.3058795  59.4234069  85.2058376  10.8408855  59.6204965  86.6077031
  10.8957464  58.6678801  86.5319507  10.0300057  59.7764404  87.0918329
  11.9900048  63.5485088  77.8455314  11.5519478  62.8320947  77.3860951
  12.7310489  63.7761203  77.2840405   8.7801215  58.2382025  84.3667410
   7.9669080  58.5376195  84.7732602   9.2760209  57.8437713  85.0841892
  10.9309792  68.2339781  86.3001674  10.8885971  68.4600628  85.3710206
  11.8472491  68.0003156  86.4487475  14.3775426  58.7023849  93.1982304
  14.7324814  58.9295322  94.0576769  15.0247558  59.0342226  92.5759559
  20.1073163  61.8242285  83.9031633  19.9691062  62.0143881  82.9752822
  19.7509382  62.5861668  84.3599684   8.2715289  55.8100380  89.9828645
   8.9114669  55.6689139  89.2851608   7.4392820  55.5234893  89.6067247
  20.1342543  63.8918812  88.9142904  20.5679050  63.7994101  89.7625958
  20.8474124  63.8676312  88.2762920   9.0475593  65.1102810  86.0963637
   9.8416192  64.6153131  85.8946212   8.3367286  64.5820674  85.7331343
  13.8670438  67.4920906  90.4476005  13.9207460  68.0611842  91.2153721
  12.9985219  67.6622791  90.0830042   5.3558357  59.2545892  82.1723390
   4.4255945  59.1930348  82.3893352   5.4515829  58.7321845  81.3760031
   5.2743906  55.7800705  84.7601631   5.5350723  56.6946038  84.6510792
   6.0961078  55.3125148  84.9098244   6.7468831  57.1938462  91.9300456
   7.4191885  56.9855824  91.2813105   5.9198618  56.9960548  91.4905688
  20.9958092  63.9342513  91.4475789  21.1893982  64.8388323  91.6935064
  20.8958711  63.4749932  92.2814374  12.6494403  53.8200403  93.9466117
  12.0022318  54.5190353  93.8530593  13.4195419  54.2536547  94.3142365
  16.0573201  64.0849255  97.0216670  15.9058707  63.8559807  96.1046754
  16.0477881  65.0419857  97.0348015  12.8258537  61.6581168  92.0062937
  13.7550597  61.8092328  91.8331904  12.4049568  61.7465189  91.1511583
  11.6246869  65.6831832  89.7761474  11.4857955  65.3150617  90.6487412
  10.8361465  66.1979472  89.6045432  12.2195021  70.7840929  81.1187011
  12.3946777  70.3128972  81.9332633  11.5327809  71.4106695  81.3468271
  13.1752084  65.0613435  87.1650312  12.8401917  65.0214205  88.0607962
  12.6756030  64.3958151  86.6920722   7.1496328  60.4681065  92.6902893
   7.0116126  59.7361304  93.2914432   8.0601252  60.3789965  92.4087081
  16.1111276  62.4069470  77.4387372  15.4940447  61.6816298  77.3420424
  15.6427765  63.1678830  77.0954446   9.7778629  60.1801025  92.1786573
  10.4878248  59.5394217  92.1373191   9.7347937  60.4313919  93.1012754
  17.7665408  67.1168378  95.0993152  17.7077954  66.4327598  94.4323735
  18.1684926  67.8587368  94.6473778   8.4907563  57.1666242  93.9982212
   7.9544920  56.7156981  94.6503809   7.9024271  57.3012151  93.2552677
   6.7856107  73.9330292  87.8926871   7.0252705  74.5648816  88.5705889
   5.9425303  73.5818332  88.1792230   7.9009822  56.6254894  76.5608676
   7.0239288  56.5043695  76.1970923   8.3767575  55.8340972  76.3087565
  17.7682815  65.0807962  93.3307132  16.8809594  64.7433884  93.4533530
  18.3381366  64.3490993  93.5675897   4.2246684  56.3022250  91.0835207
   4.1404873  55.6947920  90.3485617   3.4029391  56.7931268  91.0844703
  11.2983968  69.7409414  90.2968375  11.2254140  70.5464386  90.8087679
  10.8561361  69.9401380  89.4716396  11.0873748  68.9781184  83.8071196
  10.3041270  69.5202864  83.9009421  11.7866493  69.4955164  84.2065438
  14.3970398  54.7875814  86.4505402  14.8939098  54.0345776  86.1306472
  13.6257380  54.8240130  85.8848611  22.2500156  60.4916179  88.0923693
  22.2390032  61.3740895  87.7217626  21.3817535  60.1387730  87.8978230
  13.7582652  69.6396248  92.4526533  14.4710624  70.2743713  92.3802435
  13.2672681  69.7360114  91.6366535  15.4800179  63.5447501  84.0243825
  14.5456458  63.6648963  83.8548529  15.6576847  62.6419968  83.7603835
  10.9805367  56.9293197  86.1777086  10.6103154  56.3764237  86.8657992
  11.4764459  56.3251330  85.6252086  18.8672730  59.3864820  84.5593859
  19.3333182  60.2192812  84.4854162  19.3180231  58.9209802  85.2639118
   8.8094565  67.3890692  93.2732104   9.5104025  68.0227175  93.4261499
   8.3389680  67.7305423  92.5127744  16.9348961  65.7308641  81.5580011
  17.2108805  65.6165236  82.4673885  16.0653460  65.3326126  81.5192184
  16.8389393  51.7545407  88.5984761  15.9252473  51.9849634  88.7666968
  17.2682494  51.8383851  89.4498793  16.6095851  59.9435299  91.0984655
  15.9567302  60.1911207  90.4437107  16.9876231  59.1299437  90.7647132
  13.5703025  69.9794992  85.2012825  13.7525420  69.1616648  85.6640577
  14.3936011  70.1962685  84.7637715  13.9045191  68.9063177  82.4627873
  14.4332957  68.3955632  81.8498036  14.1673410  68.5905708  83.3273406
  12.6583424  60.6855110  97.5850692  11.9824061  60.5849239  98.2553067
  13.4811058  60.5294324  98.0486689   4.4062284  66.9227047  90.2063207
   4.9915720  66.1770735  90.3391111   4.2087122  67.2331003  91.0899871
   7.2600939  69.9578294  85.2225649   6.5911314  70.4424422  84.7389689
   7.1213808  70.2047515  86.1369028  11.4006207  71.9922038  91.8208308
  11.9524515  72.1553659  92.5857393  11.7412401  72.5826475  91.1488333
   6.3770701  54.3397187  92.4230192   6.4412027  55.2012018  92.0107590
   6.3137821  53.7271189  91.6902551   5.8522973  56.4120320  96.0703227
   6.4795012  56.0297397  96.6840751   4.9950892  56.1934522  96.4358919
  16.2517082  66.8183295  97.6756962  16.7956986  67.4313253  97.1811917
  15.6703926  67.3762874  98.1923975   2.6288516  58.2196749  82.0021582
   2.9241957  57.3107427  81.9488635   1.7276552  58.1984489  81.6802584
  14.5374595  69.9404013  88.8071990  14.4125734  69.1393753  88.2982935
  15.1953686  70.4350207  88.3185960   6.1582763  56.2952746  87.9849130
   5.4369349  56.9088713  87.8456603   6.9476019  56.8310510  87.9065776
  16.6009503  67.7413033  90.4351540  15.6539839  67.6218384  90.3629867
  16.9492276  66.8535531  90.5177801   8.9609076  53.6307172  94.2589782
   9.4843478  53.8769469  95.0216091   8.7421410  54.4627207  93.8392919
   4.3576357  55.9010847  82.1260907   4.0289064  55.0208226  81.9436013
   4.7115728  55.8458515  83.0137296  13.6055936  67.5365749  86.6355892
  13.4580899  66.6082457  86.8163462  14.4309430  67.5585840  86.1512967
   7.4718181  56.1883817  82.4936384   7.8114253  56.7169738  81.7714993
   7.9190301  56.5264223  83.2694951  17.2090058  68.3594308  87.7220765
  18.1336606  68.1537170  87.5845216  17.0405361  68.1110709  88.6310106
  10.1661621  54.5720867  91.9439452   9.8258442  53.7728680  92.3460132
   9.4600628  54.8722578  91.3716286  10.8178093  51.6570180  90.3966775
  11.6404163  51.1830658  90.2745666  11.0616157  52.4360663  90.8965462
   9.4586328  54.6858438  80.6929677  10.1794690  55.0639691  80.1893394
   8.8351632  55.4047315  80.7964655  13.6017451  55.3903587  81.6288009
  13.8181065  56.2728225  81.3276838  13.1211518  54.9989801  80.8993651
   8.3416672  58.3489300  88.2058754   8.1961253  58.6629603  89.0983036
   7.8641876  58.9674201  87.6529653  10.2013055  55.3391848  88.2539644
  10.1874624  54.4432942  87.9171942  10.9185483  55.3462512  88.8877930
  12.0539186  55.7729189  90.2992771  11.7956963  56.6946259  90.2977101
  11.5224226  55.3759623  90.9893235  16.9985374  68.8779976  83.0782856
  17.1722252  68.3126398  82.3256709  17.4914266  69.6780871  82.8962346
   2.8162334  60.8894645  91.1446415   2.2715802  61.6654453  91.2766690
   3.6941684  61.2365449  90.9865537   9.6049951  54.2206229  83.5227214
   9.7265862  53.2922875  83.7218101   9.3151993  54.2344915  82.6105529
  12.4741141  51.9061139  86.6593934  12.4962838  51.9700472  85.7045913
  12.8909200  51.0665648  86.8534440  22.8524765  61.6416399  84.6973156
  23.2955912  60.8923724  84.2992279  21.9751276  61.6326535  84.3146888
  17.9860547  68.1946740  80.1779755  18.6811451  68.8153433  80.3967069
  18.3283697  67.3442091  80.4532133   3.6028356  60.0164541  94.0376572
   2.8610092  60.1647176  94.6241203   3.2821100  60.2772807  93.1743321
  19.8851970  65.6446446  81.7067085  20.4103294  65.9833718  80.9816405
  19.7974322  64.7093461  81.5230220  11.5472019  69.5580519  93.8356962
  11.8559145  69.3129666  94.7079662  12.3447501  69.7627158  93.3475832
  11.5692631  71.7118429  86.0662339  11.1297621  71.2194808  86.7595195
  12.3200748  71.1691397  85.8254414   4.0484970  67.9029970  86.0686967
   4.8742990  67.6033742  85.6885610   3.6979022  67.1337592  86.5176755
   9.0166503  67.2556438  88.1384640   8.3946512  66.5927143  87.8386868
   9.6871370  67.2817570  87.4558288   2.2493575  65.8216296  87.0275900
   1.4125483  65.3938471  86.8459902   2.2217220  66.0148740  87.9646691
   9.0891030  55.7338226  97.7317146   9.1379186  56.6100349  97.3494916
   9.6313545  55.1915619  97.1588790  19.5745876  66.2779349  97.0118283
  18.7841420  66.2603488  96.4722783  19.3379231  66.8167643  97.7667320
  19.6943751  63.1271816  94.3251012  19.7441756  62.9621823  95.2666535
  19.5857674  62.2599075  93.9348893   8.5780010  65.8060361  81.6143101
   8.7268130  66.4895826  80.9609774   9.3846453  65.7865451  82.1292557
  16.9847513  59.1102744  95.6410319  17.8857376  58.9709208  95.3494316
  17.0595488  59.2757198  96.5808496  11.3190319  56.4869598  94.4863505
  10.4493628  56.7803164  94.2146094  11.5549799  57.0710043  95.2070769
  21.1961948  65.5468757  94.5693033  20.9046756  65.9098738  95.4056494
  20.5834079  64.8335765  94.3906366  22.3957630  63.1121637  87.0895604
  23.2304522  63.5511441  87.2533164  22.5316759  62.6360290  86.2703849
  19.4449136  60.6701372  93.0373091  19.9203258  60.8629018  92.2291943
  18.5214701  60.7260558  92.7916475   6.3332643  61.8325539  82.6204170
   6.0878685  60.9287869  82.8184380   6.5028557  61.8342689  81.6783648
  14.0229353  52.7049215  92.0028925  14.5411296  53.4410242  91.6775414
  13.6684485  53.0113209  92.8375684   5.6028290  57.5653896  80.1190331
   4.9097535  57.6398251  79.4630367   5.3580042  56.8014240  80.6411848
  14.2741947  49.1249498  87.5229822  14.5543701  48.4572687  88.1490249
  15.0592554  49.3178593  87.0104486  12.0775415  68.3008492  79.0854848
  11.5049382  68.9198679  78.6325320  12.6508209  68.8507853  79.6194770
  18.1450805  57.5467132  91.2701397  19.0968228  57.6465229  91.2913621
  17.9754256  56.7545400  91.7799481  16.1665185  54.6322715  91.4560798
  15.5715117  54.9127728  90.7607287  15.8814881  55.1216616  92.2277539
  15.2972675  68.5845642  80.2163431  16.2303348  68.5191204  80.4196306
  15.2095888  69.4201909  79.7577963  17.9260692  67.9011512  77.1767378
  17.8474323  67.5671376  78.0703136  18.7470359  68.3933280  77.1758850
  20.6238883  60.7673252  90.3843697  20.5915203  59.8289252  90.5703381
  21.2339507  60.8457288  89.6509522  12.4622214  59.6369304  76.4270901
  13.4081318  59.5075513  76.4959319  12.0836459  58.8983966  76.9040329
  20.7733371  57.5584295  90.4301980  20.2572420  56.7742752  90.2431909
  21.6573320  57.2303012  90.5948499  18.4344098  51.3025311  86.3897793
  18.2368919  50.9940399  87.2741125  19.0443804  52.0286949  86.5195722
  26.4415433  61.8289258  89.5249734  27.1718821  61.5674546  90.0857437
  25.8322378  61.0917980  89.5651801  24.5230730  59.9697121  90.1224185
  23.7963893  59.8353086  89.5140676  24.1078017  60.2773950  90.9280903
  12.3460906  63.6887051  97.8871558  13.2663916  63.8665650  98.0811604
  12.3110489  62.7443096  97.7351257  10.6465131  57.5619281  76.3625786
   9.7396586  57.2652394  76.4388500  10.9241112  57.2649099  75.4960072
   1.5643071  58.8825644  86.8124832   1.2445856  58.0290952  86.5199206
   1.0176499  59.0974222  87.5682800   5.3422979  61.5988085  90.5294339
   5.5608989  62.5305193  90.5482373   5.7548753  61.2396060  91.3149143
  12.2627197  52.1056171  82.5170027  11.4527925  51.7603256  82.8925273
  12.9511614  51.7963714  83.1057639  14.1917745  51.1834217  84.1394324
  14.7448784  51.6029671  84.7984347  14.4287831  50.2569965  84.1817280
  10.2150844  57.1721291  99.9197088  10.1147571  58.1215648  99.8509179
   9.9972386  56.8439530  99.0473158   9.4163916  54.4206216  76.5037765
  10.2783080  54.7461114  76.7633583   9.6014260  53.6337712  75.9910831
   1.4331331  62.5028556  88.7817954   0.7394803  62.0882509  88.2687908
   2.1804322  62.5449092  88.1851373  17.5696552  53.2934743  83.6472988
  16.9895221  53.9519547  83.2651041  17.3032485  52.4712087  83.2360406
  16.0200118  52.6939800  85.8494309  16.5199897  52.8056335  85.0408627
  16.6635726  52.3900853  86.4895117  10.0782114  60.6018430  98.7362149
   9.5949196  61.4018790  98.9426039  10.1643053  60.6126375  97.7829593
   3.3468074  62.4346810  86.6583969   3.3238762  62.5334497  85.7065852
   3.6568710  63.2811960  86.9801135   6.0055452  64.4922965  90.7730583
   6.9598705  64.4606907  90.7060515   5.8067975  64.0313588  91.5880809
   6.5954834  63.0624081  93.3401381   7.4147723  63.5568159  93.3636218
   6.8691642  62.1456049  93.3118948  16.3521430  55.4534833  82.7029336
  15.4647285  55.7384484  82.4849531  16.7675419  55.2928596  81.8556613
  19.7035966  55.4781354  86.4183676  20.4796356  55.9677806  86.6908293
  18.9784100  55.9039408  86.8755545  22.1408525  56.1908973  87.4757616
  22.7353016  55.9504709  86.7650925  22.2135109  55.4716104  88.1031153
   4.3605681  70.0342584  87.7900781   4.2260148  69.2742985  87.2238779
   3.9437743  70.7583484  87.3229570  15.4964644  65.2179508  76.7977356
  16.2000494  65.4229510  77.4135012  14.7727292  65.7856269  77.0626440
  16.3262454  60.9689369  82.9179627  16.2697655  61.4257920  82.0787259
  16.8790796  60.2080053  82.7402469  20.1367260  56.7579101  83.7429746
  19.8804194  56.3575736  84.5737954  19.5120128  57.4722895  83.6179885
  24.4479598  59.4975174  86.2501038  23.8879156  59.5668363  87.0232600
  23.8423101  59.3216159  85.5300534   7.5174806  70.9311901  88.0019224
   7.4007191  71.8757334  87.8997914   6.6967253  70.6285463  88.3905023
  17.4051341  65.6562037  78.8475816  18.2396945  65.2243235  78.6653291
  17.2435684  65.4844050  79.7752711  17.0597233  62.1594150  80.2132156
  17.0046037  61.9938422  79.2720600  16.4343288  62.8670183  80.3694346
   1.8489748  57.3962214  94.0393578   2.4948612  56.8861168  94.5280803
   1.6406899  58.1330896  94.6137003  14.3743140  64.4643062  99.5385719
  15.2434300  64.6383714  99.1772353  13.8949892  65.2837479  99.4161448
  10.3693359  51.6602259  79.7917474  10.3572028  52.6044099  79.9485745
  11.2616780  51.4772405  79.4976935   8.5429321  71.5840163  91.2175152
   9.4456567  71.6163773  91.5341647   8.3166691  70.6540614  91.2321488
  10.2982923  70.3371150  87.8785231   9.3478554  70.3373011  87.7649603
  10.6015409  69.5903884  87.3621265  14.1845478  48.2545036  84.0463411
  13.4177874  47.7003522  84.1920093  14.5956183  48.3266905  84.9077563
   6.1887239  54.5429832  98.1368592   7.0518701  54.1866636  98.3471917
   5.6152650  54.2043726  98.8243997  26.0335616  76.1731688  88.9430993
  26.6714026  76.0538435  88.2394333  25.9156459  77.1212532  89.0018945
  22.8425322  76.1259116  88.8792518  22.5043834  76.0100181  87.9913053
  23.7115090  75.7250281  88.8593524  18.7012138  77.9794592  84.8689409
  18.1377003  77.8884529  84.1005697  18.5864533  77.1594497  85.3491901
  23.3245105  77.2793968  94.8378723  23.3133746  76.8846766  93.9659227
  23.4865745  76.5460040  95.4312495  16.2476570  79.4745784  87.7073629
  17.0397862  79.1336609  87.2919929  16.4873220  79.5840759  88.6275783
  24.2811697  81.6465560  80.1803874  23.6299676  82.2319641  79.7937888
  25.0756060  82.1771755  80.2398911  18.2067324  78.7354697  80.5791008
  18.9798200  78.1883684  80.4403884  18.5592723  79.5998947  80.7905470
  20.0452366  80.0631080  93.7857907  19.7542232  80.9676710  93.6704574
  20.6809351  80.1047607  94.5001977  20.9708573  77.4407928  90.3759267
  21.5672146  77.2163950  89.6616230  21.0283545  76.6992674  90.9784715
  20.5433602  74.8947363  78.2109458  20.7959122  74.3728885  77.4492921
  19.6058161  74.7313509  78.3136142  25.5876884  73.8983142  86.0184201
  26.3739974  73.4802565  85.6674618  25.8515589  74.8029234  86.1865850
  25.7586962  79.3355992  80.7172858  25.1232795  79.4090619  81.4293763
  25.4284368  79.9249591  80.0391937  20.2629890  76.7975469  80.4133833
  20.1466149  76.1220373  81.0814917  20.3732150  76.3107843  79.5965986
  22.6061431  76.2585616  84.1180522  22.2419639  75.7316237  84.8293444
  23.4628547  75.8684086  83.9447008  22.2466918  71.2875516  79.1141871
  22.4141321  72.1555753  79.4812342  22.0564087  71.4502798  78.1903160
  25.0042251  79.7492495  90.7807701  24.7042975  80.6517534  90.6723508
  24.6593311  79.4824678  91.6328854  18.4554733  76.2006292  86.8144406
  17.5305229  76.0682506  87.0222097  18.7039146  76.9800511  87.3114348
  22.2256139  73.7433174  80.0988538  22.1055764  74.1890224  80.9374018
  21.5308728  74.0918491  79.5402076  15.8163544  75.8439565  87.6488195
  15.9455925  76.0974044  88.5627606  15.1360995  76.4367273  87.3292850
  19.9863031  86.5136815  83.7478669  19.9087061  87.4644640  83.8267149
  19.3824675  86.1682688  84.4053595  22.4780261  73.6864681  96.4040036
  21.7013595  74.2458601  96.3942900  23.1170824  74.1721464  96.9254906
  27.9241205  74.2154647  80.9268872  28.8359061  74.4482034  80.7516569
  27.4150852  74.7991691  80.3643950  20.7326633  76.4950134  95.9658003
  21.4741318  77.0335178  95.6892826  20.0263619  77.1216423  96.1229555
  26.2081973  78.6379275  94.5630164  26.6165329  78.1961685  93.8184797
  25.4859235  78.0631902  94.8164357  22.5613043  73.5751881  91.9363721
  23.4074238  73.9991295  92.0798370  22.5011681  72.9185506  92.6302284
  26.5310788  79.1980465  88.3182453  25.9019650  79.3626179  87.6158521
  26.1436450  79.6122075  89.0893417  30.4100020  80.1334903  85.6726817
  29.7251058  80.5133804  85.1223850  30.4943869  80.7430230  86.4058765
  27.6650951  77.7794862  92.2722160  27.8767846  78.4226622  91.5956541
  27.6180699  76.9457179  91.8044090  25.2677180  70.3912683  89.1758733
  24.4061659  70.6893936  89.4675470  25.2939615  70.6083082  88.2439765
  22.0838750  78.9354873  85.5832538  22.5477095  79.2142576  84.7937161
  21.8195548  78.0338318  85.4005629  18.9762831  78.4826355  88.5212301
  19.5464188  78.9113623  87.8829786  19.5670942  78.2008940  89.2196487
  21.0207636  75.0578026  82.3922103  21.7231679  75.5099069  82.8596030
  20.6888264  74.4161845  83.0201996  19.4687997  73.6489782  96.7673313
  18.8386658  74.3306063  97.0008710  19.3624085  73.5372864  95.8226451
  14.7632970  73.3161578  87.6939237  13.9732024  73.5719107  87.2179348
  15.2544217  74.1309916  87.7991277  28.7796779  80.6566818  90.4444518
  29.6014223  80.2547005  90.1627199  28.7759182  80.5535052  91.3960634
  16.7147715  73.6806158  84.6522714  15.9178878  73.7924852  85.1706209
  16.4873307  74.0192810  83.7863604  22.5453383  80.2050861  92.6005228
  22.6097815  80.6671268  93.4363400  21.8364306  79.5748226  92.7287538
  13.0470673  73.5692069  90.1254228  13.2978711  74.4539079  90.3911804
  13.5830221  73.3896670  89.3529320  22.2601400  81.8718968  82.4684209
  22.1247075  82.7170504  82.8969056  22.8011213  82.0738246  81.7050142
  18.7468740  67.9510548  99.1298564  18.3535685  67.3976747  99.8046208
  19.5634880  68.2621127  99.5205081  15.7130798  79.3894406  83.0412134
  16.2255318  80.1837657  83.1917698  16.3653510  78.6920697  82.9745735
  17.5225682  82.5060163  85.1234887  17.6992311  83.4278127  84.9355871
  18.3182516  82.1918582  85.5529267  21.6636701  69.3668427  96.7218820
  22.4046414  69.9675580  96.6423283  21.8954624  68.6246065  96.1636863
  16.8078039  74.5524795  94.9997050  16.6931554  73.6510052  95.3004149
  15.9522557  74.7988491  94.6481867  23.8869877  82.4942535  96.5984551
  23.4433731  81.7078913  96.2805455  24.5487090  82.6821685  95.9328441
  18.6456998  84.0238336  91.1245229  19.1964423  83.8955400  90.3522223
  17.8068474  84.3233225  90.7740122  25.9851115  82.7745335  94.6265952
  25.9669590  83.5954216  94.1346221  26.9071035  82.6499410  94.8516093
  22.4424169  80.2889464  95.4689460  22.9752506  79.5277752  95.2388768
  21.9138250  79.9963116  96.2113615  25.6093864  65.3949530  90.9983102
  25.2658133  66.2851172  90.9222213  25.9772826  65.2051188  90.1352687
  13.6779714  77.7183061  83.8171704  14.5154936  78.1280069  83.6005412
  13.8557982  76.7782503  83.7871898  25.5744147  75.3858141  79.5055537
  25.0590770  76.1562746  79.7443925  25.3021455  74.7123278  80.1288599
  23.1591258  70.2307842  84.5640776  22.3032854  69.8414693  84.3846414
  23.5718209  70.3099803  83.7040561  24.6890404  67.7654185  88.9632335
  24.1855200  67.7284321  88.1500141  24.9821011  68.6746928  89.0228992
  20.9333290  67.8492915  87.9698517  21.7986287  67.6535724  87.6104406
  21.0010799  67.6203267  88.8967874  30.5478421  78.1390496  81.4408711
  29.7707863  77.8001655  80.9963873  31.2269902  78.1443119  80.7663676
  25.3630450  73.2585233  81.3315318  25.0580585  73.5731383  82.1825461
  26.3160892  73.3366653  81.3742651  23.8076882  79.4175457  82.9808272
  23.2798243  78.6828216  82.6681510  23.3064384  80.1950133  82.7348241
  28.7869728  77.6124477  88.0975319  28.1293402  78.3023739  88.1855447
  29.5910127  78.0020909  88.4409305  18.5395609  70.0795123  85.3414884
  19.1139361  69.8570305  84.6088077  19.1266592  70.1483818  86.0943485
  27.5975186  75.9668850  86.1479260  28.1107068  76.5998842  86.6500970
  28.2476410  75.3670045  85.7822620  18.8665196  72.1099584  79.3610769
  18.0302509  72.4474271  79.6820044  18.7269966  71.9748564  78.4237906
  20.8418277  66.9536372  84.0689953  20.1882689  66.6385389  83.4446568
  20.7998751  66.3312112  84.7949776  21.9529482  77.2355667  75.9843245
  21.0456543  77.0044920  76.1834394  22.4500514  76.4393286  76.1717227
  24.8597561  85.9453174  78.9039931  24.1859259  86.2484871  79.5124889
  25.2463383  86.7482255  78.5545389  24.0756017  73.4418305  88.3937601
  23.1578579  73.6633252  88.2359289  24.4916161  73.5164616  87.5349308
  24.8591065  74.8409721  83.5240281  25.6062884  75.3531118  83.2147403
  25.1282655  74.5193774  84.3844675  23.1317715  77.3368262  80.5067235
  22.2228934  77.0527295  80.6039705  23.1612799  77.7567340  79.6470542
  28.3636983  80.9474851  84.2758403  27.9099310  80.1065761  84.3323593
  27.7330949  81.5836250  84.6133183  27.3069902  71.8766837  85.5059070
  26.5692659  71.3644224  85.8369313  27.5596676  71.4367219  84.6942347
  26.8069922  82.7851348  85.2108221  27.0992896  83.3456405  84.4920587
  27.3168542  83.0779909  85.9661380  27.4081529  64.6543089  86.1000840
  27.7140406  63.7940453  85.8126755  28.1334134  65.2460710  85.8999834
  13.7005886  75.0573776  84.4882438  13.5030285  74.4643137  83.7633504
  13.1452550  74.7525986  85.2058376  21.6802609  74.9496882  86.6077031
  21.7351219  73.9970719  86.5319507  20.8693811  75.1056322  87.0918329
  22.8293803  78.8777006  77.8455314  22.3913233  78.1612864  77.3860951
  23.5704244  79.1053120  77.2840405  19.6194969  73.5673942  84.3667410
  18.8062835  73.8668113  84.7732602  20.1153963  73.1729631  85.0841892
  21.7703547  83.5631699  86.3001674  21.7279726  83.7892545  85.3710206
  22.6866246  83.3295074  86.4487475  25.2169181  74.0315767  93.1982304
  25.5718569  74.2587240  94.0576769  25.8641312  74.3634143  92.5759559
  30.9466918  77.1534203  83.9031633  30.8084816  77.3435799  82.9752822
  30.5903137  77.9153585  84.3599684  19.1109044  71.1392298  89.9828645
  19.7508423  70.9981057  89.2851608  18.2786574  70.8526811  89.6067247
  19.8869348  80.4394728  86.0963637  20.6809946  79.9445048  85.8946212
  19.1761040  79.9112591  85.7331343  24.7064192  82.8212824  90.4476005
  24.7601215  83.3903760  91.2153721  23.8378974  82.9914709  90.0830042
  16.1952111  74.5837810  82.1723390  15.2649699  74.5222265  82.3893352
  16.2909583  74.0613763  81.3760031  16.1137660  71.1092623  84.7601631
  16.3744478  72.0237956  84.6510792  16.9354833  70.6417065  84.9098244
  17.5862586  72.5230380  91.9300456  18.2585639  72.3147742  91.2813105
  16.7592372  72.3252466  91.4905688  23.4888158  69.1492321  93.9466117
  22.8416073  69.8482270  93.8530593  24.2589173  69.5828465  94.3142365
  26.8966956  79.4141173  97.0216670  26.7452462  79.1851725  96.1046754
  26.8871635  80.3711774  97.0348015  23.6652292  76.9873086  92.0062937
  24.5944352  77.1384245  91.8331904  23.2443322  77.0757107  91.1511583
  22.4640624  81.0123750  89.7761474  22.3251709  80.6442535  90.6487412
  21.6755220  81.5271390  89.6045432  23.0588776  86.1132847  81.1187011
  23.2340531  85.6420890  81.9332633  22.3721564  86.7398613  81.3468271
  24.0145839  80.3905353  87.1650312  23.6795672  80.3506123  88.0607962
  23.5149785  79.7250069  86.6920722  17.9890083  75.7972983  92.6902893
  17.8509881  75.0653222  93.2914432  18.8995006  75.7081883  92.4087081
  26.9505031  77.7361387  77.4387372  26.3334201  77.0108215  77.3420424
  26.4821519  78.4970747  77.0954446  20.6172384  75.5092942  92.1786573
  21.3272002  74.8686134  92.1373191  20.5741692  75.7605837  93.1012754
  28.6059162  82.4460296  95.0993152  28.5471708  81.7619516  94.4323735
  29.0078681  83.1879286  94.6473778  19.3301318  72.4958160  93.9982212
  18.7938675  72.0448899  94.6503809  18.7418026  72.6304069  93.2552677
  17.6249861  89.2622209  87.8926871  17.8646459  89.8940734  88.5705889
  16.7819057  88.9110249  88.1792230  18.7403576  71.9546812  76.5608676
  17.8633043  71.8335612  76.1970923  19.2161330  71.1632890  76.3087565
  28.6076569  80.4099879  93.3307132  27.7203348  80.0725801  93.4533530
  29.1775121  79.6782911  93.5675897  10.2605717  76.7423971  86.6550183
  10.9476756  76.4285701  86.0671198  10.1053845  77.6465336  86.3817434
  15.0640439  71.6314168  91.0835207  14.9798627  71.0239837  90.3485617
  14.2423145  72.1223186  91.0844703  22.1377723  85.0701332  90.2968375
  22.0647894  85.8756303  90.8087679  21.6955116  85.2693298  89.4716396
  21.9267503  84.3073102  83.8071196  21.1435024  84.8494782  83.9009421
  22.6260248  84.8247082  84.2065438  25.2364153  70.1167731  86.4505402
  25.7332852  69.3637694  86.1306472  24.4651134  70.1532048  85.8848611
  24.5976406  84.9688166  92.4526533  25.3104379  85.6035631  92.3802435
  24.1066435  85.0652032  91.6366535  26.3193933  78.8739419  84.0243825
  25.3850212  78.9940881  83.8548529  26.4970602  77.9711885  83.7603835
  21.8199121  72.2585114  86.1777086  21.4496909  71.7056155  86.8657992
  22.3158214  71.6543248  85.6252086  29.7066485  74.7156738  84.5593859
  30.1726937  75.5484729  84.4854162  30.1573985  74.2501719  85.2639118
  19.6488320  82.7182609  93.2732104  20.3497779  83.3519092  93.4261499
  19.1783435  83.0597341  92.5127744  27.7742716  81.0600559  81.5580011
  28.0502560  80.9457154  82.4673885  26.9047215  80.6618044  81.5192184
  27.6783147  67.0837325  88.5984761  26.7646227  67.3141552  88.7666968
  28.1076249  67.1675769  89.4498793  24.4096780  85.3086910  85.2012825
  24.5919174  84.4908566  85.6640577  25.2329766  85.5254602  84.7637715
  24.7438945  84.2355095  82.4627873  25.2726712  83.7247550  81.8498036
  25.0067165  83.9197625  83.3273406  23.4977179  76.0147028  97.5850692
  22.8217816  75.9141157  98.2553067  24.3204813  75.8586242  98.0486689
  15.2456038  82.2518964  90.2063207  15.8309475  81.5062652  90.3391111
  15.0480876  82.5622921  91.0899871  18.0994693  85.2870212  85.2225649
  17.4305068  85.7716339  84.7389689  17.9607563  85.5339432  86.1369028
   9.8373693  74.8224565  88.9267650   9.8757792  74.2888155  89.7204768
   9.3313986  74.2959770  88.3078627  22.2399962  87.3213955  91.8208308
  22.7918270  87.4845577  92.5857393  22.5806155  87.9118393  91.1488333
  17.2164455  69.6689105  92.4230192  17.2805782  70.5303936  92.0107590
  17.1531575  69.0563107  91.6902551  16.6916728  71.7412238  96.0703227
  17.3188766  71.3589315  96.6840751  15.8344646  71.5226440  96.4358919
  27.0910836  82.1475213  97.6756962  27.6350740  82.7605171  97.1811917
  26.5097681  82.7054791  98.1923975  13.4682270  73.5488667  82.0021582
  13.7635711  72.6399345  81.9488635  12.5670306  73.5276406  81.6802584
  25.3768349  85.2695931  88.8071990  25.2519489  84.4685671  88.2982935
  26.0347440  85.7642124  88.3185960  16.9976517  71.6244663  87.9849130
  16.2763103  72.2380631  87.8456603  17.7869773  72.1602428  87.9065776
  27.4403257  83.0704951  90.4351540  26.4933593  82.9510302  90.3629867
  27.7886031  82.1827449  90.5177801  19.8002831  68.9599090  94.2589782
  20.3237233  69.2061386  95.0216091  19.5815164  69.7919125  93.8392919
  15.1970112  71.2302764  82.1260907  14.8682818  70.3500143  81.9436013
  15.5509483  71.1750433  83.0137296  24.4449691  82.8657667  86.6355892
  24.2974653  81.9374375  86.8163462  25.2703184  82.8877758  86.1512967
  18.3111935  71.5175734  82.4936384  18.6508008  72.0461655  81.7714993
  18.7584056  71.8556140  83.2694951  28.0483813  83.6886226  87.7220765
  28.9730360  83.4829087  87.5845216  27.8799116  83.4402627  88.6310106
  21.0055376  69.9012785  91.9439452  20.6652196  69.1020598  92.3460132
  20.2994382  70.2014496  91.3716286  21.6571848  66.9862097  90.3966775
  22.4797917  66.5122576  90.2745666  21.9009911  67.7652581  90.8965462
  20.2980082  70.0150356  80.6929677  21.0188445  70.3931609  80.1893394
  19.6745386  70.7339233  80.7964655  24.4411205  70.7195505  81.6288009
  24.6574819  71.6020143  81.3276838  23.9605272  70.3281718  80.8993651
  19.1810426  73.6781218  88.2058754  19.0355007  73.9921521  89.0983036
  18.7035630  74.2966118  87.6529653  21.0406809  70.6683766  88.2539644
  21.0268378  69.7724859  87.9171942  21.7579237  70.6754430  88.8877930
  22.8932940  71.1021106  90.2992771  22.6350718  72.0238177  90.2977101
  22.3617980  70.7051541  90.9893235  27.8379129  84.2071893  83.0782856
  28.0116006  83.6418316  82.3256709  28.3308020  85.0072788  82.8962346
  13.6556089  76.2186562  91.1446415  13.1109557  76.9946370  91.2766690
  14.5335438  76.5657367  90.9865537  20.4443705  69.5498146  83.5227214
  20.5659616  68.6214792  83.7218101  20.1545748  69.5636832  82.6105529
  23.3134896  67.2353057  86.6593934  23.3356592  67.2992390  85.7045913
  23.7302955  66.3957565  86.8534440  33.6918520  76.9708316  84.6973156
  34.1349666  76.2215641  84.2992279  32.8145030  76.9618453  84.3146888
  28.8254301  83.5238658  80.1779755  29.5205206  84.1445350  80.3967069
  29.1677451  82.6734009  80.4532133  14.4422110  75.3456459  94.0376572
  13.7003847  75.4939094  94.6241203  14.1214855  75.6064724  93.1743321
  30.7245724  80.9738363  81.7067085  31.2497049  81.3125636  80.9816405
  30.6368077  80.0385379  81.5230220  22.3865773  84.8872437  93.8356962
  22.6952900  84.6421584  94.7079662  23.1841255  85.0919075  93.3475832
  22.4086385  87.0410347  86.0662339  21.9691375  86.5486725  86.7595195
  23.1594502  86.4983314  85.8254414  14.8878724  83.2321887  86.0686967
  15.7136744  82.9325659  85.6885610  14.5372776  82.4629510  86.5176755
  19.8560257  82.5848356  88.1384640  19.2340267  81.9219061  87.8386868
  20.5265124  82.6109487  87.4558288  13.0887329  81.1508214  87.0275900
  12.2519238  80.7230388  86.8459902  13.0610975  81.3440657  87.9646691
  19.9284785  71.0630144  97.7317146  19.9772940  71.9392266  97.3494916
  20.4707299  70.5207537  97.1588790  19.4173764  81.1352279  81.6143101
  19.5661885  81.8187743  80.9609774  20.2240208  81.1157369  82.1292557
  22.1584073  71.8161516  94.4863505  21.2887383  72.1095082  94.2146094
  22.3943554  72.4001961  95.2070769  33.2351385  78.4413555  87.0895604
  34.0698276  78.8803359  87.2533164  33.3710513  77.9652208  86.2703849
  17.1726397  77.1617457  82.6204170  16.9272439  76.2579787  82.8184380
  17.3422312  77.1634607  81.6783648  24.8623107  68.0341133  92.0028925
  25.3805051  68.7702160  91.6775414  24.5078240  68.3405126  92.8375684
  16.4422045  72.8945814  80.1190331  15.7491290  72.9690169  79.4630367
  16.1973797  72.1306158  80.6411848  25.1135701  64.4541415  87.5229822
  25.3937455  63.7864605  88.1490249  25.8986308  64.6470511  87.0104486
  22.9169170  83.6300409  79.0854848  22.3443137  84.2490597  78.6325320
  23.4901963  84.1799771  79.6194770  26.1366430  83.9137560  80.2163431
  27.0697103  83.8483121  80.4196306  26.0489642  84.7493826  79.7577963
  28.7654446  83.2303430  77.1767378  28.6868078  82.8963293  78.0703136
  29.5864113  83.7225198  77.1758850  23.3015968  74.9661222  76.4270901
  24.2475073  74.8367430  76.4959319  22.9230213  74.2275884  76.9040329
  29.2737853  66.6317228  86.3897793  29.0762674  66.3232316  87.2741125
  29.8837558  67.3578867  86.5195722  23.1854661  79.0178968  97.8871558
  24.1057670  79.1957567  98.0811604  23.1504244  78.0735014  97.7351257
  21.4858885  72.8911199  76.3625786  20.5790341  72.5944311  76.4388500
  21.7634866  72.5941017  75.4960072  12.4036826  74.2117562  86.8124832
  12.0839610  73.3582870  86.5199206  11.8570254  74.4266140  87.5682800
  16.1816733  76.9280003  90.5294339  16.4002743  77.8597111  90.5482373
  16.5942507  76.5687977  91.3149143  23.1020951  67.4348088  82.5170027
  22.2921679  67.0895173  82.8925273  23.7905368  67.1255632  83.1057639
  25.0311499  66.5126135  84.1394324  25.5842538  66.9321588  84.7984347
  25.2681586  65.5861883  84.1817280  21.0544599  72.5013209  99.9197088
  20.9541326  73.4507566  99.8509179  20.8366141  72.1731448  99.0473158
  20.2557670  69.7498134  76.5037765  21.1176834  70.0753032  76.7633583
  20.4408014  68.9629630  75.9910831  12.2725086  77.8320473  88.7817954
  11.5788557  77.4174426  88.2687908  13.0198077  77.8741010  88.1851373
  28.4090307  68.6226660  83.6472988  27.8288976  69.2811464  83.2651041
  28.1426239  67.8004005  83.2360406  26.8593873  68.0231718  85.8494309
  27.3593651  68.1348252  85.0408627  27.5029481  67.7192771  86.4895117
  20.9175869  75.9310348  98.7362149  20.4342950  76.7310708  98.9426039
  21.0036808  75.9418292  97.7829593  14.1861828  77.7638727  86.6583969
  14.1632516  77.8626414  85.7065852  14.4962465  78.6103878  86.9801135
  16.8449206  79.8214882  90.7730583  17.7992460  79.7898825  90.7060515
  16.6461730  79.3605506  91.5880809  17.4348588  78.3915998  93.3401381
  18.2541477  78.8860077  93.3636218  17.7085396  77.4747966  93.3118948
  27.1915185  70.7826751  82.7029336  26.3041040  71.0676401  82.4849531
  27.6069174  70.6220514  81.8556613  15.1999435  85.3634502  87.7900781
  15.0653903  84.6034903  87.2238779  14.7831497  86.0875402  87.3229570
  26.3358398  80.5471425  76.7977356  27.0394248  80.7521428  77.4135012
  25.6121047  81.1148187  77.0626440  27.1656208  76.2981287  82.9179627
  27.1091410  76.7549838  82.0787259  27.7184551  75.5371971  82.7402469
  30.9761014  72.0871018  83.7429746  30.7197948  71.6867654  84.5737954
  30.3513882  72.8014812  83.6179885  18.3568561  86.2603819  88.0019224
  18.2400945  87.2049251  87.8997914  17.5361007  85.9577380  88.3905023
  28.2445095  80.9853954  78.8475816  29.0790699  80.5535153  78.6653291
  28.0829438  80.8135968  79.7752711  27.8990988  77.4886068  80.2132156
  27.8439791  77.3230339  79.2720600  27.2737043  78.1962101  80.3694346
  12.6883503  72.7254132  94.0393578  13.3342366  72.2153086  94.5280803
  12.4800654  73.4622814  94.6137003  25.2136895  79.7934980  99.5385719
  26.0828054  79.9675632  99.1772353  24.7343646  80.6129396  99.4161448
  21.2087113  66.9894177  79.7917474  21.1965783  67.9336017  79.9485745
  22.1010535  66.8064322  79.4976935  19.3823075  86.9132081  91.2175152
  20.2850322  86.9455691  91.5341647  19.1560445  85.9832532  91.2321488
  21.1376677  85.6663067  87.8785231  20.1872308  85.6664929  87.7649603
  21.4409163  84.9195802  87.3621265  25.0239233  63.5836953  84.0463411
  24.2571628  63.0295440  84.1920093  25.4349937  63.6558822  84.9077563
  17.0280994  69.8721749  98.1368592  17.8912455  69.5158554  98.3471917
  16.4546404  69.5335644  98.8243997  36.8729370  91.5023606  88.9430993
  37.5107780  91.3830353  88.2394333  36.7550213  92.4504450  89.0018945
  33.6819077  91.4551034  88.8792518  33.3437588  91.3392098  87.9913053
  34.5508845  91.0542199  88.8593524  29.5405892  93.3086510  84.8689409
  28.9770758  93.2176447  84.1005697  29.4258288  92.4886415  85.3491901
  34.1638860  92.6085885  94.8378723  34.1527501  92.2138684  93.9659227
  34.3259499  91.8751958  95.4312495  27.0870324  94.8037702  87.7073629
  27.8791616  94.4628526  87.2919929  27.3266975  94.9132677  88.6275783
  35.1205451  96.9757478  80.1803874  34.4693431  97.5611558  79.7937888
  35.9149814  97.5063673  80.2398911  29.0461078  94.0646615  80.5791008
  29.8191954  93.5175602  80.4403884  29.3986477  94.9290864  80.7905470
  30.8846121  95.3922997  93.7857907  30.5935987  96.2968628  93.6704574
  31.5203105  95.4339525  94.5001977  31.8102328  92.7699846  90.3759267
  32.4065900  92.5455868  89.6616230  31.8677299  92.0284591  90.9784715
  31.3827356  90.2239281  78.2109458  31.6352877  89.7020802  77.4492921
  30.4451915  90.0605427  78.3136142  36.4270639  89.2275059  86.0184201
  37.2133728  88.8094483  85.6674618  36.6909343  90.1321152  86.1865850
  36.5980716  94.6647910  80.7172858  35.9626549  94.7382536  81.4293763
  36.2678123  95.2541509  80.0391937  41.8279066  89.1650293  86.9217180
  42.5604238  88.5949509  87.1555009  41.0718422  88.7771893  87.3623685
  31.1023645  92.1267387  80.4133833  30.9859903  91.4512290  81.0814917
  31.2125905  91.6399761  79.5965986  33.4455186  91.5877534  84.1180522
  33.0813393  91.0608155  84.8293444  34.3022302  91.1976003  83.9447008
  39.3504486  82.8771867  91.3811788  39.0187811  83.7467278  91.1573003
  38.7550100  82.5608151  92.0605819  33.0860673  86.6167434  79.1141871
  33.2535075  87.4847670  79.4812342  32.8957842  86.7794716  78.1903160
  35.8436006  95.0784413  90.7807701  35.5436729  95.9809452  90.6723508
  35.4987066  94.8116596  91.6328854  29.2948487  91.5298210  86.8144406
  28.3698984  91.3974424  87.0222097  29.5432901  92.3092429  87.3114348
  39.2433150  87.5966953  88.4605138  38.3350027  87.5282361  88.1663899
  39.1920746  88.0738898  89.2886964  33.0649894  89.0725091  80.0988538
  32.9449519  89.5182142  80.9374018  32.3702482  89.4210409  79.5402076
  26.6557299  91.1731483  87.6488195  26.7849680  91.4265962  88.5627606
  25.9754750  91.7659191  87.3292850  30.8256786 101.8428733  83.7478669
  30.7480815 102.7936558  83.8267149  30.2218429 101.4974606  84.4053595
  33.3174016  89.0156599  96.4040036  32.5407350  89.5750519  96.3942900
  33.9564579  89.5013381  96.9254906  41.1094796  85.7983391  90.2383012
  40.4669176  86.0915924  89.5922807  40.6049725  85.6836312  91.0436209
  38.7634960  89.5446565  80.9268872  39.6752816  89.7773951  80.7516569
  38.2544607  90.1283609  80.3643950  31.5720388  91.8242052  95.9658003
  32.3135072  92.3627096  95.6892826  30.8657373  92.4508341  96.1229555
  37.0475728  93.9671192  94.5630164  37.4559084  93.5253603  93.8184797
  36.3252989  93.3923820  94.8164357  33.4006798  88.9043799  91.9363721
  34.2467993  89.3283213  92.0798370  33.3405435  88.2477423  92.6302284
  37.3704542  94.5272383  88.3182453  36.7413405  94.6918097  87.6158521
  36.9830204  94.9413993  89.0893417  41.2493774  95.4626821  85.6726817
  40.5644812  95.8425722  85.1223850  41.3337623  96.0722147  86.4058765
  36.5506243  86.5648167  93.5944895  36.3067175  87.3190228  93.0579170
  36.8266173  86.9433515  94.4292142  38.5044706  93.1086780  92.2722160
  38.7161601  93.7518540  91.5956541  38.4574454  92.2749096  91.8044090
  36.1070935  85.7204600  89.1758733  35.2455414  86.0185854  89.4675470
  36.1333369  85.9374999  88.2439765  32.9232504  94.2646791  85.5832538
  33.3870850  94.5434494  84.7937161  32.6589302  93.3630236  85.4005629
  29.8156585  93.8118273  88.5212301  30.3857942  94.2405541  87.8829786
  30.4064697  93.5300857  89.2196487  31.8601390  90.3869943  82.3922103
  32.5625433  90.8390987  82.8596030  31.5282019  89.7453762  83.0201996
  30.3081752  88.9781700  96.7673313  29.6780412  89.6597981  97.0008710
  30.2017840  88.8664782  95.8226451  25.6026724  88.6453496  87.6939237
  24.8125778  88.9011025  87.2179348  26.0937971  89.4601834  87.7991277
  39.6190534  95.9858735  90.4444518  40.4407977  95.5838923  90.1627199
  39.6152936  95.8826969  91.3960634  27.5541469  89.0098075  84.6522714
  26.7572633  89.1216770  85.1706209  27.3267062  89.3484728  83.7863604
  33.3847137  95.5342779  92.6005228  33.4491570  95.9963186  93.4363400
  32.6758061  94.9040143  92.7287538  23.8864427  88.8983987  90.1254228
  24.1372465  89.7830996  90.3911804  24.4223975  88.7188588  89.3529320
  47.7096527  92.3297484  86.7929489  46.9560235  91.7604882  86.6373494
  47.8444068  92.2960148  87.7400124  33.0995155  97.2010886  82.4684209
  32.9640829  98.0462422  82.8969056  33.6404967  97.4030164  81.7050142
  26.5524552  94.7186324  83.0412134  27.0649073  95.5129574  83.1917698
  27.2047265  94.0212615  82.9745735  28.3619437  97.8352080  85.1234887
  28.5386065  98.7570045  84.9355871  29.1576270  97.5210500  85.5529267
  27.6471793  89.8816712  94.9997050  27.5325308  88.9801969  95.3004149
  26.7916311  90.1280409  94.6481867  34.7263631  97.8234453  96.5984551
  34.2827485  97.0370831  96.2805455  35.3880845  98.0113603  95.9328441
  29.4850752  99.3530254  91.1245229  30.0358177  99.2247317  90.3522223
  28.6462228  99.6525143  90.7740122  36.8244869  98.1037252  94.6265952
  36.8063345  98.9246134  94.1346221  37.7464789  97.9791328  94.8516093
  33.2817923  95.6181382  95.4689460  33.8146260  94.8569670  95.2388768
  32.7532004  95.3255034  96.2113615  24.5173469  93.0474978  83.8171704
  25.3548691  93.4571987  83.6005412  24.6951737  92.1074421  83.7871898
  36.4137901  90.7150059  79.5055537  35.8984524  91.4854664  79.7443925
  36.1415209  90.0415195  80.1288599  33.9985012  85.5599760  84.5640776
  33.1426608  85.1706610  84.3846414  34.4111964  85.6391721  83.7040561
  31.7727045  83.1784833  87.9698517  32.6380041  82.9827641  87.6104406
  31.8404553  82.9495185  88.8967874  41.3872175  93.4682414  81.4408711
  40.6101618  93.1293573  80.9963873  42.0663656  93.4735037  80.7663676
  36.2024204  88.5877151  81.3315318  35.8974340  88.9023300  82.1825461
  37.1554646  88.6658571  81.3742651  34.6470636  94.7467374  82.9808272
  34.1191998  94.0120134  82.6681510  34.1458139  95.5242051  82.7348241
  39.6263482  92.9416395  88.0975319  38.9687156  93.6315656  88.1855447
  40.4303881  93.3312827  88.4409305  29.3789364  85.4087041  85.3414884
  29.9533116  85.1862222  84.6088077  29.9660346  85.4775735  86.0943485
  38.4368941  91.2960768  86.1479260  38.9500823  91.9290759  86.6500970
  39.0870165  90.6961963  85.7822620  29.7058951  87.4391502  79.3610769
  28.8696263  87.7766188  79.6820044  29.5663720  87.3040482  78.4237906
  31.6812031  82.2828290  84.0689953  31.0276444  81.9677307  83.4446568
  31.6392505  81.6604030  84.7949776  32.7923236  92.5647585  75.9843245
  31.8850298  92.3336838  76.1834394  33.2894268  91.7685204  76.1717227
  35.6991315 101.2745092  78.9039931  35.0253014 101.5776789  79.5124889
  36.0857137 102.0774172  78.5545389  34.9149772  88.7710223  88.3937601
  33.9972333  88.9925170  88.2359289  35.3309915  88.8456534  87.5349308
  35.6984819  90.1701639  83.5240281  36.4456638  90.6823036  83.2147403
  35.9676409  89.8485692  84.3844675  33.9711470  92.6660180  80.5067235
  33.0622689  92.3819212  80.6039705  34.0006553  93.0859258  79.6470542
  39.2030737  96.2766769  84.2758403  38.7493064  95.4357679  84.3323593
  38.5724704  96.9128167  84.6133183  38.1463657  87.2058755  85.5059070
  37.4086413  86.6936141  85.8369313  38.3990430  86.7659137  84.6942347
  37.6463676  98.1143266  85.2108221  37.9386651  98.6748323  84.4920587
  38.1562297  98.4071827  85.9661380  38.2475284  79.9835007  86.1000840
  38.5534161  79.1232371  85.8126755  38.9727889  80.5752627  85.8999834
  24.5399640  90.3865694  84.4882438  24.3424040  89.7935054  83.7633504
  23.9846304  90.0817904  85.2058376  32.5196364  90.2788800  86.6077031
  32.5744973  89.3262637  86.5319507  31.7087566  90.4348239  87.0918329
  33.6687557  94.2068923  77.8455314  33.2306987  93.4904782  77.3860951
  34.4097998  94.4345038  77.2840405  30.4588724  88.8965860  84.3667410
  29.6456589  89.1960030  84.7732602  30.9547718  88.5021549  85.0841892
  32.6097301  98.8923617  86.3001674  32.5673480  99.1184463  85.3710206
  33.5260000  98.6586991  86.4487475  36.0562935  89.3607684  93.1982304
  36.4112323  89.5879158  94.0576769  36.7035067  89.6926061  92.5759559
  41.7860672  92.4826120  83.9031633  41.6478571  92.6727716  82.9752822
  41.4296891  93.2445503  84.3599684  29.9502798  86.4684215  89.9828645
  30.5902178  86.3272975  89.2851608  29.1180329  86.1818729  89.6067247
  41.8130052  94.5502647  88.9142904  42.2466558  94.4577936  89.7625958
  42.5261633  94.5260148  88.2762920  30.7263102  95.7686646  86.0963637
  31.5203701  95.2736966  85.8946212  30.0154795  95.2404509  85.7331343
  35.5457947  98.1504741  90.4476005  35.5994969  98.7195678  91.2153721
  34.6772728  98.3206626  90.0830042  27.0345866  89.9129728  82.1723390
  26.1043454  89.8514183  82.3893352  27.1303338  89.3905680  81.3760031
  26.9531415  86.4384540  84.7601631  27.2138232  87.3529874  84.6510792
  27.7748587  85.9708983  84.9098244  28.4256340  87.8522298  91.9300456
  29.0979394  87.6439660  91.2813105  27.5986127  87.6544384  91.4905688
  42.6745601  94.5926348  91.4475789  42.8681491  95.4972158  91.6935064
  42.5746220  94.1333767  92.2814374  34.3281912  84.4784239  93.9466117
  33.6809827  85.1774188  93.8530593  35.0982928  84.9120382  94.3142365
  37.7360710  94.7433091  97.0216670  37.5846216  94.5143642  96.1046754
  37.7265390  95.7003692  97.0348015  34.5046046  92.3165003  92.0062937
  35.4338106  92.4676163  91.8331904  34.0837076  92.4049024  91.1511583
  33.3034378  96.3415668  89.7761474  33.1645464  95.9734452  90.6487412
  32.5148974  96.8563307  89.6045432  33.8982530 101.4424764  81.1187011
  34.0734286 100.9712808  81.9332633  33.2115318 102.0690531  81.3468271
  34.8539593  95.7197271  87.1650312  34.5189426  95.6798041  88.0607962
  34.3543539  95.0541986  86.6920722  28.8283837  91.1264901  92.6902893
  28.6903635  90.3945139  93.2914432  29.7388761  91.0373801  92.4087081
  37.7898785  93.0653305  77.4387372  37.1727956  92.3400133  77.3420424
  37.3215274  93.8262665  77.0954446  31.4566138  90.8384860  92.1786573
  32.1665757  90.1978052  92.1373191  31.4135446  91.0897755  93.1012754
  39.4452917  97.7752213  95.0993152  39.3865463  97.0911433  94.4323735
  39.8472435  98.5171203  94.6473778  30.1695072  87.8250078  93.9982212
  29.6332429  87.3740816  94.6503809  29.5811780  87.9595987  93.2552677
  28.4643616 104.5914127  87.8926871  28.7040214 105.2232651  88.5705889
  27.6212812 104.2402167  88.1792230  29.5797331  87.2838729  76.5608676
  28.7026797  87.1627530  76.1970923  30.0555084  86.4924807  76.3087565
  39.4470324  95.7391797  93.3307132  38.5597103  95.4017719  93.4533530
  40.0168875  95.0074828  93.5675897  21.0999471  92.0715889  86.6550183
  21.7870511  91.7577619  86.0671198  20.9447600  92.9757254  86.3817434
  25.9034193  86.9606085  91.0835207  25.8192382  86.3531755  90.3485617
  25.0816900  87.4515104  91.0844703  32.9771477 100.3993250  90.2968375
  32.9041649 101.2048221  90.8087679  32.5348870 100.5985215  89.4716396
  32.7661257  99.6365020  83.8071196  31.9828779 100.1786700  83.9009421
  33.4654002 100.1538999  84.2065438  36.0757907  85.4459649  86.4505402
  36.5726607  84.6929611  86.1306472  35.3044889  85.4823966  85.8848611
  43.9287665  91.1500015  88.0923693  43.9177541  92.0324730  87.7217626
  43.0605044  90.7971565  87.8978230  35.4370161 100.2980084  92.4526533
  36.1498133 100.9327548  92.3802435  34.9460190 100.3943950  91.6366535
  37.1587688  94.2031336  84.0243825  36.2243967  94.3232799  83.8548529
  37.3364356  93.3003803  83.7603835  32.6592876  87.5877032  86.1777086
  32.2890663  87.0348072  86.8657992  33.1551968  86.9835165  85.6252086
  40.5460239  90.0448656  84.5593859  41.0120691  90.8776647  84.4854162
  40.9967740  89.5793637  85.2639118  30.4882074  98.0474527  93.2732104
  31.1891534  98.6811010  93.4261499  30.0177189  98.3889259  92.5127744
  38.6136470  96.3892477  81.5580011  38.8896314  96.2749071  82.4673885
  37.7440969  95.9909962  81.5192184  38.5176902  82.4129242  88.5984761
  37.6039982  82.6433469  88.7666968  38.9470003  82.4967687  89.4498793
  38.2883360  90.6019134  91.0984655  37.6354811  90.8495042  90.4437107
  38.6663740  89.7883273  90.7647132  35.2490534 100.6378828  85.2012825
  35.4312929  99.8200484  85.6640577  36.0723520 100.8546520  84.7637715
  35.5832700  99.5647013  82.4627873  36.1120466  99.0539467  81.8498036
  35.8460919  99.2489543  83.3273406  34.3370933  91.3438946  97.5850692
  33.6611570  91.2433075  98.2553067  35.1598567  91.1878159  98.0486689
  26.0849792  97.5810882  90.2063207  26.6703229  96.8354570  90.3391111
  25.8874631  97.8914839  91.0899871  28.9388448 100.6162129  85.2225649
  28.2698823 101.1008257  84.7389689  28.8001317 100.8631350  86.1369028
  20.6767447  90.1516482  88.9267650  20.7151547  89.6180073  89.7204768
  20.1707740  89.6251688  88.3078627  33.0793716 102.6505873  91.8208308
  33.6312024 102.8137494  92.5857393  33.4199910 103.2410311  91.1488333
  28.0558210  84.9981023  92.4230192  28.1199536  85.8595854  92.0107590
  27.9925330  84.3855024  91.6902551  27.5310482  87.0704155  96.0703227
  28.1582521  86.6881233  96.6840751  26.6738401  86.8518357  96.4358919
  37.9304591  97.4767130  97.6756962  38.4744495  98.0897089  97.1811917
  37.3491435  98.0346709  98.1923975  24.3076025  88.8780584  82.0021582
  24.6029466  87.9691263  81.9488635  23.4064061  88.8568324  81.6802584
  36.2162104 100.5987848  88.8071990  36.0913243  99.7977588  88.2982935
  36.8741195 101.0934042  88.3185960  27.8370272  86.9536581  87.9849130
  27.1156858  87.5672549  87.8456603  28.6263528  87.4894346  87.9065776
  38.2797012  98.3996869  90.4351540  37.3327347  98.2802220  90.3629867
  38.6279785  97.5119367  90.5177801  30.6396585  84.2891007  94.2589782
  31.1630987  84.5353304  95.0216091  30.4208919  85.1211042  93.8392919
  26.0363866  86.5594682  82.1260907  25.7076573  85.6792061  81.9436013
  26.3903237  86.5042351  83.0137296  35.2843445  98.1949585  86.6355892
  35.1368408  97.2666292  86.8163462  36.1096939  98.2169676  86.1512967
  29.1505690  86.8467652  82.4936384  29.4901762  87.3753573  81.7714993
  29.5977810  87.1848058  83.2694951  38.8877567  99.0178144  87.7220765
  39.8124115  98.8121005  87.5845216  38.7192870  98.7694545  88.6310106
  31.8449130  85.2304703  91.9439452  31.5045951  84.4312516  92.3460132
  31.1388137  85.5306413  91.3716286  31.1373837  85.3442273  80.6929677
  31.8582199  85.7223526  80.1893394  30.5139141  86.0631150  80.7964655
  35.2804960  86.0487422  81.6288009  35.4968574  86.9312060  81.3276838
  34.7999027  85.6573636  80.8993651  30.0204181  89.0073136  88.2058754
  29.8748762  89.3213439  89.0983036  29.5429385  89.6258036  87.6529653
  31.8800564  85.9975684  88.2539644  31.8662133  85.1016777  87.9171942
  32.5972992  86.0046347  88.8877930  33.7326695  86.4313024  90.2992771
  33.4744472  87.3530095  90.2977101  33.2011735  86.0343458  90.9893235
  38.6772883  99.5363811  83.0782856  38.8509761  98.9710233  82.3256709
  39.1701775 100.3364706  82.8962346  24.4949843  91.5478480  91.1446415
  23.9503311  92.3238288  91.2766690  25.3729193  91.8949285  90.9865537
  31.2837460  84.8790064  83.5227214  31.4053371  83.9506710  83.7218101
  30.9939502  84.8928750  82.6105529  34.1528650  82.5644974  86.6593934
  34.1750347  82.6284307  85.7045913  34.5696709  81.7249483  86.8534440
  44.5312274  92.3000234  84.6973156  44.9743421  91.5507559  84.2992279
  43.6538785  92.2910370  84.3146888  39.6648056  98.8530575  80.1779755
  40.3598960  99.4737268  80.3967069  40.0071206  98.0025927  80.4532133
  25.2815865  90.6748376  94.0376572  24.5397601  90.8231012  94.6241203
  24.9608609  90.9356642  93.1743321  41.5639479  96.3030281  81.7067085
  42.0890803  96.6417554  80.9816405  41.4761831  95.3677296  81.5230220
  33.2259528 100.2164355  93.8356962  33.5346654  99.9713501  94.7079662
  34.0235010 100.4210993  93.3475832  33.2480140 102.3702264  86.0662339
  32.8085130 101.8778643  86.7595195  33.9988257 101.8275232  85.8254414
  25.7272479  98.5613805  86.0686967  26.5530499  98.2617577  85.6885610
  25.3766531  97.7921427  86.5176755  30.6954012  97.9140273  88.1384640
  30.0734021  97.2510978  87.8386868  31.3658879  97.9401405  87.4558288
  23.9281084  96.4800132  87.0275900  23.0912992  96.0522306  86.8459902
  23.9004729  96.6732575  87.9646691  30.7678539  86.3922061  97.7317146
  30.8166695  87.2684184  97.3494916  31.3101054  85.8499454  97.1588790
  41.2533385  96.9363185  97.0118283  40.4628929  96.9187323  96.4722783
  41.0166740  97.4751478  97.7667320  41.3731260  93.7855651  94.3251012
  41.4229265  93.6205658  95.2666535  41.2645183  92.9182910  93.9348893
  30.2567519  96.4644197  81.6143101  30.4055639  97.1479661  80.9609774
  31.0633962  96.4449287  82.1292557  38.6635022  89.7686579  95.6410319
  39.5644885  89.6293044  95.3494316  38.7382997  89.9341034  96.5808496
  32.9977828  87.1453434  94.4863505  32.1281137  87.4387000  94.2146094
  33.2337308  87.7293879  95.2070769  42.8749457  96.2052592  94.5693033
  42.5834265  96.5682573  95.4056494  42.2621588  95.4919601  94.3906366
  44.0745139  93.7705472  87.0895604  44.9092031  94.2095276  87.2533164
  44.2104268  93.2944125  86.2703849  41.1236645  91.3285207  93.0373091
  41.5990767  91.5212853  92.2291943  40.2002210  91.3844393  92.7916475
  28.0120152  92.4909374  82.6204170  27.7666194  91.5871704  82.8184380
  28.1816066  92.4926525  81.6783648  27.2815799  88.2237732  80.1190331
  26.5885044  88.2982087  79.4630367  27.0367551  87.4598075  80.6411848
  35.9529456  79.7833333  87.5229822  36.2331210  79.1156522  88.1490249
  36.7380063  79.9762429  87.0104486  33.7562924  98.9592327  79.0854848
  33.1836891  99.5782514  78.6325320  34.3295718  99.5091689  79.6194770
  39.8238314  88.2050967  91.2701397  40.7755737  88.3049065  91.2913621
  39.6541765  87.4129236  91.7799481  37.8452694  85.2906550  91.4560798
  37.2502626  85.5711563  90.7607287  37.5602390  85.7800451  92.2277539
  36.9760184  99.2429477  80.2163431  37.9090857  99.1775039  80.4196306
  36.8883397 100.0785744  79.7577963  39.6048201  98.5595348  77.1767378
  39.5261832  98.2255211  78.0703136  40.4257867  99.0517115  77.1758850
  42.3026392  91.4257087  90.3843697  42.2702712  90.4873088  90.5703381
  42.9127016  91.5041124  89.6509522  34.1409723  90.2953140  76.4270901
  35.0868827  90.1659348  76.4959319  33.7623968  89.5567802  76.9040329
  42.4520880  88.2168130  90.4301980  41.9359929  87.4326587  90.2431909
  43.3360829  87.8886847  90.5948499  40.1131607  81.9609146  86.3897793
  39.9156428  81.6524234  87.2741125  40.7231313  82.6870785  86.5195722
  48.1202942  92.4873094  89.5249734  48.8506330  92.2258382  90.0857437
  47.5109887  91.7501816  89.5651801  46.2018239  90.6280956  90.1224185
  45.4751402  90.4936921  89.5140676  45.7865526  90.9357785  90.9280903
  34.0248415  94.3470886  97.8871558  34.9451425  94.5249485  98.0811604
  33.9897998  93.4026931  97.7351257  32.3252640  88.2203116  76.3625786
  31.4184095  87.9236229  76.4388500  32.6028621  87.9232934  75.4960072
  23.2430580  89.5409480  86.8124832  22.9233365  88.6874788  86.5199206
  22.6964008  89.7558058  87.5682800  27.0210488  92.2571921  90.5294339
  27.2396498  93.1889028  90.5482373  27.4336262  91.8979895  91.3149143
  33.9414706  82.7640006  82.5170027  33.1315434  82.4187091  82.8925273
  34.6299123  82.4547550  83.1057639  35.8705254  81.8418053  84.1394324
  36.4236293  82.2613506  84.7984347  36.1075340  80.9153801  84.1817280
  31.8938353  87.8305126  99.9197088  31.7935080  88.7799483  99.8509179
  31.6759895  87.5023365  99.0473158  31.0951425  85.0790051  76.5037765
  31.9570589  85.4044950  76.7633583  31.2801769  84.2921547  75.9910831
  23.1118840  93.1612391  88.7817954  22.4182312  92.7466344  88.2687908
  23.8591831  93.2032928  88.1851373  39.2484061  83.9518578  83.6472988
  38.6682730  84.6103382  83.2651041  38.9819994  83.1295922  83.2360406
  37.6987627  83.3523636  85.8494309  38.1987406  83.4640170  85.0408627
  38.3423235  83.0484688  86.4895117  31.7569623  91.2602265  98.7362149
  31.2736705  92.0602625  98.9426039  31.8430562  91.2710210  97.7829593
  25.0255583  93.0930645  86.6583969  25.0026271  93.1918332  85.7065852
  25.3356219  93.9395796  86.9801135  27.6842961  95.1506800  90.7730583
  28.6386214  95.1190742  90.7060515  27.4855484  94.6897424  91.5880809
  28.2742343  93.7207916  93.3401381  29.0935232  94.2151995  93.3636218
  28.5479151  92.8039884  93.3118948  38.0308939  86.1118668  82.7029336
  37.1434794  86.3968319  82.4849531  38.4462928  85.9512432  81.8556613
  41.3823475  86.1365189  86.4183676  42.1583865  86.6261642  86.6908293
  40.6571609  86.5623243  86.8755545  43.8196034  86.8492808  87.4757616
  44.4140525  86.6088544  86.7650925  43.8922617  86.1299939  88.1031153
  26.0393189 100.6926419  87.7900781  25.9047657  99.9326820  87.2238779
  25.6225252 101.4167319  87.3229570  37.1752152  95.8763343  76.7977356
  37.8788003  96.0813345  77.4135012  36.4514801  96.4440105  77.0626440
  38.0049963  91.6273204  82.9179627  37.9485164  92.0841756  82.0787259
  38.5578305  90.8663889  82.7402469  41.8154769  87.4162936  83.7429746
  41.5591703  87.0159572  84.5737954  41.1907637  88.1306730  83.6179885
  46.1267107  90.1559009  86.2501038  45.5666665  90.2252199  87.0232600
  45.5210610  89.9799994  85.5300534  29.1962315 101.5895736  88.0019224
  29.0794700 102.5341169  87.8997914  28.3754762 101.2869298  88.3905023
  39.0838850  96.3145872  78.8475816  39.9184454  95.8827071  78.6653291
  38.9223193  96.1427886  79.7752711  38.7384742  92.8177985  80.2132156
  38.6833546  92.6522257  79.2720600  38.1130797  93.5254018  80.3694346
  23.5277257  88.0546050  94.0393578  24.1736121  87.5445004  94.5280803
  23.3194408  88.7914731  94.6137003  36.0530649  95.1226897  99.5385719
  36.9221809  95.2967550  99.1772353  35.5737401  95.9421314  99.4161448
  32.0480868  82.3186094  79.7917474  32.0359537  83.2627934  79.9485745
  32.9404289  82.1356240  79.4976935  30.2216829 102.2423998  91.2175152
  31.1244076 102.2747609  91.5341647  29.9954200 101.3124449  91.2321488
  31.9770431 100.9954985  87.8785231  31.0266063 100.9956846  87.7649603
  32.2802918 100.2487719  87.3621265  27.8674748  85.2013667  98.1368592
  28.7306210  84.8450472  98.3471917  27.2940159  84.8627562  98.8243997
  47.7123125 106.8315523  88.9430993  48.3501535 106.7122271  88.2394333
  47.5943968 107.7796367  89.0018945  44.5212831 106.7842951  88.8792518
  44.1831343 106.6684016  87.9913053  45.3902599 106.3834116  88.8593524
  40.3799647 108.6378428  84.8689409  39.8164512 108.5468365  84.1005697
  40.2652042 107.8178332  85.3491901  45.0032614 107.9377803  94.8378723
  44.9921255 107.5430601  93.9659227  45.1653254 107.2043876  95.4312495
  37.9264079 110.1329619  87.7073629  38.7185371 109.7920444  87.2919929
  38.1660729 110.2424594  88.6275783  45.9599206 112.3049395  80.1803874
  45.3087185 112.8903476  79.7937888  46.7543568 112.8355590  80.2398911
  39.8854833 109.3938533  80.5791008  40.6585709 108.8467520  80.4403884
  40.2380232 110.2582782  80.7905470  41.7239875 110.7214915  93.7857907
  41.4329741 111.6260546  93.6704574  42.3596860 110.7631443  94.5001977
  42.6496082 108.0991763  90.3759267  43.2459655 107.8747786  89.6616230
  42.7071054 107.3576509  90.9784715  42.2221111 105.5531199  78.2109458
  42.4746631 105.0312720  77.4492921  41.2845670 105.3897344  78.3136142
  47.2664393 104.5566977  86.0184201  48.0527483 104.1386400  85.6674618
  47.5303098 105.4613069  86.1865850  47.4374471 109.9939827  80.7172858
  46.8020304 110.0674454  81.4293763  47.1071877 110.5833426  80.0391937
  52.6672821 104.4942210  86.9217180  53.3997993 103.9241427  87.1555009
  51.9112176 104.1063811  87.3623685  41.9417399 107.4559305  80.4133833
  41.8253657 106.7804208  81.0814917  42.0519659 106.9691679  79.5965986
  44.2848940 106.9169452  84.1180522  43.9207148 106.3900073  84.8293444
  45.1416056 106.5267921  83.9447008  50.1898241  98.2063784  91.3811788
  49.8581566  99.0759195  91.1573003  49.5943854  97.8900068  92.0605819
  43.9254427 101.9459351  79.1141871  44.0928830 102.8139588  79.4812342
  43.7351596 102.1086633  78.1903160  46.6829760 110.4076330  90.7807701
  46.3830484 111.3101369  90.6723508  46.3380820 110.1408514  91.6328854
  40.1342242 106.8590127  86.8144406  39.2092738 106.7266341  87.0222097
  40.3826655 107.6384346  87.3114348  50.0826904 102.9258871  88.4605138
  49.1743782 102.8574279  88.1663899  50.0314500 103.4030816  89.2886964
  43.9043648 104.4017009  80.0988538  43.7843273 104.8474060  80.9374018
  43.2096237 104.7502327  79.5402076  37.4951053 106.5023401  87.6488195
  37.6243434 106.7557880  88.5627606  36.8148504 107.0951109  87.3292850
  41.6650540 117.1720651  83.7478669  41.5874570 118.1228476  83.8267149
  41.0612184 116.8266523  84.4053595  44.1567770 104.3448516  96.4040036
  43.3801104 104.9042436  96.3942900  44.7958333 104.8305299  96.9254906
  51.9488551 101.1275309  90.2383012  51.3062931 101.4207842  89.5922807
  51.4443479 101.0128229  91.0436209  49.6028714 104.8738482  80.9268872
  50.5146570 105.1065869  80.7516569  49.0938361 105.4575526  80.3643950
  42.4114142 107.1533970  95.9658003  43.1528827 107.6919014  95.6892826
  41.7051128 107.7800258  96.1229555  47.8869482 109.2963110  94.5630164
  48.2952838 108.8545521  93.8184797  47.1646744 108.7215738  94.8164357
  44.2400552 104.2335717  91.9363721  45.0861747 104.6575130  92.0798370
  44.1799190 103.5769341  92.6302284  48.2098297 109.8564301  88.3182453
  47.5807159 110.0210015  87.6158521  47.8223959 110.2705910  89.0893417
  52.0887529 110.7918738  85.6726817  51.4038567 111.1717640  85.1223850
  52.1731378 111.4014065  86.4058765  47.3899997 101.8940085  93.5944895
  47.1460929 102.6482146  93.0579170  47.6659928 102.2725433  94.4292142
  49.3438460 108.4378698  92.2722160  49.5555355 109.0810457  91.5956541
  49.2968208 107.6041014  91.8044090  46.9464689 101.0496518  89.1758733
  46.0849168 101.3477772  89.4675470  46.9727124 101.2666917  88.2439765
  43.7626259 109.5938709  85.5832538  44.2264604 109.8726412  84.7937161
  43.4983057 108.6922153  85.4005629  40.6550340 109.1410190  88.5212301
  41.2251697 109.5697459  87.8829786  41.2458451 108.8592775  89.2196487
  42.6995145 105.7161861  82.3922103  43.4019188 106.1682905  82.8596030
  42.3675773 105.0745680  83.0201996  41.1475506 104.3073618  96.7673313
  40.5174167 104.9889899  97.0008710  41.0411594 104.1956699  95.8226451
  36.4420479 103.9745414  87.6939237  35.6519533 104.2302942  87.2179348
  36.9331726 104.7893752  87.7991277  50.4584288 111.3150653  90.4444518
  51.2801732 110.9130840  90.1627199  50.4546691 111.2118887  91.3960634
  38.3935224 104.3389993  84.6522714  37.5966387 104.4508687  85.1706209
  38.1660816 104.6776645  83.7863604  44.2240892 110.8634696  92.6005228
  44.2885324 111.3255103  93.4363400  43.5151815 110.2332061  92.7287538
  34.7258182 104.2275904  90.1254228  34.9766220 105.1122914  90.3911804
  35.2617730 104.0480506  89.3529320  58.5490281 107.6589401  86.7929489
  57.7953990 107.0896799  86.6373494  58.6837822 107.6252066  87.7400124
  43.9388909 112.5302804  82.4684209  43.8034584 113.3754339  82.8969056
  44.4798722 112.7322081  81.7050142  40.4256249  98.6094384  99.1298564
  40.0323194  98.0560582  99.8046208  41.2422389  98.9204962  99.5205081
  37.3918307 110.0478242  83.0412134  37.9042827 110.8421492  83.1917698
  38.0441019 109.3504532  82.9745735  39.2013191 113.1643998  85.1234887
  39.3779820 114.0861963  84.9355871  39.9970025 112.8502417  85.5529267
  43.3424210 100.0252263  96.7218820  44.0833923 100.6259416  96.6423283
  43.5742133  99.2829900  96.1636863  38.4865548 105.2108630  94.9997050
  38.3719063 104.3093887  95.3004149  37.6310066 105.4572327  94.6481867
  45.5657386 113.1526370  96.5984551  45.1221240 112.3662749  96.2805455
  46.2274599 113.3405521  95.9328441  40.3244507 114.6822172  91.1245229
  40.8751932 114.5539235  90.3522223  39.4855983 114.9817061  90.7740122
  47.6638624 113.4329170  94.6265952  47.6457099 114.2538051  94.1346221
  48.5858544 113.3083245  94.8516093  44.1211678 110.9473300  95.4689460
  44.6540015 110.1861588  95.2388768  43.5925759 110.6546951  96.2113615
  47.2881373  96.0533366  90.9983102  46.9445642  96.9435007  90.9222213
  47.6560335  95.8635023  90.1352687  35.3567223 108.3766896  83.8171704
  36.1942445 108.7863904  83.6005412  35.5345491 107.4366338  83.7871898
  47.2531655 106.0441977  79.5055537  46.7378279 106.8146581  79.7443925
  46.9808964 105.3707113  80.1288599  44.8378767 100.8891677  84.5640776
  43.9820363 100.4998528  84.3846414  45.2505718 100.9683638  83.7040561
  46.3677913  98.4238021  88.9632335  45.8642709  98.3868156  88.1500141
  46.6608520  99.3330763  89.0228992  42.6120799  98.5076750  87.9698517
  43.4773796  98.3119559  87.6104406  42.6798308  98.2787102  88.8967874
  52.2265930 108.7974331  81.4408711  51.4495372 108.4585491  80.9963873
  52.9057411 108.8026955  80.7663676  47.0417959 103.9169069  81.3315318
  46.7368094 104.2315218  82.1825461  47.9948401 103.9950489  81.3742651
  45.4864391 110.0759292  82.9808272  44.9585752 109.3412052  82.6681510
  44.9851893 110.8533968  82.7348241  50.4657237 108.2708313  88.0975319
  49.8080911 108.9607574  88.1855447  51.2697636 108.6604745  88.4409305
  40.2183118 100.7378958  85.3414884  40.7926870 100.5154140  84.6088077
  40.8054101 100.8067653  86.0943485  49.2762695 106.6252685  86.1479260
  49.7894577 107.2582677  86.6500970  49.9263919 106.0253881  85.7822620
  40.5452705 102.7683419  79.3610769  39.7090017 103.1058106  79.6820044
  40.4057475 102.6332399  78.4237906  42.5205786  97.6120207  84.0689953
  41.8670198  97.2969224  83.4446568  42.4786260  96.9895948  84.7949776
  43.6316991 107.8939502  75.9843245  42.7244052 107.6628756  76.1834394
  44.1288023 107.0977122  76.1717227  46.5385070 116.6037010  78.9039931
  45.8646768 116.9068706  79.5124889  46.9250892 117.4066090  78.5545389
  45.7543526 104.1002141  88.3937601  44.8366088 104.3217088  88.2359289
  46.1703670 104.1748451  87.5349308  46.5378574 105.4993557  83.5240281
  47.2850393 106.0114954  83.2147403  46.8070163 105.1777609  84.3844675
  44.8105224 107.9952097  80.5067235  43.9016443 107.7111130  80.6039705
  44.8400308 108.4151176  79.6470542  50.0424492 111.6058687  84.2758403
  49.5886819 110.7649597  84.3323593  49.4118458 112.2420085  84.6133183
  48.9857411 102.5350673  85.5059070  48.2480168 102.0228059  85.8369313
  49.2384185 102.0951054  84.6942347  48.4857431 113.4435183  85.2108221
  48.7780405 114.0040241  84.4920587  48.9956051 113.7363744  85.9661380
  49.0869038  95.3126925  86.1000840  49.3927915  94.4524288  85.8126755
  49.8121643  95.9044545  85.8999834  35.3793395 105.7157611  84.4882438
  35.1817794 105.1226972  83.7633504  34.8240058 105.4109822  85.2058376
  43.3590118 105.6080718  86.6077031  43.4138728 104.6554554  86.5319507
  42.5481320 105.7640157  87.0918329  44.5081312 109.5360841  77.8455314
  44.0700742 108.8196700  77.3860951  45.2491753 109.7636956  77.2840405
  41.2982478 104.2257778  84.3667410  40.4850344 104.5251948  84.7732602
  41.7941472 103.8313466  85.0841892  43.4491056 114.2215535  86.3001674
  43.4067235 114.4476381  85.3710206  44.3653755 113.9878909  86.4487475
  46.8956690 104.6899602  93.1982304  47.2506077 104.9171075  94.0576769
  47.5428821 105.0217979  92.5759559  52.6254427 107.8118038  83.9031633
  52.4872325 108.0019634  82.9752822  52.2690646 108.5737421  84.3599684
  40.7896553 101.7976133  89.9828645  41.4295932 101.6564892  89.2851608
  39.9574083 101.5110646  89.6067247  52.6523806 109.8794565  88.9142904
  53.0860313 109.7869854  89.7625958  53.3655387 109.8552065  88.2762920
  41.5656857 111.0978564  86.0963637  42.3597455 110.6028884  85.8946212
  40.8548549 110.5696427  85.7331343  46.3851701 113.4796659  90.4476005
  46.4388723 114.0487595  91.2153721  45.5166483 113.6498544  90.0830042
  37.8739620 105.2421645  82.1723390  36.9437208 105.1806101  82.3893352
  37.9697092 104.7197598  81.3760031  37.7925169 101.7676458  84.7601631
  38.0531987 102.6821791  84.6510792  38.6142342 101.3000901  84.9098244
  39.2650095 103.1814215  91.9300456  39.9373148 102.9731577  91.2813105
  38.4379881 102.9836301  91.4905688  53.5139356 109.9218266  91.4475789
  53.7075246 110.8264076  91.6935064  53.4139974 109.4625685  92.2814374
  45.1675667  99.8076156  93.9466117  44.5203582 100.5066106  93.8530593
  45.9376682 100.2412300  94.3142365  48.5754465 110.0725008  97.0216670
  48.4239971 109.8435560  96.1046754  48.5659144 111.0295610  97.0348015
  45.3439801 107.6456921  92.0062937  46.2731861 107.7968081  91.8331904
  44.9230831 107.7340942  91.1511583  44.1428133 111.6707586  89.7761474
  44.0039218 111.3026370  90.6487412  43.3542729 112.1855225  89.6045432
  44.7376285 116.7716682  81.1187011  44.9128040 116.3004725  81.9332633
  44.0509073 117.3982448  81.3468271  45.6933348 111.0489188  87.1650312
  45.3583180 111.0089958  88.0607962  45.1937294 110.3833904  86.6920722
  39.6677592 106.4556818  92.6902893  39.5297390 105.7237057  93.2914432
  40.5782515 106.3665718  92.4087081  48.6292540 108.3945223  77.4387372
  48.0121710 107.6692051  77.3420424  48.1609028 109.1554583  77.0954446
  42.2959893 106.1676778  92.1786573  43.0059511 105.5269970  92.1373191
  42.2529201 106.4189672  93.1012754  50.2846671 113.1044131  95.0993152
  50.2259217 112.4203351  94.4323735  50.6866190 113.8463121  94.6473778
  41.0088826 103.1541995  93.9982212  40.4726184 102.7032734  94.6503809
  40.4205535 103.2887904  93.2552677  40.4191085 102.6130647  76.5608676
  39.5420552 102.4919448  76.1970923  40.8948839 101.8216725  76.3087565
  50.2864078 111.0683715  93.3307132  49.3990857 110.7309637  93.4533530
  50.8562630 110.3366746  93.5675897  31.9393226 107.4007807  86.6550183
  32.6264265 107.0869537  86.0671198  31.7841354 108.3049171  86.3817434
  36.7427948 102.2898003  91.0835207  36.6586136 101.6823673  90.3485617
  35.9210654 102.7807021  91.0844703  43.8165232 115.7285167  90.2968375
  43.7435403 116.5340139  90.8087679  43.3742625 115.9277133  89.4716396
  43.6055011 114.9656937  83.8071196  42.8222533 115.5078617  83.9009421
  44.3047757 115.4830917  84.2065438  46.9151662 100.7751567  86.4505402
  47.4120361 100.0221529  86.1306472  46.1438643 100.8115883  85.8848611
  54.7681419 106.4791932  88.0923693  54.7571295 107.3616648  87.7217626
  53.8998798 106.1263483  87.8978230  46.2763915 115.6272001  92.4526533
  46.9891888 116.2619466  92.3802435  45.7853944 115.7235867  91.6366535
  47.9981442 109.5323254  84.0243825  47.0637721 109.6524716  83.8548529
  48.1758111 108.6295721  83.7603835  43.4986630 102.9168950  86.1777086
  43.1284418 102.3639990  86.8657992  43.9945723 102.3127083  85.6252086
  51.3853994 105.3740573  84.5593859  51.8514446 106.2068565  84.4854162
  51.8361494 104.9085555  85.2639118  41.3275829 113.3766445  93.2732104
  42.0285288 114.0102928  93.4261499  40.8570944 113.7181176  92.5127744
  49.4530225 111.7184394  81.5580011  49.7290069 111.6040989  82.4673885
  48.5834723 111.3201879  81.5192184  49.3570656  97.7421160  88.5984761
  48.4433736  97.9725387  88.7666968  49.7863758  97.8259604  89.4498793
  49.1277115 105.9311052  91.0984655  48.4748565 106.1786960  90.4437107
  49.5057495 105.1175190  90.7647132  46.0884289 115.9670745  85.2012825
  46.2706683 115.1492401  85.6640577  46.9117275 116.1838438  84.7637715
  46.4226454 114.8938930  82.4627873  46.9514221 114.3831385  81.8498036
  46.6854674 114.5781461  83.3273406  45.1764688 106.6730863  97.5850692
  44.5005325 106.5724993  98.2553067  45.9992322 106.5170077  98.0486689
  36.9243547 112.9102800  90.2063207  37.5096984 112.1646488  90.3391111
  36.7268385 113.2206756  91.0899871  39.7782202 115.9454047  85.2225649
  39.1092577 116.4300175  84.7389689  39.6395072 116.1923268  86.1369028
  31.5161202 105.4808400  88.9267650  31.5545301 104.9471991  89.7204768
  31.0101495 104.9543605  88.3078627  43.9187471 117.9797791  91.8208308
  44.4705779 118.1429412  92.5857393  44.2593664 118.5702228  91.1488333
  38.8951964 100.3272940  92.4230192  38.9593290 101.1887771  92.0107590
  38.8319084  99.7146942  91.6902551  38.3704237 102.3996073  96.0703227
  38.9976275 102.0173150  96.6840751  37.5132155 102.1810275  96.4358919
  48.7698345 112.8059048  97.6756962  49.3138249 113.4189006  97.1811917
  48.1885190 113.3638627  98.1923975  35.1469779 104.2072502  82.0021582
  35.4423220 103.2983181  81.9488635  34.2457815 104.1860242  81.6802584
  47.0555858 115.9279766  88.8071990  46.9306998 115.1269506  88.2982935
  47.7134949 116.4225960  88.3185960  38.6764026 102.2828499  87.9849130
  37.9550612 102.8964466  87.8456603  39.4657282 102.8186263  87.9065776
  49.1190766 113.7288786  90.4351540  48.1721102 113.6094137  90.3629867
  49.4673540 112.8411284  90.5177801  41.4790340  99.6182925  94.2589782
  42.0024742  99.8645222  95.0216091  41.2602673 100.4502960  93.8392919
  36.8757621 101.8886600  82.1260907  36.5470327 101.0083979  81.9436013
  37.2296992 101.8334268  83.0137296  46.1237200 113.5241502  86.6355892
  45.9762162 112.5958210  86.8163462  46.9490693 113.5461593  86.1512967
  39.9899444 102.1759570  82.4936384  40.3295517 102.7045491  81.7714993
  40.4371565 102.5139976  83.2694951  49.7271322 114.3470061  87.7220765
  50.6517869 114.1412923  87.5845216  49.5586625 114.0986462  88.6310106
  42.6842885 100.5596620  91.9439452  42.3439705  99.7604433  92.3460132
  41.9781891 100.8598331  91.3716286  43.3359357  97.6445933  90.3966775
  44.1585426  97.1706411  90.2745666  43.5797420  98.4236416  90.8965462
  41.9767591 100.6734191  80.6929677  42.6975954 101.0515444  80.1893394
  41.3532895 101.3923068  80.7964655  46.1198714 101.3779340  81.6288009
  46.3362328 102.2603978  81.3276838  45.6392781 100.9865554  80.8993651
  40.8597935 104.3365053  88.2058754  40.7142516 104.6505356  89.0983036
  40.3823139 104.9549954  87.6529653  42.7194318 101.3267601  88.2539644
  42.7055887 100.4308695  87.9171942  43.4366746 101.3338265  88.8877930
  44.5720449 101.7604942  90.2992771  44.3138227 102.6822012  90.2977101
  44.0405489 101.3635376  90.9893235  49.5166638 114.8655729  83.0782856
  49.6903515 114.3002151  82.3256709  50.0095529 115.6656624  82.8962346
  35.3343598 106.8770398  91.1446415  34.7897066 107.6530206  91.2766690
  36.2122947 107.2241202  90.9865537  42.1231214 100.2081982  83.5227214
  42.2447125  99.2798628  83.7218101  41.8333257 100.2220668  82.6105529
  44.9922405  97.8936892  86.6593934  45.0144101  97.9576225  85.7045913
  45.4090464  97.0541401  86.8534440  55.3706029 107.6292152  84.6973156
  55.8137175 106.8799477  84.2992279  54.4932539 107.6202288  84.3146888
  50.5041810 114.1822493  80.1779755  51.1992715 114.8029186  80.3967069
  50.8464960 113.3317844  80.4532133  36.1209619 106.0040294  94.0376572
  35.3791355 106.1522929  94.6241203  35.8002364 106.2648560  93.1743321
  52.4033233 111.6322199  81.7067085  52.9284557 111.9709471  80.9816405
  52.3155586 110.6969214  81.5230220  44.0653282 115.5456272  93.8356962
  44.3740409 115.3005419  94.7079662  44.8628764 115.7502911  93.3475832
  44.0873894 117.6994182  86.0662339  43.6478884 117.2070561  86.7595195
  44.8382011 117.1567150  85.8254414  36.5666233 113.8905723  86.0686967
  37.3924253 113.5909495  85.6885610  36.2160285 113.1213345  86.5176755
  41.5347766 113.2432191  88.1384640  40.9127776 112.5802896  87.8386868
  42.2052633 113.2693323  87.4558288  34.7674838 111.8092049  87.0275900
  33.9306746 111.3814224  86.8459902  34.7398484 112.0024493  87.9646691
  41.6072294 101.7213979  97.7317146  41.6560449 102.5976102  97.3494916
  42.1494808 101.1791372  97.1588790  52.0927139 112.2655102  97.0118283
  51.3022683 112.2479241  96.4722783  51.8560494 112.8043396  97.7667320
  52.2125015 109.1147569  94.3251012  52.2623019 108.9497576  95.2666535
  52.1038938 108.2474828  93.9348893  41.0961273 111.7936114  81.6143101
  41.2449394 112.4771579  80.9609774  41.9027717 111.7741204  82.1292557
  49.5028777 105.0978497  95.6410319  50.4038640 104.9584961  95.3494316
  49.5776751 105.2632951  96.5808496  43.8371582 102.4745351  94.4863505
  42.9674892 102.7678917  94.2146094  44.0731063 103.0585796  95.2070769
  53.7143211 111.5344510  94.5693033  53.4228020 111.8974491  95.4056494
  53.1015343 110.8211518  94.3906366  54.9138894 109.0997390  87.0895604
  55.7485785 109.5387194  87.2533164  55.0498022 108.6236043  86.2703849
  51.9630400 106.6577125  93.0373091  52.4384521 106.8504771  92.2291943
  51.0395965 106.7136311  92.7916475  38.8513906 107.8201292  82.6204170
  38.6059948 106.9163622  82.8184380  39.0209821 107.8218442  81.6783648
  46.5410616  98.6924968  92.0028925  47.0592560  99.4285995  91.6775414
  46.1865749  98.9988962  92.8375684  38.1209554 103.5529650  80.1190331
  37.4278799 103.6274004  79.4630367  37.8761306 102.7889993  80.6411848
  46.7923210  95.1125251  87.5229822  47.0724964  94.4448440  88.1490249
  47.5773817  95.3054346  87.0104486  44.5956679 114.2884245  79.0854848
  44.0230646 114.9074432  78.6325320  45.1689472 114.8383606  79.6194770
  50.6632069 103.5342885  91.2701397  51.6149491 103.6340983  91.2913621
  50.4935519 102.7421153  91.7799481  48.6846448 100.6198468  91.4560798
  48.0896380 100.9003481  90.7607287  48.3996145 101.1092369  92.2277539
  47.8153939 114.5721395  80.2163431  48.7484612 114.5066957  80.4196306
  47.7277151 115.4077662  79.7577963  50.4441955 113.8887265  77.1767378
  50.3655587 113.5547129  78.0703136  51.2651622 114.3809033  77.1758850
  53.1420146 106.7549005  90.3843697  53.1096466 105.8165005  90.5703381
  53.7520770 106.8333041  89.6509522  44.9803477 105.6245058  76.4270901
  45.9262582 105.4951266  76.4959319  44.6017722 104.8859719  76.9040329
  53.2914635 103.5460048  90.4301980  52.7753684 102.7618505  90.2431909
  54.1754583 103.2178765  90.5948499  50.9525362  97.2901064  86.3897793
  50.7550183  96.9816152  87.2741125  51.5625067  98.0162702  86.5195722
  58.9596696 107.8165011  89.5249734  59.6900085 107.5550299  90.0857437
  58.3503642 107.0793733  89.5651801  57.0411993 105.9572874  90.1224185
  56.3145157 105.8228839  89.5140676  56.6259280 106.2649703  90.9280903
  44.8642170 109.6762804  97.8871558  45.7845179 109.8541403  98.0811604
  44.8291753 108.7318849  97.7351257  43.1646394 103.5495034  76.3625786
  42.2577850 103.2528147  76.4388500  43.4422375 103.2524852  75.4960072
  34.0824335 104.8701397  86.8124832  33.7627119 104.0166705  86.5199206
  33.5357763 105.0849975  87.5682800  37.8604242 107.5863838  90.5294339
  38.0790252 108.5180946  90.5482373  38.2730016 107.2271813  91.3149143
  44.7808460  98.0931924  82.5170027  43.9709188  97.7479009  82.8925273
  45.4692877  97.7839467  83.1057639  46.7099008  97.1709970  84.1394324
  47.2630047  97.5905424  84.7984347  46.9469095  96.2445719  84.1817280
  42.7332108 103.1597044  99.9197088  42.6328835 104.1091401  99.8509179
  42.5153650 102.8315283  99.0473158  41.9345179 100.4081969  76.5037765
  42.7964343 100.7336867  76.7633583  42.1195523  99.6213465  75.9910831
  33.9512595 108.4904309  88.7817954  33.2576066 108.0758262  88.2687908
  34.6985586 108.5324845  88.1851373  50.0877815  99.2810496  83.6472988
  49.5076485  99.9395300  83.2651041  49.8213748  98.4587840  83.2360406
  48.5381382  98.6815553  85.8494309  49.0381160  98.7932088  85.0408627
  49.1816990  98.3776606  86.4895117  42.5963378 106.5894183  98.7362149
  42.1130459 107.3894543  98.9426039  42.6824317 106.6002128  97.7829593
  35.8649337 108.4222563  86.6583969  35.8420025 108.5210250  85.7065852
  36.1749974 109.2687713  86.9801135  38.5236715 110.4798718  90.7730583
  39.4779969 110.4482660  90.7060515  38.3249239 110.0189341  91.5880809
  39.1136097 109.0499834  93.3401381  39.9328986 109.5443912  93.3636218
  39.3872905 108.1331802  93.3118948  48.8702694 101.4410586  82.7029336
  47.9828549 101.7260237  82.4849531  49.2856683 101.2804349  81.8556613
  52.2217230 101.4657107  86.4183676  52.9977620 101.9553559  86.6908293
  51.4965364 101.8915161  86.8755545  54.6589788 102.1784726  87.4757616
  55.2534279 101.9380462  86.7650925  54.7316372 101.4591857  88.1031153
  48.0145907 111.2055261  76.7977356  48.7181757 111.4105263  77.4135012
  47.2908556 111.7732023  77.0626440  48.8443717 106.9565122  82.9179627
  48.7878919 107.4133673  82.0787259  49.3972060 106.1955806  82.7402469
  52.6548523 102.7454854  83.7429746  52.3985457 102.3451489  84.5737954
  52.0301391 103.4598648  83.6179885  56.9660861 105.4850927  86.2501038
  56.4060419 105.5544116  87.0232600  56.3604364 105.3091912  85.5300534
  49.9232604 111.6437790  78.8475816  50.7578208 111.2118988  78.6653291
  49.7616947 111.4719804  79.7752711  49.5778497 108.1469903  80.2132156
  49.5227300 107.9814175  79.2720600  48.9524552 108.8545936  80.3694346
  34.3671012 103.3837968  94.0393578  35.0129875 102.8736921  94.5280803
  34.1588163 104.1206649  94.6137003  46.8924404 110.4518815  99.5385719
  47.7615563 110.6259467  99.1772353  46.4131155 111.2713232  99.4161448
  42.8874622  97.6478012  79.7917474  42.8753292  98.5919852  79.9485745
  43.7798044  97.4648158  79.4976935  41.0610584 117.5715916  91.2175152
  41.9637831 117.6039526  91.5341647  40.8347954 116.6416367  91.2321488
  42.8164186 116.3246903  87.8785231  41.8659817 116.3248764  87.7649603
  43.1196672 115.5779637  87.3621265  46.7026741  94.2420789  84.0463411
  45.9359137  93.6879275  84.1920093  47.1137446  94.3142658  84.9077563
  38.7068503 100.5305585  98.1368592  39.5699964 100.1742389  98.3471917
  38.1333913 100.1919479  98.8243997  58.5516879 122.1607441  88.9430993
  59.1895289 122.0414188  88.2394333  58.4337722 123.1088285  89.0018945
  55.3606586 122.1134869  88.8792518  55.0225097 121.9975934  87.9913053
  56.2296354 121.7126034  88.8593524  55.8426369 123.2669721  94.8378723
  55.8315010 122.8722519  93.9659227  56.0047008 122.5335793  95.4312495
  53.0614865 120.8823116  78.2109458  53.3140386 120.3604638  77.4492921
  52.1239424 120.7189262  78.3136142  58.1058148 119.8858895  86.0184201
  58.8921237 119.4678318  85.6674618  58.3696852 120.7904987  86.1865850
  63.5066575 119.8234128  86.9217180  64.2391747 119.2533345  87.1555009
  62.7505931 119.4355728  87.3623685  55.1242695 122.2461369  84.1180522
  54.7600902 121.7191990  84.8293444  55.9809811 121.8559839  83.9447008
  61.0291995 113.5355702  91.3811788  60.6975320 114.4051113  91.1573003
  60.4337609 113.2191986  92.0605819  54.7648182 117.2751269  79.1141871
  54.9322584 118.1431506  79.4812342  54.5745351 117.4378551  78.1903160
  60.9220659 118.2550788  88.4605138  60.0137536 118.1866197  88.1663899
  60.8708255 118.7322733  89.2886964  54.7437403 119.7308927  80.0988538
  54.6237028 120.1765977  80.9374018  54.0489991 120.0794244  79.5402076
  54.9961525 119.6740434  96.4040036  54.2194859 120.2334354  96.3942900
  55.6352088 120.1597217  96.9254906  62.7882305 116.4567227  90.2383012
  62.1456685 116.7499760  89.5922807  62.2837234 116.3420147  91.0436209
  60.4422469 120.2030400  80.9268872  61.3540325 120.4357787  80.7516569
  59.9332116 120.7867444  80.3643950  55.0794307 119.5627634  91.9363721
  55.9255502 119.9867048  92.0798370  55.0192944 118.9061259  92.6302284
  58.2293752 117.2232003  93.5944895  57.9854684 117.9774063  93.0579170
  58.5053682 117.6017350  94.4292142  60.1832215 123.7670615  92.2722160
  60.3949110 124.4102375  91.5956541  60.1361963 122.9332932  91.8044090
  57.7858444 116.3788436  89.1758733  56.9242923 116.6769689  89.4675470
  57.8120878 116.5958835  88.2439765  53.5388899 121.0453779  82.3922103
  54.2412942 121.4974822  82.8596030  53.2069528 120.4037598  83.0201996
  51.9869261 119.6365535  96.7673313  51.3567921 120.3181816  97.0008710
  51.8805348 119.5248617  95.8226451  47.2814233 119.3037331  87.6939237
  46.4913287 119.5594860  87.2179348  47.7725480 120.1185669  87.7991277
  49.2328978 119.6681911  84.6522714  48.4360142 119.7800605  85.1706209
  49.0054571 120.0068563  83.7863604  69.3884036 122.9881319  86.7929489
  68.6347744 122.4188717  86.6373494  69.5231577 122.9543984  87.7400124
  51.2650003 113.9386301  99.1298564  50.8716949 113.3852500  99.8046208
  52.0816144 114.2496880  99.5205081  54.1817964 115.3544180  96.7218820
  54.9227678 115.9551333  96.6423283  54.4135887 114.6121818  96.1636863
  58.1275127 111.3825283  90.9983102  57.7839397 112.2726925  90.9222213
  58.4954090 111.1926941  90.1352687  58.0925410 121.3733894  79.5055537
  57.5772033 122.1438499  79.7443925  57.8202718 120.6999031  80.1288599
  55.6772521 116.2183595  84.5640776  54.8214117 115.8290446  84.3846414
  56.0899473 116.2975556  83.7040561  57.2071668 113.7529938  88.9632335
  56.7036463 113.7160074  88.1500141  57.5002275 114.6622681  89.0228992
  53.4514554 113.8368668  87.9698517  54.3167550 113.6411477  87.6104406
  53.5192062 113.6079020  88.8967874  63.0659684 124.1266249  81.4408711
  62.2889127 123.7877409  80.9963873  63.7451165 124.1318872  80.7663676
  57.8811713 119.2460986  81.3315318  57.5761849 119.5607136  82.1825461
  58.8342155 119.3242406  81.3742651  61.3050991 123.6000230  88.0975319
  60.6474665 124.2899492  88.1855447  62.1091390 123.9896662  88.4409305
  51.0576873 116.0670876  85.3414884  51.6320625 115.8446058  84.6088077
  51.6447855 116.1359571  86.0943485  60.1156450 121.9544603  86.1479260
  60.6288332 122.5874595  86.6500970  60.7657674 121.3545798  85.7822620
  51.3846460 118.0975337  79.3610769  50.5483772 118.4350024  79.6820044
  51.2451229 117.9624317  78.4237906  53.3599540 112.9412125  84.0689953
  52.7063953 112.6261142  83.4446568  53.3180014 112.3187865  84.7949776
  56.5937281 119.4294059  88.3937601  55.6759842 119.6509006  88.2359289
  57.0097424 119.5040369  87.5349308  57.3772328 120.8285474  83.5240281
  58.1244147 121.3406871  83.2147403  57.6463918 120.5069527  84.3844675
  59.8251166 117.8642590  85.5059070  59.0873922 117.3519977  85.8369313
  60.0777939 117.4242972  84.6942347  59.9262793 110.6418842  86.1000840
  60.2321670 109.7816206  85.8126755  60.6515398 111.2336463  85.8999834
  54.1983873 120.9372636  86.6077031  54.2532482 119.9846472  86.5319507
  53.3875075 121.0932075  87.0918329  52.1376233 119.5549695  84.3667410
  51.3244098 119.8543866  84.7732602  52.6335227 119.1605384  85.0841892
  57.7350444 120.0191520  93.1982304  58.0899832 120.2462993  94.0576769
  58.3822575 120.3509897  92.5759559  63.4648181 123.1409956  83.9031633
  63.3266080 123.3311552  82.9752822  63.1084400 123.9029338  84.3599684
  51.6290307 117.1268051  89.9828645  52.2689687 116.9856810  89.2851608
  50.7967838 116.8402564  89.6067247  63.4917561 125.2086483  88.9142904
  63.9254067 125.1161772  89.7625958  64.2049142 125.1843983  88.2762920
  48.7133375 120.5713563  82.1723390  47.7830963 120.5098018  82.3893352
  48.8090847 120.0489516  81.3760031  48.6318924 117.0968376  84.7601631
  48.8925741 118.0113709  84.6510792  49.4536096 116.6292818  84.9098244
  50.1043849 118.5106133  91.9300456  50.7766903 118.3023495  91.2813105
  49.2773636 118.3128219  91.4905688  64.3533110 125.2510183  91.4475789
  64.5469000 126.1555994  91.6935064  64.2533729 124.7917602  92.2814374
  56.0069421 115.1368074  93.9466117  55.3597336 115.8358024  93.8530593
  56.7770437 115.5704218  94.3142365  56.1833555 122.9748839  92.0062937
  57.1125615 123.1259998  91.8331904  55.7624585 123.0632860  91.1511583
  59.4686294 123.7237140  77.4387372  58.8515465 122.9983968  77.3420424
  59.0002782 124.4846501  77.0954446  53.1353647 121.4968695  92.1786573
  53.8453266 120.8561887  92.1373191  53.0922955 121.7481590  93.1012754
  51.8482581 118.4833913  93.9982212  51.3119938 118.0324652  94.6503809
  51.2599289 118.6179822  93.2552677  51.2584840 117.9422565  76.5608676
  50.3814306 117.8211365  76.1970923  51.7342593 117.1508643  76.3087565
  47.5821702 117.6189921  91.0835207  47.4979891 117.0115590  90.3485617
  46.7604409 118.1098939  91.0844703  57.7545416 116.1043484  86.4505402
  58.2514116 115.3513447  86.1306472  56.9832398 116.1407801  85.8848611
  65.6075173 121.8083850  88.0923693  65.5965050 122.6908565  87.7217626
  64.7392553 121.4555401  87.8978230  54.3380385 118.2460867  86.1777086
  53.9678172 117.6931908  86.8657992  54.8339477 117.6419001  85.6252086
  62.2247748 120.7032491  84.5593859  62.6908200 121.5360482  84.4854162
  62.6755249 120.2377472  85.2639118  60.1964411 113.0713078  88.5984761
  59.2827491 113.3017305  88.7666968  60.6257512 113.1551522  89.4498793
  59.9670869 121.2602970  91.0984655  59.3142320 121.5078877  90.4437107
  60.3451249 120.4467108  90.7647132  56.0158442 122.0022781  97.5850692
  55.3399079 121.9016910  98.2553067  56.8386076 121.8461995  98.0486689
  49.7345718 115.6564858  92.4230192  49.7987045 116.5179689  92.0107590
  49.6712839 115.0438860  91.6902551  49.2097991 117.7287991  96.0703227
  49.8370030 117.3465068  96.6840751  48.3525910 117.5102193  96.4358919
  45.9863534 119.5364420  82.0021582  46.2816975 118.6275098  81.9488635
  45.0851570 119.5152159  81.6802584  49.5157781 117.6120416  87.9849130
  48.7944367 118.2256384  87.8456603  50.3051037 118.1478181  87.9065776
  52.3184094 114.9474843  94.2589782  52.8418496 115.1937139  95.0216091
  52.0996428 115.7794878  93.8392919  47.7151375 117.2178517  82.1260907
  47.3864082 116.3375896  81.9436013  48.0690746 117.1626186  83.0137296
  50.8293199 117.5051487  82.4936384  51.1689271 118.0337408  81.7714993
  51.2765319 117.8431893  83.2694951  53.5236639 115.8888538  91.9439452
  53.1833460 115.0896351  92.3460132  52.8175646 116.1890249  91.3716286
  54.1753111 112.9737850  90.3966775  54.9979180 112.4998329  90.2745666
  54.4191175 113.7528334  90.8965462  52.8161346 116.0026109  80.6929677
  53.5369708 116.3807362  80.1893394  52.1926650 116.7214986  80.7964655
  56.9592469 116.7071258  81.6288009  57.1756083 117.5895896  81.3276838
  56.4786536 116.3157471  80.8993651  51.6991690 119.6656971  88.2058754
  51.5536271 119.9797274  89.0983036  51.2216894 120.2841871  87.6529653
  53.5588073 116.6559519  88.2539644  53.5449642 115.7600612  87.9171942
  54.2760501 116.6630183  88.8877930  55.4114204 117.0896859  90.2992771
  55.1531981 118.0113930  90.2977101  54.8799244 116.6927294  90.9893235
  52.9624969 115.5373899  83.5227214  53.0840880 114.6090545  83.7218101
  52.6727011 115.5512585  82.6105529  55.8316159 113.2228810  86.6593934
  55.8537856 113.2868143  85.7045913  56.2484218 112.3833318  86.8534440
  66.2099783 122.9584069  84.6973156  66.6530929 122.2091394  84.2992279
  65.3326294 122.9494206  84.3146888  52.4466048 117.0505897  97.7317146
  52.4954204 117.9268019  97.3494916  52.9888562 116.5083290  97.1588790
  63.0518769 124.4439486  94.3251012  63.1016774 124.2789494  95.2666535
  62.9432692 123.5766745  93.9348893  60.3422531 120.4270414  95.6410319
  61.2432394 120.2876879  95.3494316  60.4170506 120.5924869  96.5808496
  54.6765337 117.8037269  94.4863505  53.8068646 118.0970835  94.2146094
  54.9124817 118.3877714  95.2070769  65.7532648 124.4289308  87.0895604
  66.5879540 124.8679112  87.2533164  65.8891777 123.9527961  86.2703849
  62.8024154 121.9869042  93.0373091  63.2778276 122.1796689  92.2291943
  61.8789719 122.0428228  92.7916475  57.3804371 114.0216886  92.0028925
  57.8986314 114.7577913  91.6775414  57.0259503 114.3280879  92.8375684
  48.9603308 118.8821567  80.1190331  48.2672553 118.9565922  79.4630367
  48.7155060 118.1181911  80.6411848  57.6316965 110.4417169  87.5229822
  57.9118719 109.7740358  88.1490249  58.4167572 110.6346264  87.0104486
  61.5025823 118.8634803  91.2701397  62.4543246 118.9632900  91.2913621
  61.3329273 118.0713071  91.7799481  59.5240203 115.9490386  91.4560798
  58.9290135 116.2295398  90.7607287  59.2389899 116.4384287  92.2277539
  63.9813901 122.0840922  90.3843697  63.9490221 121.1456923  90.5703381
  64.5914525 122.1624959  89.6509522  55.8197232 120.9536975  76.4270901
  56.7656336 120.8243183  76.4959319  55.4411477 120.2151637  76.9040329
  64.1308389 118.8751966  90.4301980  63.6147438 118.0910422  90.2431909
  65.0148338 118.5470682  90.5948499  61.7919116 112.6192981  86.3897793
  61.5943937 112.3108069  87.2741125  62.4018822 113.3454620  86.5195722
  69.7990451 123.1456929  89.5249734  70.5293839 122.8842217  90.0857437
  69.1897396 122.4085651  89.5651801  67.8805748 121.2864792  90.1224185
  67.1538911 121.1520757  89.5140676  67.4653035 121.5941620  90.9280903
  54.0040149 118.8786952  76.3625786  53.0971604 118.5820064  76.4388500
  54.2816130 118.5816770  75.4960072  55.6202215 113.4223841  82.5170027
  54.8102943 113.0770926  82.8925273  56.3086632 113.1131385  83.1057639
  57.5492763 112.5001888  84.1394324  58.1023802 112.9197342  84.7984347
  57.7862849 111.5737636  84.1817280  53.5725862 118.4888962  99.9197088
  53.4722589 119.4383319  99.8509179  53.3547404 118.1607201  99.0473158
  52.7738934 115.7373887  76.5037765  53.6358098 116.0628785  76.7633583
  52.9589278 114.9505383  75.9910831  60.9271570 114.6102413  83.6472988
  60.3470239 115.2687217  83.2651041  60.6607503 113.7879758  83.2360406
  59.3775136 114.0107471  85.8494309  59.8774915 114.1224005  85.0408627
  60.0210744 113.7068524  86.4895117  59.7096448 116.7702504  82.7029336
  58.8222303 117.0552154  82.4849531  60.1250437 116.6096267  81.8556613
  63.0610984 116.7949025  86.4183676  63.8371374 117.2845477  86.6908293
  62.3359118 117.2207079  86.8755545  65.4983543 117.5076644  87.4757616
  66.0928034 117.2672380  86.7650925  65.5710126 116.7883774  88.1031153
  59.6837472 122.2857040  82.9179627  59.6272673 122.7425591  82.0787259
  60.2365814 121.5247724  82.7402469  63.4942278 118.0746771  83.7429746
  63.2379212 117.6743407  84.5737954  62.8695146 118.7890565  83.6179885
  67.8054616 120.8142845  86.2501038  67.2454173 120.8836034  87.0232600
  67.1998119 120.6383829  85.5300534  60.4172251 123.4761821  80.2132156
  60.3621055 123.3106092  79.2720600  59.7918306 124.1837854  80.3694346
  45.2064766 118.7129885  94.0393578  45.8523630 118.2028839  94.5280803
  44.9981917 119.4498567  94.6137003  53.7268377 112.9769930  79.7917474
  53.7147046 113.9211770  79.9485745  54.6191798 112.7940075  79.4976935
  57.5420496 109.5712706  84.0463411  56.7752892 109.0171193  84.1920093
  57.9531201 109.6434575  84.9077563  49.5462257 115.8597502  98.1368592
  50.4093719 115.5034307  98.3471917  48.9727668 115.5211397  98.8243997
  68.9668882 126.7117201  90.9983102  68.6233151 127.6018843  90.9222213
  69.3347844 126.5218859  90.1352687  70.7656547 125.9710760  86.1000840
  71.0715424 125.1108124  85.8126755  71.4909152 126.5628380  85.8999834
  68.4710719 125.7709086  87.5229822  68.7512473 125.1032275  88.1490249
  69.2561326 125.9638182  87.0104486  72.6312871 127.9484899  86.3897793
  72.4337692 127.6399987  87.2741125  73.2412576 128.6746538  86.5195722
  68.3814250 124.9004624  84.0463411  67.6146646 124.3463111  84.1920093
  68.7924955 124.9726493  84.9077563   4.3548108  22.5209975  75.6676300
   4.9926518  22.4016723  74.9639640   4.2368951  23.4690819  75.7264252
   1.1637815  22.4737403  75.6037825   0.8256326  22.3578468  74.7158359
   2.0327583  22.0728568  75.5838831   1.6457598  23.6272255  81.5624030
   1.6346238  23.2325053  80.6904534   1.8078237  22.8938328  82.1557802
   2.6024189  27.9943847  66.9049180   1.9512169  28.5797928  66.5183194
   3.3968552  28.5250042  66.9644218   3.9089377  20.2461429  72.7429508
   4.6952466  19.8280852  72.3919925   4.1728081  21.1507521  72.9111156
   4.0799454  25.6834279  67.4418165   3.4445287  25.7568906  68.1539069
   3.7496861  26.2727878  66.7637244   9.3097804  20.1836662  73.6462486
  10.0422976  19.6135879  73.8800316   8.5537160  19.7958263  74.0868992
   0.9273924  22.6063904  70.8425829   0.5632131  22.0794525  71.5538750
   1.7841040  22.2162373  70.6692314   3.3254744  26.0970782  77.5053008
   3.0255467  26.9995821  77.3968815   2.9805803  25.8302966  78.3574161
   6.7251888  18.6153322  75.1850445   5.8168765  18.5468731  74.8909206
   6.6739483  19.0925267  76.0132271   8.5913534  16.8169761  76.9628319
   7.9487914  17.1102294  76.3168114   8.0868462  16.7022681  77.7681516
   6.2453698  20.5632934  67.6514178   7.1571554  20.7960321  67.4761876
   5.7363345  21.1469978  67.0889257   4.5294465  24.9857562  81.2875471
   4.9377821  24.5439972  80.5430103   3.8071727  24.4110189  81.5409664
   0.8825535  19.9230169  78.6609028   1.7286731  20.3469582  78.8043677
   0.8224173  19.2663793  79.3547591   4.8523280  25.5458753  75.0427760
   4.2232142  25.7104467  74.3403828   4.4648942  25.9600362  75.8138724
   8.7312512  26.4813190  72.3972123   8.0463550  26.8612092  71.8469157
   8.8156361  27.0908517  73.1304071   4.0324981  17.5834537  80.3190201
   3.7885913  18.3376598  79.7824477   4.3084911  17.9619885  81.1537449
   5.9863443  24.1273149  78.9967467   6.1980339  24.7704909  78.3201848
   5.9393192  23.2935466  78.5289397   3.5889672  16.7390970  75.9004039
   2.7274151  17.0372224  76.1920777   3.6152107  16.9561369  74.9685072
   7.1009271  27.0045105  77.1689824   7.9226715  26.6025292  76.8872506
   7.0971674  26.9013339  78.1205940  15.1915264  23.3483853  73.5174796
  14.4378973  22.7791251  73.3618800  15.3262806  23.3146518  74.4645431
   0.5813892  28.2197256  69.1929515   0.4459567  29.0648791  69.6214363
   1.1223705  28.4216533  68.4295449   2.2082369  28.8420822  83.3229857
   1.7646223  28.0557201  83.0050762   2.8699582  29.0299973  82.6573748
   4.3063607  29.1223622  81.3511259   4.2882082  29.9432503  80.8591528
   5.2283527  28.9977697  81.5761400   3.8956639  21.7336429  66.2300844
   3.3803262  22.5041033  66.4689231   3.6233947  21.0601565  66.8533905
   8.8690913  24.4868783  68.1654017   8.0920356  24.1479943  67.7209179
   9.5482394  24.4921406  67.4908982   3.6842942  19.6063521  68.0560625
   3.3793078  19.9209670  68.9070768   4.6373384  19.6844941  68.0987958
   2.1289374  25.7653744  69.7053579   1.6010735  25.0306504  69.3926816
   1.6276877  26.5428420  69.4593547   7.1082220  23.9602764  74.8220625
   6.4505894  24.6502026  74.9100754   7.9122619  24.3499196  75.1654612
   5.9187679  22.3147137  72.8724567   6.4319560  22.9477129  73.3746277
   6.5688903  21.7148333  72.5067927   3.1810053  32.2931461  65.6285238
   2.5071752  32.5963158  66.2370196   3.5675875  33.0960542  65.2790695
   2.3968509  19.7896593  75.1182908   1.4791071  20.0111540  74.9604596
   2.8128653  19.8642903  74.2594615   3.1803557  21.1888008  70.2485588
   3.9275376  21.7009406  69.9392710   3.4495147  20.8672061  71.1089981
   1.4530207  23.6846549  67.2312542   0.5441427  23.4005582  67.3285012
   1.4825291  24.1045628  66.3715849   6.6849475  27.2953139  71.0003710
   6.2311802  26.4544049  71.0568900   6.0543442  27.9314537  71.3378490
   5.6282394  18.2245125  72.2304377   4.8905151  17.7122511  72.5614620
   5.8809168  17.7845506  71.4187654   5.1282414  29.1329635  71.9353528
   5.4205388  29.6934692  71.2165893   5.6381035  29.4258196  72.6906687
   1.1506295  25.2255293  64.5700621   0.7125725  24.5091152  64.1106258
   1.8916736  25.4531408  64.0085712   3.5381673  20.3794054  79.9227610
   3.8931061  20.6065527  80.7822076   4.1853804  20.7112431  79.3004865
   9.2679410  23.5012490  70.6276939   9.1297309  23.6914086  69.6998128
   8.9115629  24.2631873  71.0844990   9.2948790  25.5689017  75.6388211
   9.7285296  25.4764306  76.4871265  10.0080370  25.5446517  75.0008227
   3.0276685  29.1691111  77.1721311   3.0813707  29.7382047  77.9399027
   2.1591466  29.3392996  76.8075348  10.1564339  25.6112718  78.1721096
  10.3500229  26.5158528  78.4180371  10.0564957  25.1520137  79.0059681
   5.2179448  25.7619460  83.7461977   5.0664954  25.5330012  82.8292060
   5.2084127  26.7190062  83.7593322   1.9864784  23.3351373  78.7308243
   2.9156844  23.4862533  78.5577210   1.5655814  23.4235394  77.8756890
   1.3801268  32.4611134  67.8432317   1.5553024  31.9899177  68.6577940
   0.6934056  33.0876900  68.0713578   2.3358331  26.7383640  73.8895619
   2.0008164  26.6984410  74.7853268   1.8362277  26.0728356  73.4166029
   5.2717523  24.0839674  64.1632678   4.6546693  23.3586503  64.0665731
   4.8034011  24.8449035  63.8199752   6.9271654  28.7938583  81.8238459
   6.8684201  28.1097803  81.1569042   7.3291173  29.5357573  81.3719085
   6.9289062  26.7578167  80.0552438   6.0415841  26.4204089  80.1778837
   7.4987613  26.0261198  80.2921204   3.5576645  16.4646019  73.1750708
   4.0545344  15.7115981  72.8551779   2.7863626  16.5010335  72.6093918
  11.4106402  22.1686384  74.8169000  11.3996279  23.0511100  74.4462933
  10.5423782  21.8157935  74.6223537   2.9188899  31.3166453  79.1771840
   3.6316871  31.9513918  79.1047742   2.4278927  31.4130319  78.3611842
   4.6406426  25.2217706  70.7489132   3.7062704  25.3419168  70.5793836
   4.8183094  24.3190173  70.4849142   8.0278977  21.0635025  71.2839166
   8.4939429  21.8963017  71.2099469   8.4786477  20.5980007  71.9884424
   6.0955208  27.4078846  68.2825318   6.3715052  27.2935441  69.1919192
   5.2259707  27.0096331  68.2437491   5.7702098  21.6205504  77.8229961
   5.1173548  21.8681411  77.1682414   6.1482478  20.8069642  77.4892439
   2.7309272  31.6565197  71.9258132   2.9131667  30.8386853  72.3885884
   3.5542258  31.8732889  71.4883022   3.0651438  30.5833382  69.1873180
   3.5939204  30.0725837  68.5743342   3.3279657  30.2675913  70.0518713
   1.8189671  22.3625315  84.3095998   1.1430308  22.2619444  84.9798374
   2.6417305  22.2064529  84.7731996   0.5612454  33.6692243  78.5453614
   1.1130762  33.8323864  79.3102700   0.9018648  34.2596680  77.8733639
   5.4123328  28.4953500  84.4002269   5.9563232  29.1083458  83.9057224
   4.8310173  29.0533078  84.9169282   3.6980841  31.6174218  75.5317297
   3.5731981  30.8163958  75.0228242   4.3559932  32.1120411  75.0431266
   5.7615750  29.4183238  77.1596847   4.8146085  29.2988589  77.0875173
   6.1098523  28.5305736  77.2423108   2.7662183  29.2135954  73.3601199
   2.6187145  28.2852662  73.5408769   3.5915677  29.2356045  72.8758274
   6.3696305  30.0364513  74.4466072   7.2942852  29.8307374  74.3090523
   6.2011608  29.7880914  75.3555413   6.1591621  30.5550181  69.8028163
   6.3328499  29.9896603  69.0502016   6.6520512  31.3551075  69.6207653
  12.0131012  23.3186603  71.4218463  12.4562158  22.5693929  71.0237586
  11.1357523  23.3096740  71.0392195   7.1466794  29.8716945  66.9025061
   7.8417698  30.4923638  67.1212376   7.4889944  29.0212296  67.1777439
   9.0458217  27.3216650  68.4312392   9.5709541  27.6603923  67.7061712
   8.9580569  26.3863666  68.2475527   0.7078265  31.2350724  80.5602269
   1.0165392  30.9899871  81.4324968   1.5053747  31.4397363  80.0721139
   8.7352123  27.9549554  83.7363590   7.9447666  27.9373693  83.1968089
   8.4985477  28.4937848  84.4912627   8.8549998  24.8042020  81.0496319
   8.9048003  24.6392028  81.9911841   8.7463921  23.9369280  80.6594199
   6.1453760  20.7872949  82.3655625   7.0463623  20.6479413  82.0739623
   6.2201735  20.9527403  83.3053803  10.3568195  27.2238962  81.2938340
  10.0653003  27.5868943  82.1301801   9.7440326  26.5105970  81.1151672
  11.5563877  24.7891842  73.8140910  12.3910768  25.2281646  73.9778471
  11.6923006  24.3130495  72.9949156   8.6055383  22.3471577  79.7618398
   9.0809504  22.5399223  78.9537250   7.6820948  22.4030762  79.5161782
   1.2381662  29.9778697  65.8100155   0.6655629  30.5968884  65.3570627
   1.8114456  30.5278058  66.3440077   7.3057052  19.2237337  77.9946704
   8.2574475  19.3235434  78.0158928   7.1360502  18.4315605  78.5044788
   5.3271431  16.3092920  78.1806105   4.7321363  16.5897933  77.4852593
   5.0421128  16.7986821  78.9522846   4.4578922  30.2615847  66.9408737
   5.3909595  30.1961408  67.1441613   4.3702135  31.0972114  66.4823270
   7.0866938  29.5781717  63.9012685   7.0080570  29.2441581  64.7948443
   7.9076605  30.0703485  63.9004157   9.7845130  22.4443456  77.1089003
   9.7521450  21.5059457  77.2948687  10.3945753  22.5227493  76.3754828
   1.6228461  21.3139509  63.1516207   2.5687565  21.1845717  63.2204625
   1.2442705  20.5754171  63.6285636   9.9339618  19.2354500  77.1547287
   9.4178667  18.4512956  76.9677215  10.8179567  18.9073216  77.3193806
  15.6021680  23.5059463  76.2495040  16.3325068  23.2444751  76.8102744
  14.9928625  22.7688185  76.2897108  13.6836977  21.6467326  76.8469491
  12.9570140  21.5123291  76.2385983  13.2684264  21.9544154  77.6526209
   1.5067153  25.3657256  84.6116864   2.4270163  25.5435855  84.8056911
   1.4716736  24.4213301  84.4596564   6.7302799  14.9704947  70.3718295
   6.1501468  15.6289751  69.9896347   6.4638731  14.1482292  69.9605712
   5.5127677  17.1305038  69.4274643   4.6253532  17.4154688  69.2094838
   5.9281666  16.9698801  68.5801920   8.8642213  17.1551559  73.1428982
   9.6402603  17.6448011  73.4153599   8.1390347  17.5809613  73.6000852
  11.3014772  17.8679178  74.2002923  11.8959262  17.6274914  73.4896231
  11.3741355  17.1486309  74.8276459   4.6570890  26.8949713  63.5222663
   5.3606740  27.0999715  64.1380319   3.9333539  27.4626474  63.7871747
   5.4868701  22.6459574  69.6424933   5.4303902  23.1028125  68.8032566
   6.0397043  21.8850258  69.4647776   9.2973506  18.4349306  70.4675053
   9.0410441  18.0345941  71.2983260   8.6726374  19.1493100  70.3425192
  13.6085844  21.1745379  72.9746344  13.0485402  21.2438568  73.7477906
  13.0029348  20.9986364  72.2545840   6.5657588  27.3332242  65.5721123
   7.4003192  26.9013440  65.3898598   6.4041931  27.1614255  66.4998018
   6.2203480  23.8364355  66.9377462   6.1652284  23.6708626  65.9965907
   5.5949535  24.5440388  67.0939652   3.5349387  26.1413267  86.2631025
   4.4040547  26.3153919  85.9017660   3.0556139  26.9607684  86.1406755
  15.1941863  37.8501893  75.6676300  15.8320273  37.7308640  74.9639640
  15.0762706  38.7982737  75.7264252  12.0031569  37.8029321  75.6037825
  11.6650081  37.6870386  74.7158359  12.8721337  37.4020486  75.5838831
   7.8618385  39.6564797  71.5934716   7.2983250  39.5654734  70.8251003
   7.7470780  38.8364702  72.0737208  12.4851352  38.9564173  81.5624030
  12.4739993  38.5616971  80.6904534  12.6471992  38.2230245  82.1557802
   5.4082817  41.1515989  74.4318936   6.2004109  40.8106814  74.0165235
   5.6479467  41.2610964  75.3521089  13.4417943  43.3235765  66.9049180
  12.7905923  43.9089845  66.5183194  14.2362306  43.8541960  66.9644218
   7.3673571  40.4124902  67.3036315   8.1404447  39.8653889  67.1649191
   7.7198969  41.2769152  67.5150776   9.2058613  41.7401284  80.5103214
   8.9148479  42.6446915  80.3949880   9.8415598  41.7817812  81.2247284
  10.1314820  39.1178133  77.1004574  10.7278392  38.8934155  76.3861537
  10.1889792  38.3762878  77.7030022   9.7039848  36.5717568  64.9354765
   9.9565369  36.0499090  64.1738228   8.7664408  36.4083714  65.0381448
  14.7483131  35.5753347  72.7429508  15.5346220  35.1572770  72.3919925
  15.0121836  36.4799439  72.9111156  14.9193209  41.0126197  67.4418165
  14.2839042  41.0860823  68.1539069  14.5890615  41.6019796  66.7637244
  20.1491558  35.5128580  73.6462486  20.8816730  34.9427797  73.8800316
  19.3930914  35.1250180  74.0868992   9.4236137  38.4745674  67.1379140
   9.3072395  37.7990578  67.8060224   9.5338397  37.9878048  66.3211293
  11.7667678  37.9355821  70.8425829  11.4025885  37.4086442  71.5538750
  12.6234794  37.5454290  70.6692314  17.6716979  29.2250154  78.1057095
  17.3400304  30.0945565  77.8818310  17.0762592  28.9086438  78.7851125
  11.4073165  32.9645721  65.8387177  11.5747567  33.8325957  66.2057648
  11.2170334  33.1273003  64.9148467  14.1648498  41.4262700  77.5053008
  13.8649221  42.3287739  77.3968815  13.8199558  41.1594883  78.3574161
   7.6160980  37.8776497  73.5389712   6.6911476  37.7452711  73.7467404
   7.8645393  38.6570716  74.0359655  17.5645642  33.9445240  75.1850445
  16.6562519  33.8760649  74.8909206  17.5133238  34.4217185  76.0132271
  11.3862386  35.4203379  66.8233844  11.2662011  35.8660429  67.6619325
  10.6914974  35.7688696  66.2647382   4.9769791  37.5209770  74.3733501
   5.1062172  37.7744249  75.2872913   4.2967242  38.1137478  74.0538156
   9.1469278  48.1907020  70.4723975   9.0693308  49.1414845  70.5512456
   8.5430922  47.8452893  71.1298902  11.6386508  35.3634886  83.1285342
  10.8619842  35.9228806  83.1188207  12.2777071  35.8491669  83.6500212
  19.4307288  32.1461679  76.9628319  18.7881669  32.4394212  76.3168114
  18.9262217  32.0314599  77.7681516  17.0847452  35.8924852  67.6514178
  17.9965308  36.1252238  67.4761876  16.5757099  36.4761896  67.0889257
   9.8932880  38.1720339  82.6903309  10.6347565  38.7105383  82.4138133
   9.1869866  38.7986628  82.8474861  15.3688220  40.3149480  81.2875471
  15.7771576  39.8731890  80.5430103  14.6465481  39.7402107  81.5409664
  11.7219290  35.2522086  78.6609028  12.5680485  35.6761500  78.8043677
  11.6617928  34.5955711  79.3547591  15.6917034  40.8750670  75.0427760
  15.0625897  41.0396384  74.3403828  15.3042697  41.2892280  75.8138724
  19.5706266  41.8105108  72.3972123  18.8857304  42.1904009  71.8469157
  19.6550116  42.4200435  73.1304071  14.8718735  32.9126455  80.3190201
  14.6279667  33.6668515  79.7824477  15.1478666  33.2911802  81.1537449
  16.8257198  39.4565067  78.9967467  17.0374093  40.0996827  78.3201848
  16.7786946  38.6227384  78.5289397  14.4283427  32.0682888  75.9004039
  13.5667906  32.3664141  76.1920777  14.4545862  32.2853287  74.9685072
  11.2444996  40.6125078  72.3077845  11.7083342  40.8912781  71.5182467
  10.9801794  39.7108523  72.1250936   8.1369077  40.1596560  75.2457608
   8.7070434  40.5883828  74.6075093   8.7277189  39.8779145  75.9441794
  10.1813882  36.7348231  69.1167410  10.8837926  37.1869274  69.5841336
   9.8494511  36.0932050  69.7447303   8.6294244  35.3259987  83.4918619
   7.9992904  36.0076268  83.7254016   8.5230332  35.2143069  82.5471758
   3.9239216  34.9931783  74.4184544   3.1338270  35.2489312  73.9424654
   4.4150464  35.8080121  74.5236584  17.9403026  42.3337022  77.1689824
  18.7620470  41.9317210  76.8872506  17.9365429  42.2305257  78.1205940
   5.8753962  35.3576363  71.3768020   5.0785125  35.4695057  71.8951516
   5.6479554  35.6963015  70.5108911  11.7059629  41.8821066  79.3250535
  11.7704062  42.3441473  80.1608707  10.9970553  41.2518431  79.4532845
   2.2076919  35.2462274  76.8499534   2.4584958  36.1309284  77.1157110
   2.7436468  35.0666875  76.0774626  26.0309019  38.6775771  73.5174796
  25.2772727  38.1083169  73.3618800  26.1656560  38.6438435  74.4645431
  11.4207647  43.5489173  69.1929515  11.2853322  44.3940709  69.6214363
  11.9617459  43.7508451  68.4295449   7.9074987  29.6280753  85.8543870
   7.5141932  29.0746952  86.5291515   8.7241127  29.9391332  86.2450388
   4.8737044  41.0664611  69.7657440   5.3861565  41.8607862  69.9163005
   5.5259757  40.3690902  69.6991042   6.6831929  44.1830368  71.8480193
   6.8598557  45.1048332  71.6601177   7.4788763  43.8688787  72.2774573
  10.8242948  31.0438632  83.4464127  11.5652661  31.6445785  83.3668589
  11.0560870  30.3016270  82.8882170   5.9684286  36.2294999  81.7242357
   5.8537801  35.3280257  82.0249456   5.1128803  36.4758696  81.3727173
  13.0476123  44.1712740  83.3229857  12.6039978  43.3849118  83.0050762
  13.7093337  44.3591890  82.6573748   7.8063245  45.7008541  77.8490536
   8.3570670  45.5725605  77.0767530   6.9674720  46.0003430  77.4985429
  15.1457361  44.4515540  81.3511259  15.1275837  45.2724421  80.8591528
  16.0677281  44.3269615  81.5761400  11.6030416  41.9659669  82.1934767
  12.1358752  41.2047957  81.9634075  11.0744497  41.6733321  82.9358921
  14.7700111  27.0719735  77.7228409  14.4264380  27.9621377  77.6467519
  15.1379073  26.8821393  76.8597994   2.8385961  39.3953266  70.5417011
   3.6761183  39.8050274  70.3250719   3.0164229  38.4552708  70.5117205
  14.7350393  37.0628346  66.2300844  14.2197017  37.8332951  66.4689231
  14.4627702  36.3893482  66.8533905  12.3197504  31.9078047  71.2886082
  11.4639101  31.5184897  71.1091721  12.7324456  31.9870008  70.4285868
  13.8496651  29.4424390  75.6877642  13.3461447  29.4054525  74.8745447
  14.1427258  30.3517133  75.7474299  10.0939537  29.5263120  74.6943824
  10.9592534  29.3305929  74.3349713  10.1617046  29.2973472  75.6213180
  19.7084667  39.8160701  68.1654017  18.9314110  39.4771860  67.7209179
  20.3876148  39.8213324  67.4908982  14.5236696  34.9355438  68.0560625
  14.2186832  35.2501588  68.9070768  15.4767139  35.0136858  68.0987958
  12.9683128  41.0945662  69.7053579  12.4404490  40.3598421  69.3926816
  12.4670631  41.8720338  69.4593547  17.9475974  39.2894682  74.8220625
  17.2899649  39.9793944  74.9100754  18.7516374  39.6791114  75.1654612
   7.7001856  31.7565328  72.0660190   8.2745608  31.5340509  71.3333383
   8.2872838  31.8254022  72.8188792  16.7581433  37.6439055  72.8724567
  17.2713315  38.2769047  73.3746277  17.4082657  37.0440250  72.5067927
   8.0271443  33.7869789  66.0856076   7.1908755  34.1244476  66.4065350
   7.8876213  33.6518769  65.1483213  10.0024524  28.6306577  70.7935260
   9.3488936  28.3155594  70.1691875   9.9604998  28.0082317  71.5195083
  11.1135728  38.9125872  62.7088552  10.2062790  38.6815125  62.9079701
  11.6106760  38.1163491  62.8962534  14.0203807  47.6223379  65.6285238
  13.3465506  47.9255076  66.2370196  14.4069629  48.4252459  65.2790695
  13.2362264  35.1188510  75.1182908  12.3184825  35.3403457  74.9604596
  13.6522408  35.1934821  74.2594615  14.0197312  36.5179926  70.2485588
  14.7669131  37.0301323  69.9392710  14.2888901  36.1963979  71.1089981
  12.2923962  39.0138467  67.2312542  11.3835181  38.7297500  67.3285012
  12.3219046  39.4337545  66.3715849  17.5243229  42.6245056  71.0003710
  17.0705556  41.7835966  71.0568900  16.8937196  43.2606455  71.3378490
  16.4676149  33.5537042  72.2304377  15.7298906  33.0414429  72.5614620
  16.7202922  33.1137424  71.4187654  15.9676169  44.4621553  71.9353528
  16.2599143  45.0226610  71.2165893  16.4774789  44.7550114  72.6906687
  16.5687776  26.3313294  72.8246146  16.8746653  25.4710658  72.5372061
  17.2940381  26.9230915  72.6245140   2.8612132  36.7343981  71.2127744
   2.6636532  36.1413342  70.4878811   2.3058796  36.4296191  71.9303683
  10.8408856  36.6267087  73.3322337  10.8957466  35.6740924  73.2564814
  10.0300058  36.7826527  73.8163636  11.9900050  40.5547210  64.5700621
  11.5519480  39.8383069  64.1106258  12.7310491  40.7823325  64.0085712
   8.7801216  35.2444147  71.0912716   7.9669081  35.5438318  71.4977908
   9.2760210  34.8499836  71.8087199  10.9309794  45.2401904  73.0246981
  10.8885973  45.4662750  72.0955513  11.8472493  45.0065279  73.1732782
  14.3775428  35.7085972  79.9227610  14.7324815  35.9357445  80.7822076
  15.0247559  36.0404348  79.3004865  20.1073164  38.8304408  70.6276939
  19.9691063  39.0206003  69.6998128  19.7509383  39.5923790  71.0844990
   8.2715291  32.8162503  76.7073951   8.9114670  32.6751262  76.0096915
   7.4392821  32.5297016  76.3312553  20.1342544  40.8980935  75.6388211
  20.5679051  40.8056224  76.4871265  20.8474125  40.8738435  75.0008227
   9.0475595  42.1164933  72.8208944   9.8416193  41.6215253  72.6191519
   8.3367287  41.5882796  72.4576649  13.8670439  44.4983029  77.1721311
  13.9207461  45.0673965  77.9399027  12.9985220  44.6684914  76.8075348
   5.3558358  36.2608015  68.8968696   4.4255946  36.1992470  69.1138659
   5.4515830  35.7383968  68.1005338   5.2743907  32.7862828  71.4846938
   5.5350724  33.7008161  71.3756098   6.0961079  32.3187270  71.6343551
   6.7468832  34.2000585  78.6545763   7.4191886  33.9917947  78.0058411
   5.9198619  34.0022671  78.2150995  20.9958094  40.9404635  78.1721096
  21.1893984  41.8450446  78.4180371  20.8958712  40.4812054  79.0059681
  12.6494404  30.8262526  80.6711423  12.0022319  31.5252475  80.5775900
  13.4195420  31.2598670  81.0387672  16.0573202  41.0911378  83.7461977
  15.9058709  40.8621930  82.8292060  16.0477882  42.0481979  83.7593322
  12.8258539  38.6643291  78.7308243  13.7550599  38.8154450  78.5577210
  12.4049569  38.7527311  77.8756890  11.6246871  42.6893955  76.5006781
  11.4857956  42.3212739  77.3732719  10.8361467  43.2041595  76.3290739
  12.2195022  47.7903052  67.8432317  12.3946778  47.3191095  68.6577940
  11.5327811  48.4168818  68.0713578  13.1752086  42.0675558  73.8895619
  12.8401918  42.0276328  74.7853268  12.6756031  41.4020274  73.4166029
   7.1496330  37.4743188  79.4148200   7.0116128  36.7423427  80.0159739
   8.0601253  37.3852088  79.1332387  16.1111277  39.4131592  64.1632678
  15.4940448  38.6878420  64.0665731  15.6427766  40.1740952  63.8199752
   9.7778630  37.1863147  78.9031879  10.4878249  36.5456339  78.8618498
   9.7347938  37.4376042  79.8258060  17.7665409  44.1230500  81.8238459
  17.7077955  43.4389721  81.1569042  18.1684927  44.8649490  81.3719085
   8.4907564  34.1728365  80.7227519   7.9544921  33.7219103  81.3749115
   7.9024273  34.3074274  79.9797983   6.7856108  50.9392414  74.6172177
   7.0252706  51.5710938  75.2951196   5.9425304  50.5880454  74.9037537
   7.9009823  33.6317016  63.2853982   7.0239290  33.5105817  62.9216229
   8.3767576  32.8403095  63.0332871  17.7682816  42.0870084  80.0552438
  16.8809595  41.7496006  80.1778837  18.3381367  41.3553116  80.2921204
   4.2246686  33.3084373  77.8080513   4.1404874  32.7010042  77.0730923
   3.4029392  33.7993391  77.8090010  11.2983970  46.7471537  77.0213681
  11.2254141  47.5526508  77.5332986  10.8561363  46.9463503  76.1961703
  11.0873749  45.9843307  70.5316503  10.3041271  46.5264987  70.6254728
  11.7866494  46.5017286  70.9310744  14.3970399  31.7937936  73.1750708
  14.8939099  31.0407899  72.8551779  13.6257381  31.8302253  72.6093918
  22.2500157  37.4978302  74.8169000  22.2390033  38.3803017  74.4462933
  21.3817536  37.1449853  74.6223537  13.7582653  46.6458371  79.1771840
  14.4710625  47.2805836  79.1047742  13.2672682  46.7422237  78.3611842
  15.4800180  40.5509623  70.7489132  14.5456459  40.6711086  70.5793836
  15.6576849  39.6482090  70.4849142  10.9805368  33.9355319  72.9022393
  10.6103156  33.3826360  73.5903299  11.4764461  33.3313453  72.3497393
  18.8672731  36.3926943  71.2839166  19.3333184  37.2254934  71.2099469
  19.3180232  35.9271924  71.9884424   8.8094567  44.3952814  79.9977411
   9.5104026  45.0289297  80.1506805   8.3389682  44.7367546  79.2373050
  16.9348963  42.7370764  68.2825318  17.2108806  42.6227359  69.1919192
  16.0653461  42.3388249  68.2437491  16.8389394  28.7607530  75.3230067
  15.9252474  28.9911757  75.4912274  17.2682496  28.8445974  76.1744100
  16.6095853  36.9497422  77.8229961  15.9567303  37.1973329  77.1682414
  16.9876233  36.1361560  77.4892439  13.5703027  46.9857115  71.9258132
  13.7525421  46.1678771  72.3885884  14.3936013  47.2024807  71.4883022
  13.9045192  45.9125300  69.1873180  14.4332958  45.4017755  68.5743342
  14.1673412  45.5967830  70.0518713  12.6583426  37.6917233  84.3095998
  11.9824063  37.5911362  84.9798374  13.4811060  37.5356447  84.7731996
   4.4062285  43.9289169  76.9308514   4.9915722  43.1832857  77.0636418
   4.2087123  44.2393126  77.8145178   7.2600940  46.9640417  71.9470956
   6.5911315  47.4486544  71.4634996   7.1213810  47.2109637  72.8614335
  11.4006209  48.9984160  78.5453614  11.9524517  49.1615782  79.3102700
  11.7412402  49.5888598  77.8733639   6.3770702  31.3459310  79.1475499
   6.4412028  32.2074141  78.7352897   6.3137822  30.7333312  78.4147858
   5.8522974  33.4182443  82.7948533   6.4795013  33.0359520  83.4086058
   4.9950893  33.1996644  83.1604226  16.2517083  43.8245418  84.4002269
  16.7956987  44.4375376  83.9057224  15.6703928  44.3824996  84.9169282
   2.6288517  35.2258872  68.7266888   2.9241958  34.3169550  68.6733942
   1.7276553  35.2046611  68.4047891  14.5374596  46.9466136  75.5317297
  14.4125735  46.1455876  75.0228242  15.1953687  47.4412329  75.0431266
   6.1582764  33.3014868  74.7094437   5.4369350  33.9150836  74.5701910
   6.9476020  33.8372633  74.6311083  16.6009504  44.7475156  77.1596847
  15.6539840  44.6280507  77.0875173  16.9492277  43.8597654  77.2423108
   8.9609078  30.6369295  80.9835089   9.4843479  30.8831591  81.7461398
   8.7421411  31.4689330  80.5638226   4.3576359  32.9072969  68.8506213
   4.0289065  32.0270348  68.6681319   4.7115729  32.8520638  69.7382603
  13.6055938  44.5427872  73.3601199  13.4580900  43.6144579  73.5408769
  14.4309431  44.5647963  72.8758274   7.4718182  33.1945939  69.2181691
   7.8114254  33.7231860  68.4960299   7.9190302  33.5326345  69.9940258
  17.2090059  45.3656431  74.4466072  18.1336607  45.1599292  74.3090523
  17.0405363  45.1172832  75.3555413  10.1661623  31.5782990  78.6684759
   9.8258443  30.7790803  79.0705439   9.4600629  31.8784701  78.0961592
  10.8178094  28.6632302  77.1212082  11.6404164  28.1892780  76.9990972
  11.0616158  29.4422786  77.6210768   9.4586329  31.6920561  67.4174984
  10.1794691  32.0701814  66.9138701   8.8351633  32.4109438  67.5209962
  13.6017452  32.3965710  68.3533316  13.8181066  33.2790348  68.0522144
  13.1211519  32.0051923  67.6238958   8.3416673  35.3551423  74.9304061
   8.1961254  35.6691726  75.8228342   7.8641877  35.9736323  74.3774959
  10.2013056  32.3453971  74.9784950  10.1874625  31.4495064  74.6417248
  10.9185484  32.3524635  75.6123236  12.0539187  32.7791311  77.0238078
  11.7956965  33.7008382  77.0222408  11.5224227  32.3821746  77.7138542
  16.9985376  45.8842098  69.8028163  17.1722253  45.3188521  69.0502016
  17.4914267  46.6842993  69.6207653   2.8162335  37.8956767  77.8691722
   2.2715803  38.6716575  78.0011996   3.6941685  38.2427572  77.7110843
   9.6049952  31.2268351  70.2472520   9.7265863  30.2984997  70.4463408
   9.3151994  31.2407037  69.3350836  12.4741142  28.9123262  73.3839240
  12.4962839  28.9762595  72.4291220  12.8909201  28.0727770  73.5779746
  22.8524767  38.6478521  71.4218463  23.2955913  37.8985846  71.0237586
  21.9751277  38.6388658  71.0392195  17.9860548  45.2008863  66.9025061
  18.6811453  45.8215555  67.1212376  18.3283698  44.3504214  67.1777439
   3.6028357  37.0226664  80.7621879   2.8610093  37.1709299  81.3486509
   3.2821102  37.2834929  79.8988628  19.8851971  42.6508568  68.4312392
  20.4103295  42.9895841  67.7061712  19.7974324  41.7155583  68.2475527
  11.5472020  46.5642642  80.5602269  11.8559146  46.3191789  81.4324968
  12.3447502  46.7689280  80.0721139  11.5692632  48.7180551  72.7907645
  11.1297622  48.2256930  73.4840502  12.3200749  48.1753519  72.5499721
   4.0484971  44.9092092  72.7932273   4.8742991  44.6095864  72.4130917
   3.6979023  44.1399715  73.2422062   9.0166504  44.2618561  74.8629947
   8.3946513  43.5989266  74.5632175   9.6871371  44.2879692  74.1803595
   2.2493576  42.8278419  73.7521207   1.4125484  42.4000593  73.5705208
   2.2217221  43.0210862  74.6891998   9.0891032  32.7400349  84.4562453
   9.1379187  33.6162471  84.0740223   9.6313546  32.1977742  83.8834096
  19.5745877  43.2841472  83.7363590  18.7841421  43.2665611  83.1968089
  19.3379232  43.8229765  84.4912627  19.6943752  40.1333938  81.0496319
  19.7441757  39.9683946  81.9911841  19.5857676  39.2661197  80.6594199
   8.5780011  42.8122484  68.3388408   8.7268131  43.4957948  67.6855080
   9.3846454  42.7927574  68.8537863  16.9847515  36.1164866  82.3655625
  17.8857377  35.9771331  82.0739623  17.0595489  36.2819321  83.3053803
  11.3190320  33.4931721  81.2108812  10.4493629  33.7865287  80.9391400
  11.5549800  34.0772166  81.9316075  21.1961949  42.5530880  81.2938340
  20.9046757  42.9160860  82.1301801  20.5834080  41.8397888  81.1151672
  22.3957631  40.1183759  73.8140910  23.2304523  40.5573564  73.9778471
  22.5316760  39.6422413  72.9949156  19.4449137  37.6763494  79.7618398
  19.9203259  37.8691141  78.9537250  18.5214703  37.7322680  79.5161782
   6.3332644  38.8387661  69.3449476   6.0878686  37.9349991  69.5429687
   6.5028559  38.8404812  68.4028954  14.0229354  29.7111338  78.7274232
  14.5411298  30.4472365  78.4020721  13.6684487  30.0175331  79.5620991
   5.6028292  34.5716019  66.8435638   4.9097536  34.6460374  66.1875674
   5.3580043  33.8076363  67.3657155  14.2741948  26.1311620  74.2475129
  14.5543702  25.4634809  74.8735555  15.0592555  26.3240716  73.7349792
  12.0775417  45.3070614  65.8100155  11.5049384  45.9260801  65.3570627
  12.6508210  45.8569976  66.3440077  18.1450806  34.5529254  77.9946704
  19.0968229  34.6527352  78.0158928  17.9754257  33.7607523  78.5044788
  16.1665186  31.6384838  78.1806105  15.5715118  31.9189850  77.4852593
  15.8814883  32.1278739  78.9522846  15.2972676  45.5907764  66.9408737
  16.2303349  45.5253326  67.1441613  15.2095889  46.4264031  66.4823270
  17.9260693  44.9073635  63.9012685  17.8474325  44.5733498  64.7948443
  18.7470360  45.3995403  63.9004157  20.6238884  37.7735374  77.1089003
  20.5915204  36.8351375  77.2948687  21.2339508  37.8519411  76.3754828
  12.4622215  36.6431427  63.1516207  13.4081320  36.5137635  63.2204625
  12.0836460  35.9046089  63.6285636  20.7733373  34.5646418  77.1547287
  20.2572421  33.7804874  76.9677215  21.6573321  34.2365134  77.3193806
  18.4344100  28.3087433  73.1143099  18.2368921  28.0002521  73.9986431
  19.0443805  29.0349072  73.2441029  26.4415434  38.8351381  76.2495040
  27.1718822  38.5736669  76.8102744  25.8322379  38.0980103  76.2897108
  24.5230731  36.9759244  76.8469491  23.7963895  36.8415208  76.2385983
  24.1078018  37.2836072  77.6526209  12.3460908  40.6949173  84.6116864
  13.2663917  40.8727772  84.8056911  12.3110491  39.7505219  84.4596564
  10.6465132  34.5681403  63.0871093   9.7396588  34.2714516  63.1633806
  10.9241113  34.2711222  62.2205379   1.5643073  35.8887767  73.5370139
   1.2445857  35.0353075  73.2444513   1.0176501  36.1036345  74.2928106
   5.3422980  38.6050208  77.2539646   5.5608990  39.5367316  77.2727679
   5.7548754  38.2458182  78.0394449  12.2627198  29.1118293  69.2415334
  11.4527926  28.7665378  69.6170580  12.9511615  28.8025837  69.8302946
  14.1917746  28.1896340  70.8639631  14.7448785  28.6091793  71.5229654
  14.4287833  27.2632088  70.9062587  10.2150845  34.1783414  86.6442394
  10.1147572  35.1277771  86.5754486   9.9972387  33.8501653  85.7718465
   9.4163917  31.4268339  63.2283072  10.2783081  31.7523237  63.4878889
   9.6014261  30.6399835  62.7156138   1.4331333  39.5090678  75.5063261
   0.7394804  39.0944631  74.9933215   2.1804324  39.5511215  74.9096680
  17.5696553  30.2996865  70.3718295  16.9895222  30.9581669  69.9896347
  17.3032486  29.4774210  69.9605712  16.0200120  29.7001923  72.5739615
  16.5199898  29.8118457  71.7653934  16.6635728  29.3962976  73.2140424
  10.0782115  37.6080552  85.4607456   9.5949197  38.4080913  85.6671345
  10.1643055  37.6188497  84.5074900   3.3468075  39.4408932  73.3829276
   3.3238763  39.5396619  72.4311159   3.6568712  40.2874083  73.7046442
   6.0055453  41.4985087  77.4975890   6.9598707  41.4669029  77.4305821
   5.8067977  41.0375711  78.3126116   6.5954835  40.0686203  80.0646688
   7.4147724  40.5630282  80.0881525   6.8691643  39.1518171  80.0364255
  16.3521431  32.4596956  69.4274643  15.4647286  32.7446606  69.2094838
  16.7675420  32.2990719  68.5801920  19.7035967  32.4843476  73.1428982
  20.4796358  32.9739929  73.4153599  18.9784102  32.9101531  73.6000852
  22.1408526  33.1971096  74.2002923  22.7353017  32.9566832  73.4896231
  22.2135110  32.4778226  74.8276459   4.3605682  47.0404707  74.5146088
   4.2260150  46.2805108  73.9484086   3.9437744  47.7645607  74.0474877
  15.4964645  42.2241630  63.5222663  16.2000495  42.4291633  64.1380319
  14.7727294  42.7918392  63.7871747  16.3262455  37.9751491  69.6424933
  16.2697656  38.4320043  68.8032566  16.8790798  37.2142176  69.4647776
  20.1367261  33.7641223  70.4675053  19.8804195  33.3637859  71.2983260
  19.5120129  34.4785017  70.3425192  24.4479599  36.5037297  72.9746344
  23.8879157  36.5730486  73.7477906  23.8423102  36.3278281  72.2545840
   7.5174808  47.9374024  74.7264530   7.4007192  48.8819456  74.6243221
   6.6967254  47.6347585  75.1150330  17.4051342  42.6624159  65.5721123
  18.2396946  42.2305358  65.3898598  17.2435685  42.4906173  66.4998018
  17.0597234  39.1656273  66.9377462  17.0046038  39.0000544  65.9965907
  16.4343290  39.8732306  67.0939652   1.8489749  34.4024337  80.7638885
   2.4948613  33.8923291  81.2526110   1.6406900  35.1393019  81.3382310
  14.3743142  41.4705185  86.2631025  15.2434301  41.6445837  85.9017660
  13.8949893  42.2899601  86.1406755  10.3693360  28.6664382  66.5162781
  10.3572030  29.6106222  66.6731052  11.2616782  28.4834527  66.2222242
   8.5429322  48.5902286  77.9420459   9.4456568  48.6225896  78.2586954
   8.3166692  47.6602737  77.9566795  10.2982924  47.3433272  74.6030537
   9.3478555  47.3435134  74.4894910  10.6015410  46.5966007  74.0866572
  14.1845479  25.2607158  70.7708718  13.4177875  24.7065645  70.9165400
  14.5956184  25.3329027  71.6322869   6.1887240  31.5491954  84.8613899
   7.0518702  31.1928759  85.0717223   5.6152651  31.2105849  85.5489303
  26.0335617  53.1793811  75.6676300  26.6714027  53.0600558  74.9639640
  25.9156460  54.1274654  75.7264252  22.8425324  53.1321239  75.6037825
  22.5043835  53.0162303  74.7158359  23.7115092  52.7312404  75.5838831
  18.7012139  54.9856715  71.5934716  18.1377004  54.8946652  70.8251003
  18.5864534  54.1656619  72.0737208  23.3245107  54.2856090  81.5624030
  23.3133747  53.8908889  80.6904534  23.4865746  53.5522163  82.1557802
  16.2476571  56.4807907  74.4318936  17.0397863  56.1398731  74.0165235
  16.4873221  56.5902882  75.3521089  24.2811698  58.6527683  66.9049180
  23.6299678  59.2381763  66.5183194  25.0756061  59.1833878  66.9644218
  18.2067325  55.7416820  67.3036315  18.9798201  55.1945807  67.1649191
  18.5592724  56.6061069  67.5150776  20.0452368  57.0693202  80.5103214
  19.7542234  57.9738833  80.3949880  20.6809352  57.1109730  81.2247284
  20.9708575  54.4470051  77.1004574  21.5672147  54.2226073  76.3861537
  21.0283546  53.7054796  77.7030022  20.5433603  51.9009486  64.9354765
  20.7959124  51.3791007  64.1738228  19.6058162  51.7375631  65.0381448
  25.5876886  50.9045264  72.7429508  26.3739975  50.4864688  72.3919925
  25.8515590  51.8091357  72.9111156  25.7586963  56.3418115  67.4418165
  25.1232796  56.4152741  68.1539069  25.4284370  56.9311713  66.7637244
  30.9885313  50.8420498  73.6462486  31.7210485  50.2719714  73.8800316
  30.2324669  50.4542098  74.0868992  20.2629892  53.8037592  67.1379140
  20.1466150  53.1282495  67.8060224  20.3732152  53.3169966  66.3211293
  22.6061433  53.2647739  70.8425829  22.2419640  52.7378360  71.5538750
  23.4628549  52.8746208  70.6692314  28.5110733  44.5542072  78.1057095
  28.1794058  45.4237483  77.8818310  27.9156347  44.2378356  78.7851125
  22.2466920  48.2937639  65.8387177  22.4141322  49.1617875  66.2057648
  22.0564089  48.4564920  64.9148467  25.0042253  56.7554618  77.5053008
  24.7042976  57.6579656  77.3968815  24.6593312  56.4886801  78.3574161
  18.4554734  53.2068414  73.5389712  17.5305231  53.0744629  73.7467404
  18.7039147  53.9862634  74.0359655  28.4039397  49.2737158  75.1850445
  27.4956274  49.2052566  74.8909206  28.3526992  49.7509103  76.0132271
  22.2256140  50.7495296  66.8233844  22.1055766  51.1952347  67.6619325
  21.5308729  51.0980614  66.2647382  15.8163545  52.8501688  74.3733501
  15.9455926  53.1036167  75.2872913  15.1360997  53.4429396  74.0538156
  19.9863033  63.5198938  70.4723975  19.9087062  64.4706763  70.5512456
  19.3824676  63.1744810  71.1298902  22.4780262  50.6926803  83.1285342
  21.7013596  51.2520724  83.1188207  23.1170825  51.1783586  83.6500212
  30.2701043  47.4753596  76.9628319  29.6275423  47.7686129  76.3168114
  29.7655971  47.3606517  77.7681516  27.9241207  51.2216769  67.6514178
  28.8359063  51.4544156  67.4761876  27.4150854  51.8053814  67.0889257
  20.7326635  53.5012257  82.6903309  21.4741319  54.0397301  82.4138133
  20.0263620  54.1278546  82.8474861  26.2081974  55.6441397  81.2875471
  26.6165330  55.2023808  80.5430103  25.4859236  55.0694025  81.5409664
  22.5613044  50.5814004  78.6609028  23.4074240  51.0053418  78.8043677
  22.5011682  49.9247628  79.3547591  26.5310789  56.2042588  75.0427760
  25.9019651  56.3688302  74.3403828  26.1436451  56.6184197  75.8138724
  30.4100021  57.1397026  72.3972123  29.7251059  57.5195927  71.8469157
  30.4943870  57.7492352  73.1304071  25.7112490  48.2418372  80.3190201
  25.4673422  48.9960433  79.7824477  25.9872420  48.6203720  81.1537449
  27.6650952  54.7856985  78.9967467  27.8767848  55.4288745  78.3201848
  27.6180701  53.9519301  78.5289397  25.2677181  47.3974805  75.9004039
  24.4061660  47.6956059  76.1920777  25.2939616  47.6145204  74.9685072
  22.0838751  55.9416996  72.3077845  22.5477096  56.2204699  71.5182467
  21.8195549  55.0400441  72.1250936  18.9762832  55.4888478  75.2457608
  19.5464189  55.9175746  74.6075093  19.5670944  55.2071062  75.9441794
  21.0207637  52.0640148  69.1167410  21.7231680  52.5161192  69.5841336
  20.6888265  51.4223967  69.7447303  19.4687998  50.6551905  83.4918619
  18.8386659  51.3368186  83.7254016  19.3624086  50.5434987  82.5471758
  14.7632971  50.3223701  74.4184544  13.9732025  50.5781230  73.9424654
  15.2544218  51.1372039  74.5236584  28.7796780  57.6628940  77.1689824
  29.6014224  57.2609127  76.8872506  28.7759183  57.5597174  78.1205940
  16.7147716  50.6868280  71.3768020  15.9178879  50.7986974  71.8951516
  16.4873308  51.0254932  70.5108911  22.5453384  57.2112983  79.3250535
  22.6097816  57.6733391  80.1608707  21.8364308  56.5810348  79.4532845
  13.0470674  50.5754191  76.8499534  13.2978712  51.4601201  77.1157110
  13.5830222  50.3958793  76.0774626  22.2601401  58.8781091  69.1929515
  22.1247076  59.7232627  69.6214363  22.8011214  59.0800369  68.4295449
  18.7468741  44.9572671  85.8543870  18.3535687  44.4038869  86.5291515
  19.5634881  45.2683249  86.2450388  15.7130799  56.3956529  69.7657440
  16.2255319  57.1899779  69.9163005  16.3653512  55.6982819  69.6991042
  17.5225684  59.5122285  71.8480193  17.6992312  60.4340250  71.6601177
  18.3182517  59.1980704  72.2774573  21.6636702  46.3730550  83.4464127
  22.4046415  46.9737703  83.3668589  21.8954625  45.6308188  82.8882170
  16.8078040  51.5586917  81.7242357  16.6931555  50.6572174  82.0249456
  15.9522558  51.8050614  81.3727173  23.8869878  59.5004657  83.3229857
  23.4433732  58.7141036  83.0050762  24.5487091  59.6883808  82.6573748
  18.6456999  61.0300459  77.8490536  19.1964424  60.9017522  77.0767530
  17.8068475  61.3295348  77.4985429  25.9851116  59.7807457  81.3511259
  25.9669591  60.6016338  80.8591528  26.9071036  59.6561533  81.5761400
  22.4424170  57.2951587  82.1934767  22.9752507  56.5339875  81.9634075
  21.9138251  57.0025239  82.9358921  25.6093865  42.4011653  77.7228409
  25.2658134  43.2913295  77.6467519  25.9772828  42.2113310  76.8597994
  13.6779716  54.7245183  70.5417011  14.5154938  55.1342192  70.3250719
  13.8557983  53.7844625  70.5117205  25.5744148  52.3920264  66.2300844
  25.0590771  53.1624869  66.4689231  25.3021456  51.7185400  66.8533905
  23.1591259  47.2369965  71.2886082  22.3032855  46.8476815  71.1091721
  23.5718211  47.3161926  70.4285868  24.6890405  44.7716308  75.6877642
  24.1855201  44.7346443  74.8745447  24.9821012  45.6809051  75.7474299
  20.9333291  44.8555038  74.6943824  21.7986288  44.6597846  74.3349713
  21.0010800  44.6265389  75.6213180  25.3630451  50.2647356  68.0560625
  25.0580587  50.5793505  68.9070768  26.3160893  50.3428776  68.0987958
  23.8076883  56.4237579  69.7053579  23.2798244  55.6890339  69.3926816
  23.3064386  57.2012256  69.4593547  28.7869729  54.6186600  74.8220625
  28.1293403  55.3085861  74.9100754  29.5910128  55.0083032  75.1654612
  18.5395610  47.0857246  72.0660190  19.1139362  46.8632427  71.3333383
  19.1266593  47.1545940  72.8188792  27.5975188  52.9730973  72.8724567
  28.1107069  53.6060964  73.3746277  28.2476411  52.3732168  72.5067927
  18.8665197  49.1161707  66.0856076  18.0302510  49.4536393  66.4065350
  18.7269967  48.9810686  65.1483213  20.8418278  43.9598495  70.7935260
  20.1882690  43.6447512  70.1691875  20.7998752  43.3374235  71.5195083
  21.9529483  54.2417790  62.7088552  21.0456545  54.0107043  62.9079701
  22.4500515  53.4455409  62.8962534  24.8597562  62.9515297  65.6285238
  24.1859261  63.2546994  66.2370196  25.2463384  63.7544377  65.2790695
  24.0756018  50.4480428  75.1182908  23.1578580  50.6695375  74.9604596
  24.4916162  50.5226739  74.2594615  24.8591066  51.8471844  70.2485588
  25.6062885  52.3593241  69.9392710  25.1282656  51.5255896  71.1089981
  23.1317716  54.3430384  67.2312542  22.2228936  54.0589417  67.3285012
  23.1612800  54.7629463  66.3715849  28.3636984  57.9536974  71.0003710
  27.9099311  57.1127884  71.0568900  27.7330951  58.5898372  71.3378490
  27.3069903  48.8828960  72.2304377  26.5692660  48.3706346  72.5614620
  27.5596677  48.4429342  71.4187654  26.8069923  59.7913471  71.9353528
  27.0992897  60.3518528  71.2165893  27.3168544  60.0842032  72.6906687
  27.4081531  41.6605212  72.8246146  27.7140408  40.8002575  72.5372061
  28.1334136  42.2522832  72.6245140  13.7005887  52.0635899  71.2127744
  13.5030287  51.4705259  70.4878811  13.1452551  51.7588109  71.9303683
  21.6802610  51.9559005  73.3322337  21.7351220  51.0032841  73.2564814
  20.8693812  52.1118444  73.8163636  22.8293804  55.8839128  64.5700621
  22.3913234  55.1674987  64.1106258  23.5704245  56.1115243  64.0085712
  19.6194970  50.5736065  71.0912716  18.8062836  50.8730235  71.4977908
  20.1153965  50.1791754  71.8087199  21.7703548  60.5693822  73.0246981
  21.7279727  60.7954668  72.0955513  22.6866247  60.3357196  73.1732782
  25.2169182  51.0377889  79.9227610  25.5718570  51.2649362  80.7822076
  25.8641313  51.3696266  79.3004865  30.9466919  54.1596325  70.6276939
  30.8084818  54.3497921  69.6998128  30.5903138  54.9215708  71.0844990
  19.1109045  48.1454420  76.7073951  19.7508424  48.0043179  76.0096915
  18.2786576  47.8588934  76.3312553  30.9736299  56.2272852  75.6388211
  31.4072805  56.1348141  76.4871265  31.6867879  56.2030353  75.0008227
  19.8869349  57.4456851  72.8208944  20.6809948  56.9507171  72.6191519
  19.1761041  56.9174714  72.4576649  24.7064193  59.8274946  77.1721311
  24.7601216  60.3965883  77.9399027  23.8378975  59.9976831  76.8075348
  16.1952112  51.5899933  68.8968696  15.2649701  51.5284388  69.1138659
  16.2909584  51.0675885  68.1005338  16.1137662  48.1154745  71.4846938
  16.3744479  49.0300079  71.3756098  16.9354834  47.6479188  71.6343551
  17.5862587  49.5292503  78.6545763  18.2585640  49.3209865  78.0058411
  16.7592373  49.3314589  78.2150995  31.8351848  56.2696553  78.1721096
  32.0287738  57.1742363  78.4180371  31.7352466  55.8103972  79.0059681
  23.4888159  46.1554443  80.6711423  22.8416074  46.8544393  80.5775900
  24.2589174  46.5890587  81.0387672  26.8966957  56.4203296  83.7461977
  26.7452463  56.1913847  82.8292060  26.8871636  57.3773897  83.7593322
  23.6652293  53.9935208  78.7308243  24.5944353  54.1446368  78.5577210
  23.2443323  54.0819229  77.8756890  22.4640625  58.0185873  76.5006781
  22.3251711  57.6504657  77.3732719  21.6755221  58.5333512  76.3290739
  23.0588777  63.1194969  67.8432317  23.2340533  62.6483012  68.6577940
  22.3721565  63.7460735  68.0713578  24.0145840  57.3967475  73.8895619
  23.6795673  57.3568245  74.7853268  23.5149786  56.7312191  73.4166029
  17.9890084  52.8035105  79.4148200  17.8509882  52.0715344  80.0159739
  18.8995008  52.7144006  79.1332387  26.9505032  54.7423510  64.1632678
  26.3334202  54.0170338  64.0665731  26.4821520  55.5032870  63.8199752
  20.6172385  52.5155065  78.9031879  21.3272003  51.8748257  78.8618498
  20.5741693  52.7667960  79.8258060  28.6059163  59.4522418  81.8238459
  28.5471710  58.7681638  81.1569042  29.0078682  60.1941408  81.3719085
  19.3301319  49.5020283  80.7227519  18.7938676  49.0511021  81.3749115
  18.7418027  49.6366192  79.9797983  17.6249862  66.2684332  74.6172177
  17.8646460  66.9002856  75.2951196  16.7819059  65.9172372  74.9037537
  18.7403578  48.9608934  63.2853982  17.8633044  48.8397735  62.9216229
  19.2161331  48.1695012  63.0332871  28.6076571  57.4162002  80.0552438
  27.7203350  57.0787924  80.1778837  29.1775122  56.6845033  80.2921204
  10.2605718  53.7486094  73.3795490  10.9476758  53.4347824  72.7916505
  10.1053847  54.6527458  73.1062741  15.0640440  48.6376290  77.8080513
  14.9798629  48.0301960  77.0730923  14.2423146  49.1285309  77.8090010
  22.1377724  62.0763454  77.0213681  22.0647896  62.8818426  77.5332986
  21.6955117  62.2755420  76.1961703  21.9267504  61.3135224  70.5316503
  21.1435026  61.8556905  70.6254728  22.6260249  61.8309204  70.9310744
  25.2364154  47.1229854  73.1750708  25.7332853  46.3699816  72.8551779
  24.4651135  47.1594171  72.6093918  33.0893911  52.8270219  74.8169000
  33.0783788  53.7094935  74.4462933  32.2211291  52.4741770  74.6223537
  24.5976408  61.9750288  79.1771840  25.3104380  62.6097753  79.1047742
  24.1066436  62.0714154  78.3611842  26.3193935  55.8801541  70.7489132
  25.3850213  56.0003004  70.5793836  26.4970603  54.9774008  70.4849142
  21.8199123  49.2647237  72.9022393  21.4496910  48.7118277  73.5903299
  22.3158215  48.6605370  72.3497393  29.7066486  51.7218860  71.2839166
  30.1726938  52.5546852  71.2099469  30.1573986  51.2563842  71.9884424
  19.6488321  59.7244732  79.9977411  20.3497781  60.3581215  80.1506805
  19.1783436  60.0659463  79.2373050  27.7742717  58.0662682  68.2825318
  28.0502561  57.9519276  69.1919192  26.9047216  57.6680167  68.2437491
  27.6783149  44.0899447  75.3230067  26.7646228  44.3203674  75.4912274
  28.1076250  44.1737891  76.1744100  27.4489607  52.2789339  77.8229961
  26.7961057  52.5265247  77.1682414  27.8269987  51.4653478  77.4892439
  24.4096781  62.3149033  71.9258132  24.5919176  61.4970688  72.3885884
  25.2329767  62.5316725  71.4883022  24.7438947  61.2417218  69.1873180
  25.2726713  60.7309672  68.5743342  25.0067166  60.9259748  70.0518713
  23.4977180  53.0209150  84.3095998  22.8217817  52.9203280  84.9798374
  24.3204814  52.8648364  84.7731996  15.2456039  59.2581087  76.9308514
  15.8309476  58.5124775  77.0636418  15.0480878  59.5685044  77.8145178
  18.0994694  62.2932334  71.9470956  17.4305070  62.7778462  71.4634996
  17.9607564  62.5401555  72.8614335   9.8373694  51.8286687  75.6512957
   9.8757794  51.2950278  76.4450075   9.3313987  51.3021893  75.0323934
  22.2399963  64.3276078  78.5453614  22.7918271  64.4907699  79.3102700
  22.5806157  64.9180516  77.8733639  17.2164456  46.6751228  79.1475499
  17.2805783  47.5366059  78.7352897  17.1531577  46.0625229  78.4147858
  16.6916729  48.7474360  82.7948533  17.3188768  48.3651438  83.4086058
  15.8344648  48.5288562  83.1604226  27.0910837  59.1537335  84.4002269
  27.6350741  59.7667294  83.9057224  26.5097682  59.7116914  84.9169282
  13.4682272  50.5550789  68.7266888  13.7635713  49.6461468  68.6733942
  12.5670307  50.5338529  68.4047891  25.3768350  62.2758053  75.5317297
  25.2519490  61.4747793  75.0228242  26.0347441  62.7704247  75.0431266
  16.9976519  48.6306786  74.7094437  16.2763104  49.2442754  74.5701910
  17.7869774  49.1664551  74.6311083  27.4403259  60.0767074  77.1596847
  26.4933594  59.9572425  77.0875173  27.7886032  59.1889572  77.2423108
  19.8002832  45.9661212  80.9835089  20.3237234  46.2123509  81.7461398
  19.5815165  46.7981247  80.5638226  15.1970113  48.2364887  68.8506213
  14.8682819  47.3562266  68.6681319  15.5509484  48.1812556  69.7382603
  24.4449692  59.8719790  73.3601199  24.2974654  58.9436497  73.5408769
  25.2703186  59.8939880  72.8758274  18.3111936  48.5237857  69.2181691
  18.6508009  49.0523778  68.4960299  18.7584057  48.8618263  69.9940258
  28.0483814  60.6948348  74.4466072  28.9730361  60.4891210  74.3090523
  27.8799117  60.4464750  75.3555413  21.0055377  46.9074908  78.6684759
  20.6652197  46.1082721  79.0705439  20.2994383  47.2076618  78.0961592
  21.6571849  43.9924220  77.1212082  22.4797918  43.5184698  76.9990972
  21.9009912  44.7714704  77.6210768  20.2980083  47.0212478  67.4174984
  21.0188446  47.3993731  66.9138701  19.6745388  47.7401355  67.5209962
  24.4411206  47.7257627  68.3533316  24.6574821  48.6082265  68.0522144
  23.9605273  47.3343841  67.6238958  19.1810428  50.6843341  74.9304061
  19.0355008  50.9983644  75.8228342  18.7035631  51.3028241  74.3774959
  21.0406811  47.6745889  74.9784950  21.0268379  46.7786982  74.6417248
  21.7579239  47.6816552  75.6123236  22.8932941  48.1083229  77.0238078
  22.6350719  49.0300299  77.0222408  22.3617982  47.7113663  77.7138542
  27.8379130  61.2134016  69.8028163  28.0116008  60.6480438  69.0502016
  28.3308021  62.0134911  69.6207653  13.6556090  53.2248685  77.8691722
  13.1109558  54.0008493  78.0011996  14.5335440  53.5719489  77.7110843
  20.4443707  46.5560269  70.2472520  20.5659618  45.6276915  70.4463408
  20.1545749  46.5698955  69.3350836  23.3134897  44.2415179  73.3839240
  23.3356594  44.3054512  72.4291220  23.7302956  43.4019688  73.5779746
  33.6918521  53.9770439  71.4218463  34.1349667  53.2277764  71.0237586
  32.8145032  53.9680575  71.0392195  28.8254303  60.5300780  66.9025061
  29.5205207  61.1507473  67.1212376  29.1677453  59.6796132  67.1777439
  14.4422112  52.3518581  80.7621879  13.7003848  52.5001217  81.3486509
  14.1214856  52.6126847  79.8988628  22.3865774  61.8934559  80.5602269
  22.6952901  61.6483706  81.4324968  23.1841256  62.0981198  80.0721139
  22.4086386  64.0472469  72.7907645  21.9691377  63.5548848  73.4840502
  23.1594503  63.5045437  72.5499721  14.8878725  60.2384010  72.7932273
  15.7136745  59.9387782  72.4130917  14.5372777  59.4691632  73.2422062
  19.8560259  59.5910478  74.8629947  19.2340268  58.9281183  74.5632175
  20.5265125  59.6171610  74.1803595  13.0887330  58.1570336  73.7521207
  12.2519239  57.7292511  73.5705208  13.0610976  58.3502780  74.6891998
  19.9284786  48.0692266  84.4562453  19.9772942  48.9454389  84.0740223
  20.4707300  47.5269659  83.8834096  30.4139632  58.6133389  83.7363590
  29.6235175  58.5957528  83.1968089  30.1772986  59.1521683  84.4912627
  30.5337507  55.4625856  81.0496319  30.5835512  55.2975863  81.9911841
  30.4251430  54.5953115  80.6594199  19.4173765  58.1414402  68.3388408
  19.5661886  58.8249866  67.6855080  20.2240209  58.1219492  68.8537863
  27.8241269  51.4456784  82.3655625  28.7251132  51.3063249  82.0739623
  27.8989244  51.6111239  83.3053803  22.1584075  48.8223639  81.2108812
  21.2887384  49.1157205  80.9391400  22.3943555  49.4064084  81.9316075
  32.0355704  57.8822797  81.2938340  31.7440512  58.2452778  82.1301801
  31.4227835  57.1689806  81.1151672  30.2842892  53.0055412  79.7618398
  30.7597013  53.1983058  78.9537250  29.3608457  53.0614598  79.5161782
  17.1726398  54.1679579  69.3449476  16.9272440  53.2641909  69.5429687
  17.3422313  54.1696730  68.4028954  24.8623108  45.0403256  78.7274232
  25.3805052  45.7764282  78.4020721  24.5078241  45.3467249  79.5620991
  16.4422046  49.9007937  66.8435638  15.7491291  49.9752292  66.1875674
  16.1973798  49.1368280  67.3657155  25.1135703  41.4603538  74.2475129
  25.3937456  40.7926727  74.8735555  25.8986309  41.6532634  73.7349792
  22.9169171  60.6362532  65.8100155  22.3443138  61.2552719  65.3570627
  23.4901965  61.1861894  66.3440077  28.9844561  49.8821172  77.9946704
  29.9361984  49.9819270  78.0158928  28.8148011  49.0899441  78.5044788
  27.0058940  46.9676755  78.1806105  26.4108872  47.2481768  77.4852593
  26.7208637  47.4570656  78.9522846  26.1366431  60.9199682  66.9408737
  27.0697104  60.8545244  67.1441613  26.0489644  61.7555949  66.4823270
  28.7654447  60.2365552  63.9012685  28.6868079  59.9025416  64.7948443
  29.5864114  60.7287320  63.9004157  31.4632639  53.1027292  77.1089003
  31.4308959  52.1643293  77.2948687  32.0733262  53.1811328  76.3754828
  23.3015970  51.9723345  63.1516207  24.2475074  51.8429553  63.2204625
  22.9230214  51.2338007  63.6285636  31.6127127  49.8938335  77.1547287
  31.0966176  49.1096792  76.9677215  32.4967076  49.5657052  77.3193806
  29.2737854  43.6379351  73.1143099  29.0762675  43.3294439  73.9986431
  29.8837560  44.3640990  73.2441029  23.1854662  56.0241091  84.6116864
  24.1057672  56.2019690  84.8056911  23.1504245  55.0797136  84.4596564
  21.4858887  49.8973321  63.0871093  20.5790342  49.6006434  63.1633806
  21.7634868  49.6003139  62.2205379  12.4036827  51.2179685  73.5370139
  12.0839611  50.3644993  73.2444513  11.8570255  51.4328263  74.2928106
  16.1816735  53.9342126  77.2539646  16.4002744  54.8659233  77.2727679
  16.5942508  53.5750100  78.0394449  23.1020952  44.4410211  69.2415334
  22.2921681  44.0957296  69.6170580  23.7905369  44.1317755  69.8302946
  25.0311501  43.5188258  70.8639631  25.5842539  43.9383711  71.5229654
  25.2681587  42.5924006  70.9062587  21.0544600  49.5075331  86.6442394
  20.9541327  50.4569688  86.5754486  20.8366142  49.1793570  85.7718465
  20.2557671  46.7560256  63.2283072  21.1176835  47.0815155  63.4878889
  20.4408015  45.9691752  62.7156138  12.2725087  54.8382596  75.5063261
  11.5788558  54.4236549  74.9933215  13.0198078  54.8803133  74.9096680
  28.4090308  45.6288783  70.3718295  27.8288977  46.2873587  69.9896347
  28.1426240  44.8066127  69.9605712  26.8593874  45.0293841  72.5739615
  27.3593652  45.1410375  71.7653934  27.5029482  44.7254893  73.2140424
  20.9175870  52.9372470  85.4607456  20.4342952  53.7372830  85.6671345
  21.0036809  52.9480415  84.5074900  14.1861830  54.7700850  73.3829276
  14.1632518  54.8688537  72.4311159  14.4962466  55.6166001  73.7046442
  16.8449207  56.8277005  77.4975890  17.7992461  56.7960947  77.4305821
  16.6461731  56.3667629  78.3126116  17.4348590  55.3978121  80.0646688
  18.2541479  55.8922200  80.0881525  17.7085397  54.4810089  80.0364255
  27.1915186  47.7888873  69.4274643  26.3041041  48.0738524  69.2094838
  27.6069175  47.6282637  68.5801920  30.5429722  47.8135394  73.1428982
  31.3190112  48.3031847  73.4153599  29.8177856  48.2393448  73.6000852
  32.9802281  48.5263013  74.2002923  33.5746771  48.2858749  73.4896231
  33.0528864  47.8070144  74.8276459  15.1999436  62.3696624  74.5146088
  15.0653904  61.6097025  73.9484086  14.7831499  63.0937524  74.0474877
  26.3358399  57.5533548  63.5222663  27.0394249  57.7583550  64.1380319
  25.6121048  58.1210310  63.7871747  27.1656210  53.3043409  69.6424933
  27.1091411  53.7611961  68.8032566  27.7184552  52.5434094  69.4647776
  30.9761015  49.0933141  70.4675053  30.7197950  48.6929777  71.2983260
  30.3513883  49.8076935  70.3425192  18.3568562  63.2665941  74.7264530
  18.2400946  64.2111374  74.6243221  17.5361008  62.9639503  75.1150330
  28.2445097  57.9916077  65.5721123  29.0790701  57.5597276  65.3898598
  28.0829440  57.8198091  66.4998018  27.8990989  54.4948190  66.9377462
  27.8439793  54.3292462  65.9965907  27.2737044  55.2024223  67.0939652
  12.6883504  49.7316255  80.7638885  13.3342367  49.2215209  81.2526110
  12.4800655  50.4684936  81.3382310  25.2136896  56.7997102  86.2631025
  26.0828056  56.9737755  85.9017660  24.7343647  57.6191519  86.1406755
  21.2087114  43.9956299  66.5162781  21.1965784  44.9398139  66.6731052
  22.1010536  43.8126445  66.2222242  19.3823076  63.9194203  77.9420459
  20.2850323  63.9517814  78.2586954  19.1560446  62.9894654  77.9566795
  21.1376678  62.6725190  74.6030537  20.1872309  62.6727051  74.4894910
  21.4409164  61.9257924  74.0866572  25.0239234  40.5899076  70.7708718
  24.2571630  40.0357563  70.9165400  25.4349939  40.6620945  71.6322869
  17.0280995  46.8783872  84.8613899  17.8912456  46.5220677  85.0717223
  16.4546405  46.5397767  85.5489303  34.1638861  69.6148008  81.5624030
  34.1527502  69.2200806  80.6904534  34.3259501  68.8814081  82.1557802
  27.0870326  71.8099824  74.4318936  27.8791618  71.4690649  74.0165235
  27.3266976  71.9194799  75.3521089  30.8846122  72.3985120  80.5103214
  30.5935988  73.3030751  80.3949880  31.5203107  72.4401647  81.2247284
  31.8102329  69.7761968  77.1004574  32.4065901  69.5517991  76.3861537
  31.8677301  69.0346714  77.7030022  29.2948489  68.5360332  73.5389712
  28.3698985  68.4036546  73.7467404  29.5432902  69.3154551  74.0359655
  26.6557300  68.1793606  74.3733501  26.7849681  68.4328085  75.2872913
  25.9754751  68.7721314  74.0538156  31.5720389  68.8304174  82.6903309
  32.3135073  69.3689218  82.4138133  30.8657375  69.4570463  82.8474861
  29.8156586  70.8180395  75.2457608  30.3857943  71.2467664  74.6075093
  30.4064698  70.5362980  75.9441794  30.3081753  65.9843823  83.4918619
  29.6780413  66.6660103  83.7254016  30.2017841  65.8726904  82.5471758
  25.6026725  65.6515619  74.4184544  24.8125779  65.9073147  73.9424654
  26.0937973  66.4663957  74.5236584  27.5541471  66.0160198  71.3768020
  26.7572634  66.1278892  71.8951516  27.3267063  66.3546850  70.5108911
  23.8864428  65.9046109  76.8499534  24.1372467  66.7893119  77.1157110
  24.4223977  65.7250711  76.0774626  29.5862496  60.2864588  85.8543870
  29.1929441  59.7330787  86.5291515  30.4028636  60.5975167  86.2450388
  32.5030457  61.7022468  83.4464127  33.2440170  62.3029621  83.3668589
  32.7348379  60.9600105  82.8882170  27.6471795  66.8878835  81.7242357
  27.5325310  65.9864092  82.0249456  26.7916312  67.1342532  81.3727173
  29.4850754  76.3592377  77.8490536  30.0358179  76.2309440  77.0767530
  28.6462229  76.6587266  77.4985429  33.2817925  72.6243505  82.1934767
  33.8146261  71.8631793  81.9634075  32.7532006  72.3317156  82.9358921
  24.5173470  70.0537101  70.5417011  25.3548692  70.4634109  70.3250719
  24.6951738  69.1136543  70.5117205  31.7727046  60.1846955  74.6943824
  32.6380043  59.9889764  74.3349713  31.8404555  59.9557307  75.6213180
  29.3789365  62.4149163  72.0660190  29.9533117  62.1924345  71.3333383
  29.9660347  62.4837858  72.8188792  31.6812033  59.2890412  70.7935260
  31.0276445  58.9739429  70.1691875  31.6392507  58.6666153  71.5195083
  24.5399641  67.3927816  71.2127744  24.3424041  66.7997177  70.4878811
  23.9846305  67.0880026  71.9303683  29.9502800  63.4746338  76.7073951
  30.5902179  63.3335097  76.0096915  29.1180330  63.1880851  76.3312553
  27.0345867  66.9191850  68.8968696  26.1043455  66.8576306  69.1138659
  27.1303339  66.3967803  68.1005338  26.9531416  63.4446663  71.4846938
  27.2138233  64.3591996  71.3756098  27.7748588  62.9771106  71.6343551
  28.4256341  64.8584420  78.6545763  29.0979395  64.6501782  78.0058411
  27.5986128  64.6606506  78.2150995  34.3281913  61.4846361  80.6711423
  33.6809828  62.1836311  80.5775900  35.0982929  61.9182505  81.0387672
  34.5046048  69.3227126  78.7308243  35.4338108  69.4738286  78.5577210
  34.0837078  69.4111147  77.8756890  28.8283839  68.1327023  79.4148200
  28.6903637  67.4007262  80.0159739  29.7388762  68.0435923  79.1332387
  31.4566139  67.8446982  78.9031879  32.1665758  67.2040175  78.8618498
  31.4135447  68.0959877  79.8258060  30.1695073  64.8312200  80.7227519
  29.6332430  64.3802939  81.3749115  29.5811782  64.9658109  79.9797983
  28.4643617  81.5976250  74.6172177  28.7040215  82.2294774  75.2951196
  27.6212813  81.2464290  74.9037537  21.0999472  69.0778012  73.3795490
  21.7870512  68.7639742  72.7916505  20.9447601  69.9819376  73.1062741
  25.9034194  63.9668208  77.8080513  25.8192383  63.3593878  77.0730923
  25.0816901  64.4577226  77.8090010  30.4882076  75.0536650  79.9977411
  31.1891535  75.6873133  80.1506805  30.0177191  75.3951381  79.2373050
  26.0849794  74.5873005  76.9308514  26.6703231  73.8416693  77.0636418
  25.8874632  74.8976961  77.8145178  20.6767448  67.1578605  75.6512957
  20.7151548  66.6242196  76.4450075  20.1707741  66.6313810  75.0323934
  33.0793718  79.6567996  78.5453614  33.6312026  79.8199617  79.3102700
  33.4199911  80.2472433  77.8733639  28.0558211  62.0043145  79.1475499
  28.1199537  62.8657976  78.7352897  27.9925331  61.3917147  78.4147858
  27.5310483  64.0766278  82.7948533  28.1582522  63.6943355  83.4086058
  26.6738402  63.8580480  83.1604226  24.3076026  65.8842707  68.7266888
  24.6029467  64.9753385  68.6733942  23.4064062  65.8630446  68.4047891
  27.8370273  63.9598704  74.7094437  27.1156859  64.5734671  74.5701910
  28.6263529  64.4956468  74.6311083  30.6396587  61.2953130  80.9835089
  31.1630988  61.5415427  81.7461398  30.4208920  62.1273165  80.5638226
  26.0363868  63.5656805  68.8506213  25.7076574  62.6854184  68.6681319
  26.3903238  63.5104473  69.7382603  32.4965603  59.3216138  77.1212082
  33.3191673  58.8476616  76.9990972  32.7403667  60.1006621  77.6210768
  30.0204182  66.0135258  74.9304061  29.8748763  66.3275561  75.8228342
  29.5429386  66.6320159  74.3774959  24.4949844  68.5540603  77.8691722
  23.9503312  69.3300411  78.0011996  25.3729194  68.9011407  77.7110843
  25.2815866  67.6810499  80.7621879  24.5397602  67.8293134  81.3486509
  24.9608611  67.9418765  79.8988628  33.2480141  79.3764387  72.7907645
  32.8085131  78.8840765  73.4840502  33.9988258  78.8337354  72.5499721
  30.6954013  74.9202396  74.8629947  30.0734022  74.2573101  74.5632175
  31.3658880  74.9463528  74.1803595  23.9281085  73.4862254  73.7521207
  23.0912993  73.0584428  73.5705208  23.9004730  73.6794697  74.6891998
  30.7678541  63.3984184  84.4562453  30.8166696  64.2746307  84.0740223
  31.3101055  62.8561577  83.8834096  32.9977829  64.1515556  81.2108812
  32.1281138  64.4449122  80.9391400  33.2337309  64.7356001  81.9316075
  23.2430582  66.5471602  73.5370139  22.9233366  65.6936910  73.2444513
  22.6964010  66.7620180  74.2928106  27.0210489  69.2634043  77.2539646
  27.2396499  70.1951151  77.2727679  27.4336263  68.9042018  78.0394449
  31.8938354  64.8367249  86.6442394  31.7935081  65.7861606  86.5754486
  31.6759896  64.5085488  85.7718465  31.0951426  62.0852174  63.2283072
  31.9570590  62.4107072  63.4878889  31.2801770  61.2983670  62.7156138
  23.1118842  70.1674514  75.5063261  22.4182313  69.7528467  74.9933215
  23.8591833  70.2095050  74.9096680  25.0255584  70.0992767  73.3829276
  25.0026272  70.1980455  72.4311159  25.3356221  70.9457918  73.7046442
  27.6842962  72.1568923  77.4975890  28.6386215  72.1252865  77.4305821
  27.4855486  71.6959546  78.3126116  28.2742344  70.7270039  80.0646688
  29.0935233  71.2214117  80.0881525  28.5479152  69.8102007  80.0364255
  26.0393191  77.6988542  74.5146088  25.9047659  76.9388943  73.9484086
  25.6225253  78.4229442  74.0474877  29.1962317  78.5957859  74.7264530
  29.0794701  79.5403292  74.6243221  28.3754763  78.2931421  75.1150330
  23.5277258  65.0608172  80.7638885  24.1736122  64.5507126  81.2526110
  23.3194409  65.7976854  81.3382310  30.2216831  79.2486121  77.9420459
  31.1244077  79.2809731  78.2586954  29.9954201  78.3186572  77.9566795
  31.9770433  78.0017107  74.6030537  31.0266064  78.0018969  74.4894910
  32.2802919  77.2549842  74.0866572  27.8674749  62.2075789  84.8613899
  28.7306211  61.8512594  85.0717223  27.2940160  61.8689684  85.5489303
  47.7123126  83.8377646  75.6676300  48.3501536  83.7184393  74.9639640
  47.5943969  84.7858490  75.7264252  44.5212833  83.7905074  75.6037825
  44.1831344  83.6746139  74.7158359  45.3902601  83.3896239  75.5838831
  40.3799648  85.6440550  71.5934716  39.8164513  85.5530487  70.8251003
  40.2652043  84.8240455  72.0737208  45.0032616  84.9439926  81.5624030
  44.9921256  84.5492724  80.6904534  45.1653255  84.2105998  82.1557802
  37.9264080  87.1391742  74.4318936  38.7185372  86.7982567  74.0165235
  38.1660730  87.2486717  75.3521089  45.9599207  89.3111518  66.9049180
  45.3087187  89.8965598  66.5183194  46.7543570  89.8417713  66.9644218
  39.8854834  86.4000655  67.3036315  40.6585710  85.8529642  67.1649191
  40.2380233  87.2644905  67.5150776  41.7239877  87.7277037  80.5103214
  41.4329743  88.6322668  80.3949880  42.3596861  87.7693565  81.2247284
  42.6496084  85.1053886  77.1004574  43.2459656  84.8809908  76.3861537
  42.7071055  84.3638631  77.7030022  42.2221112  82.5593321  64.9354765
  42.4746633  82.0374843  64.1738228  41.2845671  82.3959467  65.0381448
  47.4374472  87.0001950  67.4418165  46.8020305  87.0736577  68.1539069
  47.1071878  87.5895549  66.7637244  41.9417401  84.4621427  67.1379140
  41.8253659  83.7866331  67.8060224  42.0519661  83.9753801  66.3211293
  44.2848942  83.9231574  70.8425829  43.9207149  83.3962195  71.5538750
  45.1416057  83.5330043  70.6692314  46.6829762  87.4138453  77.5053008
  46.3830485  88.3163492  77.3968815  46.3380821  87.1470636  78.3574161
  43.9043649  81.4079132  66.8233844  43.7843275  81.8536182  67.6619325
  43.2096238  81.7564449  66.2647382  37.4951054  83.5085523  74.3733501
  37.6243435  83.7620002  75.2872913  36.8148506  84.1013231  74.0538156
  41.6650542  94.1782773  70.4723975  41.5874571  95.1290598  70.5512456
  41.0612185  93.8328646  71.1298902  42.4114144  84.1596092  82.6903309
  43.1528828  84.6981136  82.4138133  41.7051129  84.7862381  82.8474861
  47.8869483  86.3025233  81.2875471  48.2952839  85.8607643  80.5430103
  47.1646745  85.7277860  81.5409664  44.2400553  81.2397839  78.6609028
  45.0861749  81.6637253  78.8043677  44.1799191  80.5831464  79.3547591
  48.2098298  86.8626423  75.0427760  47.5807160  87.0272137  74.3403828
  47.8223960  87.2768033  75.8138724  52.0887530  87.7980861  72.3972123
  51.4038568  88.1779762  71.8469157  52.1731379  88.4076188  73.1304071
  49.3438461  85.4440820  78.9967467  49.5555357  86.0872580  78.3201848
  49.2968210  84.6103137  78.5289397  43.7626260  86.6000831  72.3077845
  44.2264605  86.8788534  71.5182467  43.4983058  85.6984276  72.1250936
  40.6550341  86.1472313  75.2457608  41.2251698  86.5759581  74.6075093
  41.2458453  85.8654898  75.9441794  42.6995146  82.7223984  69.1167410
  43.4019189  83.1745027  69.5841336  42.3675774  82.0807803  69.7447303
  41.1475507  81.3135740  83.4918619  40.5174168  81.9952021  83.7254016
  41.0411595  81.2018822  82.5471758  50.4584289  88.3212776  77.1689824
  51.2801733  87.9192963  76.8872506  50.4546692  88.2181010  78.1205940
  44.2240893  87.8696819  79.3250535  44.2885325  88.3317226  80.1608707
  43.5151817  87.2394184  79.4532845  34.7258183  81.2338027  76.8499534
  34.9766221  82.1185037  77.1157110  35.2617731  81.0542628  76.0774626
  43.9388910  89.5364926  69.1929515  43.8034585  90.3816462  69.6214363
  44.4798723  89.7384204  68.4295449  37.3918308  87.0540364  69.7657440
  37.9042828  87.8483615  69.9163005  38.0441021  86.3566655  69.6991042
  39.2013193  90.1706121  71.8480193  39.3779821  91.0924085  71.6601177
  39.9970026  89.8564540  72.2774573  38.4865549  82.2170753  81.7242357
  38.3719064  81.3156010  82.0249456  37.6310067  82.4634449  81.3727173
  45.5657387  90.1588493  83.3229857  45.1221241  89.3724871  83.0050762
  46.2274600  90.3467643  82.6573748  40.3244508  91.6884294  77.8490536
  40.8751933  91.5601358  77.0767530  39.4855984  91.9879183  77.4985429
  47.6638625  90.4391293  81.3511259  47.6457100  91.2600174  80.8591528
  48.5858545  90.3145368  81.5761400  44.1211679  87.9535422  82.1934767
  44.6540016  87.1923710  81.9634075  43.5925760  87.6609074  82.9358921
  35.3567225  85.3829019  70.5417011  36.1942447  85.7926027  70.3250719
  35.5345492  84.4428461  70.5117205  47.2531657  83.0504099  66.2300844
  46.7378280  83.8208704  66.4689231  46.9808965  82.3769235  66.8533905
  45.4864392  87.0821415  69.7053579  44.9585753  86.3474174  69.3926816
  44.9851894  87.8596091  69.4593547  50.4657238  85.2770435  74.8220625
  49.8080912  85.9669697  74.9100754  51.2697637  85.6666867  75.1654612
  43.6316992  84.9001625  62.7088552  42.7244054  84.6690878  62.9079701
  44.1288024  84.1039244  62.8962534  46.5385071  93.6099132  65.6285238
  45.8646770  93.9130829  66.2370196  46.9250893  94.4128213  65.2790695
  44.8105225  85.0014220  67.2312542  43.9016445  84.7173253  67.3285012
  44.8400309  85.4213298  66.3715849  50.0424493  88.6120809  71.0003710
  49.5886820  87.7711719  71.0568900  49.4118460  89.2482208  71.3378490
  48.4857432  90.4497306  71.9353528  48.7780406  91.0102363  71.2165893
  48.9956053  90.7425867  72.6906687  35.3793396  82.7219734  71.2127744
  35.1817796  82.1289095  70.4878811  34.8240060  82.4171944  71.9303683
  43.3590119  82.6142840  73.3322337  43.4138729  81.6616677  73.2564814
  42.5481321  82.7702280  73.8163636  44.5081313  86.5422964  64.5700621
  44.0700743  85.8258822  64.1106258  45.2491754  86.7699078  64.0085712
  43.4491057  91.2277657  73.0246981  43.4067236  91.4538503  72.0955513
  44.3653756  90.9941032  73.1732782  46.8956691  81.6961725  79.9227610
  47.2506079  81.9233198  80.7822076  47.5428822  82.0280101  79.3004865
  52.6523808  86.8856688  75.6388211  53.0860314  86.7931977  76.4871265
  53.3655388  86.8614188  75.0008227  41.5656858  88.1040686  72.8208944
  42.3597456  87.6091006  72.6191519  40.8548550  87.5758549  72.4576649
  46.3851702  90.4858782  77.1721311  46.4388725  91.0549718  77.9399027
  45.5166484  90.6560667  76.8075348  39.2650096  80.1876338  78.6545763
  39.9373149  79.9793700  78.0058411  38.4379882  79.9898424  78.2150995
  53.5139357  86.9280388  78.1721096  53.7075247  87.8326199  78.4180371
  53.4139975  86.4687807  79.0059681  48.5754466  87.0787131  83.7461977
  48.4239972  86.8497683  82.8292060  48.5659145  88.0357732  83.7593322
  45.3439802  84.6519044  78.7308243  46.2731862  84.8030203  78.5577210
  44.9230832  84.7403064  77.8756890  44.1428134  88.6769708  76.5006781
  44.0039220  88.3088493  77.3732719  43.3542730  89.1917348  76.3290739
  44.7376286  93.7778805  67.8432317  44.9128042  93.3066848  68.6577940
  44.0509074  94.4044571  68.0713578  45.6933349  88.0551311  73.8895619
  45.3583182  88.0152081  74.7853268  45.1937295  87.3896027  73.4166029
  39.6677593  83.4618941  79.4148200  39.5297391  82.7299180  80.0159739
  40.5782517  83.3727841  79.1332387  42.2959894  83.1738900  78.9031879
  43.0059512  82.5332092  78.8618498  42.2529202  83.4251795  79.8258060
  50.2846672  90.1106254  81.8238459  50.2259219  89.4265474  81.1569042
  50.6866191  90.8525244  81.3719085  41.0088828  80.1604118  80.7227519
  40.4726185  79.7094857  81.3749115  40.4205536  80.2950027  79.9797983
  39.3037371  96.9268167  74.6172177  39.5433969  97.5586692  75.2951196
  38.4606568  96.5756207  74.9037537  50.2864080  88.0745837  80.0552438
  49.3990858  87.7371759  80.1778837  50.8562631  87.3428869  80.2921204
  31.9393227  84.4069929  73.3795490  32.6264267  84.0931659  72.7916505
  31.7841356  85.3111294  73.1062741  43.8165233  92.7347290  77.0213681
  43.7435405  93.5402261  77.5332986  43.3742626  92.9339256  76.1961703
  43.6055013  91.9719060  70.5316503  42.8222535  92.5140740  70.6254728
  44.3047758  92.4893039  70.9310744  46.2763917  92.6334124  79.1771840
  46.9891889  93.2681589  79.1047742  45.7853945  92.7297990  78.3611842
  47.9981444  86.5385377  70.7489132  47.0637722  86.6586839  70.5793836
  48.1758112  85.6357843  70.4849142  41.3275830  90.3828567  79.9977411
  42.0285290  91.0165050  80.1506805  40.8570945  90.7243299  79.2373050
  49.4530226  88.7246517  68.2825318  49.7290070  88.6103112  69.1919192
  48.5834725  88.3264002  68.2437491  49.1277116  82.9373175  77.8229961
  48.4748566  83.1849082  77.1682414  49.5057496  82.1237313  77.4892439
  46.0884290  92.9732868  71.9258132  46.2706685  92.1554524  72.3885884
  46.9117276  93.1900560  71.4883022  46.4226456  91.9001053  69.1873180
  46.9514222  91.3893508  68.5743342  46.6854675  91.5843583  70.0518713
  45.1764689  83.6792986  84.3095998  44.5005326  83.5787115  84.9798374
  45.9992323  83.5232200  84.7731996  36.9243548  89.9164922  76.9308514
  37.5096985  89.1708610  77.0636418  36.7268387  90.2268879  77.8145178
  39.7782203  92.9516170  71.9470956  39.1092579  93.4362297  71.4634996
  39.6395073  93.1985390  72.8614335  31.5161203  82.4870523  75.6512957
  31.5545302  81.9534113  76.4450075  31.0101496  81.9605728  75.0323934
  43.9187472  94.9859913  78.5453614  44.4705780  95.1491535  79.3102700
  44.2593665  95.5764351  77.8733639  38.3704238  79.4058196  82.7948533
  38.9976277  79.0235273  83.4086058  37.5132157  79.1872398  83.1604226
  48.7698346  89.8121171  84.4002269  49.3138250  90.4251129  83.9057224
  48.1885191  90.3700749  84.9169282  35.1469781  81.2134625  68.7266888
  35.4423222  80.3045303  68.6733942  34.2457816  81.1922364  68.4047891
  47.0555859  92.9341889  75.5317297  46.9306999  92.1331629  75.0228242
  47.7134950  93.4288082  75.0431266  49.1190768  90.7350909  77.1596847
  48.1721103  90.6156260  77.0875173  49.4673541  89.8473407  77.2423108
  46.1237201  90.5303625  73.3601199  45.9762163  89.6020332  73.5408769
  46.9490695  90.5523716  72.8758274  49.7271323  91.3532184  74.4466072
  50.6517870  91.1475045  74.3090523  49.5586626  91.1048585  75.3555413
  49.5166639  91.8717851  69.8028163  49.6903517  91.3064274  69.0502016
  50.0095530  92.6718746  69.6207653  35.3343599  83.8832520  77.8691722
  34.7897067  84.6592328  78.0011996  36.2122949  84.2303325  77.7110843
  50.5041812  91.1884616  66.9025061  51.1992716  91.8091308  67.1212376
  50.8464962  90.3379967  67.1777439  36.1209621  83.0102417  80.7621879
  35.3791357  83.1585052  81.3486509  35.8002365  83.2710682  79.8988628
  44.0653283  92.5518395  80.5602269  44.3740410  92.3067542  81.4324968
  44.8628765  92.7565033  80.0721139  44.0873895  94.7056304  72.7907645
  43.6478886  94.2132683  73.4840502  44.8382012  94.1629272  72.5499721
  36.5666234  90.8967845  72.7932273  37.3924254  90.5971617  72.4130917
  36.2160286  90.1275468  73.2422062  41.5347768  90.2494314  74.8629947
  40.9127777  89.5865019  74.5632175  42.2052634  90.2755445  74.1803595
  34.7674839  88.8154172  73.7521207  33.9306748  88.3876346  73.5705208
  34.7398485  89.0086615  74.6891998  52.0927141  89.2717225  83.7363590
  51.3022684  89.2541364  83.1968089  51.8560495  89.8105519  84.4912627
  52.2125016  86.1209691  81.0496319  52.2623021  85.9559699  81.9911841
  52.1038939  85.2536950  80.6594199  41.0961274  88.7998237  68.3388408
  41.2449395  89.4833701  67.6855080  41.9027718  88.7803327  68.8537863
  49.5028778  82.1040619  82.3655625  50.4038641  81.9647084  82.0739623
  49.5776753  82.2695074  83.3053803  53.7143213  88.5406633  81.2938340
  53.4228021  88.9036613  82.1301801  53.1015344  87.8273641  81.1151672
  51.9630401  83.6639247  79.7618398  52.4384522  83.8566894  78.9537250
  51.0395966  83.7198433  79.5161782  38.8513907  84.8263415  69.3449476
  38.6059949  83.9225745  69.5429687  39.0209822  84.8280565  68.4028954
  44.5956680  91.2946367  65.8100155  44.0230647  91.9136554  65.3570627
  45.1689474  91.8445729  66.3440077  47.8153940  91.5783517  66.9408737
  48.7484613  91.5129079  67.1441613  47.7277153  92.4139784  66.4823270
  50.4441956  90.8949388  63.9012685  50.3655588  90.5609251  64.7948443
  51.2651623  91.3871156  63.9004157  44.8642171  86.6824926  84.6116864
  45.7845180  86.8603525  84.8056911  44.8291754  85.7380972  84.4596564
  34.0824336  81.8763520  73.5370139  33.7627120  81.0228828  73.2444513
  33.5357764  82.0912098  74.2928106  37.8604244  84.5925961  77.2539646
  38.0790253  85.5243069  77.2727679  38.2730017  84.2333935  78.0394449
  42.7332109  80.1659167  86.6442394  42.6328836  81.1153524  86.5754486
  42.5153651  79.8377406  85.7718465  33.9512596  85.4966431  75.5063261
  33.2576067  85.0820384  74.9933215  34.6985587  85.5386968  74.9096680
  42.5963379  83.5956305  85.4607456  42.1130461  84.3956666  85.6671345
  42.6824318  83.6064250  84.5074900  35.8649339  85.4284685  73.3829276
  35.8420027  85.5272372  72.4311159  36.1749975  86.2749836  73.7046442
  38.5236716  87.4860840  77.4975890  39.4779970  87.4544783  77.4305821
  38.3249240  87.0251464  78.3126116  39.1136099  86.0561956  80.0646688
  39.9328988  86.5506035  80.0881525  39.3872906  85.1393924  80.0364255
  36.8786945  93.0280460  74.5146088  36.7441413  92.2680861  73.9484086
  36.4619007  93.7521360  74.0474877  48.0145908  88.2117383  63.5222663
  48.7181758  88.4167386  64.1380319  47.2908557  88.7794145  63.7871747
  40.0356071  93.9249777  74.7264530  39.9188455  94.8695209  74.6243221
  39.2148517  93.6223338  75.1150330  49.9232606  88.6499912  65.5721123
  50.7578210  88.2181111  65.3898598  49.7616949  88.4781926  66.4998018
  49.5778498  85.1532026  66.9377462  49.5227302  84.9876297  65.9965907
  48.9524553  85.8608059  67.0939652  34.3671013  80.3900090  80.7638885
  35.0129876  79.8799044  81.2526110  34.1588164  81.1268772  81.3382310
  46.8924405  87.4580938  86.2631025  47.7615565  87.6321590  85.9017660
  46.4131156  88.2775354  86.1406755  41.0610585  94.5778039  77.9420459
  41.9637832  94.6101649  78.2586954  40.8347955  93.6478490  77.9566795
  42.8164187  93.3309025  74.6030537  41.8659818  93.3310887  74.4894910
  43.1196673  92.5841760  74.0866572  58.5516881  99.1669564  75.6676300
  59.1895291  99.0476311  74.9639640  58.4337724 100.1150407  75.7264252
  55.3606587  99.1196992  75.6037825  55.0225099  99.0038056  74.7158359
  56.2296355  98.7188157  75.5838831  51.2193403 100.9732468  71.5934716
  50.6558268 100.8822405  70.8251003  51.1045798 100.1532373  72.0737208
  55.8426370 100.2731843  81.5624030  55.8315011  99.8784642  80.6904534
  56.0047009  99.5397916  82.1557802  48.7657835 102.4683660  74.4318936
  49.5579127 102.1274484  74.0165235  49.0054485 102.5778635  75.3521089
  56.7992961 104.6403436  66.9049180  56.1480941 105.2257516  66.5183194
  57.5937324 105.1709631  66.9644218  50.7248589 101.7292573  67.3036315
  51.4979465 101.1821560  67.1649191  51.0773987 102.5936822  67.5150776
  52.5633631 103.0568955  80.5103214  52.2723497 103.9614586  80.3949880
  53.1990616 103.0985483  81.2247284  53.4889838 100.4345804  77.1004574
  54.0853410 100.2101826  76.3861537  53.5464810  99.6930549  77.7030022
  53.0614866  97.8885239  64.9354765  53.3140387  97.3666760  64.1738228
  52.1239425  97.7251384  65.0381448  58.1058149  96.8921017  72.7429508
  58.8921238  96.4740441  72.3919925  58.3696854  97.7967110  72.9111156
  58.2768227 102.3293868  67.4418165  57.6414060 102.4028494  68.1539069
  57.9465633 102.9187467  66.7637244  63.5066576  96.8296251  73.6462486
  64.2391748  96.2595467  73.8800316  62.7505932  96.4417851  74.0868992
  52.7811155  99.7913345  67.1379140  52.6647413  99.1158248  67.8060224
  52.8913415  99.3045719  66.3211293  55.1242696  99.2523492  70.8425829
  54.7600903  98.7254113  71.5538750  55.9809812  98.8621961  70.6692314
  61.0291997  90.5417825  78.1057095  60.6975321  91.4113236  77.8818310
  60.4337610  90.2254109  78.7851125  54.7648183  94.2813392  65.8387177
  54.9322585  95.1493628  66.2057648  54.5745352  94.4440673  64.9148467
  57.5223516 102.7430371  77.5053008  57.2224239 103.6455409  77.3968815
  57.1774576 102.4762554  78.3574161  50.9735998  99.1944168  73.5389712
  50.0486494  99.0620382  73.7467404  51.2220411  99.9738387  74.0359655
  60.9220660  95.2612911  75.1850445  60.0137537  95.1928319  74.8909206
  60.8708256  95.7384856  76.0132271  54.7437404  96.7371049  66.8233844
  54.6237029  97.1828100  67.6619325  54.0489992  97.0856367  66.2647382
  48.3344809  98.8377441  74.3733501  48.4637190  99.0911920  75.2872913
  47.6542260  99.4305149  74.0538156  52.5044296 109.5074691  70.4723975
  52.4268326 110.4582516  70.5512456  51.9005940 109.1620564  71.1298902
  54.9961526  96.6802556  83.1285342  54.2194860  97.2396477  83.1188207
  55.6352089  97.1659339  83.6500212  62.7882306  93.4629349  76.9628319
  62.1456687  93.7561882  76.3168114  62.2837235  93.3482270  77.7681516
  60.4422470  97.2092522  67.6514178  61.3540326  97.4419909  67.4761876
  59.9332117  97.7929567  67.0889257  53.2507898  99.4888010  82.6903309
  53.9922582 100.0273054  82.4138133  52.5444884 100.1154299  82.8474861
  58.7263238 101.6317150  81.2875471  59.1346594 101.1899561  80.5430103
  58.0040499 101.0569778  81.5409664  55.0794308  96.5689757  78.6609028
  55.9255503  96.9929171  78.8043677  55.0192945  95.9123381  79.3547591
  59.0492052 102.1918341  75.0427760  58.4200915 102.3564055  74.3403828
  58.6617714 102.6059950  75.8138724  62.9281284 103.1272779  72.3972123
  62.2432322 103.5071680  71.8469157  63.0125134 103.7368105  73.1304071
  58.2293753  94.2294125  80.3190201  57.9854685  94.9836186  79.7824477
  58.5053684  94.6079473  81.1537449  60.1832216 100.7732738  78.9967467
  60.3949111 101.4164498  78.3201848  60.1361964  99.9395054  78.5289397
  57.7858445  93.3850558  75.9004039  56.9242924  93.6831812  76.1920777
  57.8120880  93.6020957  74.9685072  54.6020014 101.9292749  72.3077845
  55.0658360 102.2080452  71.5182467  54.3376812 101.0276194  72.1250936
  51.4944095 101.4764231  75.2457608  52.0645452 101.9051499  74.6075093
  52.0852207 101.1946815  75.9441794  53.5388900  98.0515901  69.1167410
  54.2412944  98.5036945  69.5841336  53.2069529  97.4099720  69.7447303
  51.9869262  96.6427658  83.4918619  51.3567922  97.3243939  83.7254016
  51.8805350  96.5310740  82.5471758  47.2814234  96.3099454  74.4184544
  46.4913288  96.5656983  73.9424654  47.7725482  97.1247792  74.5236584
  61.2978044 103.6504693  77.1689824  62.1195488 103.2484880  76.8872506
  61.2940447 103.5472927  78.1205940  49.2328980  96.6744033  71.3768020
  48.4360143  96.7862728  71.8951516  49.0054572  97.0130685  70.5108911
  55.0634647 103.1988736  79.3250535  55.1279080 103.6609144  80.1608707
  54.3545571 102.5686101  79.4532845  45.5651937  96.5629944  76.8499534
  45.8159976  97.4476954  77.1157110  46.1011486  96.3834546  76.0774626
  69.3884037  99.9943442  73.5174796  68.6347745  99.4250840  73.3618800
  69.5231578  99.9606106  74.4645431  54.7782665 104.8656844  69.1929515
  54.6428340 105.7108380  69.6214363  55.3192477 105.0676122  68.4295449
  51.2650005  90.9448424  85.8543870  50.8716950  90.3914622  86.5291515
  52.0816145  91.2559002  86.2450388  48.2312062 102.3832282  69.7657440
  48.7436583 103.1775532  69.9163005  48.8834775 101.6858572  69.6991042
  50.0406947 105.4998038  71.8480193  50.2173575 106.4216003  71.6601177
  50.8363781 105.1856458  72.2774573  54.1817966  92.3606303  83.4464127
  54.9227679  92.9613456  83.3668589  54.4135888  91.6183941  82.8882170
  49.3259304  97.5462670  81.7242357  49.2112819  96.6447927  82.0249456
  48.4703821  97.7926367  81.3727173  56.4051141 105.4880410  83.3229857
  55.9614996 104.7016789  83.0050762  57.0668355 105.6759561  82.6573748
  51.1638263 107.0176212  77.8490536  51.7145688 106.8893275  77.0767530
  50.3249738 107.3171101  77.4985429  58.5032379 105.7683210  81.3511259
  58.4850855 106.5892091  80.8591528  59.4252299 105.6437286  81.5761400
  54.9605434 103.2827340  82.1934767  55.4933770 102.5215628  81.9634075
  54.4319515 102.9900992  82.9358921  46.1960979 100.7120936  70.5417011
  47.0336201 101.1217945  70.3250719  46.3739247  99.7720378  70.5117205
  58.0925411  98.3796017  66.2300844  57.5772035  99.1500622  66.4689231
  57.8202720  97.7061153  66.8533905  55.6772522  93.2245718  71.2886082
  54.8214119  92.8352568  71.1091721  56.0899474  93.3037679  70.4285868
  57.2071669  90.7592061  75.6877642  56.7036464  90.7222196  74.8745447
  57.5002276  91.6684804  75.7474299  53.4514555  90.8430791  74.6943824
  54.3167552  90.6473599  74.3349713  53.5192064  90.6141143  75.6213180
  63.0659685 101.1328372  68.1654017  62.2889128 100.7939531  67.7209179
  63.7451166 101.1380995  67.4908982  57.8811714  96.2523109  68.0560625
  57.5761850  96.5669258  68.9070768  58.8342157  96.3304529  68.0987958
  56.3258146 102.4113332  69.7053579  55.7979508 101.6766092  69.3926816
  55.8245649 103.1888009  69.4593547  61.3050992 100.6062353  74.8220625
  60.6474667 101.2961614  74.9100754  62.1091391 100.9958785  75.1654612
  51.0576874  93.0732999  72.0660190  51.6320626  92.8508180  71.3333383
  51.6447856  93.1421693  72.8188792  60.1156451  98.9606726  72.8724567
  60.6288333  99.5936717  73.3746277  60.7657675  98.3607921  72.5067927
  51.3846461  95.1037460  66.0856076  50.5483773  95.4412146  66.4065350
  51.2451231  94.9686439  65.1483213  53.3599542  89.9474248  70.7935260
  52.7063954  89.6323265  70.1691875  53.3180016  89.3249988  71.5195083
  54.4710746 100.2293543  62.7088552  53.5637808  99.9982796  62.9079701
  54.9681778  99.4331162  62.8962534  57.3778825 108.9391050  65.6285238
  56.7040524 109.2422747  66.2370196  57.7644647 109.7420130  65.2790695
  56.5937282  96.4356181  75.1182908  55.6759843  96.6571128  74.9604596
  57.0097426  96.5102492  74.2594615  57.3772330  97.8347597  70.2485588
  58.1244149  98.3468994  69.9392710  57.6463919  97.5131650  71.1089981
  55.6498980 100.3306138  67.2312542  54.7410199 100.0465170  67.3285012
  55.6794064 100.7505216  66.3715849  60.8818247 103.9412727  71.0003710
  60.4280574 103.1003637  71.0568900  60.2512214 104.5774125  71.3378490
  59.8251167  94.8704713  72.2304377  59.0873924  94.3582099  72.5614620
  60.0777940  94.4305095  71.4187654  59.3251187 105.7789224  71.9353528
  59.6174161 106.3394281  71.2165893  59.8349807 106.0717785  72.6906687
  46.2187150  98.0511652  71.2127744  46.0211550  97.4581012  70.4878811
  45.6633814  97.7463862  71.9303683  54.1983874  97.9434758  73.3322337
  54.2532484  96.9908595  73.2564814  53.3875076  98.0994197  73.8163636
  55.3475068 101.8714881  64.5700621  54.9094498 101.1550740  64.1106258
  56.0885509 102.0990996  64.0085712  52.1376234  96.5611818  71.0912716
  51.3244099  96.8605988  71.4977908  52.6335228  96.1667507  71.8087199
  54.2884812 106.5569575  73.0246981  54.2460991 106.7830421  72.0955513
  55.2047511 106.3232949  73.1732782  57.7350446  97.0253642  79.9227610
  58.0899833  97.2525115  80.7822076  58.3822577  97.3572019  79.3004865
  63.4648182 100.1472078  70.6276939  63.3266081 100.3373674  69.6998128
  63.1084401 100.9091461  71.0844990  51.6290309  94.1330173  76.7073951
  52.2689688  93.9918932  76.0096915  50.7967839  93.8464687  76.3312553
  63.4917562 102.2148605  75.6388211  63.9254069 102.1223894  76.4871265
  64.2049143 102.1906106  75.0008227  52.4050612 103.4332604  72.8208944
  53.1991211 102.9382924  72.6191519  51.6942305 102.9050467  72.4576649
  57.2245457 105.8150699  77.1721311  57.2782479 106.3841636  77.9399027
  56.3560238 105.9852584  76.8075348  48.7133376  97.5775686  68.8968696
  47.7830964  97.5160141  69.1138659  48.8090848  97.0551638  68.1005338
  48.6318925  94.1030498  71.4846938  48.8925742  95.0175832  71.3756098
  49.4536097  93.6354941  71.6343551  50.1043850  95.5168256  78.6545763
  50.7766904  95.3085618  78.0058411  49.2773637  95.3190342  78.2150995
  64.3533112 102.2572306  78.1721096  64.5469002 103.1618116  78.4180371
  64.2533730 101.7979725  79.0059681  56.0069422  92.1430196  80.6711423
  55.3597337  92.8420146  80.5775900  56.7770438  92.5766340  81.0387672
  59.4148220 102.4079049  83.7461977  59.2633727 102.1789600  82.8292060
  59.4052900 103.3649650  83.7593322  56.1833557  99.9810961  78.7308243
  57.1125617 100.1322121  78.5577210  55.7624587 100.0694982  77.8756890
  54.9821888 104.0061626  76.5006781  54.8432974 103.6380410  77.3732719
  54.1936485 104.5209265  76.3290739  55.5770040 109.1070722  67.8432317
  55.7521796 108.6358765  68.6577940  54.8902828 109.7336488  68.0713578
  56.5327104 103.3843228  73.8895619  56.1976936 103.3443998  74.7853268
  56.0331049 102.7187944  73.4166029  50.5071348  98.7910859  79.4148200
  50.3691146  98.0591097  80.0159739  51.4176271  98.7019759  79.1332387
  59.4686295 100.7299263  64.1632678  58.8515466 100.0046091  64.0665731
  59.0002784 101.4908623  63.8199752  53.1353648  98.5030818  78.9031879
  53.8453267  97.8624010  78.8618498  53.0922956  98.7543713  79.8258060
  61.1240427 105.4398171  81.8238459  61.0652973 104.7557391  81.1569042
  61.5259945 106.1817161  81.3719085  51.8482582  95.4896036  80.7227519
  51.3119939  95.0386774  81.3749115  51.2599291  95.6241945  79.9797983
  50.1431126 112.2560085  74.6172177  50.3827724 112.8878609  75.2951196
  49.3000322 111.9048125  74.9037537  51.2584841  94.9484687  63.2853982
  50.3814308  94.8273488  62.9216229  51.7342594  94.1570765  63.0332871
  61.1257834 103.4037755  80.0552438  60.2384613 103.0663677  80.1778837
  61.6956385 102.6720786  80.2921204  42.7786981  99.7361847  73.3795490
  43.4658021  99.4223577  72.7916505  42.6235110 100.6403212  73.1062741
  47.5821703  94.6252043  77.8080513  47.4979892  94.0177713  77.0730923
  46.7604410  95.1161062  77.8090010  54.6558988 108.0639207  77.0213681
  54.5829159 108.8694179  77.5332986  54.2136381 108.2631173  76.1961703
  54.4448767 107.3010977  70.5316503  53.6616289 107.8432658  70.6254728
  55.1441512 107.8184957  70.9310744  57.7545417  93.1105607  73.1750708
  58.2514117  92.3575569  72.8551779  56.9832399  93.1469924  72.6093918
  65.6075175  98.8145972  74.8169000  65.5965051  99.6970688  74.4462933
  64.7392554  98.4617523  74.6223537  57.1157671 107.9626041  79.1771840
  57.8285643 108.5973506  79.1047742  56.6247700 108.0589907  78.3611842
  58.8375198 101.8677294  70.7489132  57.9031477 101.9878757  70.5793836
  59.0151867 100.9649761  70.4849142  54.3380386  95.2522990  72.9022393
  53.9678174  94.6994030  73.5903299  54.8339479  94.6481123  72.3497393
  62.2247749  97.7094613  71.2839166  62.6908202  98.5422605  71.2099469
  62.6755250  97.2439595  71.9884424  52.1669585 105.7120485  79.9977411
  52.8679044 106.3456968  80.1506805  51.6964700 106.0535217  79.2373050
  60.2923980 104.0538435  68.2825318  60.5683824 103.9395029  69.1919192
  59.4228479 103.6555920  68.2437491  60.1964412  90.0775200  75.3230067
  59.2827492  90.3079427  75.4912274  60.6257514  90.1613645  76.1744100
  59.9670871  98.2665092  77.8229961  59.3142321  98.5141000  77.1682414
  60.3451251  97.4529231  77.4892439  56.9278045 108.3024786  71.9258132
  57.1100439 107.4846442  72.3885884  57.7511031 108.5192478  71.4883022
  57.2620210 107.2292971  69.1873180  57.7907976 106.7185425  68.5743342
  57.5248430 106.9135501  70.0518713  56.0158444  99.0084903  84.3095998
  55.3399081  98.9079033  84.9798374  56.8386078  98.8524117  84.7731996
  47.7637303 105.2456840  76.9308514  48.3490740 104.5000528  77.0636418
  47.5662141 105.5560797  77.8145178  50.6175958 108.2808087  71.9470956
  49.9486333 108.7654215  71.4634996  50.4788828 108.5277308  72.8614335
  42.3554957  97.8162440  75.6512957  42.3939057  97.2826031  76.4450075
  41.8495250  97.2897646  75.0323934  54.7581227 110.3151831  78.5453614
  55.3099535 110.4783452  79.3102700  55.0987420 110.9056269  77.8733639
  49.7345720  92.6626981  79.1475499  49.7987046  93.5241812  78.7352897
  49.6712840  92.0500982  78.4147858  49.2097992  94.7350113  82.7948533
  49.8370031  94.3527191  83.4086058  48.3525911  94.5164315  83.1604226
  59.6092101 105.1413088  84.4002269  60.1532005 105.7543047  83.9057224
  59.0278946 105.6992667  84.9169282  45.9863535  96.5426542  68.7266888
  46.2816976  95.6337221  68.6733942  45.0851571  96.5214282  68.4047891
  57.8949614 108.2633806  75.5317297  57.7700753 107.4623546  75.0228242
  58.5528705 108.7580000  75.0431266  49.5157782  94.6182539  74.7094437
  48.7944368  95.2318507  74.5701910  50.3051038  95.1540304  74.6311083
  59.9584522 106.0642827  77.1596847  59.0114858 105.9448178  77.0875173
  60.3067295 105.1765325  77.2423108  52.3184096  91.9536965  80.9835089
  52.8418497  92.1999262  81.7461398  52.0996429  92.7857000  80.5638226
  47.7151377  94.2240640  68.8506213  47.3864083  93.3438019  68.6681319
  48.0690747  94.1688309  69.7382603  56.9630956 105.8595543  73.3601199
  56.8155918 104.9312250  73.5408769  57.7884449 105.8815633  72.8758274
  50.8293200  94.5113610  69.2181691  51.1689272  95.0399531  68.4960299
  51.2765320  94.8494016  69.9940258  60.5665077 106.6824101  74.4466072
  61.4911625 106.4766963  74.3090523  60.3980381 106.4340503  75.3555413
  53.5236641  92.8950661  78.6684759  53.1833461  92.0958474  79.0705439
  52.8175647  93.1952371  78.0961592  54.1753112  89.9799973  77.1212082
  54.9979182  89.5060451  76.9990972  54.4191176  90.7590457  77.6210768
  52.8161347  93.0088231  67.4174984  53.5369709  93.3869484  66.9138701
  52.1926651  93.7277108  67.5209962  56.9592470  93.7133380  68.3533316
  57.1756084  94.5958018  68.0522144  56.4786537  93.3219594  67.6238958
  51.6991691  96.6719094  74.9304061  51.5536272  96.9859397  75.8228342
  51.2216895  97.2903994  74.3774959  53.5588074  93.6621642  74.9784950
  53.5449643  92.7662735  74.6417248  54.2760502  93.6692305  75.6123236
  55.4114205  94.0958982  77.0238078  55.1531983  95.0176052  77.0222408
  54.8799245  93.6989416  77.7138542  60.3560394 107.2009769  69.8028163
  60.5297271 106.6356191  69.0502016  60.8489285 108.0010664  69.6207653
  46.1737353  99.2124438  77.8691722  45.6290821  99.9884246  78.0011996
  47.0516703  99.5595242  77.7110843  52.9624970  92.5436022  70.2472520
  53.0840881  91.6152668  70.4463408  52.6727012  92.5574708  69.3350836
  55.8316160  90.2290932  73.3839240  55.8537857  90.2930265  72.4291220
  56.2484219  89.3895441  73.5779746  66.2099785  99.9646192  71.4218463
  66.6530931  99.2153517  71.0237586  65.3326295  99.9556328  71.0392195
  61.3435566 106.5176533  66.9025061  62.0386471 107.1383226  67.1212376
  61.6858716 105.6671885  67.1777439  46.9603375  98.3394334  80.7621879
  46.2185111  98.4876970  81.3486509  46.6396119  98.6002600  79.8988628
  63.2426989 103.9676239  68.4312392  63.7678313 104.3063512  67.7061712
  63.1549342 103.0323254  68.2475527  54.9047038 107.8810313  80.5602269
  55.2134164 107.6359459  81.4324968  55.7022520 108.0856951  80.0721139
  54.9267650 110.0348222  72.7907645  54.4872640 109.5424601  73.4840502
  55.6775767 109.4921190  72.5499721  47.4059989 106.2259763  72.7932273
  48.2318009 105.9263535  72.4130917  47.0554041 105.4567385  73.2422062
  52.3741522 105.5786231  74.8629947  51.7521531 104.9156936  74.5632175
  53.0446389 105.6047363  74.1803595  45.6068594 104.1446089  73.7521207
  44.7700502 103.7168264  73.5705208  45.5792239 104.3378533  74.6891998
  52.4466050  94.0568019  84.4562453  52.4954205  94.9330142  84.0740223
  52.9888564  93.5145412  83.8834096  62.9320895 104.6009143  83.7363590
  62.1416439 104.5833281  83.1968089  62.6954250 105.1397436  84.4912627
  63.0518770 101.4501609  81.0496319  63.1016775 101.2851616  81.9911841
  62.9432694 100.5828868  80.6594199  51.9355029 104.1290155  68.3388408
  52.0843149 104.8125619  67.6855080  52.7421472 104.1095245  68.8537863
  60.3422533  97.4332537  82.3655625  61.2432395  97.2939002  82.0739623
  60.4170507  97.5986992  83.3053803  54.6765338  94.8099392  81.2108812
  53.8068647  95.1032958  80.9391400  54.9124818  95.3939837  81.9316075
  64.5536967 103.8698550  81.2938340  64.2621775 104.2328531  82.1301801
  63.9409098 103.1565559  81.1151672  65.7532649 101.4351430  73.8140910
  66.5879541 101.8741234  73.9778471  65.8891778 100.9590083  72.9949156
  62.8024155  98.9931165  79.7618398  63.2778277  99.1858811  78.9537250
  61.8789721  99.0490351  79.5161782  49.6907662 100.1555332  69.3449476
  49.4453704  99.2517662  69.5429687  49.8603576 100.1572483  68.4028954
  57.3804372  91.0279009  78.7274232  57.8986316  91.7640036  78.4020721
  57.0259505  91.3343002  79.5620991  48.9603309  95.8883690  66.8435638
  48.2672554  95.9628045  66.1875674  48.7155061  95.1244033  67.3657155
  55.4350434 106.6238285  65.8100155  54.8624402 107.2428472  65.3570627
  56.0083228 107.1737647  66.3440077  61.5025824  95.8696925  77.9946704
  62.4543247  95.9695023  78.0158928  61.3329275  95.0775194  78.5044788
  59.5240204  92.9552508  78.1806105  58.9290136  93.2357521  77.4852593
  59.2389901  93.4446409  78.9522846  58.6547694 106.9075435  66.9408737
  59.5878367 106.8420997  67.1441613  58.5670907 107.7431702  66.4823270
  61.2835711 106.2241305  63.9012685  61.2049342 105.8901169  64.7948443
  62.1045378 106.7163073  63.9004157  63.9813902  99.0903045  77.1089003
  63.9490222  98.1519046  77.2948687  64.5914526  99.1687082  76.3754828
  55.8197233  97.9599098  63.1516207  56.7656338  97.8305306  63.2204625
  55.4411478  97.2213760  63.6285636  64.1308391  95.8814088  77.1547287
  63.6147439  95.0972545  76.9677215  65.0148339  95.5532805  77.3193806
  69.7990452 100.1519052  76.2495040  70.5293840  99.8904340  76.8102744
  69.1897397  99.4147774  76.2897108  67.8805749  98.2926914  76.8469491
  67.1538913  98.1582879  76.2385983  67.4653036  98.6003743  77.6526209
  55.7035926 102.0116844  84.6116864  56.6238935 102.1895443  84.8056911
  55.6685509 101.0672889  84.4596564  54.0040150  95.8849074  63.0871093
  53.0971606  95.5882187  63.1633806  54.2816131  95.5878892  62.2205379
  44.9218091  97.2055438  73.5370139  44.6020875  96.3520746  73.2444513
  44.3751519  97.4204016  74.2928106  48.6997998  99.9217879  77.2539646
  48.9184008 100.8534986  77.2727679  49.1123772  99.5625853  78.0394449
  53.5725863  95.4951084  86.6442394  53.4722590  96.4445441  86.5754486
  53.3547405  95.1669323  85.7718465  52.7738935  92.7436009  63.2283072
  53.6358099  93.0690908  63.4878889  52.9589279  91.9567505  62.7156138
  44.7906351 100.8258349  75.5063261  44.0969822 100.4112302  74.9933215
  45.5379342 100.8678886  74.9096680  60.9271571  91.6164536  70.3718295
  60.3470240  92.2749340  69.9896347  60.6607504  90.7941880  69.9605712
  59.3775138  91.0169594  72.5739615  59.8774916  91.1286128  71.7653934
  60.0210746  90.7130646  73.2140424  53.4357133  98.9248223  85.4607456
  52.9524215  99.7248583  85.6671345  53.5218072  98.9356168  84.5074900
  46.7043093 100.7576603  73.3829276  46.6813781 100.8564290  72.4311159
  47.0143730 101.6041754  73.7046442  49.3630471 102.8152758  77.4975890
  50.3173724 102.7836700  77.4305821  49.1642995 102.3543382  78.3126116
  49.9529853 101.3853874  80.0646688  50.7722742 101.8797953  80.0881525
  50.2266661 100.4685842  80.0364255  59.7096449  93.7764626  69.4274643
  58.8222304  94.0614277  69.2094838  60.1250438  93.6158390  68.5801920
  63.0610985  93.8011147  73.1428982  63.8371376  94.2907600  73.4153599
  62.3359120  94.2269201  73.6000852  65.4983544  94.5138766  74.2002923
  66.0928035  94.2734502  73.4896231  65.5710128  93.7945897  74.8276459
  47.7180700 108.3572377  74.5146088  47.5835168 107.5972778  73.9484086
  47.3012762 109.0813277  74.0474877  58.8539663 103.5409301  63.5222663
  59.5575513 103.7459303  64.1380319  58.1302311 104.1086063  63.7871747
  59.6837473  99.2919162  69.6424933  59.6272674  99.7487714  68.8032566
  60.2365815  98.5309847  69.4647776  63.4942279  95.0808894  70.4675053
  63.2379213  94.6805530  71.2983260  62.8695147  95.7952688  70.3425192
  67.8054617  97.8204967  72.9746344  67.2454175  97.8898157  73.7477906
  67.1998120  97.6445952  72.2545840  50.8749826 109.2541694  74.7264530
  50.7582210 110.1987127  74.6243221  50.0542272 108.9515256  75.1150330
  60.7626360 103.9791830  65.5721123  61.5971964 103.5473029  65.3898598
  60.6010703 103.8073844  66.4998018  60.4172252 100.4823943  66.9377462
  60.3621056 100.3168215  65.9965907  59.7918308 101.1899976  67.0939652
  45.2064767  95.7192008  80.7638885  45.8523631  95.2090962  81.2526110
  44.9981918  96.4560689  81.3382310  57.7318159 102.7872855  86.2631025
  58.6009319 102.9613508  85.9017660  57.2524911 103.6067272  86.1406755
  51.9004340 109.9069956  77.9420459  52.8031586 109.9393567  78.2586954
  51.6741710 108.9770407  77.9566795  53.6557942 108.6600943  74.6030537
  52.7053573 108.6602804  74.4894910  53.9590428 107.9133677  74.0866572
  49.5462258  92.8659625  84.8613899  50.4093720  92.5096430  85.0717223
  48.9727669  92.5273520  85.5489303  69.3910635 114.4961481  75.6676300
  70.0289045 114.3768229  74.9639640  69.2731478 115.4442325  75.7264252
  66.2000342 114.4488909  75.6037825  65.8618853 114.3329974  74.7158359
  67.0690110 114.0480074  75.5838831  62.0587157 116.3024386  71.5934716
  61.4952022 116.2114323  70.8251003  61.9439552 115.4824290  72.0737208
  66.6820125 115.6023761  81.5624030  66.6708765 115.2076559  80.6904534
  66.8440764 114.8689834  82.1557802  59.6051589 117.7975577  74.4318936
  60.3972881 117.4566402  74.0165235  59.8448239 117.9070552  75.3521089
  67.6386716 119.9695353  66.9049180  66.9874696 120.5549434  66.5183194
  68.4331079 120.5001548  66.9644218  61.5642343 117.0584491  67.3036315
  62.3373219 116.5113478  67.1649191  61.9167742 117.9228740  67.5150776
  63.4027386 118.3860873  80.5103214  63.1117252 119.2906504  80.3949880
  64.0384370 118.4277400  81.2247284  64.3283592 115.7637721  77.1004574
  64.9247165 115.5393744  76.3861537  64.3858564 115.0222467  77.7030022
  63.9008621 113.2177157  64.9354765  64.1534142 112.6958678  64.1738228
  62.9633180 113.0543302  65.0381448  68.9451904 112.2212935  72.7429508
  69.7314993 111.8032358  72.3919925  69.2090608 113.1259027  72.9111156
  69.1161981 117.6585785  67.4418165  68.4807814 117.7320412  68.1539069
  68.7859387 118.2479384  66.7637244  74.3460331 112.1588168  73.6462486
  75.0785503 111.5887385  73.8800316  73.5899687 111.7709769  74.0868992
  63.6204910 115.1205263  67.1379140  63.5041168 114.4450166  67.8060224
  63.7307170 114.6337637  66.3211293  65.9636451 114.5815410  70.8425829
  65.5994658 114.0546031  71.5538750  66.8203566 114.1913879  70.6692314
  71.8685751 105.8709742  78.1057095  71.5369076 106.7405153  77.8818310
  71.2731365 105.5546026  78.7851125  65.6041938 109.6105309  65.8387177
  65.7716340 110.4785546  66.2057648  65.4139107 109.7732591  64.9148467
  68.3617271 118.0722288  77.5053008  68.0617994 118.9747327  77.3968815
  68.0168330 117.8054472  78.3574161  61.8129752 114.5236085  73.5389712
  60.8880249 114.3912299  73.7467404  62.0614165 115.3030304  74.0359655
  71.7614415 110.5904829  75.1850445  70.8531292 110.5220237  74.8909206
  71.7102010 111.0676773  76.0132271  65.5831158 112.0662967  66.8233844
  65.4630784 112.5120018  67.6619325  64.8883747 112.4148285  66.2647382
  59.1738563 114.1669359  74.3733501  59.3030944 114.4203838  75.2872913
  58.4936015 114.7597067  74.0538156  63.3438051 124.8366609  70.4723975
  63.2662080 125.7874434  70.5512456  62.7399694 124.4912481  71.1298902
  65.8355280 112.0094474  83.1285342  65.0588614 112.5688394  83.1188207
  66.4745843 112.4951257  83.6500212  73.6276061 108.7921267  76.9628319
  72.9850441 109.0853800  76.3168114  73.1230989 108.6774187  77.7681516
  71.2816225 112.5384440  67.6514178  72.1934081 112.7711827  67.4761876
  70.7725872 113.1221484  67.0889257  64.0901653 114.8179927  82.6903309
  64.8316337 115.3564971  82.4138133  63.3838638 115.4446216  82.8474861
  69.5656992 116.9609068  81.2875471  69.9740348 116.5191478  80.5430103
  68.8434254 116.3861695  81.5409664  65.9188062 111.8981675  78.6609028
  66.7649257 112.3221088  78.8043677  65.8586700 111.2415299  79.3547591
  69.8885807 117.5210259  75.0427760  69.2594669 117.6855973  74.3403828
  69.5011469 117.9351868  75.8138724  73.7675039 118.4564696  72.3972123
  73.0826077 118.8363598  71.8469157  73.8518888 119.0660023  73.1304071
  69.0687508 109.5586043  80.3190201  68.8248439 110.3128104  79.7824477
  69.3447438 109.9371391  81.1537449  71.0225970 116.1024655  78.9967467
  71.2342866 116.7456415  78.3201848  70.9755719 115.2686972  78.5289397
  68.6252199 108.7142476  75.9004039  67.7636678 109.0123730  76.1920777
  68.6514634 108.9312875  74.9685072  65.4413769 117.2584667  72.3077845
  65.9052114 117.5372370  71.5182467  65.1770567 116.3568111  72.1250936
  62.3337850 116.8056148  75.2457608  62.9039207 117.2343417  74.6075093
  62.9245962 116.5238733  75.9441794  64.3782655 113.3807819  69.1167410
  65.0806698 113.8328863  69.5841336  64.0463283 112.7391638  69.7447303
  62.8263016 111.9719576  83.4918619  62.1961677 112.6535857  83.7254016
  62.7199104 111.8602657  82.5471758  58.1207989 111.6391372  74.4184544
  57.3307043 111.8948900  73.9424654  58.6119236 112.4539710  74.5236584
  72.1371798 118.9796611  77.1689824  72.9589242 118.5776798  76.8872506
  72.1334201 118.8764845  78.1205940  60.0722734 112.0035951  71.3768020
  59.2753897 112.1154645  71.8951516  59.8448326 112.3422603  70.5108911
  65.9028402 118.5280654  79.3250535  65.9672834 118.9901061  80.1608707
  65.1939326 117.8978019  79.4532845  56.4045692 111.8921862  76.8499534
  56.6553730 112.7768872  77.1157110  56.9405240 111.7126464  76.0774626
  80.2277791 115.3235359  73.5174796  79.4741500 114.7542757  73.3618800
  80.3625333 115.2898024  74.4645431  65.6176419 120.1948762  69.1929515
  65.4822094 121.0400297  69.6214363  66.1586232 120.3968039  68.4295449
  62.1043759 106.2740342  85.8543870  61.7110705 105.7206540  86.5291515
  62.9209899 106.5850920  86.2450388  59.0705817 117.7124200  69.7657440
  59.5830337 118.5067450  69.9163005  59.7228530 117.0150490  69.6991042
  60.8800702 120.8289956  71.8480193  61.0567330 121.7507921  71.6601177
  61.6757535 120.5148375  72.2774573  65.0211720 107.6898221  83.4464127
  65.7621433 108.2905374  83.3668589  65.2529643 106.9475858  82.8882170
  60.1653058 112.8754588  81.7242357  60.0506573 111.9739845  82.0249456
  59.3097576 113.1218285  81.3727173  67.2444896 120.8172328  83.3229857
  66.8008750 120.0308707  83.0050762  67.9062109 121.0051479  82.6573748
  62.0032017 122.3468130  77.8490536  62.5539442 122.2185193  77.0767530
  61.1643493 122.6463019  77.4985429  69.3426134 121.0975128  81.3511259
  69.3244609 121.9184009  80.8591528  70.2646054 120.9729203  81.5761400
  65.7999188 118.6119258  82.1934767  66.3327525 117.8507546  81.9634075
  65.2713269 118.3192909  82.9358921  68.9668883 103.7179324  77.7228409
  68.6233152 104.6080965  77.6467519  69.3347846 103.5280981  76.8597994
  57.0354734 116.0412854  70.5417011  57.8729956 116.4509862  70.3250719
  57.2133001 115.1012296  70.5117205  68.9319166 113.7087935  66.2300844
  68.4165789 114.4792539  66.4689231  68.6596474 113.0353071  66.8533905
  66.5166277 108.5537635  71.2886082  65.6607873 108.1644486  71.1091721
  66.9293229 108.6329596  70.4285868  68.0465423 106.0883979  75.6877642
  67.5430219 106.0514114  74.8745447  68.3396030 106.9976721  75.7474299
  64.2908309 106.1722708  74.6943824  65.1561306 105.9765517  74.3349713
  64.3585818 105.9433060  75.6213180  73.9053440 116.4620289  68.1654017
  73.1282883 116.1231449  67.7209179  74.5844921 116.4672912  67.4908982
  68.7205469 111.5815027  68.0560625  68.4155604 111.8961176  68.9070768
  69.6735911 111.6596447  68.0987958  67.1651901 117.7405250  69.7053579
  66.6373262 117.0058010  69.3926816  66.6639403 118.5179926  69.4593547
  72.1444747 115.9354271  74.8220625  71.4868421 116.6253532  74.9100754
  72.9485146 116.3250702  75.1654612  61.8970628 108.4024916  72.0660190
  62.4714380 108.1800098  71.3333383  62.4841611 108.4713611  72.8188792
  70.9550206 114.2898643  72.8724567  71.4682087 114.9228635  73.3746277
  71.6051429 113.6899839  72.5067927  62.2240215 110.4329377  66.0856076
  61.3877528 110.7704064  66.4065350  62.0844985 110.2978357  65.1483213
  64.1993296 105.2766165  70.7935260  63.5457708 104.9615182  70.1691875
  64.1573770 104.6541906  71.5195083  65.3104501 115.5585460  62.7088552
  64.4031563 115.3274714  62.9079701  65.8075533 114.7623080  62.8962534
  68.2172580 124.2682968  65.6285238  67.5434279 124.5714664  66.2370196
  68.6038402 125.0712048  65.2790695  67.4331036 111.7648099  75.1182908
  66.5153598 111.9863046  74.9604596  67.8491180 111.8394409  74.2594615
  68.2166084 113.1639514  70.2485588  68.9637903 113.6760912  69.9392710
  68.4857674 112.8423567  71.1089981  66.4892734 115.6598055  67.2312542
  65.5803954 115.3757088  67.3285012  66.5187818 116.0797134  66.3715849
  71.7212002 119.2704645  71.0003710  71.2674329 118.4295555  71.0568900
  71.0905968 119.9066043  71.3378490  70.6644921 110.1996631  72.2304377
  69.9267678 109.6874017  72.5614620  70.9171695 109.7597012  71.4187654
  70.1644941 121.1081141  71.9353528  70.4567915 121.6686198  71.2165893
  70.6743562 121.4009702  72.6906687  70.7656549 102.9772883  72.8246146
  71.0715425 102.1170246  72.5372061  71.4909153 103.5690503  72.6245140
  57.0580905 113.3803569  71.2127744  56.8605305 112.7872930  70.4878811
  56.5027569 113.0755780  71.9303683  65.0377628 113.2726676  73.3322337
  65.0926238 112.3200512  73.2564814  64.2268830 113.4286115  73.8163636
  66.1868822 117.2006799  64.5700621  65.7488252 116.4842658  64.1106258
  66.9279263 117.4282914  64.0085712  62.9769988 111.8903736  71.0912716
  62.1637854 112.1897906  71.4977908  63.4728983 111.4959424  71.8087199
  65.1278566 121.8861492  73.0246981  65.0854745 122.1122339  72.0955513
  66.0441265 121.6524867  73.1732782  68.5744200 112.3545560  79.9227610
  68.9293588 112.5817033  80.7822076  69.2216331 112.6863937  79.3004865
  74.3041937 115.4763996  70.6276939  74.1659836 115.6665592  69.6998128
  73.9478156 116.2383379  71.0844990  62.4684063 109.4622091  76.7073951
  63.1083442 109.3210850  76.0096915  61.6361594 109.1756604  76.3312553
  74.3311317 117.5440523  75.6388211  74.7647823 117.4515812  76.4871265
  75.0442897 117.5198023  75.0008227  63.2444367 118.7624521  72.8208944
  64.0384965 118.2674842  72.6191519  62.5336059 118.2342385  72.4576649
  68.0639211 121.1442617  77.1721311  68.1176234 121.7133553  77.9399027
  67.1953993 121.3144502  76.8075348  59.5527130 112.9067603  68.8968696
  58.6224719 112.8452059  69.1138659  59.6484602 112.3843556  68.1005338
  59.4712680 109.4322416  71.4846938  59.7319497 110.3467749  71.3756098
  60.2929852 108.9646859  71.6343551  60.9437605 110.8460173  78.6545763
  61.6160658 110.6377535  78.0058411  60.1167391 110.6482259  78.2150995
  75.1926866 117.5864224  78.1721096  75.3862756 118.4910034  78.4180371
  75.0927484 117.1271643  79.0059681  66.8463177 107.4722114  80.6711423
  66.1991092 108.1712064  80.5775900  67.6164192 107.9058258  81.0387672
  70.2541975 117.7370966  83.7461977  70.1027481 117.5081518  82.8292060
  70.2446654 118.6941568  83.7593322  67.0227311 115.3102879  78.7308243
  67.9519371 115.4614039  78.5577210  66.6018341 115.3986900  77.8756890
  65.8215643 119.3353543  76.5006781  65.6826729 118.9672328  77.3732719
  65.0330239 119.8501183  76.3290739  66.4163795 124.4362640  67.8432317
  66.5915551 123.9650683  68.6577940  65.7296583 125.0628406  68.0713578
  67.3720858 118.7135146  73.8895619  67.0370691 118.6735916  74.7853268
  66.8724804 118.0479862  73.4166029  61.3465102 114.1202776  79.4148200
  61.2084900 113.3883015  80.0159739  62.2570026 114.0311676  79.1332387
  70.3080050 116.0591181  64.1632678  69.6909220 115.3338009  64.0665731
  69.8396538 116.8200541  63.8199752  63.9747403 113.8322736  78.9031879
  64.6847021 113.1915928  78.8618498  63.9316711 114.0835630  79.8258060
  71.9634181 120.7690089  81.8238459  71.9046728 120.0849309  81.1569042
  72.3653700 121.5109079  81.3719085  62.6876337 110.8187953  80.7227519
  62.1513694 110.3678692  81.3749115  62.0993045 110.9533862  79.9797983
  62.0978596 110.2776605  63.2853982  61.2208062 110.1565406  62.9216229
  62.5736349 109.4862683  63.0332871  71.9651589 118.7329673  80.0552438
  71.0778367 118.3955595  80.1778837  72.5350140 118.0012704  80.2921204
  53.6180736 115.0653765  73.3795490  54.3051776 114.7515495  72.7916505
  53.4628865 115.9695129  73.1062741  58.4215458 109.9543961  77.8080513
  58.3373647 109.3469631  77.0730923  57.5998164 110.4452979  77.8090010
  65.4952742 123.3931125  77.0213681  65.4222914 124.1986097  77.5332986
  65.0530135 123.5923091  76.1961703  65.2842522 122.6302895  70.5316503
  64.5010044 123.1724575  70.6254728  65.9835267 123.1476875  70.9310744
  68.5939172 108.4397525  73.1750708  69.0907871 107.6867487  72.8551779
  67.8226153 108.4761841  72.6093918  76.4468929 114.1437890  74.8169000
  76.4358805 115.0262606  74.4462933  75.5786309 113.7909441  74.6223537
  67.9551426 123.2917959  79.1771840  68.6679398 123.9265424  79.1047742
  67.4641454 123.3881825  78.3611842  69.6768953 117.1969212  70.7489132
  68.7425231 117.3170674  70.5793836  69.8545621 116.2941679  70.4849142
  65.1774141 110.5814908  72.9022393  64.8071928 110.0285948  73.5903299
  65.6733233 109.9773041  72.3497393  73.0641504 113.0386531  71.2839166
  73.5301956 113.8714523  71.2099469  73.5149004 112.5731513  71.9884424
  63.0063339 121.0412403  79.9977411  63.7072799 121.6748886  80.1506805
  62.5358454 121.3827134  79.2373050  71.1317735 119.3830352  68.2825318
  71.4077579 119.2686947  69.1919192  70.2622234 118.9847837  68.2437491
  71.0358167 105.4067118  75.3230067  70.1221246 105.6371345  75.4912274
  71.4651268 105.4905562  76.1744100  70.8064625 113.5957010  77.8229961
  70.1536075 113.8432918  77.1682414  71.1845005 112.7821148  77.4892439
  67.7671799 123.6316703  71.9258132  67.9494194 122.8138359  72.3885884
  68.5904785 123.8484396  71.4883022  68.1013964 122.5584888  69.1873180
  68.6301731 122.0477343  68.5743342  68.3642184 122.2427419  70.0518713
  66.8552198 114.3376821  84.3095998  66.1792835 114.2370950  84.9798374
  67.6779832 114.1816035  84.7731996  58.6031057 120.5748758  76.9308514
  59.1884494 119.8292446  77.0636418  58.4055896 120.8852714  77.8145178
  61.4569712 123.6100005  71.9470956  60.7880088 124.0946133  71.4634996
  61.3182582 123.8569226  72.8614335  53.1948712 113.1454358  75.6512957
  53.2332811 112.6117949  76.4450075  52.6889005 112.6189563  75.0323934
  65.5974981 125.6443749  78.5453614  66.1493289 125.8075370  79.3102700
  65.9381174 126.2348186  77.8733639  60.5739474 107.9918898  79.1475499
  60.6380801 108.8533729  78.7352897  60.5106594 107.3792900  78.4147858
  60.0491747 110.0642031  82.7948533  60.6763786 109.6819108  83.4086058
  59.1919666 109.8456233  83.1604226  70.4485855 120.4705006  84.4002269
  70.9925759 121.0834964  83.9057224  69.8672700 121.0284585  84.9169282
  56.8257290 111.8718460  68.7266888  57.1210731 110.9629138  68.6733942
  55.9245325 111.8506199  68.4047891  68.7343368 123.5925724  75.5317297
  68.6094508 122.7915464  75.0228242  69.3922459 124.0871917  75.0431266
  60.3551537 109.9474457  74.7094437  59.6338122 110.5610424  74.5701910
  61.1444792 110.4832221  74.6311083  70.7978277 121.3934744  77.1596847
  69.8508612 121.2740095  77.0875173  71.1461050 120.5057242  77.2423108
  63.1577850 107.2828883  80.9835089  63.6812252 107.5291180  81.7461398
  62.9390183 108.1148918  80.5638226  58.5545131 109.5532558  68.8506213
  58.2257837 108.6729937  68.6681319  58.9084502 109.4980226  69.7382603
  67.8024710 121.1887460  73.3601199  67.6549672 120.2604168  73.5408769
  68.6278203 121.2107551  72.8758274  61.6686954 109.8405528  69.2181691
  62.0083027 110.3691449  68.4960299  62.1159075 110.1785934  69.9940258
  71.4058832 122.0116019  74.4466072  72.3305379 121.8058880  74.3090523
  71.2374135 121.7632420  75.3555413  64.3630395 108.2242578  78.6684759
  64.0227215 107.4250391  79.0705439  63.6569401 108.5244289  78.0961592
  65.0146867 105.3091891  77.1212082  65.8372936 104.8352369  76.9990972
  65.2584930 106.0882374  77.6210768  63.6555101 108.3380149  67.4174984
  64.3763464 108.7161402  66.9138701  63.0320406 109.0569026  67.5209962
  67.7986224 109.0425298  68.3533316  68.0149839 109.9249936  68.0522144
  67.3180291 108.6511511  67.6238958  62.5385446 112.0011011  74.9304061
  62.3930026 112.3151314  75.8228342  62.0610649 112.6195912  74.3774959
  64.3981829 108.9913559  74.9784950  64.3843397 108.0954653  74.6417248
  65.1154257 108.9984223  75.6123236  66.2507959 109.4250899  77.0238078
  65.9925737 110.3467970  77.0222408  65.7193000 109.0281334  77.7138542
  71.1954148 122.5301687  69.8028163  71.3691026 121.9648109  69.0502016
  71.6883039 123.3302581  69.6207653  57.0131108 114.5416356  77.8691722
  56.4684576 115.3176164  78.0011996  57.8910458 114.8887160  77.7110843
  63.8018724 107.8727940  70.2472520  63.9234636 106.9444586  70.4463408
  63.5120767 107.8866626  69.3350836  66.6709915 105.5582850  73.3839240
  66.6931612 105.6222183  72.4291220  67.0877974 104.7187359  73.5779746
  77.0493539 115.2938110  71.4218463  77.4924685 114.5445435  71.0237586
  76.1720049 115.2848246  71.0392195  72.1829321 121.8468451  66.9025061
  72.8780225 122.4675144  67.1212376  72.5252471 120.9963802  67.1777439
  57.7997130 113.6686252  80.7621879  57.0578866 113.8168887  81.3486509
  57.4789874 113.9294518  79.8988628  74.0820744 119.2968157  68.4312392
  74.6072068 119.6355429  67.7061712  73.9943096 118.3615172  68.2475527
  65.7440792 123.2102230  80.5602269  66.0527919 122.9651377  81.4324968
  66.5416274 123.4148869  80.0721139  65.7661404 125.3640140  72.7907645
  65.3266395 124.8716519  73.4840502  66.5169521 124.8213107  72.5499721
  58.2453743 121.5551681  72.7932273  59.0711763 121.2555453  72.4130917
  57.8947795 120.7859303  73.2422062  63.2135277 120.9078149  74.8629947
  62.5915286 120.2448854  74.5632175  63.8840143 120.9339281  74.1803595
  56.4462348 119.4738007  73.7521207  55.6094257 119.0460181  73.5705208
  56.4185994 119.6670450  74.6891998  63.2859804 109.3859937  84.4562453
  63.3347960 110.2622060  84.0740223  63.8282318 108.8437330  83.8834096
  73.7714650 119.9301060  83.7363590  72.9810193 119.9125199  83.1968089
  73.5348004 120.4689354  84.4912627  73.8912525 116.7793527  81.0496319
  73.9410530 116.6143534  81.9911841  73.7826448 115.9120786  80.6594199
  62.7748783 119.4582072  68.3388408  62.9236904 120.1417537  67.6855080
  63.5815227 119.4387162  68.8537863  71.1816287 112.7624455  82.3655625
  72.0826150 112.6230919  82.0739623  71.2564262 112.9278909  83.3053803
  65.5159092 110.1391309  81.2108812  64.6462402 110.4324875  80.9391400
  65.7518573 110.7231754  81.9316075  75.3930722 119.1990468  81.2938340
  75.1015530 119.5620449  82.1301801  74.7802853 118.4857476  81.1151672
  76.5926404 116.7643348  73.8140910  77.4273295 117.2033152  73.9778471
  76.7285533 116.2882001  72.9949156  73.6417910 114.3223083  79.7618398
  74.1172031 114.5150729  78.9537250  72.7183475 114.3782269  79.5161782
  60.5301416 115.4847250  69.3449476  60.2847458 114.5809580  69.5429687
  60.6997331 115.4864400  68.4028954  68.2198126 106.3570926  78.7274232
  68.7380070 107.0931953  78.4020721  67.8653259 106.6634920  79.5620991
  59.7997064 111.2175607  66.8435638  59.1066309 111.2919962  66.1875674
  59.5548816 110.4535951  67.3657155  68.4710720 102.7771209  74.2475129
  68.7512474 102.1094398  74.8735555  69.2561327 102.9700304  73.7349792
  66.2744189 121.9530203  65.8100155  65.7018156 122.5720390  65.3570627
  66.8476983 122.5029564  66.3440077  72.3419579 111.1988843  77.9946704
  73.2937002 111.2986940  78.0158928  72.1723029 110.4067111  78.5044788
  70.3633958 108.2844426  78.1806105  69.7683890 108.5649439  77.4852593
  70.0783655 108.7738327  78.9522846  69.4941449 122.2367353  66.9408737
  70.4272122 122.1712915  67.1441613  69.4064662 123.0723620  66.4823270
  72.1229465 121.5533223  63.9012685  72.0443097 121.2193087  64.7948443
  72.9439132 122.0454991  63.9004157  74.8207657 114.4194962  77.1089003
  74.7883977 113.4810963  77.2948687  75.4308280 114.4978999  76.3754828
  66.6590987 113.2891015  63.1516207  67.6050092 113.1597224  63.2204625
  66.2805232 112.5505677  63.6285636  74.9702145 111.2106006  77.1547287
  74.4541194 110.4264463  76.9677215  75.8542094 110.8824723  77.3193806
  72.6312872 104.9547021  73.1143099  72.4337693 104.6462110  73.9986431
  73.2412578 105.6808660  73.2441029  80.6384206 115.4810969  76.2495040
  81.3687595 115.2196257  76.8102744  80.0291152 114.7439691  76.2897108
  78.7199504 113.6218832  76.8469491  77.9932667 113.4874797  76.2385983
  78.3046790 113.9295661  77.6526209  66.5429680 117.3408762  84.6116864
  67.4632689 117.5187361  84.8056911  66.5079263 116.3964807  84.4596564
  64.8433905 111.2140992  63.0871093  63.9365360 110.9174105  63.1633806
  65.1209886 110.9170810  62.2205379  55.7611845 112.5347355  73.5370139
  55.4414629 111.6812663  73.2444513  55.2145273 112.7495933  74.2928106
  59.5391753 115.2509796  77.2539646  59.7577762 116.1826904  77.2727679
  59.9517526 114.8917771  78.0394449  66.4595970 105.7577882  69.2415334
  65.6496699 105.4124967  69.6170580  67.1480387 105.4485425  69.8302946
  68.3886519 104.8355928  70.8639631  68.9417557 105.2551382  71.5229654
  68.6256605 103.9091676  70.9062587  64.4119618 110.8243002  86.6442394
  64.3116345 111.7737359  86.5754486  64.1941160 110.4961241  85.7718465
  63.6132689 108.0727927  63.2283072  64.4751853 108.3982825  63.4878889
  63.7983033 107.2859423  62.7156138  55.6300105 116.1550267  75.5063261
  54.9363576 115.7404220  74.9933215  56.3773096 116.1970803  74.9096680
  71.7665326 106.9456454  70.3718295  71.1863995 107.6041258  69.9896347
  71.5001258 106.1233798  69.9605712  70.2168892 106.3461511  72.5739615
  70.7168670 106.4578046  71.7653934  70.8604500 106.0422564  73.2140424
  64.2750888 114.2540141  85.4607456  63.7917970 115.0540501  85.6671345
  64.3611827 114.2648086  84.5074900  57.5436848 116.0868521  73.3829276
  57.5207536 116.1856208  72.4311159  57.8537484 116.9333671  73.7046442
  60.2024225 118.1444676  77.4975890  61.1567479 118.1128618  77.4305821
  60.0036749 117.6835299  78.3126116  60.7923608 116.7145792  80.0646688
  61.6116497 117.2089870  80.0881525  61.0660415 115.7977760  80.0364255
  70.5490204 109.1056544  69.4274643  69.6616059 109.3906195  69.2094838
  70.9644193 108.9450307  68.5801920  73.9004740 109.1303065  73.1428982
  74.6765130 109.6199517  73.4153599  73.1752874 109.5561119  73.6000852
  76.3377299 109.8430684  74.2002923  76.9321789 109.6026420  73.4896231
  76.4103882 109.1237815  74.8276459  69.6933417 118.8701219  63.5222663
  70.3969267 119.0751221  64.1380319  68.9696066 119.4377980  63.7871747
  70.5231227 114.6211080  69.6424933  70.4666429 115.0779631  68.8032566
  71.0759570 113.8601764  69.4647776  74.3336033 110.4100812  70.4675053
  74.0772968 110.0097447  71.2983260  73.7088901 111.1244606  70.3425192
  78.6448371 113.1496885  72.9746344  78.0847929 113.2190074  73.7477906
  78.0391875 112.9737870  72.2545840  71.6020115 119.3083748  65.5721123
  72.4365719 118.8764946  65.3898598  71.4404458 119.1365761  66.4998018
  71.2566007 115.8115861  66.9377462  71.2014811 115.6460133  65.9965907
  70.6312062 116.5191894  67.0939652  56.0458522 111.0483925  80.7638885
  56.6917385 110.5382879  81.2526110  55.8375673 111.7852607  81.3382310
  68.5711914 118.1164773  86.2631025  69.4403074 118.2905425  85.9017660
  68.0918665 118.9359190  86.1406755  64.5662132 105.3123970  66.5162781
  64.5540802 106.2565810  66.6731052  65.4585554 105.1294115  66.2222242
  62.7398094 125.2361874  77.9420459  63.6425341 125.2685484  78.2586954
  62.5135464 124.3062325  77.9566795  64.4951696 123.9892860  74.6030537
  63.5447327 123.9894722  74.4894910  64.7984182 123.2425595  74.0866572
  68.3814252 101.9066747  70.7708718  67.6146648 101.3525233  70.9165400
  68.7924957 101.9788615  71.6322869  60.3856013 108.1951543  84.8613899
  61.2487474 107.8388347  85.0717223  59.8121423 107.8565437  85.5489303
  80.2304390 129.8253399  75.6676300  80.8682800 129.7060146  74.9639640
  80.1125233 130.7734243  75.7264252  77.0394096 129.7780827  75.6037825
  76.7012608 129.6621892  74.7158359  77.9083864 129.3771992  75.5838831
  77.5213879 130.9315679  81.5624030  77.5102520 130.5368477  80.6904534
  77.6834518 130.1981751  82.1557802  74.7402375 128.5469074  64.9354765
  74.9927896 128.0250596  64.1738228  73.8026934 128.3835220  65.0381448
  79.7845658 127.5504853  72.7429508  80.5708747 127.1324276  72.3919925
  80.0484363 128.4550945  72.9111156  85.1854085 127.4880086  73.6462486
  85.9179257 126.9179303  73.8800316  84.4293441 127.1001686  74.0868992
  76.8030205 129.9107327  70.8425829  76.4388412 129.3837948  71.5538750
  77.6597321 129.5205796  70.6692314  82.7079506 121.2001660  78.1057095
  82.3762830 122.0697071  77.8818310  82.1125119 120.8837944  78.7851125
  76.4435692 124.9397227  65.8387177  76.6110094 125.8077464  66.2057648
  76.2532861 125.1024509  64.9148467  82.6008169 125.9196746  75.1850445
  81.6925046 125.8512155  74.8909206  82.5495765 126.3968691  76.0132271
  76.4224913 127.3954885  66.8233844  76.3024538 127.8411935  67.6619325
  75.7277501 127.7440202  66.2647382  76.6749035 127.3386392  83.1285342
  75.8982369 127.8980312  83.1188207  77.3139598 127.8243175  83.6500212
  84.4669815 124.1213185  76.9628319  83.8244196 124.4145718  76.3168114
  83.9624744 124.0066105  77.7681516  82.1209979 127.8676358  67.6514178
  83.0327835 128.1003745  67.4761876  81.6119626 128.4513402  67.0889257
  76.7581817 127.2273592  78.6609028  77.6043012 127.6513006  78.8043677
  76.6980454 126.5707217  79.3547591  79.9081262 124.8877961  80.3190201
  79.6642194 125.6420021  79.7824477  80.1841193 125.2663308  81.1537449
  79.4645954 124.0434394  75.9004039  78.6030433 124.3415647  76.1920777
  79.4908388 124.2604793  74.9685072  75.2176409 128.7099737  69.1167410
  75.9200453 129.1620780  69.5841336  74.8857038 128.0683556  69.7447303
  73.6656771 127.3011493  83.4918619  73.0355431 127.9827774  83.7254016
  73.5592859 127.1894575  82.5471758  68.9601743 126.9683289  74.4184544
  68.1700797 127.2240818  73.9424654  69.4512991 127.7831627  74.5236584
  70.9116489 127.3327869  71.3768020  70.1147652 127.4446563  71.8951516
  70.6842081 127.6714521  70.5108911  72.9437514 121.6032259  85.8543870
  72.5504459 121.0498458  86.5291515  73.7603654 121.9142838  86.2450388
  75.8605475 123.0190138  83.4464127  76.6015188 123.6197291  83.3668589
  76.0923397 122.2767776  82.8882170  79.8062638 119.0471241  77.7228409
  79.4626907 119.9372883  77.6467519  80.1741600 118.8572899  76.8597994
  79.7712920 129.0379852  66.2300844  79.2559544 129.8084457  66.4689231
  79.4990229 128.3644988  66.8533905  77.3560031 123.8829553  71.2886082
  76.5001628 123.4936403  71.1091721  77.7686983 123.9621514  70.4285868
  78.8859178 121.4175896  75.6877642  78.3823973 121.3806032  74.8745447
  79.1789785 122.3268639  75.7474299  75.1302064 121.5014626  74.6943824
  75.9955061 121.3057435  74.3349713  75.1979573 121.2724978  75.6213180
  79.5599223 126.9106944  68.0560625  79.2549359 127.2253094  68.9070768
  80.5129666 126.9888364  68.0987958  72.7364383 123.7316834  72.0660190
  73.3108135 123.5092016  71.3333383  73.3235365 123.8005529  72.8188792
  81.7943960 129.6190561  72.8724567  82.3075842 130.2520553  73.3746277
  82.4445184 129.0191756  72.5067927  73.0633970 125.7621295  66.0856076
  72.2271282 126.0995982  66.4065350  72.9238740 125.6270275  65.1483213
  75.0387051 120.6058083  70.7935260  74.3851463 120.2907100  70.1691875
  74.9967525 119.9833823  71.5195083  78.2724791 127.0940016  75.1182908
  77.3547352 127.3154963  74.9604596  78.6884935 127.1686327  74.2594615
  79.0559839 128.4931432  70.2485588  79.8031658 129.0052829  69.9392710
  79.3251428 128.1715485  71.1089981  81.5038676 125.5288548  72.2304377
  80.7661433 125.0165935  72.5614620  81.7565449 125.0888930  71.4187654
  81.6050303 118.3064800  72.8246146  81.9109180 117.4462164  72.5372061
  82.3302908 118.8982421  72.6245140  75.8771383 128.6018593  73.3322337
  75.9319993 127.6492430  73.2564814  75.0662585 128.7578033  73.8163636
  73.8163743 127.2195653  71.0912716  73.0031608 127.5189824  71.4977908
  74.3122737 126.8251342  71.8087199  79.4137955 127.6837478  79.9227610
  79.7687342 127.9108951  80.7822076  80.0610086 128.0155854  79.3004865
  73.3077818 124.7914009  76.7073951  73.9477197 124.6502768  76.0096915
  72.4755348 124.5048522  76.3312553  70.3920885 128.2359521  68.8968696
  69.4618473 128.1743976  69.1138659  70.4878357 127.7135474  68.1005338
  70.3106434 124.7614334  71.4846938  70.5713251 125.6759667  71.3756098
  71.1323606 124.2938776  71.6343551  71.7831359 126.1752091  78.6545763
  72.4554413 125.9669453  78.0058411  70.9561146 125.9774177  78.2150995
  77.6856931 122.8014032  80.6711423  77.0384846 123.5003981  80.5775900
  78.4557947 123.2350176  81.0387672  77.8621066 130.6394797  78.7308243
  78.7913126 130.7905956  78.5577210  77.4412096 130.7278818  77.8756890
  81.1473804 131.3883098  64.1632678  80.5302975 130.6629926  64.0665731
  80.6790293 132.1492458  63.8199752  74.8141157 129.1614653  78.9031879
  75.5240776 128.5207845  78.8618498  74.7710465 129.4127548  79.8258060
  73.5270091 126.1479871  80.7227519  72.9907448 125.6970610  81.3749115
  72.9386800 126.2825780  79.9797983  72.9372350 125.6068522  63.2853982
  72.0601817 125.4857323  62.9216229  73.4130103 124.8154601  63.0332871
  69.2609212 125.2835879  77.8080513  69.1767401 124.6761548  77.0730923
  68.4391919 125.7744897  77.8090010  79.4332926 123.7689442  73.1750708
  79.9301626 123.0159405  72.8551779  78.6619908 123.8053759  72.6093918
  76.0167895 125.9106825  72.9022393  75.6465683 125.3577866  73.5903299
  76.5126988 125.3064959  72.3497393  83.9035258 128.3678449  71.2839166
  84.3695711 129.2006440  71.2099469  84.3542759 127.9023430  71.9884424
  81.8751921 120.7359036  75.3230067  80.9615001 120.9663263  75.4912274
  82.3045023 120.8197480  76.1744100  81.6458380 128.9248928  77.8229961
  80.9929830 129.1724835  77.1682414  82.0238760 128.1113066  77.4892439
  77.6945953 129.6668739  84.3095998  77.0186590 129.5662868  84.9798374
  78.5173587 129.5107953  84.7731996  71.4133229 123.3210816  79.1475499
  71.4774555 124.1825647  78.7352897  71.3500349 122.7084818  78.4147858
  70.8885501 125.3933949  82.7948533  71.5157540 125.0111026  83.4086058
  70.0313420 125.1748151  83.1604226  67.6651044 127.2010378  68.7266888
  67.9604485 126.2921056  68.6733942  66.7639080 127.1798117  68.4047891
  71.1945291 125.2766374  74.7094437  70.4731877 125.8902342  74.5701910
  71.9838547 125.8124139  74.6311083  73.9971605 122.6120801  80.9835089
  74.5206006 122.8583097  81.7461398  73.7783938 123.4440836  80.5638226
  69.3938886 124.8824475  68.8506213  69.0651592 124.0021854  68.6681319
  69.7478256 124.8272144  69.7382603  72.5080709 125.1697445  69.2181691
  72.8476781 125.6983366  68.4960299  72.9552829 125.5077851  69.9940258
  75.2024150 123.5534496  78.6684759  74.8620970 122.7542309  79.0705439
  74.4963156 123.8536207  78.0961592  75.8540621 120.6383808  77.1212082
  76.6766691 120.1644287  76.9990972  76.0978685 121.4174292  77.6210768
  74.4948856 123.6672067  67.4174984  75.2157218 124.0453320  66.9138701
  73.8714160 124.3860944  67.5209962  78.6379979 124.3717216  68.3533316
  78.8543593 125.2541854  68.0522144  78.1574046 123.9803429  67.6238958
  73.3779200 127.3302929  74.9304061  73.2323781 127.6443232  75.8228342
  72.9004404 127.9487829  74.3774959  75.2375583 124.3205477  74.9784950
  75.2237152 123.4246570  74.6417248  75.9548011 124.3276141  75.6123236
  77.0901714 124.7542817  77.0238078  76.8319492 125.6759888  77.0222408
  76.5586754 124.3573252  77.7138542  74.6412479 123.2019857  70.2472520
  74.7628390 122.2736503  70.4463408  74.3514521 123.2158543  69.3350836
  77.5103669 120.8874768  73.3839240  77.5325366 120.9514101  72.4291220
  77.9271728 120.0479276  73.5779746  74.1253559 124.7151855  84.4562453
  74.1741714 125.5913977  84.0740223  74.6676073 124.1729248  83.8834096
  82.0210042 128.0916372  82.3655625  82.9219904 127.9522837  82.0739623
  82.0958016 128.2570827  83.3053803  76.3552847 125.4683227  81.2108812
  75.4856156 125.7616793  80.9391400  76.5912327 126.0523672  81.9316075
  79.0591881 121.6862844  78.7274232  79.5773825 122.4223871  78.4020721
  78.7047014 121.9926837  79.5620991  70.6390818 126.5467525  66.8435638
  69.9460063 126.6211880  66.1875674  70.3942570 125.7827869  67.3657155
  79.3104475 118.1063126  74.2475129  79.5906229 117.4386316  74.8735555
  80.0955082 118.2992222  73.7349792  83.1813333 126.5280760  77.9946704
  84.1330756 126.6278858  78.0158928  83.0116784 125.7359029  78.5044788
  81.2027713 123.6136344  78.1806105  80.6077645 123.8941356  77.4852593
  80.9177409 124.1030245  78.9522846  77.4984742 128.6182933  63.1516207
  78.4443847 128.4889141  63.2204625  77.1198987 127.8797595  63.6285636
  85.8095900 126.5397924  77.1547287  85.2934948 125.7556380  76.9677215
  86.6935848 126.2116640  77.3193806  83.4706627 120.2838939  73.1143099
  83.2731448 119.9754027  73.9986431  84.0806332 121.0100578  73.2441029
  75.6827659 126.5432910  63.0871093  74.7759115 126.2466022  63.1633806
  75.9603640 126.2462728  62.2205379  77.2989725 121.0869799  69.2415334
  76.4890453 120.7416884  69.6170580  77.9874142 120.7777343  69.8302946
  79.2280273 120.1647846  70.8639631  79.7811312 120.5843299  71.5229654
  79.4650359 119.2383594  70.9062587  75.2513372 126.1534920  86.6442394
  75.1510099 127.1029277  86.5754486  75.0334914 125.8253159  85.7718465
  74.4526444 123.4019845  63.2283072  75.3145608 123.7274743  63.4878889
  74.6376788 122.6151341  62.7156138  82.6059080 122.2748371  70.3718295
  82.0257749 122.9333175  69.9896347  82.3395013 121.4525716  69.9605712
  81.0562647 121.6753429  72.5739615  81.5562425 121.7869963  71.7653934
  81.6998255 121.3714482  73.2140424  81.3883958 124.4348462  69.4274643
  80.5009813 124.7198112  69.2094838  81.8037947 124.2742225  68.5801920
  84.7398494 124.4594983  73.1428982  85.5158884 124.9491435  73.4153599
  84.0146629 124.8853037  73.6000852  87.1771053 125.1722602  74.2002923
  87.7715544 124.9318338  73.4896231  87.2497637 124.4529732  74.8276459
  81.3624982 129.9502998  69.6424933  81.3060183 130.4071549  68.8032566
  81.9153324 129.1893682  69.4647776  85.1729788 125.7392729  70.4675053
  84.9166722 125.3389365  71.2983260  84.5482656 126.4536523  70.3425192
  82.0959761 131.1407779  66.9377462  82.0408565 130.9752050  65.9965907
  81.4705817 131.8483812  67.0939652  66.8852276 126.3775843  80.7638885
  67.5311140 125.8674797  81.2526110  66.6769427 127.1144525  81.3382310
  75.4055887 120.6415888  66.5162781  75.3934557 121.5857728  66.6731052
  76.2979309 120.4586033  66.2222242  79.2208006 117.2358664  70.7708718
  78.4540402 116.6817151  70.9165400  79.6318711 117.3080533  71.6322869
  71.2249767 123.5243460  84.8613899  72.0881229 123.1680265  85.0717223
  70.6515178 123.1857355  85.5489303  15.1941864  14.8564015  62.3921607
  15.8320274  14.7370763  61.6884947  15.0762707  15.8044859  62.4509559
  12.0031570  14.8091444  62.3283131  11.6650082  14.6932508  61.4403666
  12.8721339  14.4082609  62.3084137   7.8618386  16.6626920  58.3180022
   7.2983251  16.5716857  57.5496310   7.7470781  15.8426824  58.7982515
  12.4851353  15.9626295  68.2869337  12.4739994  15.5679094  67.4149840
  12.6471993  15.2292368  68.8803108   5.4082818  18.1578112  61.1564243
   6.2004110  17.8168936  60.7410542   5.6479468  18.2673087  62.0766396
  13.4417945  20.3297888  53.6294487  12.7905924  20.9151968  53.2428501
  14.2362308  20.8604083  53.6889525   7.3673572  17.4187025  54.0281621
   8.1404448  16.8716012  53.8894497   7.7198971  18.2831274  54.2396083
   9.2058614  18.7463407  67.2348521   8.9148480  19.6509038  67.1195187
   9.8415599  18.7879935  67.9492590  10.1314821  16.1240256  63.8249880
  10.7278394  15.8996278  63.1106843  10.1889793  15.3825001  64.4275328
   9.7039850  13.5779691  51.6600071   9.9565370  13.0561212  50.8983534
   8.7664409  13.4145836  51.7626755  14.7483133  12.5815469  59.4674815
  15.5346222  12.1634892  59.1165232  15.0121837  13.4861561  59.6356463
  14.9193210  18.0188320  54.1663471  14.2839043  18.0922946  54.8784376
  14.5890616  18.6081918  53.4882551  20.1491560  12.5190702  60.3707793
  20.8816732  11.9489919  60.6045623  19.3930915  12.1312303  60.8114299
   9.4236138  15.4807797  53.8624446   9.3072397  14.8052700  54.5305531
   9.5338398  14.9940171  53.0456599  11.7667679  14.9417944  57.5671136
  11.4025887  14.4148565  58.2784057  12.6234795  14.5516413  57.3937621
  14.1648500  18.4324823  64.2298314  13.8649223  19.3349861  64.1214122
  13.8199559  18.1657006  65.0819467   7.6160981  14.8838619  60.2635019
   6.6911477  14.7514834  60.4712711   7.8645394  15.6632839  60.7604961
  17.5645643  10.9507363  61.9095752  16.6562521  10.8822771  61.6154513
  17.5133239  11.4279308  62.7377577  11.3862387  12.4265501  53.5479151
  11.2662012  12.8722552  54.3864631  10.6914976  12.7750819  52.9892689
   9.1469279  25.1969143  57.1969282   9.0693309  26.1476968  57.2757763
   8.5430923  24.8515015  57.8544208  11.6386509  12.3697008  69.8530649
  10.8619843  12.9290928  69.8433514  12.2777072  12.8553791  70.3745519
  19.4307290   9.1523801  63.6873626  18.7881670   9.4456334  63.0413420
  18.9262218   9.0376721  64.4926822  17.0847453  12.8986974  54.3759485
  17.9965309  13.1314361  54.2007182  16.5757100  13.4824019  53.8134564
   9.8932881  15.1782462  69.4148616  10.6347566  15.7167506  69.1383440
   9.1869867  15.8048750  69.5720168  15.3688221  17.3211602  68.0120777
  15.7771577  16.8794013  67.2675410  14.6465483  16.7464230  68.2654970
  11.7219291  12.2584209  65.3854334  12.5680486  12.6823622  65.5288983
  11.6617929  11.6017833  66.0792898  15.6917036  17.8812793  61.7673066
  15.0625898  18.0458507  61.0649134  15.3042698  18.2954402  62.5384030
  19.5706268  18.8167231  59.1217430  18.8857306  19.1966132  58.5714463
  19.6550117  19.4262557  59.8549378  14.8718736   9.9188577  67.0435508
  14.6279668  10.6730638  66.5069784  15.1478667  10.2973925  67.8782755
  16.8257199  16.4627190  65.7212774  17.0374094  17.1058950  65.0447155
  16.7786947  15.6289506  65.2534704  14.4283428   9.0745010  62.6249346
  13.5667907   9.3726264  62.9166083  14.4545863   9.2915409  61.6930378
  11.2444998  17.6187201  59.0323151  11.7083343  17.8974904  58.2427774
  10.9801796  16.7170645  58.8496242   8.1369079  17.1658682  61.9702915
   8.7070436  17.5945951  61.3320399   8.7277190  16.8841267  62.6687100
  10.1813884  13.7410353  55.8412717  10.8837927  14.1931397  56.3086643
   9.8494512  13.0994172  56.4692610  17.9403027  19.3399145  63.8935131
  18.7620471  18.9379332  63.6117813  17.9365430  19.2367379  64.8451247
  11.7059631  18.8883188  66.0495842  11.7704063  19.3503596  66.8854013
  10.9970554  18.2580553  66.1778151  26.0309020  15.6837894  60.2420102
  25.2772729  15.1145292  60.0864107  26.1656561  15.6500558  61.1890737
  11.4207648  20.5551296  55.9174822  11.2853323  21.4002832  56.3459670
  11.9617461  20.7570574  55.1540756   4.8737046  18.0726734  56.4902747
   5.3861566  18.8669984  56.6408312   5.5259758  17.3753024  56.4236348
   6.6831930  21.1892490  58.5725500   6.8598559  22.1110455  58.3846484
   7.4788764  20.8750909  59.0019880  13.0476125  21.1774862  70.0475164
  12.6039979  20.3911241  69.7296068  13.7093338  21.3654013  69.3819055
   7.8063246  22.7070664  64.5735842   8.3570671  22.5787727  63.8012836
   6.9674722  23.0065553  64.2230735  15.1457363  21.4577662  68.0756565
  15.1275838  22.2786543  67.5836834  16.0677283  21.3331738  68.3006706
  11.6030417  18.9721792  68.9180074  12.1358754  18.2110080  68.6879382
  11.0744498  18.6795444  69.6604228  14.7350395  14.0690469  52.9546150
  14.2197018  14.8395073  53.1934538  14.4627703  13.3955605  53.5779212
  19.7084669  16.8222824  54.8899324  18.9314111  16.4833983  54.4454486
  20.3876150  16.8275447  54.2154289  14.5236698  11.9417561  54.7805932
  14.2186833  12.2563710  55.6316075  15.4767140  12.0198981  54.8233265
  12.9683130  18.1007784  56.4298886  12.4404491  17.3660544  56.1172123
  12.4670632  18.8782461  56.1838854  17.9475976  16.2956805  61.5465932
  17.2899650  16.9856066  61.6346061  18.7516375  16.6853237  61.8899918
  16.7581434  14.6501177  59.5969874  17.2713316  15.2831169  60.0991583
  17.4082658  14.0502373  59.2313234  11.1135730  15.9187995  49.4333859
  10.2062791  15.6877248  49.6325008  11.6106762  15.1225614  49.6207840
  14.0203809  24.6285502  52.3530545  13.3465507  24.9317198  52.9615503
  14.4069631  25.4314582  52.0036002  13.2362265  12.1250633  61.8428214
  12.3184827  12.3465580  61.6849902  13.6522409  12.1996943  60.9839921
  14.0197313  13.5242049  56.9730894  14.7669132  14.0363446  56.6638016
  14.2888903  13.2026101  57.8335288  12.2923963  16.0200589  53.9557849
  11.3835182  15.7359622  54.0530318  12.3219047  16.4399668  53.0961156
  17.5243231  19.6307179  57.7249016  17.0705558  18.7898089  57.7814207
  16.8937197  20.2668577  58.0623796  16.4676150  10.5599165  58.9549684
  15.7298907  10.0476551  59.2859926  16.7202924  10.1199547  58.1432961
  15.9676170  21.4683676  58.6598834  16.2599144  22.0288733  57.9411200
  16.4774790  21.7612237  59.4151993  10.8408857  13.6329210  60.0567644
  10.8957467  12.6803046  59.9810121  10.0300059  13.7888649  60.5408942
  11.9900051  17.5609333  51.2945927  11.5519481  16.8445192  50.8351565
  12.7310492  17.7885448  50.7331019  10.9309795  22.2464027  59.7492288
  10.8885974  22.4724873  58.8200820  11.8472494  22.0127401  59.8978089
  14.3775429  12.7148094  66.6472917  14.7324817  12.9419567  67.5067383
  15.0247560  13.0466471  66.0250172  20.1073166  15.8366530  57.3522246
  19.9691064  16.0268126  56.4243435  19.7509385  16.5985913  57.8090297
  20.1342545  17.9043057  62.3633517  20.5679052  17.8118346  63.2116571
  20.8474126  17.8800558  61.7253533   9.0475596  19.1227056  59.5454250
   9.8416194  18.6277376  59.3436825   8.3367288  18.5944919  59.1821956
  13.8670440  21.5045151  63.8966618  13.9207463  22.0736088  64.6644334
  12.9985222  21.6747036  63.5320655  20.9958095  17.9466758  64.8966403
  21.1893985  18.8512568  65.1425678  20.8958713  17.4874177  65.7304988
  16.0573204  18.0973501  70.4707283  15.9058710  17.8684052  69.5537367
  16.0477883  19.0544102  70.4838628  12.8258540  15.6705413  65.4553550
  13.7550600  15.8216573  65.2822517  12.4049570  15.7589434  64.6002196
  11.6246872  19.6956078  63.2252087  11.4857957  19.3274862  64.0978026
  10.8361468  20.2103717  63.0536045  12.2195024  24.7965174  54.5677624
  12.3946779  24.3253217  55.3823247  11.5327812  25.4230940  54.7958885
  13.1752087  19.0737680  60.6140925  12.8401920  19.0338450  61.5098575
  12.6756033  18.4082396  60.1411335   7.1496331  14.4805310  66.1393506
   7.0116129  13.7485549  66.7405045   8.0601254  14.3914211  65.8577694
  16.1111279  16.4193715  50.8877985  15.4940449  15.6940543  50.7911038
  15.6427767  17.1803075  50.5445059   9.7778632  14.1925270  65.6277186
  10.4878250  13.5518462  65.5863804   9.7347940  14.4438165  66.5503367
  17.7665410  21.1292623  68.5483765  17.7077956  20.4451843  67.8814348
  18.1684929  21.8711613  68.0964391   6.7856109  27.9454537  61.3417484
   7.0252707  28.5773061  62.0196503   5.9425306  27.5942577  61.6282843
  17.7682818  19.0932207  66.7797745  16.8809596  18.7558129  66.9024144
  18.3381369  18.3615238  67.0166510  11.2983971  23.7533659  63.7458988
  11.2254142  24.5588631  64.2578293  10.8561364  23.9525625  62.9207009
  11.0873751  22.9905429  57.2561810  10.3041272  23.5327110  57.3500034
  11.7866496  23.5079409  57.6556051  14.3970401   8.8000059  59.8996015
  14.8939100   8.0470021  59.5797085  13.6257382   8.8364376  59.3339224
  22.2500158  14.5040424  61.5414307  22.2390034  15.3865140  61.1708240
  21.3817537  14.1511975  61.3468844  13.7582654  23.6520493  65.9017147
  14.4710627  24.2867958  65.8293048  13.2672683  23.7484359  65.0857149
  15.4800181  17.5571746  57.4734438  14.5456460  17.6773209  57.3039143
  15.6576850  16.6544213  57.2094448  18.8672733  13.3989065  58.0084473
  19.3333185  14.2317057  57.9344775  19.3180233  12.9334047  58.7129731
   8.8094568  21.4014937  66.7222718   9.5104027  22.0351420  66.8752112
   8.3389683  21.7429668  65.9618357  16.9348964  19.7432887  55.0070625
  17.2108808  19.6289481  55.9164499  16.0653463  19.3450371  54.9682798
  16.6095854  13.9559544  64.5475268  15.9567304  14.2035452  63.8927721
  16.9876234  13.1423682  64.2137745  13.5703028  23.9919237  58.6503438
  13.7525422  23.1740893  59.1131191  14.3936014  24.2086930  58.2128328
  13.9045193  22.9187423  55.9118487  14.4332960  22.4079877  55.2988649
  14.1673413  22.6029953  56.7764020  12.6583427  14.6979355  71.0341305
  11.9824064  14.5973485  71.7043680  13.4811061  14.5418569  71.4977302
   4.4062286  20.9351292  63.6553820   4.9915723  20.1894980  63.7881724
   4.2087124  21.2455249  64.5390484   7.2600941  23.9702539  58.6716263
   6.5911317  24.4548667  58.1880303   7.1213811  24.2171760  59.5859641
  11.4006210  26.0046283  65.2698921  11.9524518  26.1677904  66.0348006
  11.7412403  26.5950721  64.5978946  16.2517084  20.8307540  71.1247575
  16.7956988  21.4437499  70.6302530  15.6703929  21.3887119  71.6414588
  14.5374597  23.9528258  62.2562603  14.4125737  23.1517998  61.7473549
  15.1953688  24.4474452  61.7676573  16.6009505  21.7537278  63.8842153
  15.6539841  21.6342630  63.8120480  16.9492279  20.8659776  63.9668415
  13.6055939  21.5489995  60.0846505  13.4580901  20.6206702  60.2654076
  14.4309432  21.5710085  59.6003581  17.2090061  22.3718553  61.1711378
  18.1336608  22.1661415  61.0335829  17.0405364  22.1234955  62.0800720
  16.9985377  22.8904221  56.5273470  17.1722254  22.3250643  55.7747322
  17.4914268  23.6905116  56.3452960  22.8524768  15.6540644  58.1463769
  23.2955914  14.9047969  57.7482893  21.9751278  15.6450780  57.7637501
  17.9860549  22.2070985  53.6270368  18.6811454  22.8277678  53.8457683
  18.3283699  21.3566336  53.9022746  19.8851972  19.6570691  55.1557699
  20.4103297  19.9957964  54.4307019  19.7974325  18.7217706  54.9720833
  11.5472021  23.5704764  67.2847575  11.8559148  23.3253911  68.1570275
  12.3447503  23.7751403  66.7966446  11.5692633  25.7242674  59.5152952
  11.1297623  25.2319053  60.2085809  12.3200750  25.1815642  59.2745027
   4.0484972  21.9154215  59.5177580   4.8742992  21.6157987  59.1376224
   3.6979024  21.1461837  59.9667369   9.0166505  21.2680683  61.5875254
   8.3946515  20.6051388  61.2877481   9.6871372  21.2941815  60.9048901
   2.2493577  19.8340541  60.4766514   1.4125486  19.4062716  60.2950515
   2.2217223  20.0272985  61.4137305  19.5745879  20.2903594  70.4608897
  18.7841422  20.2727733  69.9213396  19.3379233  20.8291888  71.2157933
  19.6943754  17.1396061  67.7741625  19.7441758  16.9746068  68.7157148
  19.5857677  16.2723320  67.3839506   8.5780012  19.8184606  55.0633714
   8.7268133  20.5020071  54.4100387   9.3846456  19.7989697  55.5783170
  16.9847516  13.1226989  69.0900932  17.8857379  12.9833454  68.7984930
  17.0595490  13.2881444  70.0299109  21.1961950  19.5593002  68.0183647
  20.9046759  19.9222983  68.8547108  20.5834082  18.8460011  67.8396979
  22.3957633  17.1245882  60.5386217  23.2304524  17.5635686  60.7023777
  22.5316762  16.6484535  59.7194463  19.4449139  14.6825617  66.4863705
  19.9203260  14.8753263  65.6782556  18.5214704  14.7384803  66.2407088
   6.3332645  15.8449784  56.0694783   6.0878687  14.9412114  56.2674993
   6.5028560  15.8466935  55.1274261  12.0775418  22.3132737  52.5345462
  11.5049385  22.9322924  52.0815933  12.6508211  22.8632099  53.0685383
  18.1450808  11.5591377  64.7192010  19.0968231  11.6589475  64.7404234
  17.9754258  10.7669646  65.2290095  16.1665187   8.6446960  64.9051411
  15.5715119   8.9251973  64.2097900  15.8814884   9.1340861  65.6768152
  15.2972678  22.5969887  53.6654044  16.2303351  22.5315449  53.8686919
  15.2095890  23.4326154  53.2068576  17.9260694  21.9135757  50.6257991
  17.8474326  21.5795621  51.5193749  18.7470361  22.4057525  50.6249464
  20.6238885  14.7797497  63.8334310  20.5915206  13.8413497  64.0193994
  21.2339509  14.8581533  63.1000135  12.4622216  13.6493550  49.8761514
  13.4081321  13.5199758  49.9449932  12.0836461  12.9108212  50.3530942
  20.7733374  11.5708540  63.8792593  20.2572423  10.7866997  63.6922522
  21.6573322  11.2427257  64.0439113  26.4415435  15.8413504  62.9740347
  27.1718824  15.5798792  63.5348050  25.8322381  15.1042225  63.0142415
  24.5230732  13.9821366  63.5714798  23.7963896  13.8477331  62.9631290
  24.1078019  14.2898195  64.3771516  12.3460909  17.7011296  71.3362171
  13.2663918  17.8789895  71.5302218  12.3110492  16.7567341  71.1841870
   5.3422981  15.6112330  63.9784952   5.5608991  16.5429438  63.9972986
   5.7548755  15.2520305  64.7639756  17.5696555   7.3058988  57.0963601
  16.9895224   7.9643792  56.7141654  17.3032487   6.4836332  56.6851019
  10.0782117  14.6142675  72.1852763   9.5949198  15.4143035  72.3916652
  10.1643056  14.6250620  71.2320207   3.3468076  16.4471055  60.1074582
   3.3238764  16.5458742  59.1556465   3.6568713  17.2936206  60.4291748
   6.0055454  18.5047210  64.2221197   6.9598708  18.4731152  64.1551128
   5.8067978  18.0437833  65.0371422   6.5954836  17.0748326  66.7891994
   7.4147725  17.5692404  66.8126832   6.8691644  16.1580294  66.7609562
  16.3521433   9.4659078  56.1519950  15.4647288   9.7508729  55.9340144
  16.7675422   9.3052841  55.3047227  19.7035969   9.4905599  59.8674289
  20.4796359   9.9802052  60.1398906  18.9784103   9.9163653  60.3246158
  22.1408527  10.2033218  60.9248230  22.7353018   9.9628954  60.2141538
  22.2135111   9.4840349  61.5521766   4.3605683  24.0466829  61.2391394
   4.2260151  23.2867230  60.6729392   3.9437745  24.7707729  60.7720183
  15.4964646  19.2303753  50.2467970  16.2000496  19.4353755  50.8625625
  14.7727295  19.7980515  50.5117053  16.3262456  14.9813614  56.3670240
  16.2697658  15.4382165  55.5277872  16.8790799  14.2204299  56.1893083
  20.1367262  10.7703346  57.1920359  19.8804196  10.3699982  58.0228567
  19.5120130  11.4847140  57.0670499  24.4479600  13.5099419  59.6991651
  23.8879158  13.5792608  60.4723213  23.8423103  13.3340404  58.9791147
   7.5174809  24.9436146  61.4509837   7.4007193  25.8881579  61.3488527
   6.6967255  24.6409708  61.8395636  17.4051343  19.6686282  52.2966430
  18.2396947  19.2367480  52.1143905  17.2435686  19.4968296  53.2243324
  17.0597236  16.1718395  53.6622769  17.0046039  16.0062667  52.7211213
  16.4343291  16.8794428  53.8184959  14.3743143  18.4767307  72.9876332
  15.2434302  18.6507959  72.6262967  13.8949894  19.2961724  72.8652061
   8.5429323  25.5964408  64.6665765   9.4456570  25.6288018  64.9832260
   8.3166693  24.6664859  64.6812101  10.2982925  24.3495395  61.3275844
   9.3478556  24.3497256  61.2140216  10.6015411  23.6028129  60.8111879
  26.0335619  30.1855933  62.3921607  26.6714028  30.0662680  61.6884947
  25.9156461  31.1336777  62.4509559  22.8425325  30.1383361  62.3283131
  22.5043836  30.0224426  61.4403666  23.7115093  29.7374526  62.3084137
  18.7012140  31.9918838  58.3180022  18.1377006  31.9008775  57.5496310
  18.5864536  31.1718742  58.7982515  23.3245108  31.2918213  68.2869337
  23.3133749  30.8971011  67.4149840  23.4865747  30.5584286  68.8803108
  16.2476572  33.4870029  61.1564243  17.0397864  33.1460854  60.7410542
  16.4873223  33.5965004  62.0766396  24.2811699  35.6589805  53.6294487
  23.6299679  36.2443886  53.2428501  25.0756062  36.1896000  53.6889525
  18.2067326  32.7478942  54.0281621  18.9798202  32.2007930  53.8894497
  18.5592725  33.6123192  54.2396083  20.0452369  34.0755325  67.2348521
  19.7542235  34.9800956  67.1195187  20.6809353  34.1171852  67.9492590
  20.9708576  31.4532173  63.8249880  21.5672148  31.2288196  63.1106843
  21.0283547  30.7116919  64.4275328  20.5433604  28.9071609  51.6600071
  20.7959125  28.3853130  50.8983534  19.6058163  28.7437754  51.7626755
  25.5876887  27.9107387  59.4674815  26.3739976  27.4926810  59.1165232
  25.8515591  28.8153479  59.6356463  25.7586964  33.3480237  54.1663471
  25.1232797  33.4214864  54.8784376  25.4284371  33.9373836  53.4882551
  30.9885314  27.8482620  60.3707793  31.7210486  27.2781837  60.6045623
  30.2324670  27.4604221  60.8114299  20.2629893  30.8099715  53.8624446
  20.1466151  30.1344618  54.5305531  20.3732153  30.3232088  53.0456599
  22.6061434  30.2709862  57.5671136  22.2419641  29.7440483  58.2784057
  23.4628550  29.8808331  57.3937621  28.5110734  21.5604194  64.8302402
  28.1794059  22.4299605  64.6063617  27.9156348  21.2440478  65.5096432
  22.2466921  25.2999761  52.5632484  22.4141323  26.1679998  52.9302955
  22.0564090  25.4627043  51.6393773  25.0042254  33.7616740  64.2298314
  24.7042977  34.6641779  64.1214122  24.6593314  33.4948923  65.0819467
  18.4554735  30.2130537  60.2635019  17.5305232  30.0806751  60.4712711
  18.7039149  30.9924756  60.7604961  28.4039398  26.2799280  61.9095752
  27.4956275  26.2114689  61.6154513  28.3526994  26.7571225  62.7377577
  22.2256142  27.7557419  53.5479151  22.1055767  28.2014470  54.3864631
  21.5308730  28.1042737  52.9892689  15.8163547  29.8563811  61.0978808
  15.9455928  30.1098290  62.0118220  15.1360998  30.4491519  60.7783463
  19.9863034  40.5261061  57.1969282  19.9087064  41.4768886  57.2757763
  19.3824677  40.1806933  57.8544208  22.4780264  27.6988926  69.8530649
  21.7013598  28.2582846  69.8433514  23.1170827  28.1845709  70.3745519
  30.2701044  24.4815719  63.6873626  29.6275424  24.7748252  63.0413420
  29.7655973  24.3668639  64.4926822  27.9241208  28.2278892  54.3759485
  28.8359064  28.4606279  54.2007182  27.4150855  28.8115936  53.8134564
  20.7326636  30.5074379  69.4148616  21.4741320  31.0459423  69.1383440
  20.0263621  31.1340668  69.5720168  26.2081976  32.6503520  68.0120777
  26.6165332  32.2085930  67.2675410  25.4859237  32.0756147  68.2654970
  22.5613046  27.5876127  65.3854334  23.4074241  28.0115540  65.5288983
  22.5011683  26.9309751  66.0792898  26.5310790  33.2104710  61.7673066
  25.9019653  33.3750425  61.0649134  26.1436452  33.6246320  62.5384030
  30.4100022  34.1459148  59.1217430  29.7251060  34.5258050  58.5714463
  30.4943871  34.7554475  59.8549378  25.7112491  25.2480495  67.0435508
  25.4673423  26.0022556  66.5069784  25.9872421  25.6265843  67.8782755
  27.6650954  31.7919107  65.7212774  27.8767849  32.4350867  65.0447155
  27.6180702  30.9581424  65.2534704  25.2677183  24.4036928  62.6249346
  24.4061662  24.7018182  62.9166083  25.2939617  24.6207327  61.6930378
  22.0838752  32.9479119  59.0323151  22.5477098  33.2266822  58.2427774
  21.8195550  32.0462563  58.8496242  18.9762833  32.4950600  61.9702915
  19.5464190  32.9237868  61.3320399  19.5670945  32.2133185  62.6687100
  21.0207638  29.0702271  55.8412717  21.7231681  29.5223315  56.3086643
  20.6888267  28.4286090  56.4692610  19.4688000  27.6614028  70.2163926
  18.8386660  28.3430308  70.4499323  19.3624088  27.5497109  69.2717064
  14.7632972  27.3285824  61.1429850  13.9732026  27.5843352  60.6669961
  15.2544219  28.1434161  61.2481891  28.7796782  34.6691063  63.8935131
  29.6014225  34.2671250  63.6117813  28.7759184  34.5659297  64.8451247
  16.7147717  27.6930403  58.1013327  15.9178881  27.8049097  58.6196823
  16.4873310  28.0317055  57.2354217  22.5453385  34.2175106  66.0495842
  22.6097818  34.6795513  66.8854013  21.8364309  33.5872471  66.1778151
  13.0470675  27.5816314  63.5744841  13.2978713  28.4663324  63.8402417
  13.5830223  27.4020916  62.8019933  36.8702775  31.0129811  60.2420102
  36.1166483  30.4437209  60.0864107  37.0050316  30.9792476  61.1890737
  22.2601403  35.8843214  55.9174822  22.1247078  36.7294749  56.3459670
  22.8011215  36.0862491  55.1540756  18.7468742  21.9634793  72.5789177
  18.3535688  21.4100992  73.2536821  19.5634883  22.2745372  72.9695695
  15.7130800  33.4018652  56.4902747  16.2255321  34.1961902  56.6408312
  16.3653513  32.7044942  56.4236348  17.5225685  36.5184408  58.5725500
  17.6992313  37.4402373  58.3846484  18.3182518  36.2042827  59.0019880
  21.6636703  23.3792672  70.1709434  22.4046417  23.9799826  70.0913896
  21.8954626  22.6370310  69.6127476  16.8078041  28.5649040  68.4487663
  16.6931557  27.6634297  68.7494762  15.9522559  28.8112737  68.0972480
  23.8869879  36.5066780  70.0475164  23.4433733  35.7203159  69.7296068
  24.5487093  36.6945931  69.3819055  18.6457000  38.0362582  64.5735842
  19.1964425  37.9079645  63.8012836  17.8068476  38.3357471  64.2230735
  25.9851117  36.7869580  68.0756565  25.9669593  37.6078461  67.5836834
  26.9071037  36.6623655  68.3006706  22.4424171  34.3013709  68.9180074
  22.9752508  33.5401998  68.6879382  21.9138252  34.0087361  69.6604228
  25.6093866  19.4073775  64.4473715  25.2658136  20.2975417  64.3712826
  25.9772829  19.2175433  63.5843300  13.6779717  31.7307306  57.2662317
  14.5154939  32.1404314  57.0496025  13.8557985  30.7906748  57.2362511
  25.5744149  29.3982387  52.9546150  25.0590772  30.1686991  53.1934538
  25.3021457  28.7247523  53.5779212  23.1591260  24.2432087  58.0131389
  22.3032856  23.8538938  57.8337027  23.5718212  24.3224048  57.1531174
  24.6890407  21.7778431  62.4122949  24.1855202  21.7408566  61.5990754
  24.9821014  22.6871173  62.4719605  20.9333293  21.8617160  61.4189130
  21.7986289  21.6659969  61.0595020  21.0010801  21.6327512  62.3458487
  30.5478423  32.1514741  54.8899324  29.7707866  31.8125901  54.4454486
  31.2269904  32.1567364  54.2154289  25.3630452  27.2709479  54.7805932
  25.0580588  27.5855628  55.6316075  26.3160894  27.3490899  54.8233265
  23.8076884  33.4299702  56.4298886  23.2798246  32.6952462  56.1172123
  23.3064387  34.2074378  56.1838854  28.7869730  31.6248722  61.5465932
  28.1293404  32.3147984  61.6346061  29.5910129  32.0145154  61.8899918
  18.5395612  24.0919368  58.7905497  19.1139364  23.8694550  58.0578690
  19.1266594  24.1608063  59.5434098  27.5975189  29.9793095  59.5969874
  28.1107071  30.6123087  60.0991583  28.2476413  29.3794291  59.2313234
  18.8665199  26.1223829  52.8101382  18.0302511  26.4598516  53.1310657
  18.7269968  25.9872809  51.8728519  20.8418279  20.9660617  57.5180567
  20.1882692  20.6509634  56.8937181  20.7998754  20.3436358  58.2440389
  21.9529484  31.2479912  49.4333859  21.0456546  31.0169166  49.6325008
  22.4500516  30.4517531  49.6207840  24.8597563  39.9577419  52.3530545
  24.1859262  40.2609116  52.9615503  25.2463385  40.7606500  52.0036002
  24.0756020  27.4542551  61.8428214  23.1578581  27.6757498  61.6849902
  24.4916163  27.5288861  60.9839921  24.8591067  28.8533966  56.9730894
  25.6062886  29.3655364  56.6638016  25.1282657  28.5318019  57.8335288
  23.1317718  31.3492507  53.9557849  22.2228937  31.0651540  54.0530318
  23.1612801  31.7691586  53.0961156  28.3636985  34.9599097  57.7249016
  27.9099312  34.1190006  57.7814207  27.7330952  35.5960495  58.0623796
  27.3069905  25.8891083  58.9549684  26.5692661  25.3768469  59.2859926
  27.5596678  25.4491464  58.1432961  26.8069924  36.7975593  58.6598834
  27.0992899  37.3580650  57.9411200  27.3168545  37.0904154  59.4151993
  27.4081532  18.6667335  59.5491453  27.7140409  17.8064698  59.2617368
  28.1334137  19.2584955  59.3490447  13.7005888  29.0698021  57.9373051
  13.5030288  28.4767382  57.2124117  13.1452552  28.7650231  58.6548990
  21.6802612  28.9621128  60.0567644  21.7351221  28.0094964  59.9810121
  20.8693814  29.1180567  60.5408942  22.8293805  32.8901251  51.2945927
  22.3913235  32.1737110  50.8351565  23.5704246  33.1177366  50.7331019
  19.6194972  27.5798187  57.8158023  18.8062837  27.8792358  58.2223215
  20.1153966  27.1853876  58.5332505  21.7703550  37.5755944  59.7492288
  21.7279728  37.8016791  58.8200820  22.6866248  37.3419319  59.8978089
  25.2169183  28.0440012  66.6472917  25.5718571  28.2711485  67.5067383
  25.8641315  28.3758389  66.0250172  30.9466920  31.1658448  57.3522246
  30.8084819  31.3560044  56.4243435  30.5903139  31.9277831  57.8090297
  19.1109046  25.1516543  63.4319258  19.7508426  25.0105302  62.7342221
  18.2786577  24.8651056  63.0557860  30.9736300  33.2334975  62.3633517
  31.4072807  33.1410264  63.2116571  31.6867881  33.2092475  61.7253533
  19.8869350  34.4518973  59.5454250  20.6809949  33.9569294  59.3436825
  19.1761043  33.9236837  59.1821956  24.7064195  36.8337069  63.8966618
  24.7601217  37.4028005  64.6644334  23.8378976  37.0038954  63.5320655
  16.1952114  28.5962055  55.6214003  15.2649702  28.5346511  55.8383965
  16.2909586  28.0738008  54.8250644  16.1137663  25.1216868  58.2092245
  16.3744480  26.0362201  58.1001405  16.9354835  24.6541311  58.3588857
  17.5862588  26.5354625  65.3791069  18.2585642  26.3271987  64.7303718
  16.7592375  26.3376711  64.9396301  31.8351849  33.2758675  64.8966403
  32.0287739  34.1804486  65.1425678  31.7352468  32.8166095  65.7304988
  23.4888160  23.1616566  67.3956730  22.8416075  23.8606516  67.3021206
  24.2589176  23.5952710  67.7632978  26.8966958  33.4265418  70.4707283
  26.7452464  33.1975970  69.5537367  26.8871638  34.3836020  70.4838628
  23.6652294  30.9997331  65.4553550  24.5944354  31.1508491  65.2822517
  23.2443325  31.0881352  64.6002196  22.4640626  35.0247995  63.2252087
  22.3251712  34.6566780  64.0978026  21.6755223  35.5395635  63.0536045
  23.0588778  40.1257092  54.5677624  23.2340534  39.6545135  55.3823247
  22.3721566  40.7522858  54.7958885  24.0145841  34.4029598  60.6140925
  23.6795674  34.3630368  61.5098575  23.5149787  33.7374314  60.1411335
  17.9890085  29.8097228  66.1393506  17.8509883  29.0777467  66.7405045
  18.8995009  29.7206128  65.8577694  26.9505033  31.7485632  50.8877985
  26.3334204  31.0232461  50.7911038  26.4821522  32.5094993  50.5445059
  20.6172386  29.5217187  65.6277186  21.3272005  28.8810380  65.5863804
  20.5741694  29.7730082  66.5503367  28.6059165  36.4584541  68.5483765
  28.5471711  35.7743761  67.8814348  29.0078683  37.2003531  68.0964391
  19.3301320  26.5082405  67.4472825  18.7938677  26.0573144  68.0994422
  18.7418028  26.6428314  66.7043290  17.6249864  43.2746455  61.3417484
  17.8646462  43.9064979  62.0196503  16.7819060  42.9234495  61.6282843
  18.7403579  25.9671057  50.0099289  17.8633045  25.8459857  49.6461536
  19.2161332  25.1757135  49.7578178  28.6076572  34.4224125  66.7797745
  27.7203351  34.0850046  66.9024144  29.1775123  33.6907156  67.0166510
  10.2605719  30.7548216  60.1040796  10.9476759  30.4409946  59.5161812
  10.1053848  31.6589581  59.8308048  15.0640441  25.6438413  64.5325820
  14.9798630  25.0364083  63.7976230  14.2423148  26.1347431  64.5335316
  22.1377725  39.0825577  63.7458988  22.0647897  39.8880549  64.2578293
  21.6955119  39.2817543  62.9207009  21.9267505  38.3197347  57.2561810
  21.1435027  38.8619027  57.3500034  22.6260250  38.8371327  57.6556051
  25.2364155  24.1291977  59.8996015  25.7332855  23.3761939  59.5797085
  24.4651137  24.1656293  59.3339224  33.0893913  29.8332342  61.5414307
  33.0783789  30.7157057  61.1708240  32.2211292  29.4803893  61.3468844
  24.5976409  38.9812411  65.9017147  25.3104381  39.6159876  65.8293048
  24.1066438  39.0776277  65.0857149  26.3193936  32.8863664  57.4734438
  25.3850215  33.0065126  57.3039143  26.4970604  31.9836131  57.2094448
  21.8199124  26.2709360  59.6267700  21.4496911  25.7180400  60.3148605
  22.3158216  25.6667493  59.0742700  29.7066487  28.7280983  58.0084473
  30.1726939  29.5608975  57.9344775  30.1573988  28.2625965  58.7129731
  19.6488322  36.7306855  66.7222718  20.3497782  37.3643337  66.8752112
  19.1783437  37.0721586  65.9618357  27.7742718  35.0724804  55.0070625
  28.0502562  34.9581399  55.9164499  26.9047217  34.6742289  54.9682798
  27.6783150  21.0961570  62.0475374  26.7646230  21.3265797  62.2157581
  28.1076251  21.1800014  62.8989406  27.4489608  29.2851462  64.5475268
  26.7961059  29.5327369  63.8927721  27.8269988  28.4715600  64.2137745
  24.4096782  39.3211155  58.6503438  24.5919177  38.5032811  59.1131191
  25.2329768  39.5378847  58.2128328  24.7438948  38.2479340  55.9118487
  25.2726714  37.7371795  55.2988649  25.0067167  37.9321871  56.7764020
  23.4977181  30.0271273  71.0341305  22.8217818  29.9265402  71.7043680
  24.3204815  29.8710487  71.4977302  15.2456041  36.2643210  63.6553820
  15.8309477  35.5186897  63.7881724  15.0480879  36.5747166  64.5390484
  18.0994696  39.2994457  58.6716263  17.4305071  39.7840585  58.1880303
  17.9607565  39.5463677  59.5859641   9.8373695  28.8348810  62.3758263
   9.8757795  28.3012400  63.1695382   9.3313988  28.3084015  61.7569241
  22.2399964  41.3338200  65.2698921  22.7918272  41.4969822  66.0348006
  22.5806158  41.9242638  64.5978946  17.2164458  23.6813350  65.8720806
  17.2805784  24.5428181  65.4598203  17.1531578  23.0687352  65.1393164
  16.6916730  25.7536483  69.5193840  17.3188769  25.3713560  70.1331364
  15.8344649  25.5350685  69.8849532  27.0910839  36.1599458  71.1247575
  27.6350743  36.7729416  70.6302530  26.5097683  36.7179036  71.6414588
  13.4682273  27.5612912  55.4512195  13.7635714  26.6523590  55.3979248
  12.5670309  27.5400651  55.1293197  25.3768352  39.2820176  62.2562603
  25.2519491  38.4809916  61.7473549  26.0347443  39.7766369  61.7676573
  16.9976520  25.6368909  61.4339743  16.2763106  26.2504876  61.2947217
  17.7869776  26.1726673  61.3556389  27.4403260  37.0829196  63.8842153
  26.4933596  36.9634547  63.8120480  27.7886033  36.1951694  63.9668415
  19.8002833  22.9723335  67.7080395  20.3237235  23.2185632  68.4706704
  19.5815167  23.8043370  67.2883532  15.1970114  25.2427010  55.5751520
  14.8682821  24.3624389  55.3926626  15.5509485  25.1874678  56.4627909
  24.4449693  36.8781912  60.0846505  24.2974656  35.9498620  60.2654076
  25.2703187  36.9002003  59.6003581  18.3111938  25.5299979  55.9426998
  18.6508010  26.0585901  55.2205606  18.7584058  25.8680386  56.7185564
  28.0483815  37.7010471  61.1711378  28.9730363  37.4953332  61.0335829
  27.8799118  37.4526872  62.0800720  21.0055378  23.9137030  65.3930066
  20.6652199  23.1144843  65.7950746  20.2994385  24.2138741  64.8206899
  21.6571850  20.9986343  63.8457389  22.4797920  20.5246821  63.7236279
  21.9009914  21.7776826  64.3456075  20.2980085  24.0274601  54.1420290
  21.0188447  24.4055854  53.6384007  19.6745389  24.7463478  54.2455268
  24.4411208  24.7319750  55.0778623  24.6574822  25.6144388  54.7767451
  23.9605275  24.3405963  54.3484265  19.1810429  27.6905463  61.6549367
  19.0355010  28.0045766  62.5473649  18.7035633  28.3090364  61.1020266
  21.0406812  24.6808011  61.7030257  21.0268381  23.7849104  61.3662555
  21.7579240  24.6878675  62.3368543  22.8932943  25.1145351  63.7483384
  22.6350720  26.0362422  63.7467715  22.3617983  24.7175786  64.4383848
  27.8379131  38.2196138  56.5273470  28.0116009  37.6542561  55.7747322
  28.3308023  39.0197033  56.3452960  13.6556091  30.2310808  64.5937028
  13.1109559  31.0070616  64.7257303  14.5335441  30.5781612  64.4356150
  20.4443708  23.5622391  56.9717827  20.5659619  22.6339038  57.1708715
  20.1545750  23.5761077  56.0596142  23.3134898  21.2477302  60.1084547
  23.3356595  21.3116635  59.1536526  23.7302957  20.4081811  60.3025053
  33.6918523  30.9832561  58.1463769  34.1349669  30.2339887  57.7482893
  32.8145033  30.9742698  57.7637501  28.8254304  37.5362903  53.6270368
  29.5205208  38.1569596  53.8457683  29.1677454  36.6858254  53.9022746
  14.4422113  29.3580704  67.4867185  13.7003849  29.5063339  68.0731816
  14.1214857  29.6188969  66.6233935  30.7245727  34.9862608  55.1557699
  31.2497051  35.3249881  54.4307019  30.6368079  34.0509624  54.9720833
  22.3865776  38.8996682  67.2847575  22.6952902  38.6545829  68.1570275
  23.1841258  39.1043321  66.7966446  22.4086388  41.0534592  59.5152952
  21.9691378  40.5610970  60.2085809  23.1594505  40.5107559  59.2745027
  14.8878727  37.2446133  59.5177580  15.7136747  36.9449904  59.1376224
  14.5372779  36.4753755  59.9667369  19.8560260  36.5972601  61.5875254
  19.2340269  35.9343306  61.2877481  20.5265127  36.6233733  60.9048901
  13.0887332  35.1632459  60.4766514  12.2519240  34.7354633  60.2950515
  13.0610977  35.3564902  61.4137305  19.9284787  25.0754389  71.1807760
  19.9772943  25.9516512  70.7985529  20.4707302  24.5331782  70.6079403
  30.4139633  35.6195512  70.4608897  29.6235177  35.6019651  69.9213396
  30.1772988  36.1583806  71.2157933  30.5337508  32.4687978  67.7741625
  30.5835513  32.3037986  68.7157148  30.4251431  31.6015237  67.3839506
  19.4173767  35.1476524  55.0633714  19.5661887  35.8311989  54.4100387
  20.2240210  35.1281614  55.5783170  27.8241270  28.4518906  69.0900932
  28.7251133  28.3125371  68.7984930  27.8989245  28.6173361  70.0299109
  22.1584076  25.8285761  67.9354118  21.2887385  26.1219327  67.6636707
  22.3943556  26.4126206  68.6561382  32.0355705  34.8884920  68.0183647
  31.7440513  35.2514901  68.8547108  31.4227836  34.1751928  67.8396979
  33.2351387  32.4537800  60.5386217  34.0698279  32.8927604  60.7023777
  33.3710516  31.9776453  59.7194463  30.2842893  30.0117535  66.4863705
  30.7597015  30.2045181  65.6782556  29.3608459  30.0676720  66.2407088
  17.1726400  31.1741702  56.0694783  16.9272442  30.2704032  56.2674993
  17.3422314  31.1758852  55.1274261  24.8623110  22.0465378  65.4519539
  25.3805053  22.7826405  65.1266027  24.5078242  22.3529371  66.2866298
  16.4422047  26.9070059  53.5680945  15.7491292  26.9814414  52.9120980
  16.1973799  26.1430403  54.0902461  25.1135704  18.4665661  60.9720435
  25.3937458  17.7988850  61.5980862  25.8986311  18.6594756  60.4595099
  22.9169172  37.6424655  52.5345462  22.3443139  38.2614842  52.0815933
  23.4901966  38.1924016  53.0685383  28.9844562  26.8883295  64.7192010
  29.9361985  26.9881392  64.7404234  28.8148013  26.0961563  65.2290095
  27.0058942  23.9738878  64.9051411  26.4108874  24.2543891  64.2097900
  26.7208638  24.4632779  65.6768152  26.1366432  37.9261805  53.6654044
  27.0697105  37.8607366  53.8686919  26.0489645  38.7618072  53.2068576
  28.7654449  37.2427675  50.6257991  28.6868080  36.9087539  51.5193749
  29.5864116  37.7349443  50.6249464  31.4632640  30.1089414  63.8334310
  31.4308960  29.1705415  64.0193994  32.0733264  30.1873451  63.1000135
  23.3015971  28.9785467  49.8761514  24.2475075  28.8491675  49.9449932
  22.9230216  28.2400129  50.3530942  31.6127128  26.9000458  63.8792593
  31.0966177  26.1158914  63.6922522  32.4967077  26.5719174  64.0439113
  29.2737855  20.6441473  59.8388406  29.0762676  20.3356562  60.7231738
  29.8837561  21.3703112  59.9686336  37.2809190  31.1705421  62.9740347
  38.0112578  30.9090709  63.5348050  36.6716135  30.4334143  63.0142415
  35.3624487  29.3113284  63.5714798  34.6357650  29.1769249  62.9631290
  34.9471774  29.6190112  64.3771516  23.1854663  33.0303213  71.3362171
  24.1057673  33.2081812  71.5302218  23.1504246  32.0859259  71.1841870
  21.4858888  26.9035444  49.8116399  20.5790343  26.6068556  49.8879113
  21.7634869  26.6065262  48.9450686  12.4036828  28.2241807  60.2615446
  12.0839613  27.3707115  59.9689820  11.8570256  28.4390385  61.0173413
  16.1816736  30.9404248  63.9784952  16.4002746  31.8721356  63.9972986
  16.5942510  30.5812223  64.7639756  23.1020954  21.4472333  55.9660641
  22.2921682  21.1019418  56.3415887  23.7905371  21.1379877  56.5548252
  25.0311502  20.5250380  57.5884937  25.5842541  20.9445834  58.2474960
  25.2681588  19.5986128  57.6307893  21.0544601  26.5137454  73.3687701
  20.9541328  27.4631811  73.2999792  20.8366143  26.1855693  72.4963771
  20.2557673  23.7622379  49.9528378  21.1176837  24.0877277  50.2124196
  20.4408017  22.9753875  49.4401444  12.2725088  31.8444719  62.2308567
  11.5788560  31.4298671  61.7178522  13.0198079  31.8865255  61.6341986
  28.4090309  22.6350905  57.0963601  27.8288978  23.2935709  56.7141654
  28.1426242  21.8128250  56.6851019  26.8593875  22.0355963  59.2984922
  27.3593654  22.1472498  58.4899241  27.5029483  21.7317016  59.9385730
  20.9175871  29.9434593  72.1852763  20.4342953  30.7434953  72.3916652
  21.0036810  29.9542538  71.2320207  14.1861831  31.7762972  60.1074582
  14.1632519  31.8750660  59.1556465  14.4962467  32.6228123  60.4291748
  16.8449209  33.8339127  64.2221197  17.7992462  33.8023070  64.1551128
  16.6461732  33.3729751  65.0371422  17.4348591  32.4040243  66.7891994
  18.2541480  32.8984322  66.8126832  17.7085399  31.4872212  66.7609562
  27.1915187  24.7950996  56.1519950  26.3041042  25.0800646  55.9340144
  27.6069176  24.6344759  55.3047227  30.5429723  24.8197517  59.8674289
  31.3190113  25.3093969  60.1398906  29.8177857  25.2455571  60.3246158
  32.9802282  25.5325136  60.9248230  33.5746773  25.2920872  60.2141538
  33.0528866  24.8132267  61.5521766  15.1999438  39.3758747  61.2391394
  15.0653905  38.6159148  60.6729392  14.7831500  40.0999647  60.7720183
  26.3358401  34.5595670  50.2467970  27.0394251  34.7645673  50.8625625
  25.6121049  35.1272432  50.5117053  27.1656211  30.3105532  56.3670240
  27.1091412  30.7674083  55.5277872  27.7184553  29.5496216  56.1893083
  30.9761017  26.0995264  57.1920359  30.7197951  25.6991899  58.0228567
  30.3513885  26.8139058  57.0670499  35.2873355  28.8391337  59.6991651
  34.7272913  28.9084526  60.4723213  34.6816858  28.6632321  58.9791147
  18.3568563  40.2728064  61.4509837  18.2400948  41.2173496  61.3488527
  17.5361010  39.9701625  61.8395636  28.2445098  34.9978200  52.2966430
  29.0790702  34.5659398  52.1143905  28.0829441  34.8260213  53.2243324
  27.8990990  31.5010313  53.6622769  27.8439794  31.3354584  52.7211213
  27.2737045  32.2086346  53.8184959  12.6883505  26.7378377  67.4884191
  13.3342369  26.2277331  67.9771416  12.4800656  27.4747059  68.0627617
  25.2136897  33.8059225  72.9876332  26.0828057  33.9799877  72.6262967
  24.7343649  34.6253642  72.8652061  21.2087116  21.0018422  53.2408087
  21.1965785  21.9460262  53.3976358  22.1010537  20.8188567  52.9467549
  19.3823078  40.9256326  64.6665765  20.2850324  40.9579936  64.9832260
  19.1560448  39.9956777  64.6812101  21.1376680  39.6787312  61.3275844
  20.1872311  39.6789174  61.2140216  21.4409166  38.9320047  60.8111879
  25.0239235  17.5961199  57.4954024  24.2571631  17.0419685  57.6410707
  25.4349940  17.6683067  58.3568176  17.0280996  23.8845994  71.5859206
  17.8912458  23.5282799  71.7962530  16.4546407  23.5459889  72.2734610
  36.8729373  45.5147851  62.3921607  37.5107783  45.3954598  61.6884947
  36.7550216  46.4628695  62.4509559  33.6819079  45.4675279  62.3283131
  33.3437591  45.3516344  61.4403666  34.5508847  45.0666444  62.3084137
  29.5405895  47.3210755  58.3180022  28.9770760  47.2300692  57.5496310
  29.4258290  46.5010660  58.7982515  34.1638862  46.6210131  68.2869337
  34.1527503  46.2262929  67.4149840  34.3259502  45.8876203  68.8803108
  27.0870327  48.8161947  61.1564243  27.8791619  48.4752772  60.7410542
  27.3266977  48.9256922  62.0766396  29.0461081  48.0770860  54.0281621
  29.8191957  47.5299847  53.8894497  29.3986480  48.9415109  54.2396083
  30.8846123  49.4047242  67.2348521  30.5935989  50.3092873  67.1195187
  31.5203108  49.4463770  67.9492590  31.8102330  46.7824091  63.8249880
  32.4065903  46.5580113  63.1106843  31.8677302  46.0408836  64.4275328
  31.3827359  44.2363526  51.6600071  31.6352879  43.7145048  50.8983534
  30.4451918  44.0729672  51.7626755  36.4270641  43.2399305  59.4674815
  37.2133731  42.8218728  59.1165232  36.6909346  44.1445397  59.6356463
  36.5980719  48.6772155  54.1663471  35.9626552  48.7506781  54.8784376
  36.2678125  49.2665754  53.4882551  31.1023647  46.1391632  53.8624446
  30.9859906  45.4636536  54.5305531  31.2125907  45.6524006  53.0456599
  33.4455188  45.6001779  57.5671136  33.0813396  45.0732400  58.2784057
  34.3022304  45.2100248  57.3937621  39.3504489  36.8896112  64.8302402
  39.0187814  37.7591523  64.6063617  38.7550102  36.5732396  65.5096432
  33.0860675  40.6291679  52.5632484  33.2535078  41.4971915  52.9302955
  32.8957844  40.7918961  51.6393773  35.8436009  49.0908658  64.2298314
  35.5436732  49.9933697  64.1214122  35.4987068  48.8240841  65.0819467
  29.2948490  45.5422455  60.2635019  28.3698986  45.4098669  60.4712711
  29.5432903  46.3216674  60.7604961  39.2433152  41.6091198  61.9095752
  38.3350030  41.5406607  61.6154513  39.1920748  42.0863143  62.7377577
  33.0649896  43.0849337  53.5479151  32.9449521  43.5306387  54.3864631
  32.3702485  43.4334654  52.9892689  26.6557301  45.1855728  61.0978808
  26.7849682  45.4390207  62.0118220  25.9754752  45.7783436  60.7783463
  33.3174018  43.0280844  69.8530649  32.5407352  43.5874764  69.8433514
  33.9564581  43.5137627  70.3745519  41.1094799  39.8107637  63.6873626
  40.4669179  40.1040170  63.0413420  40.6049727  39.6960557  64.4926822
  38.7634962  43.5570810  54.3759485  39.6752818  43.7898196  54.2007182
  38.2544609  44.1407854  53.8134564  31.5720390  45.8366297  69.4148616
  32.3135075  46.3751341  69.1383440  30.8657376  46.4632586  69.5720168
  37.0475730  47.9795438  68.0120777  37.4559086  47.5377848  67.2675410
  36.3252992  47.4048065  68.2654970  33.4006800  42.9168044  65.3854334
  34.2467995  43.3407458  65.5288983  33.3405438  42.2601669  66.0792898
  36.5506245  40.5772413  67.0435508  36.3067177  41.3314473  66.5069784
  36.8266176  40.9557760  67.8782755  36.1070937  39.7328846  62.6249346
  35.2455416  40.0310099  62.9166083  36.1333372  39.9499245  61.6930378
  32.9232507  48.2771036  59.0323151  33.3870852  48.5558739  58.2427774
  32.6589305  47.3754481  58.8496242  29.8156588  47.8242518  61.9702915
  30.3857945  48.2529786  61.3320399  30.4064699  47.5425102  62.6687100
  31.8601393  44.3994189  55.8412717  32.5625436  44.8515232  56.3086643
  31.5282021  43.7578007  56.4692610  30.3081754  42.9905945  70.2163926
  29.6780415  43.6722226  70.4499323  30.2017842  42.8789027  69.2717064
  25.6026727  42.6577741  61.1429850  24.8125781  42.9135270  60.6669961
  26.0937974  43.4726079  61.2481891  27.5541472  43.0222321  58.1013327
  26.7572635  43.1341015  58.6196823  27.3267064  43.3608973  57.2354217
  33.3847140  49.5467024  66.0495842  33.4491572  50.0087431  66.8854013
  32.6758063  48.9164389  66.1778151  23.8864430  42.9108232  63.5744841
  24.1372468  43.7955242  63.8402417  24.4223978  42.7312833  62.8019933
  29.5862497  37.2926711  72.5789177  29.1929442  36.7392910  73.2536821
  30.4028637  37.6037290  72.9695695  26.5524555  48.7310569  56.4902747
  27.0649075  49.5253820  56.6408312  27.2047267  48.0336860  56.4236348
  28.3619439  51.8476326  58.5725500  28.5386068  52.7694290  58.3846484
  29.1576273  51.5334745  59.0019880  32.5030458  38.7084590  70.1709434
  33.2440171  39.3091743  70.0913896  32.7348381  37.9662228  69.6127476
  27.6471796  43.8940957  68.4487663  27.5325311  42.9926215  68.7494762
  26.7916314  44.1404654  68.0972480  34.7263634  51.8358698  70.0475164
  34.2827488  51.0495076  69.7296068  35.3880847  52.0237848  69.3819055
  29.4850755  53.3654499  64.5735842  30.0358180  53.2371563  63.8012836
  28.6462231  53.6649388  64.2230735  33.2817926  49.6305627  68.9180074
  33.8146263  48.8693915  68.6879382  32.7532007  49.3379279  69.6604228
  36.4487621  34.7365693  64.4473715  36.1051890  35.6267335  64.3712826
  36.8166583  34.5467351  63.5843300  24.5173471  47.0599224  57.2662317
  25.3548693  47.4696232  57.0496025  24.6951739  46.1198666  57.2362511
  36.4137904  44.7274304  52.9546150  35.8984527  45.4978909  53.1934538
  36.1415212  44.0539440  53.5779212  33.9985015  39.5724005  58.0131389
  33.1426611  39.1830855  57.8337027  34.4111966  39.6515966  57.1531174
  35.5284161  37.1070348  62.4122949  35.0248957  37.0700483  61.5990754
  35.8214768  38.0163091  62.4719605  31.7727047  37.1909078  61.4189130
  32.6380044  36.9951887  61.0595020  31.8404556  36.9619430  62.3458487
  36.2024207  42.6001396  54.7805932  35.8974342  42.9147545  55.6316075
  37.1554649  42.6782816  54.8233265  29.3789366  39.4211286  58.7905497
  29.9533118  39.1986467  58.0578690  29.9660349  39.4899980  59.5434098
  38.4368943  45.3085013  59.5969874  38.9500825  45.9415005  60.0991583
  39.0870167  44.7086208  59.2313234  29.7058953  41.4515747  52.8101382
  28.8696266  41.7890433  53.1310657  29.5663723  41.3164727  51.8728519
  31.6812034  36.2952535  57.5180567  31.0276446  35.9801552  56.8937181
  31.6392508  35.6728275  58.2440389  32.7923239  46.5771830  49.4333859
  31.8850300  46.3461083  49.6325008  33.2894271  45.7809449  49.6207840
  34.9149774  42.7834468  61.8428214  33.9972336  43.0049415  61.6849902
  35.3309918  42.8580779  60.9839921  35.6984822  44.1825884  56.9730894
  36.4456641  44.6947281  56.6638016  35.9676412  43.8609937  57.8335288
  33.9711472  46.6784425  53.9557849  33.0622691  46.3943458  54.0530318
  34.0006556  47.0983503  53.0961156  38.1463659  41.2183000  58.9549684
  37.4086416  40.7060386  59.2859926  38.3990433  40.7783382  58.1432961
  38.2475286  33.9959252  59.5491453  38.5534163  33.1356616  59.2617368
  38.9727891  34.5876872  59.3490447  24.5399643  44.3989939  57.9373051
  24.3424042  43.8059300  57.2124117  23.9846307  44.0942149  58.6548990
  32.5196366  44.2913045  60.0567644  32.5744976  43.3386882  59.9810121
  31.7087568  44.4472484  60.5408942  33.6687560  48.2193168  51.2945927
  33.2306990  47.5029027  50.8351565  34.4098001  48.4469283  50.7331019
  30.4588726  42.9090105  57.8158023  29.6456592  43.2084276  58.2223215
  30.9547720  42.5145794  58.5332505  36.0562938  43.3731930  66.6472917
  36.4112326  43.6003403  67.5067383  36.7035069  43.7050306  66.0250172
  29.9502801  40.4808461  63.4319258  30.5902180  40.3397220  62.7342221
  29.1180331  40.1942974  63.0557860  30.7263105  49.7810891  59.5454250
  31.5203703  49.2861211  59.3436825  30.0154797  49.2528754  59.1821956
  27.0345868  43.9253973  55.6214003  26.1043456  43.8638428  55.8383965
  27.1303340  43.4029926  54.8250644  26.9531417  40.4508786  58.2092245
  27.2138235  41.3654119  58.1001405  27.7748590  39.9833228  58.3588857
  28.4256343  41.8646543  65.3791069  29.0979396  41.6563905  64.7303718
  27.5986129  41.6668629  64.9396301  34.3281915  38.4908484  67.3956730
  33.6809830  39.1898433  67.3021206  35.0982930  38.9244628  67.7632978
  37.7360713  48.7557336  70.4707283  37.5846219  48.5267888  69.5537367
  37.7265392  49.7127937  70.4838628  34.5046049  46.3289249  65.4553550
  35.4338109  46.4800408  65.2822517  34.0837079  46.4173269  64.6002196
  28.8283840  45.1389146  66.1393506  28.6903638  44.4069385  66.7405045
  29.7388763  45.0498046  65.8577694  37.7898788  47.0777550  50.8877985
  37.1727958  46.3524378  50.7911038  37.3215276  47.8386910  50.5445059
  31.4566141  44.8509105  65.6277186  32.1665759  44.2102297  65.5863804
  31.4135449  45.1022000  66.5503367  30.1695075  41.8374323  67.4472825
  29.6332432  41.3865061  68.0994422  29.5811783  41.9720232  66.7043290
  28.4643618  58.6038372  61.3417484  28.7040216  59.2356896  62.0196503
  27.6212815  58.2526412  61.6282843  29.5797333  41.2962974  50.0099289
  28.7026800  41.1751775  49.6461536  30.0555087  40.5049053  49.7578178
  21.0999474  46.0840134  60.1040796  21.7870513  45.7701864  59.5161812
  20.9447602  46.9881499  59.8308048  25.9034196  40.9730331  64.5325820
  25.8192384  40.3656000  63.7976230  25.0816902  41.4639349  64.5335316
  36.0757910  39.4583894  59.8996015  36.5726609  38.7053857  59.5797085
  35.3044891  39.4948211  59.3339224  32.6592878  41.6001277  59.6267700
  32.2890666  41.0472318  60.3148605  33.1551971  40.9959411  59.0742700
  30.4882077  52.0598772  66.7222718  31.1891536  52.6935255  66.8752112
  30.0177192  52.4013504  65.9618357  38.5176904  36.4253488  62.0475374
  37.6039984  36.6557715  62.2157581  38.9470006  36.5091932  62.8989406
  38.2883363  44.6143380  64.5475268  37.6354813  44.8619287  63.8927721
  38.6663743  43.8007518  64.2137745  34.3370936  45.3563191  71.0341305
  33.6611573  45.2557320  71.7043680  35.1598570  45.2002404  71.4977302
  26.0849795  51.5935127  63.6553820  26.6703232  50.8478815  63.7881724
  25.8874633  51.9039084  64.5390484  28.9388450  54.6286375  58.6716263
  28.2698825  55.1132502  58.1880303  28.8001320  54.8755595  59.5859641
  20.6767450  44.1640727  62.3758263  20.7151549  43.6304318  63.1695382
  20.1707743  43.6375933  61.7569241  28.0558212  39.0105268  65.8720806
  28.1199539  39.8720099  65.4598203  27.9925332  38.3979270  65.1393164
  27.5310485  41.0828401  69.5193840  28.1582523  40.7005478  70.1331364
  26.6738403  40.8642602  69.8849532  24.3076027  42.8904830  55.4512195
  24.6029468  41.9815508  55.3979248  23.4064063  42.8692569  55.1293197
  27.8370274  40.9660826  61.4339743  27.1156860  41.5796794  61.2947217
  28.6263530  41.5018591  61.3556389  30.6396588  38.3015253  67.7080395
  31.1630990  38.5477549  68.4706704  30.4208921  39.1335288  67.2883532
  26.0363869  40.5718927  55.5751520  25.7076575  39.6916306  55.3926626
  26.3903240  40.5166596  56.4627909  29.1505692  40.8591897  55.9426998
  29.4901765  41.3877818  55.2205606  29.5977813  41.1972303  56.7185564
  31.8449133  39.2428948  65.3930066  31.5045953  38.4436761  65.7950746
  31.1388139  39.5430659  64.8206899  32.4965605  36.3278260  63.8457389
  33.3191674  35.8538738  63.7236279  32.7403668  37.1068744  64.3456075
  31.1373839  39.3566519  54.1420290  31.8582202  39.7347771  53.6384007
  30.5139143  40.0755395  54.2455268  35.2804962  40.0611668  55.0778623
  35.4968576  40.9436306  54.7767451  34.7999029  39.6697881  54.3484265
  30.0204183  43.0197381  61.6549367  29.8748764  43.3337684  62.5473649
  29.5429387  43.6382281  61.1020266  31.8800566  40.0099929  61.7030257
  31.8662135  39.1141022  61.3662555  32.5972994  40.0170593  62.3368543
  33.7326697  40.4437269  63.7483384  33.4744475  41.3654340  63.7467715
  33.2011737  40.0467704  64.4383848  24.4949846  45.5602725  64.5937028
  23.9503314  46.3362533  64.7257303  25.3729195  45.9073530  64.4356150
  31.2837462  38.8914309  56.9717827  31.4053373  37.9630955  57.1708715
  30.9939505  38.9052995  56.0596142  34.1528653  36.5769220  60.1084547
  34.1750349  36.6408553  59.1536526  34.5696712  35.7373728  60.3025053
  25.2815867  44.6872622  67.4867185  24.5397604  44.8355257  68.0731816
  24.9608612  44.9480887  66.6233935  25.7272481  52.5738050  59.5177580
  26.5530501  52.2741822  59.1376224  25.3766533  51.8045673  59.9667369
  30.6954014  51.9264518  61.5875254  30.0734024  51.2635223  61.2877481
  31.3658881  51.9525650  60.9048901  23.9281086  50.4924377  60.4766514
  23.0912995  50.0646551  60.2950515  23.9004732  50.6856820  61.4137305
  30.7678542  40.4046306  71.1807760  30.8166697  41.2808429  70.7985529
  31.3101056  39.8623700  70.6079403  38.6635025  43.7810824  69.0900932
  39.5644888  43.6417289  68.7984930  38.7382999  43.9465279  70.0299109
  32.9977830  41.1577679  67.9354118  32.1281140  41.4511245  67.6636707
  33.2337311  41.7418124  68.6561382  28.0120154  46.5033619  56.0694783
  27.7666196  45.5995949  56.2674993  28.1816069  46.5050770  55.1274261
  35.7016864  37.3757296  65.4519539  36.2198808  38.1118323  65.1266027
  35.3471997  37.6821289  66.2866298  27.2815802  42.2361977  53.5680945
  26.5885047  42.3106332  52.9120980  27.0367554  41.4722321  54.0902461
  35.9529458  33.7957578  60.9720435  36.2331212  33.1280767  61.5980862
  36.7380065  33.9886674  60.4595099  39.8238317  42.2175212  64.7192010
  40.7755740  42.3173310  64.7404234  39.6541767  41.4253481  65.2290095
  37.8452696  39.3030796  64.9051411  37.2502628  39.5835808  64.2097900
  37.5602393  39.7924696  65.6768152  34.1409725  44.3077385  49.8761514
  35.0868830  44.1783593  49.9449932  33.7623970  43.5692047  50.3530942
  40.1131610  35.9733391  59.8388406  39.9156431  35.6648479  60.7231738
  40.7231315  36.6995030  59.9686336  34.0248418  48.3595131  71.3362171
  34.9451427  48.5373730  71.5302218  33.9898001  47.4151177  71.1841870
  32.3252642  42.2327361  49.8116399  31.4184098  41.9360474  49.8879113
  32.6028623  41.9357179  48.9450686  23.2430583  43.5533725  60.2615446
  22.9233367  42.6999033  59.9689820  22.6964011  43.7682303  61.0173413
  27.0210490  46.2696166  63.9784952  27.2396500  47.2013274  63.9972986
  27.4336264  45.9104140  64.7639756  33.9414708  36.7764251  55.9660641
  33.1315436  36.4311336  56.3415887  34.6299125  36.4671795  56.5548252
  35.8705256  35.8542298  57.5884937  36.4236295  36.2737751  58.2474960
  36.1075343  34.9278046  57.6307893  31.8938356  41.8429372  73.3687701
  31.7935083  42.7923729  73.2999792  31.6759898  41.5147610  72.4963771
  31.0951427  39.0914297  49.9528378  31.9570591  39.4169195  50.2124196
  31.2801771  38.3045793  49.4401444  23.1118843  47.1736636  62.2308567
  22.4182314  46.7590589  61.7178522  23.8591834  47.2157173  61.6341986
  39.2484064  37.9642823  57.0963601  38.6682733  38.6227627  56.7141654
  38.9819996  37.1420168  56.6851019  37.6987630  37.3647881  59.2984922
  38.1987408  37.4764415  58.4899241  38.3423238  37.0608934  59.9385730
  31.7569626  45.2726510  72.1852763  31.2736707  46.0726871  72.3916652
  31.8430565  45.2834455  71.2320207  25.0255585  47.1054890  60.1074582
  25.0026273  47.2042577  59.1556465  25.3356222  47.9520041  60.4291748
  27.6842963  49.1631045  64.2221197  28.6386217  49.1314987  64.1551128
  27.4855487  48.7021669  65.0371422  28.2742345  47.7332161  66.7891994
  29.0935234  48.2276240  66.8126832  28.5479153  46.8164129  66.7609562
  38.0308942  40.1242913  56.1519950  37.1434797  40.4092564  55.9340144
  38.4462931  39.9636677  55.3047227  41.3823478  40.1489434  59.8674289
  42.1583868  40.6385887  60.1398906  40.6571612  40.5747489  60.3246158
  26.0393192  54.7050665  61.2391394  25.9047660  53.9451065  60.6729392
  25.6225254  55.4291564  60.7720183  37.1752155  49.8887588  50.2467970
  37.8788005  50.0937591  50.8625625  36.4514804  50.4564350  50.5117053
  38.0049965  45.6397449  56.3670240  37.9485167  46.0966001  55.5277872
  38.5578308  44.8788134  56.1893083  29.1962318  55.6019982  61.4509837
  29.0794702  56.5465414  61.3488527  28.3754764  55.2993543  61.8395636
  38.7384745  46.8302231  53.6622769  38.6833548  46.6646502  52.7211213
  38.1130800  47.5378264  53.8184959  23.5277260  42.0670295  67.4884191
  24.1736123  41.5569249  67.9771416  23.3194411  42.8038977  68.0627617
  36.0530652  49.1351143  72.9876332  36.9221811  49.3091795  72.6262967
  35.5737403  49.9545559  72.8652061  32.0480870  36.3310340  53.2408087
  32.0359540  37.2752180  53.3976358  32.9404292  36.1480485  52.9467549
  35.8632990  32.9253116  57.4954024  35.0965385  32.3711603  57.6410707
  36.2743694  32.9974985  58.3568176  27.8674751  39.2137912  71.5859206
  28.7306212  38.8574717  71.7962530  27.2940161  38.8751807  72.2734610
  50.4441958  67.9011510  50.6257991  50.3655589  67.5671374  51.5193749
  51.2651625  68.3933278  50.6249464  56.7992963  81.6465558  53.6294487
  56.1480942  82.2319639  53.2428501  57.5937325  82.1771753  53.6889525
  53.0614868  74.8947362  51.6600071  53.3140388  74.3728883  50.8983534
  52.1239427  74.7313507  51.7626755  58.2768228  79.3355990  54.1663471
  57.6414061  79.4090617  54.8784376  57.9465634  79.9249589  53.4882551
  54.7437405  73.7433172  53.5479151  54.6237030  74.1890223  54.3864631
  54.0489994  74.0918490  52.9892689  53.5388902  75.0578024  55.8412717
  54.2412945  75.5099068  56.3086643  53.2069530  74.4161843  56.4692610
  49.2328981  73.6806156  58.1013327  48.4360144  73.7924850  58.6196823
  49.0054573  74.0192808  57.2354217  46.1960980  77.7183059  57.2662317
  47.0336202  78.1280067  57.0496025  46.3739248  76.7782501  57.2362511
  58.0925412  75.3858140  52.9546150  57.5772036  76.1562744  53.1934538
  57.8202721  74.7123276  53.5779212  63.0659687  78.1390494  54.8899324
  62.2889129  77.8001654  54.4454486  63.7451168  78.1443117  54.2154289
  57.8811716  73.2585232  54.7805932  57.5761851  73.5731381  55.6316075
  58.8342158  73.3366652  54.8233265  56.3258148  79.4175455  56.4298886
  55.7979509  78.6828215  56.1172123  55.8245650  80.1950131  56.1838854
  51.3846462  72.1099582  52.8101382  50.5483774  72.4474269  53.1310657
  51.2451232  71.9748562  51.8728519  54.4710748  77.2355665  49.4333859
  53.5637809  77.0044919  49.6325008  54.9681780  76.4393284  49.6207840
  55.6498981  77.3368260  53.9557849  54.7410200  77.0527293  54.0530318
  55.6794065  77.7567339  53.0961156  60.8818249  80.9474850  57.7249016
  60.4280576  80.1065759  57.7814207  60.2512215  81.5836248  58.0623796
  55.3475069  78.8777004  51.2945927  54.9094499  78.1612863  50.8351565
  56.0885510  79.1053119  50.7331019  52.1376235  73.5673940  57.8158023
  51.3244101  73.8668111  58.2223215  52.6335229  73.1729629  58.5332505
  48.7133377  74.5837808  55.6214003  47.7830965  74.5222264  55.8383965
  48.8090849  74.0613761  54.8250644  59.4686297  77.7361385  50.8877985
  58.8515467  77.0108214  50.7911038  59.0002785  78.4970746  50.5445059
  51.2584842  71.9546810  50.0099289  50.3814309  71.8335611  49.6461536
  51.7342596  71.1632888  49.7578178  42.7786983  76.7423969  60.1040796
  43.4658022  76.4285699  59.5161812  42.6235111  77.6465334  59.8308048
  52.1669586  82.7182608  66.7222718  52.8679045  83.3519091  66.8752112
  51.6964701  83.0597339  65.9618357  60.2923982  81.0600557  55.0070625
  60.5683826  80.9457152  55.9164499  59.4228480  80.6618042  54.9682798
  56.9592471  70.7195503  55.0778623  57.1756085  71.6020141  54.7767451
  56.4786538  70.3281716  54.3484265  61.3435567  83.5238656  53.6270368
  62.0386472  84.1445349  53.8457683  61.6858717  82.6734007  53.9022746
  63.2426990  80.9738361  55.1557699  63.7678315  81.3125634  54.4307019
  63.1549343  80.0385377  54.9720833  45.6068595  81.1508212  60.4766514
  44.7700504  80.7230386  60.2950515  45.5792241  81.3440655  61.4137305
  48.9603311  72.8945812  53.5680945  48.2672556  72.9690167  52.9120980
  48.7155063  72.1306156  54.0902461  55.4350436  83.6300408  52.5345462
  54.8624403  84.2490595  52.0815933  56.0083229  84.1799769  53.0685383
  61.2835712  83.2303428  50.6257991  61.2049344  82.8963292  51.5193749
  62.1045379  83.7225196  50.6249464  55.8197234  74.9661220  49.8761514
  56.7656339  74.8367428  49.9449932  55.4411479  74.2275882  50.3530942
  54.0040151  72.8911197  49.8116399  53.0971607  72.5944309  49.8879113
  54.2816132  72.5941015  48.9450686  58.8539664  80.5471423  50.2467970
  59.5575514  80.7521426  50.8625625  58.1302313  81.1148185  50.5117053
  60.7626361  80.9853953  52.2966430  61.5971965  80.5535151  52.1143905
  60.6010704  80.8135966  53.2243324  60.4172254  77.4886066  53.6622769
  60.3621057  77.3230337  52.7211213  59.7918309  78.1962099  53.8184959
  51.9004341  86.9132079  64.6665765  52.8031588  86.9455689  64.9832260
  51.6741711  85.9832530  64.6812101  69.3910636  91.5023604  62.3921607
  70.0289046  91.3830351  61.6884947  69.2731479  92.4504448  62.4509559
  66.2000343  91.4551032  62.3283131  65.8618854  91.3392097  61.4403666
  67.0690111  91.0542197  62.3084137  62.0587158  93.3086508  58.3180022
  61.4952024  93.2176445  57.5496310  61.9439554  92.4886413  58.7982515
  59.6051590  94.8037700  61.1564243  60.3972882  94.4628525  60.7410542
  59.8448241  94.9132675  62.0766396  67.6386717  96.9757476  53.6294487
  66.9874697  97.5611556  53.2428501  68.4331080  97.5063671  53.6889525
  61.5642344  94.0646613  54.0281621  62.3373220  93.5175600  53.8894497
  61.9167743  94.9290862  54.2396083  63.4027387  95.3922995  67.2348521
  63.1117253  96.2968626  67.1195187  64.0384371  95.4339523  67.9492590
  64.3283594  92.7699844  63.8249880  64.9247166  92.5455866  63.1106843
  64.3858565  92.0284589  64.4275328  63.9008622  90.2239279  51.6600071
  64.1534143  89.7020801  50.8983534  62.9633181  90.0605425  51.7626755
  68.9451905  89.2275058  59.4674815  69.7314994  88.8094481  59.1165232
  69.2090609  90.1321150  59.6356463  69.1161982  94.6647908  54.1663471
  68.4807815  94.7382534  54.8784376  68.7859389  95.2541507  53.4882551
  74.3460332  89.1650291  60.3707793  75.0785504  88.5949508  60.6045623
  73.5899688  88.7771891  60.8114299  63.6204911  92.1267385  53.8624446
  63.5041169  91.4512289  54.5305531  63.7307171  91.6399759  53.0456599
  65.9636452  91.5877532  57.5671136  65.5994659  91.0608153  58.2784057
  66.8203568  91.1976001  57.3937621  65.6041939  86.6167432  52.5632484
  65.7716341  87.4847668  52.9302955  65.4139108  86.7794714  51.6393773
  68.3617272  95.0784411  64.2298314  68.0617995  95.9809450  64.1214122
  68.0168331  94.8116594  65.0819467  61.8129753  91.5298208  60.2635019
  60.8880250  91.3974422  60.4712711  62.0614167  92.3092427  60.7604961
  65.5831160  89.0725090  53.5479151  65.4630785  89.5182140  54.3864631
  64.8883748  89.4210407  52.9892689  59.1738564  91.1731481  61.0978808
  59.3030946  91.4265960  62.0118220  58.4936016  91.7659189  60.7783463
  63.3438052 101.8428731  57.1969282  63.2662081 102.7936556  57.2757763
  62.7399695 101.4974604  57.8544208  71.2816226  89.5446563  54.3759485
  72.1934082  89.7773949  54.2007182  70.7725873  90.1283607  53.8134564
  64.0901654  91.8242050  69.4148616  64.8316338  92.3627094  69.1383440
  63.3838639  92.4508339  69.5720168  69.8885808  94.5272381  61.7673066
  69.2594671  94.6918095  61.0649134  69.5011470  94.9413991  62.5384030
  73.7675040  95.4626819  59.1217430  73.0826078  95.8425720  58.5714463
  73.8518889  96.0722146  59.8549378  71.0225972  93.1086778  65.7212774
  71.2342867  93.7518538  65.0447155  70.9755720  92.2749095  65.2534704
  65.4413770  94.2646789  59.0323151  65.9052116  94.5434492  58.2427774
  65.1770568  93.3630234  58.8496242  62.3337851  93.8118271  61.9702915
  62.9039208  94.2405539  61.3320399  62.9245963  93.5300856  62.6687100
  64.3782656  90.3869942  55.8412717  65.0806699  90.8390985  56.3086643
  64.0463285  89.7453760  56.4692610  72.1371800  95.9858733  63.8935131
  72.9589243  95.5838921  63.6117813  72.1334202  95.8826968  64.8451247
  65.9028403  95.5342777  66.0495842  65.9672836  95.9963184  66.8854013
  65.1939327  94.9040142  66.1778151  80.2277793  92.3297482  60.2420102
  79.4741501  91.7604880  60.0864107  80.3625334  92.2960146  61.1890737
  65.6176421  97.2010884  55.9174822  65.4822095  98.0462420  56.3459670
  66.1586233  97.4030162  55.1540756  59.0705818  94.7186322  56.4902747
  59.5830339  95.5129573  56.6408312  59.7228531  94.0212613  56.4236348
  60.8800703  97.8352079  58.5725500  61.0567331  98.7570043  58.3846484
  61.6757536  97.5210498  59.0019880  60.1653059  89.8816710  68.4487663
  60.0506574  88.9801968  68.7494762  59.3097577  90.1280407  68.0972480
  67.2444897  97.8234451  70.0475164  66.8008751  97.0370829  69.7296068
  67.9062111  98.0113601  69.3819055  62.0032018  99.3530252  64.5735842
  62.5539443  99.2247316  63.8012836  61.1643494  99.6525141  64.2230735
  69.3426135  98.1037251  68.0756565  69.3244610  98.9246132  67.5836834
  70.2646055  97.9791326  68.3006706  65.7999189  95.6181380  68.9180074
  66.3327526  94.8569668  68.6879382  65.2713270  95.3255032  69.6604228
  57.0354735  93.0474977  57.2662317  57.8729957  93.4571985  57.0496025
  57.2133003  92.1074419  57.2362511  68.9319167  90.7150057  52.9546150
  68.4165790  91.4854662  53.1934538  68.6596475  90.0415193  53.5779212
  73.9053441  93.4682412  54.8899324  73.1282884  93.1293571  54.4454486
  74.5844922  93.4735035  54.2154289  68.7205470  88.5877149  54.7805932
  68.4155606  88.9023299  55.6316075  69.6735912  88.6658569  54.8233265
  67.1651902  94.7467373  56.4298886  66.6373264  94.0120132  56.1172123
  66.6639405  95.5242049  56.1838854  72.1444748  92.9416393  61.5465932
  71.4868422  93.6315655  61.6346061  72.9485147  93.3312825  61.8899918
  70.9550207  91.2960766  59.5969874  71.4682089  91.9290758  60.0991583
  71.6051431  90.6961961  59.2313234  62.2240217  87.4391500  52.8101382
  61.3877529  87.7766187  53.1310657  62.0844986  87.3040480  51.8728519
  65.3104502  92.5647583  49.4333859  64.4031564  92.3336836  49.6325008
  65.8075534  91.7685202  49.6207840  68.2172581 101.2745090  52.3530545
  67.5434280 101.5776787  52.9615503  68.6038403 102.0774170  52.0036002
  68.2166085  90.1701637  56.9730894  68.9637904  90.6823034  56.6638016
  68.4857675  89.8485690  57.8335288  66.4892736  92.6660178  53.9557849
  65.5803955  92.3819211  54.0530318  66.5187819  93.0859256  53.0961156
  71.7212003  96.2766767  57.7249016  71.2674330  95.4357677  57.7814207
  71.0905970  96.9128166  58.0623796  70.1644942  98.1143264  58.6598834
  70.4567917  98.6748321  57.9411200  70.6743563  98.4071825  59.4151993
  65.0377630  90.2788798  60.0567644  65.0926239  89.3262635  59.9810121
  64.2268832  90.4348237  60.5408942  66.1868823  94.2068921  51.2945927
  65.7488253  93.4904780  50.8351565  66.9279264  94.4345036  50.7331019
  65.1278567  98.8923615  59.7492288  65.0854746  99.1184461  58.8200820
  66.0441266  98.6586990  59.8978089  74.3041938  92.4826118  57.3522246
  74.1659837  92.6727714  56.4243435  73.9478157  93.2445501  57.8090297
  74.3311318  94.5502645  62.3633517  74.7647824  94.4577935  63.2116571
  75.0442899  94.5260146  61.7253533  63.2444368  95.7686644  59.5454250
  64.0384967  95.2736964  59.3436825  62.5336061  95.2404507  59.1821956
  68.0639213  98.1504740  63.8966618  68.1176235  98.7195676  64.6644334
  67.1953994  98.3206625  63.5320655  75.1926867  94.5926346  64.8966403
  75.3862757  95.4972157  65.1425678  75.0927486  94.1333765  65.7304988
  70.2541976  94.7433089  70.4707283  70.1027482  94.5143641  69.5537367
  70.2446656  95.7003690  70.4838628  67.0227312  92.3165002  65.4553550
  67.9519372  92.4676161  65.2822517  66.6018342  92.4049022  64.6002196
  65.8215644  96.3415666  63.2252087  65.6826730  95.9734450  64.0978026
  65.0330240  96.8563305  63.0536045  66.4163796 101.4424763  54.5677624
  66.5915552 100.9712806  55.3823247  65.7296584 102.0690529  54.7958885
  67.3720859  95.7197269  60.6140925  67.0370692  95.6798039  61.5098575
  66.8724805  95.0541985  60.1411335  61.3465103  91.1264899  66.1393506
  61.2084901  90.3945138  66.7405045  62.2570027  91.0373799  65.8577694
  70.3080051  93.0653303  50.8877985  69.6909222  92.3400131  50.7911038
  69.8396539  93.8262663  50.5445059  63.9747404  90.8384858  65.6277186
  64.6847023  90.1978050  65.5863804  63.9316712  91.0897753  66.5503367
  71.9634183  97.7752211  68.5483765  71.9046729  97.0911432  67.8814348
  72.3653701  98.5171201  68.0964391  60.9824881 104.5914125  61.3417484
  61.2221480 105.2232649  62.0196503  60.1394078 104.2402165  61.6282843
  62.0978597  87.2838727  50.0099289  61.2208063  87.1627528  49.6461536
  62.5736350  86.4924806  49.7578178  71.9651590  95.7391795  66.7797745
  71.0778369  95.4017717  66.9024144  72.5350141  95.0074827  67.0166510
  53.6180737  92.0715887  60.1040796  54.3051777  91.7577617  59.5161812
  53.4628866  92.9757252  59.8308048  65.4952743 100.3993248  63.7458988
  65.4222915 101.2048219  64.2578293  65.0530136 100.5985214  62.9207009
  65.2842523  99.6365018  57.2561810  64.5010045 100.1786698  57.3500034
  65.9835268 100.1538997  57.6556051  76.4468930  91.1500013  61.5414307
  76.4358807  92.0324728  61.1708240  75.5786310  90.7971564  61.3468844
  67.9551427 100.2980082  65.9017147  68.6679399 100.9327547  65.8293048
  67.4641456 100.3943948  65.0857149  69.6768954  94.2031334  57.4734438
  68.7425233  94.3232797  57.3039143  69.8545622  93.3003801  57.2094448
  73.0641505  90.0448654  58.0084473  73.5301957  90.8776645  57.9344775
  73.5149006  89.5793635  58.7129731  63.0063340  98.0474525  66.7222718
  63.7072800  98.6811008  66.8752112  62.5358455  98.3889257  65.9618357
  71.1317736  96.3892475  55.0070625  71.4077580  96.2749070  55.9164499
  70.2622235  95.9909960  54.9682798  70.8064626  90.6019133  64.5475268
  70.1536077  90.8495040  63.8927721  71.1845006  89.7883271  64.2137745
  67.7671800 100.6378826  58.6503438  67.9494195  99.8200482  59.1131191
  68.5904786 100.8546518  58.2128328  68.1013966  99.5647011  55.9118487
  68.6301732  99.0539466  55.2988649  68.3642185  99.2489541  56.7764020
  58.6031058  97.5810880  63.6553820  59.1884495  96.8354568  63.7881724
  58.4055897  97.8914837  64.5390484  61.4569714 100.6162128  58.6716263
  60.7880089 101.1008255  58.1880303  61.3182583 100.8631348  59.5859641
  53.1948713  90.1516480  62.3758263  53.2332813  89.6180071  63.1695382
  52.6889006  89.6251686  61.7569241  65.5974982 102.6505871  65.2698921
  66.1493290 102.8137493  66.0348006  65.9381176 103.2410309  64.5978946
  70.4485857  97.4767129  71.1247575  70.9925761  98.0897087  70.6302530
  69.8672701  98.0346707  71.6414588  68.7343370 100.5987847  62.2562603
  68.6094509  99.7977587  61.7473549  69.3922461 101.0934040  61.7676573
  70.7978278  98.3996867  63.8842153  69.8508613  98.2802218  63.8120480
  71.1461051  97.5119365  63.9668415  67.8024711  98.1949583  60.0846505
  67.6549674  97.2666290  60.2654076  68.6278205  98.2169674  59.6003581
  61.6686956  86.8467650  55.9426998  62.0083028  87.3753571  55.2205606
  62.1159076  87.1848056  56.7185564  71.4058833  99.0178142  61.1711378
  72.3305381  98.8121003  61.0335829  71.2374136  98.7694543  62.0800720
  63.6555103  85.3442272  54.1420290  64.3763465  85.7223524  53.6384007
  63.0320407  86.0631149  54.2455268  62.5385447  89.0073134  61.6549367
  62.3930028  89.3213437  62.5473649  62.0610651  89.6258034  61.1020266
  71.1954149  99.5363809  56.5273470  71.3691027  98.9710232  55.7747322
  71.6883041 100.3364704  56.3452960  77.0493540  92.3000232  58.1463769
  77.4924686  91.5507557  57.7482893  76.1720051  92.2910369  57.7637501
  72.1829322  98.8530574  53.6270368  72.8780226  99.4737266  53.8457683
  72.5252472  98.0025925  53.9022746  74.0820745  96.3030279  55.1557699
  74.6072069  96.6417552  54.4307019  73.9943097  95.3677294  54.9720833
  65.7440794 100.2164353  67.2847575  66.0527920  99.9713500  68.1570275
  66.5416276 100.4210991  66.7966446  65.7661406 102.3702262  59.5152952
  65.3266396 101.8778641  60.2085809  66.5169523 101.8275230  59.2745027
  58.2453745  98.5613803  59.5177580  59.0711765  98.2617575  59.1376224
  57.8947797  97.7921426  59.9667369  63.2135278  97.9140272  61.5875254
  62.5915287  97.2510977  61.2877481  63.8840145  97.9401403  60.9048901
  56.4462350  96.4800130  60.4766514  55.6094258  96.0522304  60.2950515
  56.4185995  96.6732573  61.4137305  73.7714651  96.9363183  70.4608897
  72.9810195  96.9187322  69.9213396  73.5348006  97.4751476  71.2157933
  73.8912526  93.7855649  67.7741625  73.9410531  93.6205657  68.7157148
  73.7826449  92.9182908  67.3839506  62.7748785  96.4644195  55.0633714
  62.9236905  97.1479659  54.4100387  63.5815228  96.4449285  55.5783170
  75.3930723  96.2052591  68.0183647  75.1015531  96.5682571  68.8547108
  74.7802854  95.4919599  67.8396979  76.5926405  93.7705470  60.5386217
  77.4273297  94.2095275  60.7023777  76.7285534  93.2944124  59.7194463
  73.6417911  91.3285205  66.4863705  74.1172033  91.5212852  65.6782556
  72.7183476  91.3844391  66.2407088  60.5301418  92.4909372  56.0694783
  60.2847460  91.5871702  56.2674993  60.6997332  92.4926523  55.1274261
  66.2744190  98.9592325  52.5345462  65.7018157  99.5782512  52.0815933
  66.8476984  99.5091687  53.0685383  69.4941450  99.2429475  53.6654044
  70.4272123  99.1775037  53.8686919  69.4064663 100.0785742  53.2068576
  72.1229467  98.5595346  50.6257991  72.0443098  98.2255209  51.5193749
  72.9439133  99.0517114  50.6249464  74.8207658  91.4257085  63.8334310
  74.7883978  90.4873086  64.0193994  75.4308282  91.5041122  63.1000135
  66.6590989  90.2953138  49.8761514  67.6050093  90.1659346  49.9449932
  66.2805234  89.5567800  50.3530942  80.6384208  92.4873092  62.9740347
  81.3687596  92.2258380  63.5348050  80.0291153  91.7501814  63.0142415
  78.7199505  90.6280954  63.5714798  77.9932668  90.4936919  62.9631290
  78.3046792  90.9357783  64.3771516  66.5429681  94.3470884  71.3362171
  67.4632691  94.5249483  71.5302218  66.5079264  93.4026930  71.1841870
  64.8433906  88.2203114  49.8116399  63.9365361  87.9236227  49.8879113
  65.1209887  87.9232933  48.9450686  59.5391754  92.2571919  63.9784952
  59.7577764  93.1889027  63.9972986  59.9517528  91.8979893  64.7639756
  66.4595972  82.7640004  55.9660641  65.6496700  82.4187089  56.3415887
  67.1480389  82.4547548  56.5548252  63.6132691  85.0790050  49.9528378
  64.4751855  85.4044948  50.2124196  63.7983035  84.2921546  49.4401444
  55.6300106  93.1612389  62.2308567  54.9363578  92.7466342  61.7178522
  56.3773097  93.2032926  61.6341986  64.2750889  91.2602263  72.1852763
  63.7917971  92.0602624  72.3916652  64.3611828  91.2710208  71.2320207
  57.5436849  93.0930643  60.1074582  57.5207537  93.1918330  59.1556465
  57.8537485  93.9395794  60.4291748  60.2024227  95.1506798  64.2221197
  61.1567480  95.1190740  64.1551128  60.0036750  94.6897422  65.0371422
  60.7923609  93.7207914  66.7891994  61.6116498  94.2151993  66.8126832
  61.0660417  92.8039882  66.7609562  76.3377300  86.8492807  60.9248230
  76.9321791  86.6088543  60.2141538  76.4103883  86.1299937  61.5521766
  58.5574455 100.6926418  61.2391394  58.4228923  99.9326819  60.6729392
  58.1406518 101.4167317  60.7720183  69.6933418  95.8763341  50.2467970
  70.3969269  96.0813344  50.8625625  68.9696067  96.4440103  50.5117053
  70.5231229  91.6273202  56.3670240  70.4666430  92.0841754  55.5277872
  71.0759571  90.8663887  56.1893083  74.3336035  87.4162934  57.1920359
  74.0772969  87.0159570  58.0228567  73.7088903  88.1306728  57.0670499
  78.6448373  90.1559008  59.6991651  78.0847930  90.2252197  60.4723213
  78.0391876  89.9799992  58.9791147  61.7143581 101.5895735  61.4509837
  61.5975965 102.5341167  61.3488527  60.8936028 101.2869296  61.8395636
  71.6020116  96.3145870  52.2966430  72.4365720  95.8827069  52.1143905
  71.4404459  96.1427884  53.2243324  71.2566008  92.8177984  53.6622769
  71.2014812  92.6522255  52.7211213  70.6312063  93.5254017  53.8184959
  68.5711915  95.1226896  72.9876332  69.4403075  95.2967548  72.6262967
  68.0918667  95.9421312  72.8652061  64.5662134  82.3186093  53.2408087
  64.5540803  83.2627933  53.3976358  65.4585555  82.1356238  52.9467549
  62.7398095 102.2423997  64.6665765  63.6425342 102.2747607  64.9832260
  62.5135466 101.3124447  64.6812101  64.4951697 100.9954983  61.3275844
  63.5447328 100.9956845  61.2140216  64.7984184 100.2487718  60.8111879
  80.2304391 106.8315521  62.3921607  80.8682801 106.7122269  61.6884947
  80.1125234 107.7796365  62.4509559  77.0394097 106.7842950  62.3283131
  76.7012609 106.6684014  61.4403666  77.9083865 106.3834115  62.3084137
  72.8980913 108.6378426  58.3180022  72.3345778 108.5468363  57.5496310
  72.7833308 107.8178330  58.7982515  77.5213880 107.9377801  68.2869337
  77.5102521 107.5430600  67.4149840  77.6834520 107.2043874  68.8803108
  70.4445345 110.1329618  61.1564243  71.2366637 109.7920442  60.7410542
  70.6841995 110.2424593  62.0766396  78.4780472 112.3049394  53.6294487
  77.8268451 112.8903474  53.2428501  79.2724834 112.8355589  53.6889525
  72.4036099 109.3938531  54.0281621  73.1766975 108.8467518  53.8894497
  72.7561498 110.2582780  54.2396083  74.2421141 110.7214913  67.2348521
  73.9511007 111.6260544  67.1195187  74.8778126 110.7631441  67.9492590
  75.1677348 108.0991762  63.8249880  75.7640920 107.8747784  63.1106843
  75.2252320 107.3576507  64.4275328  74.7402377 105.5531197  51.6600071
  74.9927897 105.0312718  50.8983534  73.8026936 105.3897342  51.7626755
  79.7845659 104.5566975  59.4674815  80.5708749 104.1386398  59.1165232
  80.0484364 105.4613068  59.6356463  79.9555737 109.9939826  54.1663471
  79.3201570 110.0674452  54.8784376  79.6253143 110.5833424  53.4882551
  85.1854087 104.4942209  60.3707793  85.9179259 103.9241425  60.6045623
  84.4293442 104.1063809  60.8114299  74.4598665 107.4559303  53.8624446
  74.3434923 106.7804206  54.5305531  74.5700925 106.9691677  53.0456599
  76.8030206 106.9169450  57.5671136  76.4388414 106.3900071  58.2784057
  77.6597322 106.5267919  57.3937621  82.7079507  98.2063783  64.8302402
  82.3762832  99.0759194  64.6063617  82.1125120  97.8900067  65.5096432
  76.4435693 101.9459350  52.5632484  76.6110096 102.8139586  52.9302955
  76.2532862 102.1086631  51.6393773  79.2011026 110.4076329  64.2298314
  78.9011750 111.3101367  64.1214122  78.8562086 110.1408512  65.0819467
  72.6523508 106.8590125  60.2635019  71.7274004 106.7266340  60.4712711
  72.9007921 107.6384345  60.7604961  82.6008170 102.9258869  61.9095752
  81.6925048 102.8574277  61.6154513  82.5495766 103.4030814  62.7377577
  76.4224914 104.4017007  53.5479151  76.3024539 104.8474058  54.3864631
  75.7277503 104.7502325  52.9892689  70.0132319 106.5023399  61.0978808
  70.1424700 106.7557878  62.0118220  69.3329770 107.0951107  60.7783463
  74.1831806 117.1720649  57.1969282  74.1055836 118.1228474  57.2757763
  73.5793450 116.8266521  57.8544208  76.6749036 104.3448514  69.8530649
  75.8982370 104.9042435  69.8433514  77.3139599 104.8305297  70.3745519
  84.4669817 101.1275307  63.6873626  83.8244197 101.4207840  63.0413420
  83.9624745 101.0128228  64.4926822  82.1209980 104.8738480  54.3759485
  83.0327836 105.1065867  54.2007182  81.6119627 105.4575525  53.8134564
  74.9295408 107.1533968  69.4148616  75.6710093 107.6919012  69.1383440
  74.2232394 107.7800257  69.5720168  80.4050748 109.2963108  68.0120777
  80.8134104 108.8545519  67.2675410  79.6828009 108.7215736  68.2654970
  76.7581818 104.2335715  65.3854334  77.6043013 104.6575129  65.5288983
  76.6980456 103.5769339  66.0792898  80.7279563 109.8564299  61.7673066
  80.0988425 110.0210013  61.0649134  80.3405225 110.2705908  62.5384030
  84.6068795 110.7918737  59.1217430  83.9219833 111.1717638  58.5714463
  84.6912644 111.4014063  59.8549378  79.9081263 101.8940083  67.0435508
  79.6642195 102.6482144  66.5069784  80.1841194 102.2725431  67.8782755
  81.8619726 108.4378696  65.7212774  82.0736621 109.0810456  65.0447155
  81.8149474 107.6041012  65.2534704  79.4645955 101.0496516  62.6249346
  78.6030434 101.3477770  62.9166083  79.4908390 101.2666915  61.6930378
  76.2807525 109.5938707  59.0323151  76.7445870 109.8726410  58.2427774
  76.0164323 108.6922152  58.8496242  73.1731606 109.1410188  61.9702915
  73.7432963 109.5697457  61.3320399  73.7639717 108.8592773  62.6687100
  75.2176411 105.7161859  55.8412717  75.9200454 106.1682903  56.3086643
  74.8857039 105.0745678  56.4692610  73.6656772 104.3073616  70.2163926
  73.0355433 104.9889897  70.4499323  73.5592860 104.1956698  69.2717064
  68.9601745 103.9745412  61.1429850  68.1700799 104.2302941  60.6669961
  69.4512992 104.7893750  61.2481891  82.9765554 111.3150651  63.8935131
  83.7982998 110.9130838  63.6117813  82.9727957 111.2118885  64.8451247
  70.9116490 104.3389991  58.1013327  70.1147653 104.4508685  58.6196823
  70.6842082 104.6776643  57.2354217  76.7422158 110.8634694  66.0495842
  76.8066590 111.3255102  66.8854013  76.0333081 110.2332059  66.1778151
  67.2439448 104.2275902  63.5744841  67.4947486 105.1122912  63.8402417
  67.7798996 104.0480504  62.8019933  91.0671547 107.6589400  60.2420102
  90.3135256 107.0896798  60.0864107  91.2019088 107.6252064  61.1890737
  76.4570175 112.5302802  55.9174822  76.3215850 113.3754338  56.3459670
  76.9979988 112.7322080  55.1540756  72.9437515  98.6094382  72.5789177
  72.5504460  98.0560580  73.2536821  73.7603655  98.9204960  72.9695695
  69.9099573 110.0478240  56.4902747  70.4224093 110.8421490  56.6408312
  70.5622285 109.3504530  56.4236348  71.7194457 113.1643996  58.5725500
  71.8961086 114.0861961  58.3846484  72.5151291 112.8502415  59.0019880
  75.8605476 100.0252261  70.1709434  76.6015189 100.6259414  70.0913896
  76.0923399  99.2829899  69.6127476  71.0046814 105.2108628  68.4487663
  70.8900329 104.3093885  68.7494762  70.1491332 105.4572325  68.0972480
  78.0838652 113.1526368  70.0475164  77.6402506 112.3662747  69.7296068
  78.7455865 113.3405519  69.3819055  72.8425773 114.6822170  64.5735842
  73.3933198 114.5539233  63.8012836  72.0037249 114.9817059  64.2230735
  80.1819890 113.4329168  68.0756565  80.1638365 114.2538049  67.5836834
  81.1039810 113.3083244  68.3006706  76.6392944 110.9473298  68.9180074
  77.1721281 110.1861586  68.6879382  76.1107025 110.6546950  69.6604228
  79.8062639  96.0533364  64.4473715  79.4626908  96.9435005  64.3712826
  80.1741601  95.8635021  63.5843300  67.8748489 108.3766894  57.2662317
  68.7123711 108.7863903  57.0496025  68.0526757 107.4366336  57.2362511
  79.7712921 106.0441975  52.9546150  79.2559545 106.8146580  53.1934538
  79.4990230 105.3707111  53.5779212  77.3560033 100.8891676  58.0131389
  76.5001629 100.4998526  57.8337027  77.7686984 100.9683637  57.1531174
  78.8859179  98.4238019  62.4122949  78.3823975  98.3868154  61.5990754
  79.1789786  99.3330762  62.4719605  75.1302065  98.5076749  61.4189130
  75.9955062  98.3119557  61.0595020  75.1979574  98.2787100  62.3458487
  84.7447196 108.7974330  54.8899324  83.9676638 108.4585489  54.4454486
  85.4238677 108.8026953  54.2154289  79.5599225 103.9169067  54.7805932
  79.2549360 104.2315216  55.6316075  80.5129667 103.9950487  54.8233265
  78.0045656 110.0759290  56.4298886  77.4767018 109.3412050  56.1172123
  77.5033159 110.8533967  56.1838854  82.9838503 108.2708311  61.5465932
  82.3262177 108.9607572  61.6346061  83.7878902 108.6604743  61.8899918
  72.7364384 100.7378957  58.7905497  73.3108136 100.5154138  58.0578690
  73.3235367 100.8067651  59.5434098  81.7943961 106.6252684  59.5969874
  82.3075843 107.2582675  60.0991583  82.4445185 106.0253879  59.2313234
  73.0633971 102.7683418  52.8101382  72.2271283 103.1058104  53.1310657
  72.9238741 102.6332397  51.8728519  75.0387052  97.6120206  57.5180567
  74.3851464  97.2969223  56.8937181  74.9967526  96.9895946  58.2440389
  76.1498257 107.8939501  49.4333859  75.2425318 107.6628754  49.6325008
  76.6469289 107.0977120  49.6207840  79.0566336 116.6037008  52.3530545
  78.3828034 116.9068705  52.9615503  79.4432158 117.4066088  52.0036002
  78.2724792 104.1002139  61.8428214  77.3547354 104.3217086  61.6849902
  78.6884936 104.1748450  60.9839921  79.0559840 105.4993555  56.9730894
  79.8031659 106.0114952  56.6638016  79.3251429 105.1777607  57.8335288
  77.3286490 107.9952095  53.9557849  76.4197709 107.7111128  54.0530318
  77.3581574 108.4151174  53.0961156  82.5605758 111.6058685  57.7249016
  82.1068085 110.7649595  57.7814207  81.9299724 112.2420083  58.0623796
  81.5038677 102.5350671  58.9549684  80.7661434 102.0228057  59.2859926
  81.7565451 102.0951053  58.1432961  81.0038697 113.4435182  58.6598834
  81.2961671 114.0040239  57.9411200  81.5137317 113.7363743  59.4151993
  81.6050304  95.3126923  59.5491453  81.9109181  94.4524286  59.2617368
  82.3302909  95.9044543  59.3490447  67.8974660 105.7157610  57.9373051
  67.6999060 105.1226970  57.2124117  67.3421324 105.4109820  58.6548990
  75.8771384 105.6080716  60.0567644  75.9319994 104.6554552  59.9810121
  75.0662586 105.7640155  60.5408942  77.0262578 109.5360839  51.2945927
  76.5882008 108.8196698  50.8351565  77.7673019 109.7636954  50.7331019
  73.8163744 104.2257776  57.8158023  73.0031610 104.5251946  58.2223215
  74.3122738 103.8313465  58.5332505  75.9672322 114.2215533  59.7492288
  75.9248501 114.4476379  58.8200820  76.8835021 113.9878907  59.8978089
  79.4137956 104.6899600  66.6472917  79.7687343 104.9171073  67.5067383
  80.0610087 105.0217977  66.0250172  85.1435693 107.8118036  57.3522246
  85.0053591 108.0019632  56.4243435  84.7871912 108.5737419  57.8090297
  73.3077819 101.7976131  63.4319258  73.9477198 101.6564890  62.7342221
  72.4755349 101.5110645  63.0557860  85.1705072 109.8794563  62.3633517
  85.6041579 109.7869852  63.2116571  85.8836653 109.8552064  61.7253533
  74.0838123 111.0978562  59.5454250  74.8778721 110.6028882  59.3436825
  73.3729815 110.5696425  59.1821956  78.9032967 113.4796657  63.8966618
  78.9569989 114.0487594  64.6644334  78.0347749 113.6498542  63.5320655
  70.3920886 105.2421643  55.6214003  69.4618474 105.1806099  55.8383965
  70.4878358 104.7197596  54.8250644  70.3106435 101.7676456  58.2092245
  70.5713253 102.6821790  58.1001405  71.1323608 101.3000899  58.3588857
  71.7831361 103.1814213  65.3791069  72.4554414 102.9731576  64.7303718
  70.9561147 102.9836299  64.9396301  86.0320622 109.9218264  64.8966403
  86.2256512 110.8264074  65.1425678  85.9321240 109.4625683  65.7304988
  77.6856933  99.8076154  67.3956730  77.0384848 100.5066104  67.3021206
  78.4557948 100.2412298  67.7632978  81.0935731 110.0725007  70.4707283
  80.9421237 109.8435558  69.5537367  81.0840410 111.0295608  70.4838628
  77.8621067 107.6456919  65.4553550  78.7913127 107.7968079  65.2822517
  77.4412097 107.7340940  64.6002196  76.6609399 111.6707584  63.2252087
  76.5220484 111.3026368  64.0978026  75.8723995 112.1855223  63.0536045
  77.2557551 116.7716680  54.5677624  77.4309306 116.3004723  55.3823247
  76.5690339 117.3982446  54.7958885  78.2114614 111.0489186  60.6140925
  77.8764446 111.0089956  61.5098575  77.7118560 110.3833902  60.1411335
  72.1858858 106.4556816  66.1393506  72.0478656 105.7237055  66.7405045
  73.0963781 106.3665717  65.8577694  81.1473806 108.3945221  50.8877985
  80.5302976 107.6692049  50.7911038  80.6790294 109.1554581  50.5445059
  74.8141159 106.1676776  65.6277186  75.5240777 105.5269968  65.5863804
  74.7710467 106.4189671  66.5503367  82.8027937 113.1044129  68.5483765
  82.7440483 112.4203349  67.8814348  83.2047456 113.8463119  68.0964391
  73.5270092 103.1541994  67.4472825  72.9907449 102.7032732  68.0994422
  72.9386801 103.2887903  66.7043290  71.8218636 119.9206043  61.3417484
  72.0615234 120.5524567  62.0196503  70.9787832 119.5694083  61.6282843
  72.9372351 102.6130645  50.0099289  72.0601818 102.4919446  49.6461536
  73.4130105 101.8216723  49.7578178  82.8045344 111.0683713  66.7797745
  81.9172123 110.7309635  66.9024144  83.3743896 110.3366744  67.0166510
  64.4574492 107.4007805  60.1040796  65.1445531 107.0869535  59.5161812
  64.3022620 108.3049169  59.8308048  69.2609214 102.2898001  64.5325820
  69.1767402 101.6823671  63.7976230  68.4391920 102.7807020  64.5335316
  76.3346498 115.7285165  63.7458988  76.2616669 116.5340137  64.2578293
  75.8923891 115.9277131  62.9207009  76.1236277 114.9656935  57.2561810
  75.3403799 115.5078616  57.3500034  76.8229023 115.4830915  57.6556051
  79.4332928 100.7751565  59.8996015  79.9301627 100.0221527  59.5797085
  78.6619909 100.8115882  59.3339224  87.2862685 106.4791930  61.5414307
  87.2752561 107.3616646  61.1708240  86.4180064 106.1263481  61.3468844
  78.7945181 115.6271999  65.9017147  79.5073154 116.2619464  65.8293048
  78.3035210 115.7235865  65.0857149  80.5162708 109.5323252  57.4734438
  79.5818987 109.6524715  57.3039143  80.6939377 108.6295719  57.2094448
  76.0167896 102.9168948  59.6267700  75.6465684 102.3639988  60.3148605
  76.5126989 102.3127081  59.0742700  83.9035260 105.3740571  58.0084473
  84.3695712 106.2068563  57.9344775  84.3542760 104.9085553  58.7129731
  73.8457095 113.3766443  66.7222718  74.5466554 114.0102926  66.8752112
  73.3752210 113.7181174  65.9618357  81.9711491 111.7184393  55.0070625
  82.2471335 111.6040987  55.9164499  81.1015989 111.3201878  54.9682798
  81.8751922  97.7421158  62.0475374  80.9615002  97.9725385  62.2157581
  82.3045024  97.8259602  62.8989406  81.6458381 105.9311050  64.5475268
  80.9929831 106.1786958  63.8927721  82.0238761 105.1175189  64.2137745
  78.6065555 115.9670744  58.6503438  78.7887949 115.1492399  59.1131191
  79.4298541 116.1838436  58.2128328  78.9407720 114.8938929  55.9118487
  79.4695487 114.3831383  55.2988649  79.2035940 114.5781459  56.7764020
  77.6945954 106.6730861  71.0341305  77.0186591 106.5724991  71.7043680
  78.5173588 106.5170075  71.4977302  69.4424813 112.9102798  63.6553820
  70.0278250 112.1646486  63.7881724  69.2449651 113.2206755  64.5390484
  72.2963468 115.9454045  58.6716263  71.6273843 116.4300173  58.1880303
  72.1576338 116.1923266  59.5859641  64.0342468 105.4808398  62.3758263
  64.0726567 104.9471989  63.1695382  63.5282761 104.9543604  61.7569241
  76.4368737 117.9797789  65.2698921  76.9887045 118.1429410  66.0348006
  76.7774930 118.5702227  64.5978946  71.4133230 100.3272939  65.8720806
  71.4774556 101.1887770  65.4598203  71.3500350  99.7146940  65.1393164
  70.8885503 102.3996071  69.5193840  71.5157541 102.0173149  70.1331364
  70.0313421 102.1810273  69.8849532  81.2879611 112.8059046  71.1247575
  81.8319515 113.4189005  70.6302530  80.7066456 113.3638625  71.6414588
  67.6651045 104.2072500  55.4512195  67.9604486 103.2983179  55.3979248
  66.7639081 104.1860240  55.1293197  79.5737124 115.9279764  62.2562603
  79.4488263 115.1269504  61.7473549  80.2316215 116.4225958  61.7676573
  71.1945292 102.2828497  61.4339743  70.4731878 102.8964465  61.2947217
  71.9838548 102.8186262  61.3556389  81.6372032 113.7288784  63.8842153
  80.6902368 113.6094136  63.8120480  81.9854806 112.8411283  63.9668415
  73.9971606  99.6182923  67.7080395  74.5206008  99.8645220  68.4706704
  73.7783939 100.4502958  67.2883532  69.3938887 101.8886598  55.5751520
  69.0651593 101.0083977  55.3926626  69.7478258 101.8334267  56.4627909
  78.6418466 113.5241501  60.0846505  78.4943428 112.5958208  60.2654076
  79.4671959 113.5461591  59.6003581  72.5080710 102.1759568  55.9426998
  72.8476783 102.7045489  55.2205606  72.9552830 102.5139974  56.7185564
  82.2452588 114.3470059  61.1711378  83.1699135 114.1412921  61.0335829
  82.0767891 114.0986461  62.0800720  75.2024151 100.5596619  65.3930066
  74.8620971  99.7604432  65.7950746  74.4963157 100.8598329  64.8206899
  75.8540623  97.6445931  63.8457389  76.6766692  97.1706409  63.7236279
  76.0978686  98.4236415  64.3456075  74.4948857 100.6734189  54.1420290
  75.2157220 101.0515442  53.6384007  73.8714161 101.3923066  54.2455268
  78.6379980 101.3779338  55.0778623  78.8543594 102.2603976  54.7767451
  78.1574047 100.9865552  54.3484265  73.3779201 104.3365052  61.6549367
  73.2323782 104.6505355  62.5473649  72.9004405 104.9549952  61.1020266
  75.2375584 101.3267600  61.7030257  75.2237153 100.4308693  61.3662555
  75.9548012 101.3338263  62.3368543  77.0901715 101.7604940  63.7483384
  76.8319493 102.6822010  63.7467715  76.5586755 101.3635374  64.4383848
  82.0347904 114.8655727  56.5273470  82.2084781 114.3002149  55.7747322
  82.5276795 115.6656622  56.3452960  67.8524864 106.8770396  64.5937028
  67.3078332 107.6530204  64.7257303  68.7304213 107.2241200  64.4356150
  74.6412480 100.2081980  56.9717827  74.7628391  99.2798626  57.1708715
  74.3514523 100.2220666  56.0596142  77.5103671  97.8936890  60.1084547
  77.5325367  97.9576223  59.1536526  77.9271730  97.0541399  60.3025053
  87.8887295 107.6292150  58.1463769  88.3318441 106.8799475  57.7482893
  87.0113805 107.6202286  57.7637501  83.0223076 114.1822491  53.6270368
  83.7173981 114.8029184  53.8457683  83.3646226 113.3317843  53.9022746
  68.6390885 106.0040292  67.4867185  67.8972621 106.1522928  68.0731816
  68.3183630 106.2648558  66.6233935  84.9214499 111.6322197  55.1557699
  85.4465823 111.9709470  54.4307019  84.8336852 110.6969212  54.9720833
  76.5834548 115.5456270  67.2847575  76.8921675 115.3005417  68.1570275
  77.3810030 115.7502909  66.7966446  76.6055160 117.6994180  59.5152952
  76.1660150 117.2070559  60.2085809  77.3563277 117.1567148  59.2745027
  69.0847499 113.8905721  59.5177580  69.9105519 113.5909493  59.1376224
  68.7341551 113.1213343  59.9667369  74.0529032 113.2432189  61.5875254
  73.4309042 112.5802894  61.2877481  74.7233899 113.2693321  60.9048901
  67.2856104 111.8092047  60.4766514  66.4488012 111.3814222  60.2950515
  67.2579750 112.0024491  61.4137305  74.1253560 101.7213977  71.1807760
  74.1741715 102.5976100  70.7985529  74.6676074 101.1791370  70.6079403
  84.6108405 112.2655100  70.4608897  83.8203949 112.2479239  69.9213396
  84.3741760 112.8043394  71.2157933  84.7306281 109.1147567  67.7741625
  84.7804285 108.9497574  68.7157148  84.6220204 108.2474826  67.3839506
  73.6142539 111.7936113  55.0633714  73.7630660 112.4771577  54.4100387
  74.4208983 111.7741203  55.5783170  82.0210043 105.0978495  69.0900932
  82.9219906 104.9584960  68.7984930  82.0958017 105.2632950  70.0299109
  76.3552848 102.4745350  67.9354118  75.4856158 102.7678916  67.6636707
  76.5912329 103.0585795  68.6561382  86.2324477 111.5344508  68.0183647
  85.9409286 111.8974489  68.8547108  85.6196609 110.8211517  67.8396979
  87.4320160 109.0997388  60.5386217  88.2667051 109.5387192  60.7023777
  87.5679288 108.6236041  59.7194463  84.4811666 106.6577123  66.4863705
  84.9565787 106.8504769  65.6782556  83.5577231 106.7136309  66.2407088
  71.3695172 107.8201290  56.0694783  71.1241214 106.9163620  56.2674993
  71.5391087 107.8218441  55.1274261  79.0591882  98.6924967  65.4519539
  79.5773826  99.4285993  65.1266027  78.7047015  98.9988960  66.2866298
  70.6390820 103.5529648  53.5680945  69.9460065 103.6274003  52.9120980
  70.3942572 102.7889991  54.0902461  79.3104476  95.1125249  60.9720435
  79.5906230  94.4448438  61.5980862  80.0955083  95.3054345  60.4595099
  77.1137945 114.2884243  52.5345462  76.5411912 114.9074430  52.0815933
  77.6870738 114.8383605  53.0685383  83.1813335 103.5342883  64.7192010
  84.1330757 103.6340981  64.7404234  83.0116785 102.7421152  65.2290095
  81.2027714 100.6198466  64.9051411  80.6077646 100.9003479  64.2097900
  80.9177411 101.1092367  65.6768152  80.3335205 114.5721393  53.6654044
  81.2665878 114.5066955  53.8686919  80.2458417 115.4077660  53.2068576
  82.9623221 113.8887263  50.6257991  82.8836853 113.5547127  51.5193749
  83.7832888 114.3809031  50.6249464  85.6601412 106.7549003  63.8334310
  85.6277732 105.8165003  64.0193994  86.2702036 106.8333039  63.1000135
  77.4984743 105.6245056  49.8761514  78.4443848 105.4951264  49.9449932
  77.1198988 104.8859718  50.3530942  85.8095901 103.5460046  63.8792593
  85.2934949 102.7618503  63.6922522  86.6935849 103.2178763  64.0439113
  83.4706628  97.2901062  59.8388406  83.2731449  96.9816150  60.7231738
  84.0806333  98.0162701  59.9686336  91.4777962 107.8165010  62.9740347
  92.2081351 107.5550298  63.5348050  90.8684908 107.0793732  63.0142415
  89.5593259 105.9572872  63.5714798  88.8326423 105.8228837  62.9631290
  89.1440546 106.2649701  64.3771516  77.3823436 109.6762802  71.3362171
  78.3026445 109.8541401  71.5302218  77.3473019 108.7318847  71.1841870
  75.6827660 103.5495032  49.8116399  74.7759116 103.2528145  49.8879113
  75.9603641 103.2524850  48.9450686  66.6005601 104.8701396  60.2615446
  66.2808385 104.0166704  59.9689820  66.0539029 105.0849974  61.0173413
  70.3785508 107.5863837  63.9784952  70.5971518 108.5180944  63.9972986
  70.7911282 107.2271811  64.7639756  77.2989726  98.0931922  55.9660641
  76.4890454  97.7479007  56.3415887  77.9874143  97.7839466  56.5548252
  79.2280274  97.1709969  57.5884937  79.7811313  97.5905422  58.2474960
  79.4650361  96.2445717  57.6307893  75.2513374 103.1597042  73.3687701
  75.1510101 104.1091399  73.2999792  75.0334916 102.8315281  72.4963771
  74.4526445 100.4081967  49.9528378  75.3145609 100.7336866  50.2124196
  74.6376789  99.6213463  49.4401444  66.4693861 108.4904307  62.2308567
  65.7757332 108.0758260  61.7178522  67.2166852 108.5324844  61.6341986
  82.6059081  99.2810494  57.0963601  82.0257751  99.9395298  56.7141654
  82.3395014  98.4587838  56.6851019  81.0562648  98.6815551  59.2984922
  81.5562426  98.7932086  58.4899241  81.6998256  98.3776604  59.9385730
  75.1144644 106.5894181  72.1852763  74.6311725 107.3894541  72.3916652
  75.2005583 106.6002126  71.2320207  68.3830603 108.4222561  60.1074582
  68.3601291 108.5210248  59.1556465  68.6931240 109.2687712  60.4291748
  71.0417981 110.4798716  64.2221197  71.9961235 110.4482658  64.1551128
  70.8430505 110.0189340  65.0371422  71.6317363 109.0499832  66.7891994
  72.4510252 109.5443911  66.8126832  71.9054171 108.1331800  66.7609562
  81.3883959 101.4410584  56.1519950  80.5009815 101.7260235  55.9340144
  81.8037949 101.2804348  55.3047227  84.7398496 101.4657105  59.8674289
  85.5158886 101.9553558  60.1398906  84.0146630 101.8915159  60.3246158
  87.1771054 102.1784724  60.9248230  87.7715545 101.9380460  60.2141538
  87.2497638 101.4591855  61.5521766  69.3968210 116.0218335  61.2391394
  69.2622678 115.2618736  60.6729392  68.9800272 116.7459235  60.7720183
  80.5327173 111.2055259  50.2467970  81.2363023 111.4105261  50.8625625
  79.8089822 111.7732021  50.5117053  81.3624983 106.9565120  56.3670240
  81.3060185 107.4133672  55.5277872  81.9153326 106.1955805  56.1893083
  85.1729789 102.7454852  57.1920359  84.9166723 102.3451488  58.0228567
  84.5482657 103.4598646  57.0670499  89.4842127 105.4850925  59.6991651
  88.9241685 105.5544115  60.4723213  88.8785630 105.3091910  58.9791147
  72.5537336 116.9187652  61.4509837  72.4369720 117.8633085  61.3488527
  71.7329782 116.6161214  61.8395636  82.4413870 111.6437788  52.2966430
  83.2759474 111.2118987  52.1143905  82.2798213 111.4719802  53.2243324
  82.0959763 108.1469901  53.6622769  82.0408566 107.9814173  52.7211213
  81.4705818 108.8545934  53.8184959  66.8852278 103.3837966  67.4884191
  67.5311141 102.8736920  67.9771416  66.6769429 104.1206647  68.0627617
  79.4105670 110.4518813  72.9876332  80.2796829 110.6259466  72.6262967
  78.9312421 111.2713230  72.8652061  75.4055888  97.6478010  53.2408087
  75.3934558  98.5919850  53.3976358  76.2979310  97.4648156  52.9467549
  73.5791850 117.5715914  64.6665765  74.4819097 117.6039524  64.9832260
  73.3529220 116.6416365  64.6812101  75.3345452 116.3246901  61.3275844
  74.3841083 116.3248762  61.2140216  75.6377938 115.5779635  60.8111879
  79.2208007  94.2420787  57.4954024  78.4540403  93.6879274  57.6410707
  79.6318712  94.3142656  58.3568176  71.2249769 100.5305583  71.5859206
  72.0881230 100.1742388  71.7962530  70.6515179 100.1919478  72.2734610
  91.0698145 122.1607439  62.3921607  91.7076555 122.0414187  61.6884947
  90.9518988 123.1088283  62.4509559  87.8787852 122.1134867  62.3283131
  87.5406363 121.9975932  61.4403666  88.7477620 121.7126032  62.3084137
  83.7374667 123.9670344  58.3180022  83.1739533 123.8760281  57.5496310
  83.6227062 123.1470248  58.7982515  88.3607635 123.2669719  68.2869337
  88.3496276 122.8722517  67.4149840  88.5228274 122.5335792  68.8803108
  81.2839099 125.4621535  61.1564243  82.0760391 125.1212360  60.7410542
  81.5235750 125.5716510  62.0766396  83.2429853 124.7230449  54.0281621
  84.0160729 124.1759436  53.8894497  83.5955252 125.5874698  54.2396083
  85.0814896 126.0506831  67.2348521  84.7904762 126.9552462  67.1195187
  85.7171880 126.0923358  67.9492590  86.0071103 123.4283679  63.8249880
  86.6034675 123.2039702  63.1106843  86.0646074 122.6868425  64.4275328
  85.5796131 120.8823115  51.6600071  85.8321652 120.3604636  50.8983534
  84.6420690 120.7189260  51.7626755  90.6239414 119.8858893  59.4674815
  91.4102503 119.4678316  59.1165232  90.8878118 120.7904985  59.6356463
  96.0247841 119.8234126  60.3707793  96.7573013 119.2533343  60.6045623
  95.2687197 119.4355727  60.8114299  85.2992420 122.7851221  53.8624446
  85.1828678 122.1096124  54.5305531  85.4094680 122.2983595  53.0456599
  87.6423961 122.2461368  57.5671136  87.2782168 121.7191989  58.2784057
  88.4991077 121.8559837  57.3937621  93.5473261 113.5355700  64.8302402
  93.2156586 114.4051111  64.6063617  92.9518875 113.2191984  65.5096432
  87.2829448 117.2751267  52.5632484  87.4503850 118.1431504  52.9302955
  87.0926617 117.4378549  51.6393773  83.4917262 122.1882043  60.2635019
  82.5667759 122.0558257  60.4712711  83.7401676 122.9676262  60.7604961
  93.4401925 118.2550786  61.9095752  92.5318802 118.1866195  61.6154513
  93.3889521 118.7322731  62.7377577  87.2618669 119.7308925  53.5479151
  87.1418294 120.1765976  54.3864631  86.5671257 120.0794243  52.9892689
  80.8526073 121.8315317  61.0978808  80.9818455 122.0849796  62.0118220
  80.1723525 122.4243025  60.7783463  87.5142791 119.6740432  69.8530649
  86.7376125 120.2334352  69.8433514  88.1533354 120.1597215  70.3745519
  95.3063571 116.4567225  63.6873626  94.6637951 116.7499758  63.0413420
  94.8018500 116.3420145  64.4926822  92.9603735 120.2030398  54.3759485
  93.8721591 120.4357785  54.2007182  92.4513382 120.7867442  53.8134564
  85.7689163 122.4825885  69.4148616  86.5103847 123.0210929  69.1383440
  85.0626148 123.1092174  69.5720168  91.2444502 124.6255026  68.0120777
  91.6527859 124.1837436  67.2675410  90.5221764 124.0507653  68.2654970
  87.5975573 119.5627633  65.3854334  88.4436768 119.9867046  65.5288983
  87.5374210 118.9061257  66.0792898  90.7475018 117.2232001  67.0435508
  90.5035950 117.9774062  66.5069784  91.0234948 117.6017349  67.8782755
  90.3039710 116.3788434  62.6249346  89.4424189 116.6769688  62.9166083
  90.3302144 116.5958833  61.6930378  87.1201279 124.9230625  59.0323151
  87.5839625 125.2018328  58.2427774  86.8558077 124.0214069  58.8496242
  84.0125360 124.4702106  61.9702915  84.5826717 124.8989375  61.3320399
  84.6033472 124.1884691  62.6687100  86.0570165 121.0453777  55.8412717
  86.7594208 121.4974821  56.3086643  85.7250794 120.4037596  56.4692610
  84.5050527 119.6365534  70.2163926  83.8749187 120.3181814  70.4499323
  84.3986614 119.5248615  69.2717064  79.7995499 119.3037330  61.1429850
  79.0094553 119.5594858  60.6669961  80.2906746 120.1185668  61.2481891
  81.7510244 119.6681909  58.1013327  80.9541408 119.7800603  58.6196823
  81.5235837 120.0068561  57.2354217  87.5815912 126.1926612  66.0495842
  87.6460345 126.6547019  66.8854013  86.8726836 125.5623977  66.1778151
  78.0833202 119.5567820  63.5744841  78.3341240 120.4414830  63.8402417
  78.6192750 119.3772422  62.8019933  83.7831269 113.9386299  72.5789177
  83.3898215 113.3852498  73.2536821  84.5997410 114.2496878  72.9695695
  80.7493327 125.3770158  56.4902747  81.2617848 126.1713408  56.6408312
  81.4016040 124.6796448  56.4236348  82.5588212 128.4935914  58.5725500
  82.7354840 129.4153879  58.3846484  83.3545045 128.1794333  59.0019880
  86.6999230 115.3544179  70.1709434  87.4408944 115.9551332  70.0913896
  86.9317153 114.6121816  69.6127476  81.8440568 120.5400546  68.4487663
  81.7294083 119.6385803  68.7494762  80.9885086 120.7864243  68.0972480
  83.6819527 130.0114088  64.5735842  84.2326952 129.8831151  63.8012836
  82.8431003 130.3108977  64.2230735  87.4786698 126.2765216  68.9180074
  88.0115035 125.5153504  68.6879382  86.9500779 125.9838867  69.6604228
  90.6456393 111.3825281  64.4473715  90.3020663 112.2726923  64.3712826
  91.0135356 111.1926939  63.5843300  78.7142244 123.7058812  57.2662317
  79.5517466 124.1155820  57.0496025  78.8920512 122.7658254  57.2362511
  90.6106676 121.3733893  52.9546150  90.0953299 122.1438497  53.1934538
  90.3383984 120.6999029  53.5779212  88.1953787 116.2183593  58.0131389
  87.3395383 115.8290444  57.8337027  88.6080739 116.2975554  57.1531174
  89.7252934 113.7529937  62.4122949  89.2217729 113.7160072  61.5990754
  90.0183540 114.6622679  62.4719605  85.9695820 113.8368666  61.4189130
  86.8348816 113.6411475  61.0595020  86.0373328 113.6079018  62.3458487
  90.3992979 119.2460985  54.7805932  90.0943115 119.5607134  55.6316075
  91.3523421 119.3242405  54.8233265  88.8439411 125.4051208  56.4298886
  88.3160773 124.6703968  56.1172123  88.3426914 126.1825884  56.1838854
  83.5758139 116.0670874  58.7905497  84.1501890 115.8446056  58.0578690
  84.1629121 116.1359569  59.5434098  92.6337716 121.9544601  59.5969874
  93.1469598 122.5874593  60.0991583  93.2838940 121.3545797  59.2313234
  83.9027726 118.0975335  52.8101382  83.0665038 118.4350022  53.1310657
  83.7632495 117.9624315  51.8728519  85.8780806 112.9412123  57.5180567
  85.2245219 112.6261140  56.8937181  85.8361280 112.3187864  58.2440389
  86.9892011 123.2231418  49.4333859  86.0819073 122.9920672  49.6325008
  87.4863043 122.4269038  49.6207840  89.1118547 119.4294057  61.8428214
  88.1941108 119.6509004  61.6849902  89.5278690 119.5040367  60.9839921
  89.8953594 120.8285472  56.9730894  90.6425413 121.3406870  56.6638016
  90.1645184 120.5069525  57.8335288  88.1680245 123.3244013  53.9557849
  87.2591464 123.0403046  54.0530318  88.1975328 123.7443092  53.0961156
  92.3432432 117.8642589  58.9549684  91.6055188 117.3519975  59.2859926
  92.5959205 117.4242970  58.1432961  92.4444059 110.6418841  59.5491453
  92.7502936 109.7816204  59.2617368  93.1696664 111.2336461  59.3490447
  78.7368415 121.0449527  57.9373051  78.5392815 120.4518888  57.2124117
  78.1815079 120.7401737  58.6548990  86.7165139 120.9372634  60.0567644
  86.7713748 119.9846470  59.9810121  85.9056341 121.0932073  60.5408942
  87.8656332 124.8652757  51.2945927  87.4275762 124.1488616  50.8351565
  88.6066773 125.0928872  50.7331019  84.6557499 119.5549693  57.8158023
  83.8425364 119.8543864  58.2223215  85.1516493 119.1605382  58.5332505
  90.2531710 120.0191518  66.6472917  90.6081098 120.2462991  67.5067383
  90.9003841 120.3509895  66.0250172  84.1471573 117.1268049  63.4319258
  84.7870953 116.9856808  62.7342221  83.3149104 116.8402562  63.0557860
  84.9231877 126.4270479  59.5454250  85.7172476 125.9320800  59.3436825
  84.2123570 125.8988343  59.1821956  81.2314641 120.5713561  55.6214003
  80.3012229 120.5098017  55.8383965  81.3272113 120.0489514  54.8250644
  81.1500190 117.0968374  58.2092245  81.4107007 118.0113707  58.1001405
  81.9717362 116.6292817  58.3588857  82.6225115 118.5106131  65.3791069
  83.2948168 118.3023493  64.7303718  81.7954902 118.3128217  64.9396301
  88.5250687 115.1368072  67.3956730  87.8778602 115.8358022  67.3021206
  89.2951702 115.5704216  67.7632978  88.7014821 122.9748837  65.4553550
  89.6306881 123.1259997  65.2822517  88.2805851 123.0632858  64.6002196
  87.5003153 126.9999501  63.2252087  87.3614239 126.6318286  64.0978026
  86.7117749 127.5147141  63.0536045  89.0508368 126.3781104  60.6140925
  88.7158201 126.3381874  61.5098575  88.5512314 125.7125820  60.1411335
  83.0252612 121.7848734  66.1393506  82.8872410 121.0528973  66.7405045
  83.9357536 121.6957634  65.8577694  91.9867560 123.7237138  50.8877985
  91.3696731 122.9983967  50.7911038  91.5184048 124.4846499  50.5445059
  85.6534913 121.4968693  65.6277186  86.3634532 120.8561886  65.5863804
  85.6104221 121.7481588  66.5503367  84.3663847 118.4833911  67.4472825
  83.8301204 118.0324650  68.0994422  83.7780555 118.6179820  66.7043290
  83.7766106 117.9422563  50.0099289  82.8995572 117.8211364  49.6461536
  84.2523859 117.1508641  49.7578178  75.2968246 122.7299722  60.1040796
  75.9839286 122.4161453  59.5161812  75.1416375 123.6341087  59.8308048
  80.1002968 117.6189919  64.5325820  80.0161157 117.0115589  63.7976230
  79.2785675 118.1098937  64.5335316  90.2726682 116.1043483  59.8996015
  90.7695382 115.3513445  59.5797085  89.5013664 116.1407799  59.3339224
  91.3556463 124.8615170  57.4734438  90.4212741 124.9816632  57.3039143
  91.5333131 123.9587637  57.2094448  86.8561651 118.2460866  59.6267700
  86.4859438 117.6931906  60.3148605  87.3520743 117.6418999  59.0742700
  94.7429014 120.7032489  58.0084473  95.2089466 121.5360481  57.9344775
  95.1936515 120.2377471  58.7129731  84.6850849 128.7058361  66.7222718
  85.3860309 129.3394844  66.8752112  84.2145964 129.0473092  65.9618357
  92.7145677 113.0713076  62.0475374  91.8008757 113.3017303  62.2157581
  93.1438778 113.1551520  62.8989406  92.4852135 121.2602968  64.5475268
  91.8323586 121.5078875  63.8927721  92.8632515 120.4467106  64.2137745
  88.5339708 122.0022779  71.0341305  87.8580345 121.9016908  71.7043680
  89.3567342 121.8461993  71.4977302  80.2818567 128.2394716  63.6553820
  80.8672004 127.4938404  63.7881724  80.0843406 128.5498672  64.5390484
  74.8736222 120.8100316  62.3758263  74.9120322 120.2763907  63.1695382
  74.3676515 120.2835521  61.7569241  82.2526984 115.6564856  65.8720806
  82.3168311 116.5179687  65.4598203  82.1894105 115.0438858  65.1393164
  81.7279257 117.7287989  69.5193840  82.3551296 117.3465066  70.1331364
  80.8707176 117.5102191  69.8849532  78.5044800 119.5364418  55.4512195
  78.7998241 118.6275096  55.3979248  77.6032836 119.5152157  55.1293197
  82.0339047 117.6120415  61.4339743  81.3125633 118.2256382  61.2947217
  82.8232303 118.1478179  61.3556389  84.8365360 114.9474841  67.7080395
  85.3599762 115.1937138  68.4706704  84.6177694 115.7794876  67.2883532
  80.2332641 117.2178516  55.5751520  79.9045348 116.3375895  55.3926626
  80.5872012 117.1626184  56.4627909  83.3474465 117.5051485  55.9426998
  83.6870537 118.0337407  55.2205606  83.7946585 117.8431892  56.7185564
  86.0417905 115.8888536  65.3930066  85.7014726 115.0896349  65.7950746
  85.3356912 116.1890247  64.8206899  86.6934377 112.9737849  63.8457389
  87.5160446 112.4998327  63.7236279  86.9372441 113.7528332  64.3456075
  85.3342612 116.0026107  54.1420290  86.0550974 116.3807360  53.6384007
  84.7107916 116.7214984  54.2455268  89.4773735 116.7071256  55.0778623
  89.6937349 117.5895894  54.7767451  88.9967802 116.3157469  54.3484265
  84.2172956 119.6656969  61.6549367  84.0717537 119.9797272  62.5473649
  83.7398160 120.2841870  61.1020266  86.0769339 116.6559517  61.7030257
  86.0630908 115.7600611  61.3662555  86.7941767 116.6630181  62.3368543
  87.9295470 117.0896857  63.7483384  87.6713247 118.0113928  63.7467715
  87.3980510 116.6927292  64.4383848  78.6918618 122.2062314  64.5937028
  78.1472086 122.9822122  64.7257303  79.5697968 122.5533118  64.4356150
  85.4806235 115.5373898  56.9717827  85.6022146 114.6090544  57.1708715
  85.1908277 115.5512583  56.0596142  88.3497425 113.2228808  60.1084547
  88.3719122 113.2868141  59.1536526  88.7665484 112.3833317  60.3025053
  79.4784640 121.3332210  67.4867185  78.7366376 121.4814845  68.0731816
  79.1577384 121.5940476  66.6233935  79.9241254 129.2197639  59.5177580
  80.7499274 128.9201410  59.1376224  79.5735306 128.4505261  59.9667369
  84.8922787 128.5724107  61.5875254  84.2702796 127.9094812  61.2877481
  85.5627654 128.5985239  60.9048901  78.1249859 127.1383965  60.4766514
  77.2881767 126.7106139  60.2950515  78.0973504 127.3316408  61.4137305
  84.9647314 117.0505895  71.1807760  85.0135470 117.9268018  70.7985529
  85.5069828 116.5083288  70.6079403  84.4536294 127.1228030  55.0633714
  84.6024414 127.8063495  54.4100387  85.2602737 127.1033120  55.5783170
  92.8603797 120.4270413  69.0900932  93.7613660 120.2876877  68.7984930
  92.9351772 120.5924867  70.0299109  87.1946603 117.8037267  67.9354118
  86.3249912 118.0970833  67.6636707  87.4306083 118.3877712  68.6561382
  82.2088927 123.1493208  56.0694783  81.9634969 122.2455538  56.2674993
  82.3784841 123.1510358  55.1274261  89.8985637 114.0216884  65.4519539
  90.4167580 114.7577911  65.1266027  89.5440769 114.3280878  66.2866298
  81.4784574 118.8821565  53.5680945  80.7853819 118.9565920  52.9120980
  81.2336326 118.1181909  54.0902461  90.1498231 110.4417167  60.9720435
  90.4299984 109.7740356  61.5980862  90.9348838 110.6346262  60.4595099
  94.0207089 118.8634801  64.7192010  94.9724512 118.9632898  64.7404234
  93.8510539 118.0713069  65.2290095  92.0421469 115.9490384  64.9051411
  91.4471401 116.2295397  64.2097900  91.7571165 116.4384285  65.6768152
  88.3378498 120.9536973  49.8761514  89.2837602 120.8243182  49.9449932
  87.9592743 120.2151635  50.3530942  96.6489655 118.8751964  63.8792593
  96.1328704 118.0910420  63.6922522  97.5329604 118.5470680  64.0439113
  94.3100382 112.6192979  59.8388406  94.1125203 112.3108068  60.7231738
  94.9200088 113.3454618  59.9686336  88.2217190 125.0054720  71.3362171
  89.1420200 125.1833319  71.5302218  88.1866773 124.0610765  71.1841870
  86.5221415 118.8786950  49.8116399  85.6152870 118.5820062  49.8879113
  86.7997396 118.5816768  48.9450686  77.4399355 120.1993313  60.2615446
  77.1202140 119.3458621  59.9689820  76.8932783 120.4141891  61.0173413
  81.2179263 122.9155754  63.9784952  81.4365273 123.8472862  63.9972986
  81.6305037 122.5563729  64.7639756  88.1383481 113.4223839  55.9660641
  87.3284209 113.0770924  56.3415887  88.8267898 113.1131383  56.5548252
  90.0674029 112.5001886  57.5884937  90.6205067 112.9197340  58.2474960
  90.3044115 111.5737634  57.6307893  86.0907128 118.4888960  73.3687701
  85.9903855 119.4383317  73.2999792  85.8728670 118.1607199  72.4963771
  85.2920199 115.7373885  49.9528378  86.1539363 116.0628783  50.2124196
  85.4770544 114.9505381  49.4401444  77.3087615 123.8196225  62.2308567
  76.6151087 123.4050177  61.7178522  78.0560606 123.8616761  61.6341986
  93.4452836 114.6102411  57.0963601  92.8651505 115.2687215  56.7141654
  93.1788769 113.7879756  56.6851019  91.8956402 114.0107469  59.2984922
  92.3956181 114.1224004  58.4899241  92.5392010 113.7068522  59.9385730
  85.9538398 121.9186099  72.1852763  85.4705480 122.7186459  72.3916652
  86.0399337 121.9294044  71.2320207  79.2224358 123.7514478  60.1074582
  79.1995046 123.8502166  59.1556465  79.5324994 124.5979629  60.4291748
  81.8811736 125.8090633  64.2221197  82.8354989 125.7774576  64.1551128
  81.6824259 125.3481257  65.0371422  82.4711118 124.3791750  66.7891994
  83.2904007 124.8735828  66.8126832  82.7447925 123.4623718  66.7609562
  92.2277714 116.7702502  56.1519950  91.3403569 117.0552152  55.9340144
  92.6431703 116.6096265  55.3047227  95.5792250 116.7949023  59.8674289
  96.3552640 117.2845475  60.1398906  94.8540384 117.2207077  60.3246158
  98.0164809 117.5076642  60.9248230  98.6109300 117.2672378  60.2141538
  98.0891392 116.7883773  61.5521766  92.2018738 122.2857038  56.3670240
  92.1453939 122.7425589  55.5277872  92.7547080 121.5247722  56.1893083
  96.0123544 118.0746770  57.1920359  95.7560478 117.6743405  58.0228567
  95.3876412 118.7890564  57.0670499  92.9353517 123.4761819  53.6622769
  92.8802321 123.3106090  52.7211213  92.3099572 124.1837852  53.8184959
  77.7246032 118.7129883  67.4884191  78.3704896 118.2028837  67.9771416
  77.5163183 119.4498565  68.0627617  86.2449643 112.9769928  53.2408087
  86.2328312 113.9211768  53.3976358  87.1373064 112.7940073  52.9467549
  90.0601762 109.5712705  57.4954024  89.2934158 109.0171191  57.6410707
  90.4712467 109.6434573  58.3568176  82.0643523 115.8597500  71.5859206
  82.9274985 115.5034305  71.7962530  81.4908934 115.5211395  72.2734610
  26.0335620   7.1918056  49.1166913  26.6714030   7.0724803  48.4130253
  25.9156463   8.1398900  49.1754865  22.8425326   7.1445484  49.0528438
  22.5043838   7.0286548  48.1648973  23.7115094   6.7436649  49.0329444
  18.7012142   8.9980960  45.0425329  18.1377007   8.9070897  44.2741617
  18.5864537   8.1780865  45.5227821  23.3245109   8.2980336  55.0114643
  23.3133750   7.9033134  54.1395147  23.4865749   7.5646408  55.6048415
  16.2476574  10.4932152  47.8809549  17.0397866  10.1522976  47.4655849
  16.4873224  10.6027127  48.8011703  24.2811700  12.6651928  40.3539794
  23.6299680  13.2506008  39.9673807  25.0756063  13.1958123  40.4134831
  18.2067328   9.7541065  40.7526928  18.9798204   9.2070052  40.6139804
  18.5592726  10.6185314  40.9641389  20.0452370  11.0817447  53.9593827
  19.7542236  11.9863078  53.8440494  20.6809355  11.1233975  54.6737897
  20.9708577   8.4594296  50.5495187  21.5672149   8.2350318  49.8352150
  21.0283549   7.7179041  51.1520635  20.5433605   5.9133731  38.3845378
  20.7959126   5.3915252  37.6228841  19.6058165   5.7499877  38.4872062
  25.5876888   4.9169510  46.1920121  26.3739977   4.4988933  45.8410538
  25.8515593   5.8215602  46.3601770  25.7586966  10.3542360  40.8908778
  25.1232799  10.4276986  41.6029683  25.4284372  10.9435959  40.2127857
  30.9885315   4.8544743  47.0953100  31.7210487   4.2843960  47.3290929
  30.2324671   4.4666343  47.5359605  20.2629894   7.8161837  40.5869753
  20.1466152   7.1406741  41.2550837  20.3732154   7.3294211  39.7701906
  22.6061435   7.2771984  44.2916442  22.2419642   6.7502605  45.0029364
  23.4628551   6.8870453  44.1182928  25.0042255  10.7678863  50.9543621
  24.7042978  11.6703902  50.8459428  24.6593315  10.5011046  51.8064774
  18.4554737   7.2192660  46.9880325  17.5305233   7.0868874  47.1958017
  18.7039150   7.9986879  47.4850268  28.4039399   3.2861403  48.6341058
  27.4956276   3.2176811  48.3399819  28.3526995   3.7633348  49.4622884
  22.2256143   4.7619541  40.2724457  22.1055768   5.2076592  41.1109938
  21.5308731   5.1104859  39.7137996  19.9863035  17.5323183  43.9214589
  19.9087065  18.4831008  44.0003069  19.3824679  17.1869056  44.5789515
  22.4780265   4.7051049  56.5775956  21.7013599   5.2644969  56.5678820
  23.1170828   5.1907832  57.0990826  30.2701045   1.4877841  50.4118932
  29.6275426   1.7810375  49.7658727  29.7655974   1.3730762  51.2172129
  27.9241209   5.2341015  41.1004792  28.8359065   5.4668401  40.9252489
  27.4150856   5.8178059  40.5379870  20.7326637   7.5136502  56.1393923
  21.4741322   8.0521546  55.8628746  20.0263623   8.1402791  56.2965474
  26.2081977   9.6565642  54.7366084  26.6165333   9.2148053  53.9920716
  25.4859238   9.0818270  54.9900277  22.5613047   4.5938249  52.1099641
  23.4074242   5.0177663  52.2534290  22.5011685   3.9371874  52.8038204
  26.5310791  10.2166833  48.4918373  25.9019654  10.3812547  47.7894441
  26.1436454  10.6308443  49.2629337  30.4100023  11.1521271  45.8462737
  29.7251061  11.5320172  45.2959770  30.4943873  11.7616598  46.5794685
  25.7112492   2.2542618  53.7680815  25.4673424   3.0084678  53.2315090
  25.9872423   2.6327965  54.6028062  27.6650955   8.7981230  52.4458080
  27.8767850   9.4412990  51.7692461  27.6180703   7.9643546  51.9780010
  25.2677184   1.4099051  49.3494652  24.4061663   1.7080304  49.6411390
  25.2939619   1.6269449  48.4175685  22.0838753   9.9541241  45.7568458
  22.5477099  10.2328944  44.9673081  21.8195551   9.0524686  45.5741549
  18.9762834   9.5012723  48.6948221  19.5464191   9.9299991  48.0565706
  19.5670946   9.2195307  49.3932407  21.0207639   6.0764394  42.5658023
  21.7231683   6.5285437  43.0331950  20.6888268   5.4348212  43.1937916
  28.7796783  11.6753185  50.6180438  29.6014227  11.2733373  50.3363119
  28.7759186  11.5721420  51.5696553  22.5453386  11.2237229  52.7741148
  22.6097819  11.6857636  53.6099320  21.8364310  10.5934594  52.9023458
  36.8702776   8.0191934  46.9665409  36.1166484   7.4499332  46.8109414
  37.0050317   7.9854598  47.9136044  22.2601404  12.8905336  42.6420128
  22.1247079  13.7356872  43.0704976  22.8011216  13.0924614  41.8786062
  15.7130801  10.4080774  43.2148054  16.2255322  11.2024024  43.3653618
  16.3653514   9.7107065  43.1481655  17.5225686  13.5246530  45.2970807
  17.6992314  14.4464495  45.1091791  18.3182520  13.2104950  45.7265187
  23.8869880  13.5128903  56.7720471  23.4433735  12.7265281  56.4541375
  24.5487094  13.7008053  56.1064361  18.6457002  15.0424704  51.2981149
  19.1964427  14.9141768  50.5258143  17.8068477  15.3419593  50.9476042
  25.9851118  13.7931703  54.8001872  25.9669594  14.6140584  54.3082141
  26.9071038  13.6685778  55.0252013  22.4424173  11.3075832  55.6425380
  22.9752509  10.5464120  55.4124688  21.9138254  11.0149484  56.3849535
  25.5744150   6.4044509  39.6791457  25.0590774   7.1749114  39.9179844
  25.3021459   5.7309645  40.3024518  30.5478424   9.1576864  41.6144631
  29.7707867   8.8188023  41.1699793  31.2269905   9.1629487  40.9399596
  25.3630453   4.2771601  41.5051238  25.0580589   4.5917750  42.3561381
  26.3160896   4.3553021  41.5478571  23.8076885  10.4361825  43.1544192
  23.2798247   9.7014584  42.8417430  23.3064388  11.2136501  42.9084161
  28.7869731   8.6310845  48.2711239  28.1293406   9.3210106  48.3591367
  29.5910131   9.0207277  48.6145225  27.5975190   6.9855218  46.3215180
  28.1107072   7.6185210  46.8236890  28.2476414   6.3856413  45.9558540
  21.9529485   8.2542035  36.1579165  21.0456547   8.0231288  36.3570314
  22.4500517   7.4579654  36.3453147  24.8597564  16.9639542  39.0775851
  24.1859263  17.2671239  39.6860809  25.2463386  17.7668622  38.7281308
  24.0756021   4.4604673  48.5673521  23.1578582   4.6819620  48.4095209
  24.4916165   4.5350984  47.7085228  24.8591069   5.8596089  43.6976201
  25.6062888   6.3717486  43.3883323  25.1282658   5.5380142  44.5580595
  23.1317719   8.3554630  40.6803155  22.2228938   8.0713662  40.7775625
  23.1612803   8.7753708  39.8206462  28.3636986  11.9661219  44.4494323
  27.9099313  11.1252129  44.5059513  27.7330953  12.6022618  44.7869103
  27.3069906   2.8953205  45.6794990  26.5692663   2.3830591  46.0105233
  27.5596679   2.4553587  44.8678267  26.8069926  13.8037716  45.3844141
  27.0992900  14.3642773  44.6656507  27.3168546  14.0966277  46.1397300
  21.6802613   5.9683250  46.7812951  21.7351223   5.0157087  46.7055427
  20.8693815   6.1242689  47.2654249  22.8293807   9.8963373  38.0191234
  22.3913237   9.1799232  37.5596871  23.5704248  10.1239488  37.4576325
  21.7703551  14.5818067  46.4737594  21.7279730  14.8078913  45.5446126
  22.6866250  14.3481442  46.6223395  25.2169185   5.0502134  53.3718223
  25.5718572   5.2773608  54.2312689  25.8641316   5.3820511  52.7495479
  30.9466921   8.1720570  44.0767552  30.8084820   8.3622166  43.1488742
  30.5903140   8.9339953  44.5335604  30.9736301  10.2397097  49.0878824
  31.4072808  10.1472386  49.9361878  31.6867882  10.2154598  48.4498840
  19.8869352  11.4581096  46.2699557  20.6809950  10.9631416  46.0682132
  19.1761044  10.9298959  45.9067263  24.7064196  13.8399192  50.6211925
  24.7601218  14.4090128  51.3889640  23.8378977  14.0101077  50.2565962
  31.8351851  10.2820798  51.6211709  32.0287741  11.1866609  51.8670984
  31.7352469   9.8228217  52.4550294  26.8966959  10.4327541  57.1952590
  26.7452466  10.2038092  56.2782674  26.8871639  11.3898142  57.2083935
  23.6652296   8.0059454  52.1798856  24.5944356   8.1570613  52.0067824
  23.2443326   8.0943474  51.3247503  22.4640628  12.0310118  49.9497394
  22.3251713  11.6628902  50.8223332  21.6755224  12.5457757  49.7781352
  23.0588780  17.1319214  41.2922931  23.2340535  16.6607258  42.1068553
  22.3721568  17.7584981  41.5204191  24.0145843  11.4091721  47.3386232
  23.6795675  11.3692491  48.2343882  23.5149788  10.7436437  46.8656642
  17.9890087   6.8159351  52.8638813  17.8509885   6.0839590  53.4650352
  18.8995010   6.7268251  52.5823001  26.9505034   8.7547755  37.6123291
  26.3334205   8.0294583  37.5156344  26.4821523   9.5157115  37.2690366
  20.6172387   6.5279310  52.3522493  21.3272006   5.8872502  52.3109111
  20.5741695   6.7792205  53.2748673  28.6059166  13.4646663  55.2729072
  28.5471712  12.7805883  54.6059655  29.0078684  14.2065653  54.8209698
  17.6249865  20.2808577  48.0662791  17.8646463  20.9127101  48.7441809
  16.7819061  19.9296617  48.3528150  28.6076573  11.4286247  53.5043052
  27.7203352  11.0912169  53.6269450  29.1775124  10.6969279  53.7411817
  22.1377727  16.0887700  50.4704295  22.0647898  16.8942671  50.9823599
  21.6955120  16.2879665  49.6452316  21.9267506  15.3259470  43.9807116
  21.1435028  15.8681150  44.0745341  22.6260251  15.8433449  44.3801357
  25.2364156   1.1354099  46.6241322  25.7332856   0.3824061  46.3042392
  24.4651138   1.1718416  46.0584531  33.0893914   6.8394465  48.2659613
  33.0783790   7.7219180  47.8953546  32.2211293   6.4866015  48.0714150
  24.5976410  15.9874534  52.6262453  25.3104382  16.6221998  52.5538355
  24.1066439  16.0838400  51.8102455  26.3193937   9.8925786  44.1979745
  25.3850216  10.0127249  44.0284449  26.4970606   8.9898253  43.9339755
  29.7066488   5.7343106  44.7329779  30.1726941   6.5671097  44.6590082
  30.1573989   5.2688087  45.4375038  19.6488324  13.7368977  53.4468024
  20.3497783  14.3705460  53.5997418  19.1783439  14.0783709  52.6863663
  27.7742720  12.0786927  41.7315931  28.0502563  11.9643521  42.6409805
  26.9047218  11.6804412  41.6928104  27.4489610   6.2913585  51.2720575
  26.7961060   6.5389492  50.6173027  27.8269990   5.4777723  50.9383052
  24.4096784  16.3273278  45.3748745  24.5919178  15.5094934  45.8376497
  25.2329770  16.5440970  44.9373635  24.7438949  15.2541463  42.6363793
  25.2726715  14.7433917  42.0233955  25.0067169  14.9383993  43.5009326
  23.4977183   7.0333396  57.7586612  22.8217820   6.9327525  58.4288987
  24.3204817   6.8772609  58.2222609  15.2456042  13.2705332  50.3799127
  15.8309479  12.5249020  50.5127031  15.0480880  13.5809289  51.2635791
  18.0994697  16.3056580  45.3961569  17.4305072  16.7902707  44.9125609
  17.9607567  16.5525800  46.3104948  22.2399966  18.3400323  51.9944228
  22.7918274  18.5031945  52.7593313  22.5806159  18.9304761  51.3224252
  27.0910840  13.1661581  57.8492882  27.6350744  13.7791539  57.3547837
  26.5097685  13.7241159  58.3659895  25.3768353  16.2882299  48.9807910
  25.2519492  15.4872038  48.4718855  26.0347444  16.7828492  48.4921880
  27.4403261  14.0891319  50.6087460  26.4933597  13.9696670  50.5365787
  27.7886034  13.2013817  50.6913721  24.4449695  13.8844035  46.8091812
  24.2974657  12.9560742  46.9899382  25.2703188  13.9064126  46.3248887
  28.0483816  14.7072594  47.8956685  28.9730364  14.5015455  47.7581136
  27.8799120  14.4588995  48.8046026  27.8379133  15.2258261  43.2518776
  28.0116010  14.6604684  42.4992629  28.3308024  16.0259156  43.0698266
  33.6918524   7.9894684  44.8709076  34.1349670   7.2402009  44.4728199
  32.8145034   7.9804820  44.4882808  28.8254305  14.5425026  40.3515675
  29.5205210  15.1631718  40.5702989  29.1677455  13.6920377  40.6268052
  30.7245728  11.9924731  41.8803005  31.2497052  12.3312004  41.1552325
  30.6368081  11.0571746  41.6966140  22.3865777  15.9058805  54.0092882
  22.6952903  15.6607951  54.8815582  23.1841259  16.1105443  53.5211752
  22.4086389  18.0596714  46.2398259  21.9691379  17.5673093  46.9331115
  23.1594506  17.5169682  45.9990334  14.8878728  14.2508255  46.2422887
  15.7136748  13.9512027  45.8621530  14.5372780  13.4815878  46.6912675
  19.8560261  13.6034723  48.3120560  19.2340270  12.9405428  48.0122788
  20.5265128  13.6295855  47.6294208  13.0887333  12.1694582  47.2011820
  12.2519241  11.7416756  47.0195821  13.0610978  12.3627025  48.1382611
  30.4139634  12.6257635  57.1854203  29.6235178  12.6081774  56.6458703
  30.1772989  13.1645928  57.9403240  30.5337509   9.4750101  54.4986932
  30.5835514   9.3100108  55.4402455  30.4251433   8.6077360  54.1084813
  19.4173768  12.1538647  41.7879021  19.5661888  12.8374111  41.1345694
  20.2240211  12.1343737  42.3028476  27.8241272   5.4581029  55.8146239
  28.7251134   5.3187494  55.5230236  27.8989246   5.6235484  56.7544416
  32.0355706  11.8947043  54.7428953  31.7440514  12.2577023  55.5792414
  31.4227837  11.1814051  54.5642285  33.2351388   9.4599922  47.2631524
  34.0698280   9.8989726  47.4269084  33.3710517   8.9838576  46.4439769
  30.2842894   7.0179657  53.2109011  30.7597016   7.2107303  52.4027863
  29.3608460   7.0738843  52.9652395  17.1726401   8.1803824  42.7940090
  16.9272443   7.2766154  42.9920300  17.3422316   8.1820975  41.8519568
  22.9169174  14.6486777  39.2590768  22.3443141  15.2676964  38.8061240
  23.4901967  15.1986139  39.7930690  28.9844563   3.8945417  51.4437317
  29.9361986   3.9943515  51.4649541  28.8148014   3.1023686  51.9535401
  27.0058943   0.9801000  51.6296718  26.4108875   1.2606013  50.9343207
  26.7208640   1.4694901  52.4013459  26.1366433  14.9323927  40.3899350
  27.0697106  14.8669489  40.5932226  26.0489646  15.7680194  39.9313883
  28.7654450  14.2489798  37.3503298  28.6868082  13.9149661  38.2439056
  29.5864117  14.7411566  37.3494770  31.4632641   7.1151537  50.5579617
  31.4308961   6.1767538  50.7439300  32.0733265   7.1935574  49.8245442
  23.3015972   5.9847590  36.6006821  24.2475077   5.8553798  36.6695239
  22.9230217   5.2462252  37.0776249  31.6127130   3.9062580  50.6037900
  31.0966178   3.1221037  50.4167829  32.4967078   3.5781297  50.7684419
  37.2809191   8.1767544  49.6985653  38.0112579   7.9152832  50.2593357
  36.6716136   7.4396266  49.7387721  35.3624488   6.3175406  50.2960105
  34.6357652   6.1831371  49.6876596  34.9471775   6.6252235  51.1016823
  23.1854665  10.0365336  58.0607478  24.1057674  10.2143935  58.2547524
  23.1504248   9.0921381  57.9087177  16.1816737   7.9466371  50.7030259
  16.4002747   8.8783479  50.7218293  16.5942511   7.5874345  51.4885063
  28.4090310  -0.3586972  43.8208908  27.8288979   0.2997832  43.4386961
  28.1426243  -1.1809627  43.4096326  20.9175872   6.9496715  58.9098069
  20.4342954   7.7497075  59.1161958  21.0036812   6.9604660  57.9565513
  14.1861832   8.7825095  46.8319889  14.1632520   8.8812782  45.8801772
  14.4962469   9.6290246  47.1537055  16.8449210  10.8401250  50.9466503
  17.7992464  10.8085192  50.8796435  16.6461734  10.3791874  51.7616729
  17.4348592   9.4102366  53.5137301  18.2541481   9.9046445  53.5372138
  17.7085400   8.4934334  53.4854868  27.1915188   1.8013118  42.8765256
  26.3041043   2.0862769  42.6585451  27.6069177   1.6406882  42.0292533
  30.5429724   1.8259639  46.5919596  31.3190115   2.3156092  46.8644212
  29.8177859   2.2517694  47.0491465  32.9802283   2.5387259  47.6493536
  33.5746774   2.2982995  46.9386844  33.0528867   1.8194389  48.2767073
  15.1999439  16.3820870  47.9636701  15.0653907  15.6221270  47.3974699
  14.7831501  17.1061769  47.4965490  26.3358402  11.5657793  36.9713276
  27.0394252  11.7707796  37.5870932  25.6121051  12.1334555  37.2362360
  27.1656212   7.3167654  43.0915547  27.1091413   7.7736206  42.2523179
  27.7184555   6.5558339  42.9138389  30.9761018   3.1057386  43.9165666
  30.7197952   2.7054022  44.7473874  30.3513886   3.8201180  43.7915805
  35.2873356   5.8453459  46.4236957  34.7272914   5.9146649  47.1968519
  34.6816859   5.6694444  45.7036454  18.3568565  17.2790187  48.1755144
  18.2400949  18.2235619  48.0733834  17.5361011  16.9763748  48.5640943
  28.2445099  12.0040322  39.0211736  29.0790703  11.5721521  38.8389211
  28.0829442  11.8322336  39.9488631  27.8990991   8.5072436  40.3868076
  27.8439795   8.3416707  39.4456520  27.2737047   9.2148468  40.5430265
  25.2136899  10.8121347  59.7121638  26.0828058  10.9862000  59.3508273
  24.7343650  11.6315764  59.5897368  19.3823079  17.9318448  51.3911072
  20.2850325  17.9642059  51.7077567  19.1560449  17.0018899  51.4057408
  21.1376681  16.6849435  48.0521151  20.1872312  16.6851297  47.9385523
  21.4409167  15.9382170  47.5357185  36.8729374  22.5209973  49.1166913
  37.5107784  22.4016721  48.4130253  36.7550217  23.4690817  49.1754865
  33.6819081  22.4737401  49.0528438  33.3437592  22.3578466  48.1648973
  34.5508849  22.0728567  49.0329444  29.5405896  24.3272878  45.0425329
  28.9770761  24.2362815  44.2741617  29.4258291  23.5072782  45.5227821
  34.1638864  23.6272253  55.0114643  34.1527504  23.2325051  54.1395147
  34.3259503  22.8938326  55.6048415  27.0870328  25.8224069  47.8809549
  27.8791620  25.4814894  47.4655849  27.3266978  25.9319045  48.8011703
  35.1205455  27.9943846  40.3539794  34.4693435  28.5797926  39.9673807
  35.9149818  28.5250040  40.4134831  29.0461082  25.0832983  40.7526928
  29.8191958  24.5361970  40.6139804  29.3986481  25.9477232  40.9641389
  30.8846125  26.4109365  53.9593827  30.5935991  27.3154996  53.8440494
  31.5203109  26.4525893  54.6737897  31.8102332  23.7886214  50.5495187
  32.4065904  23.5642236  49.8352150  31.8677303  23.0470959  51.1520635
  31.3827360  21.2425649  38.3845378  31.6352881  20.7207170  37.6228841
  30.4451919  21.0791794  38.4872062  36.4270643  20.2461427  46.1920121
  37.2133732  19.8280850  45.8410538  36.6909347  21.1507519  46.3601770
  36.5980720  25.6834278  40.8908778  35.9626553  25.7568904  41.6029683
  36.2678127  26.2727876  40.2127857  41.8279070  20.1836660  47.0953100
  42.5604242  19.6135877  47.3290929  41.0718426  19.7958261  47.5359605
  31.1023649  23.1453755  40.5869753  30.9859907  22.4698658  41.2550837
  31.2125909  22.6586129  39.7701906  33.4455190  22.6063902  44.2916442
  33.0813397  22.0794523  45.0029364  34.3022306  22.2162371  44.1182928
  39.3504490  13.8958235  51.5547708  39.0187815  14.7653645  51.3308923
  38.7550104  13.5794519  52.2341739  33.0860677  17.6353802  39.2877791
  33.2535079  18.5034038  39.6548262  32.8957846  17.7981083  38.3639080
  35.8436010  26.0970781  50.9543621  35.5436733  26.9995819  50.8459428
  35.4987069  25.8302964  51.8064774  29.2948491  22.5484577  46.9880325
  28.3698988  22.4160791  47.1958017  29.5432904  23.3278797  47.4850268
  39.2433154  18.6153321  48.6341058  38.3350031  18.5468729  48.3399819
  39.1920749  19.0925266  49.4622884  33.0649897  20.0911459  40.2724457
  32.9449523  20.5368510  41.1109938  32.3702486  20.4396777  39.7137996
  26.6557302  22.1917851  47.8224115  26.7849683  22.4452330  48.7363526
  25.9754754  22.7845559  47.5028770  30.8256790  32.8615101  43.9214589
  30.7480819  33.8122926  44.0003069  30.2218433  32.5160973  44.5789515
  33.3174019  20.0342966  56.5775956  32.5407353  20.5936886  56.5678820
  33.9564582  20.5199749  57.0990826  41.1094800  16.8169759  50.4118932
  40.4669180  17.1102292  49.7658727  40.6049728  16.7022679  51.2172129
  38.7634964  20.5632932  41.1004792  39.6752820  20.7960319  40.9252489
  38.2544611  21.1469976  40.5379870  31.5720392  22.8428420  56.1393923
  32.3135076  23.3813464  55.8628746  30.8657377  23.4694708  56.2965474
  37.0475731  24.9857560  54.7366084  37.4559087  24.5439971  53.9920716
  36.3252993  24.4110188  54.9900277  33.4006801  19.9230167  52.1099641
  34.2467997  20.3469580  52.2534290  33.3405439  19.2663791  52.8038204
  37.3704546  25.5458751  48.4918373  36.7413408  25.7104465  47.7894441
  36.9830208  25.9600360  49.2629337  41.2493778  26.4813189  45.8462737
  40.5644816  26.8612090  45.2959770  41.3337627  27.0908515  46.5794685
  36.5506247  17.5834535  53.7680815  36.3067179  18.3376596  53.2315090
  36.8266177  17.9619883  54.6028062  38.5044709  24.1273148  52.4458080
  38.7161605  24.7704908  51.7692461  38.4574458  23.2935464  51.9780010
  36.1070938  16.7390968  49.3494652  35.2455417  17.0372222  49.6411390
  36.1333373  16.9561367  48.4175685  32.9232508  25.2833159  45.7568458
  33.3870853  25.5620862  44.9673081  32.6589306  24.3816603  45.5741549
  29.8156589  24.8304640  48.6948221  30.3857946  25.2591909  48.0565706
  30.4064701  24.5487225  49.3932407  31.8601394  21.4056311  42.5658023
  32.5625437  21.8577355  43.0331950  31.5282022  20.7640130  43.1937916
  30.3081755  19.9968068  56.9409233  29.6780416  20.6784349  57.1744629
  30.2017843  19.8851149  55.9962371  25.6026728  19.6639864  47.8675157
  24.8125782  19.9197392  47.3915267  26.0937975  20.4788202  47.9727197
  39.6190537  27.0045103  50.6180438  40.4407981  26.6025290  50.3363119
  39.6152940  26.9013337  51.5696553  27.5541473  20.0284443  44.8258634
  26.7572636  20.1403137  45.3442129  27.3267065  20.3671095  43.9599524
  33.3847141  26.5529146  52.7741148  33.4491573  27.0149554  53.6099320
  32.6758065  25.9226511  52.9023458  23.8864431  19.9170354  50.2990148
  24.1372469  20.8017364  50.5647724  24.4223979  19.7374956  49.5265239
  47.7096530  23.3483852  46.9665409  46.9560239  22.7791250  46.8109414
  47.8444072  23.3146516  47.9136044  33.0995158  28.2197254  42.6420128
  32.9640833  29.0648790  43.0704976  33.6404971  28.4216531  41.8786062
  29.5862498  14.2988834  59.3034484  29.1929444  13.7455032  59.9782128
  30.4028638  14.6099412  59.6941001  26.5524556  25.7372692  43.2148054
  27.0649076  26.5315942  43.3653618  27.2047269  25.0398982  43.1481655
  28.3619441  28.8538448  45.2970807  28.5386069  29.7756413  45.1091791
  29.1576274  28.5396867  45.7265187  32.5030459  15.7146713  56.8954740
  33.2440172  16.3153866  56.8159203  32.7348382  14.9724351  56.3372783
  27.6471797  20.9003080  55.1732970  27.5325312  19.9988337  55.4740069
  26.7916315  21.1466777  54.8217786  34.7263635  28.8420820  56.7720471
  34.2827489  28.0557199  56.4541375  35.3880848  29.0299971  56.1064361
  29.4850756  30.3716622  51.2981149  30.0358181  30.2433685  50.5258143
  28.6462232  30.6711511  50.9476042  36.8244873  29.1223620  54.8001872
  36.8063348  29.9432501  54.3082141  37.7464793  28.9977695  55.0252013
  33.2817927  26.6367750  55.6425380  33.8146264  25.8756038  55.4124688
  32.7532008  26.3441402  56.3849535  36.4487622  11.7427816  51.1719022
  36.1051891  12.6329457  51.0958133  36.8166585  11.5529473  50.3088607
  24.5173473  24.0661346  43.9907624  25.3548695  24.4758355  43.7741332
  24.6951740  23.1260788  43.9607818  36.4137905  21.7336427  39.6791457
  35.8984528  22.5041031  39.9179844  36.1415213  21.0601563  40.3024518
  33.9985016  16.5786128  44.7376695  33.1426612  16.1892978  44.5582334
  34.4111968  16.6578088  43.8776481  35.5284162  14.1132471  49.1368255
  35.0248958  14.0762606  48.3236060  35.8214769  15.0225214  49.1964912
  31.7727048  14.1971201  48.1434437  32.6380045  14.0014009  47.7840326
  31.8404557  13.9681552  49.0703794  41.3872179  24.4868781  41.6144631
  40.6101622  24.1479941  41.1699793  42.0663660  24.4921405  40.9399596
  36.2024208  19.6063519  41.5051238  35.8974344  19.9209668  42.3561381
  37.1554650  19.6844939  41.5478571  34.6470640  25.7653742  43.1544192
  34.1192001  25.0306502  42.8417430  34.1458143  26.5428419  42.9084161
  39.6263486  23.9602763  48.2711239  38.9687160  24.6502024  48.3591367
  40.4303885  24.3499195  48.6145225  29.3789367  16.4273409  45.5150804
  29.9533119  16.2048590  44.7823997  29.9660350  16.4962103  46.2679405
  38.4368945  22.3147135  46.3215180  38.9500826  22.9477127  46.8236890
  39.0870168  21.7148331  45.9558540  29.7058955  18.4577870  39.5346689
  28.8696267  18.7952556  39.8555964  29.5663724  18.3226849  38.5973826
  31.6812035  13.3014657  44.2425873  31.0276447  12.9863675  43.6182488
  31.6392509  12.6790398  44.9685696  32.7923240  23.5833952  36.1579165
  31.8850302  23.3523206  36.3570314  33.2894272  22.7871572  36.3453147
  35.6991319  32.2931460  39.0775851  35.0253018  32.5963156  39.6860809
  36.0857141  33.0960540  38.7281308  34.9149775  19.7896591  48.5673521
  33.9972337  20.0111538  48.4095209  35.3309919  19.8642901  47.7085228
  35.6984823  21.1888007  43.6976201  36.4456642  21.7009404  43.3883323
  35.9676413  20.8672059  44.5580595  33.9711473  23.6846547  40.6803155
  33.0622693  23.4005580  40.7775625  34.0006557  24.1045626  39.8206462
  39.2030741  27.2953137  44.4494323  38.7493068  26.4544047  44.5059513
  38.5724708  27.9314535  44.7869103  38.1463660  18.2245123  45.6794990
  37.4086417  17.7122509  46.0105233  38.3990434  17.7845504  44.8678267
  37.6463680  29.1329634  45.3844141  37.9386654  29.6934691  44.6656507
  38.1562301  29.4258195  46.1397300  38.2475288  11.0021375  46.2736760
  38.5534165  10.1418738  45.9862675  38.9727893  11.5938995  46.0735754
  24.5399644  21.4052061  44.6618358  24.3424044  20.8121422  43.9369424
  23.9846308  21.1004272  45.3794296  32.5196367  21.2975168  46.7812951
  32.5744977  20.3449004  46.7055427  31.7087569  21.4534607  47.2654249
  33.6687561  25.2255291  38.0191234  33.2306991  24.5091150  37.5596871
  34.4098002  25.4531406  37.4576325  30.4588727  19.9152228  44.5403330
  29.6456593  20.2146398  44.9468522  30.9547722  19.5207916  45.2577812
  32.6097305  29.9109985  46.4737594  32.5673484  30.1370831  45.5446126
  33.5260004  29.6773359  46.6223395  36.0562939  20.3794052  53.3718223
  36.4112327  20.6065525  54.2312689  36.7035070  20.7112429  52.7495479
  41.7860676  23.5012488  44.0767552  41.6478575  23.6914084  43.1488742
  41.4296895  24.2631871  44.5335604  29.9502802  17.4870583  50.1564565
  30.5902181  17.3459342  49.4587528  29.1180333  17.2005097  49.7803166
  41.8130056  25.5689015  49.0878824  42.2466562  25.4764304  49.9361878
  42.5261636  25.5446516  48.4498840  30.7263106  26.7873014  46.2699557
  31.5203705  26.2923334  46.0682132  30.0154798  26.2590877  45.9067263
  35.5457951  29.1691109  50.6211925  35.5994973  29.7382045  51.3889640
  34.6772732  29.3392994  50.2565962  27.0345869  20.9316095  42.3459310
  26.1043458  20.8700551  42.5629272  27.1303341  20.4092048  41.5495951
  26.9531419  17.4570908  44.9337551  27.2138236  18.3716241  44.8246712
  27.7748591  16.9895351  45.0834164  28.4256344  18.8708665  52.1036376
  29.0979397  18.6626028  51.4549025  27.5986130  18.6730751  51.6641608
  42.6745605  25.6112716  51.6211709  42.8681495  26.5158526  51.8670984
  42.5746223  25.1520135  52.4550294  34.3281916  15.4970606  54.1202037
  33.6809831  16.1960556  54.0266513  35.0982931  15.9306750  54.4878285
  37.7360714  25.7619458  57.1952590  37.5846220  25.5330010  56.2782674
  37.7265393  26.7190060  57.2083935  34.5046050  23.3351371  52.1798856
  35.4338110  23.4862531  52.0067824  34.0837080  23.4235392  51.3247503
  33.3034382  27.3602036  49.9497394  33.1645468  26.9920820  50.8223332
  32.5148978  27.8749675  49.7781352  33.8982534  32.4611132  41.2922931
  34.0734290  31.9899175  42.1068553  33.2115322  33.0876898  41.5204191
  34.8539597  26.7383638  47.3386232  34.5189430  26.6984408  48.2343882
  34.3543543  26.0728354  46.8656642  28.8283841  22.1451268  52.8638813
  28.6903639  21.4131507  53.4650352  29.7388765  22.0560168  52.5823001
  37.7898789  24.0839673  37.6123291  37.1727959  23.3586501  37.5156344
  37.3215277  24.8449033  37.2690366  31.4566142  21.8571228  52.3522493
  32.1665760  21.2164420  52.3109111  31.4135450  22.1084123  53.2748673
  39.4452920  28.7938581  55.2729072  39.3865467  28.1097801  54.6059655
  39.8472439  29.5357571  54.8209698  30.1695076  18.8436446  54.1718132
  29.6332433  18.3927184  54.8239728  29.5811784  18.9782354  53.4288596
  28.4643619  35.6100495  48.0662791  28.7040218  36.2419019  48.7441809
  27.6212816  35.2588535  48.3528150  29.5797335  18.3025097  36.7344596
  28.7026801  18.1813898  36.3706842  30.0555088  17.5111175  36.4823484
  39.4470328  26.7578165  53.5043052  38.5597107  26.4204087  53.6269450
  40.0168879  26.0261196  53.7411817  21.0999475  23.0902257  46.8286103
  21.7870515  22.7763987  46.2407118  20.9447604  23.9943621  46.5553354
  25.9034197  17.9792453  51.2571127  25.8192386  17.3718123  50.5221537
  25.0816903  18.4701472  51.2580623  32.9771481  31.4179617  50.4704295
  32.9041653  32.2234589  50.9823599  32.5348874  31.6171583  49.6452316
  32.7661261  30.6551387  43.9807116  31.9828783  31.1973068  44.0745341
  33.4654006  31.1725367  44.3801357  36.0757911  16.4646017  46.6241322
  36.5726610  15.7115979  46.3042392  35.3044892  16.5010333  46.0584531
  43.9287668  22.1686382  48.2659613  43.9177545  23.0511098  47.8953546
  43.0605048  21.8157933  48.0714150  35.4370165  31.3166451  52.6262453
  36.1498137  31.9513916  52.5538355  34.9460193  31.4130317  51.8102455
  37.1587692  25.2217704  44.1979745  36.2243970  25.3419166  44.0284449
  37.3364360  24.3190171  43.9339755  32.6592880  18.6063400  46.3513006
  32.2890667  18.0534440  47.0393912  33.1551972  18.0021533  45.7988006
  40.5460243  21.0635023  44.7329779  41.0120695  21.8963015  44.6590082
  40.9967743  20.5980005  45.4375038  30.4882078  29.0660895  53.4468024
  31.1891538  29.6997378  53.5997418  30.0177193  29.4075626  52.6863663
  38.6136474  27.4078845  41.7315931  38.8896318  27.2935439  42.6409805
  37.7440973  27.0096329  41.6928104  38.5176906  13.4315610  48.7720681
  37.6039985  13.6619837  48.9402887  38.9470007  13.5154054  49.6234713
  38.2883364  21.6205502  51.2720575  37.6354814  21.8681410  50.6173027
  38.6663744  20.8069640  50.9383052  35.2490538  31.6565195  45.3748745
  35.4312933  30.8386851  45.8376497  36.0723524  31.8732888  44.9373635
  35.5832704  30.5833381  42.6363793  36.1120470  30.0725835  42.0233955
  35.8460923  30.2675911  43.5009326  34.3370937  22.3625313  57.7586612
  33.6611574  22.2619443  58.4288987  35.1598571  22.2064527  58.2222609
  26.0849796  28.5997250  50.3799127  26.6703233  27.8540938  50.5127031
  25.8874635  28.9101207  51.2635791  28.9388451  31.6348497  45.3961569
  28.2698827  32.1194625  44.9125609  28.8001321  31.8817718  46.3104948
  20.6767451  21.1702850  49.1003570  20.7151551  20.6366441  49.8940688
  20.1707744  20.6438056  48.4814547  33.0793720  33.6692241  51.9944228
  33.6312028  33.8323862  52.7593313  33.4199914  34.2596679  51.3224252
  28.0558213  16.0167391  52.5966112  28.1199540  16.8782221  52.1843510
  27.9925334  15.4041392  51.8638471  27.5310486  18.0890523  56.2439147
  28.1582525  17.7067600  56.8576671  26.6738405  17.8704725  56.6094839
  37.9304594  28.4953498  57.8492882  38.4744498  29.1083457  57.3547837
  37.3491439  29.0533077  58.3659895  24.3076029  19.8966952  42.1757501
  24.6029470  18.9877631  42.1224555  23.4064064  19.8754692  41.8538504
  36.2162107  31.6174216  48.9807910  36.0913247  30.8163956  48.4718855
  36.8741198  32.1120410  48.4921880  27.8370276  17.9722949  48.1585050
  27.1156861  18.5858916  48.0192523  28.6263531  18.5080714  48.0801696
  38.2797016  29.4183236  50.6087460  37.3327351  29.2988588  50.5365787
  38.6279789  28.5305734  50.6913721  30.6396589  15.3077375  54.4325702
  31.1630991  15.5539672  55.1952011  30.4208922  16.1397410  54.0128839
  26.0363870  17.5781050  42.2996827  25.7076576  16.6978429  42.1171932
  26.3903241  17.5228719  43.1873216  35.2843449  29.2135953  46.8091812
  35.1368411  28.2852660  46.9899382  36.1096943  29.2356043  46.3248887
  29.1505693  17.8654020  42.6672304  29.4901766  18.3939941  41.9450913
  29.5977814  18.2034426  43.4430871  38.8877571  30.0364511  47.8956685
  39.8124118  29.8307373  47.7581136  38.7192874  29.7880912  48.8046026
  31.8449134  16.2491070  52.1175372  31.5045954  15.4498883  52.5196052
  31.1388140  16.5492781  51.5452206  32.4965606  13.3340383  50.5702695
  33.3191675  12.8600861  50.4481586  32.7403669  14.1130867  51.0701382
  31.1373840  16.3628641  40.8665597  31.8582203  16.7409894  40.3629314
  30.5139145  17.0817518  40.9700575  35.2804963  17.0673790  41.8023929
  35.4968578  17.9498428  41.5012758  34.7999030  16.6760004  41.0729571
  30.0204185  20.0259503  48.3794674  29.8748765  20.3399807  49.2718955
  29.5429388  20.6444404  47.8265573  31.8800568  17.0162051  48.4275564
  31.8662136  16.1203145  48.0907861  32.5972996  17.0232715  49.0613850
  33.7326698  17.4499392  50.4728691  33.4744476  18.3716462  50.4713021
  33.2011739  17.0529826  51.1629155  38.6772887  30.5550179  43.2518776
  38.8509765  29.9896601  42.4992629  39.1701778  31.3551074  43.0698266
  24.4949847  22.5664848  51.3182335  23.9503315  23.3424656  51.4502609
  25.3729197  22.9135652  51.1601457  31.2837464  15.8976432  43.6963134
  31.4053375  14.9693078  43.8954021  30.9939506  15.9115118  42.7841449
  34.1528654  13.5831342  46.8329853  34.1750351  13.6470675  45.8781833
  34.5696713  12.7435851  47.0270360  44.5312278  23.3186602  44.8709076
  44.9743424  22.5693927  44.4728199  43.6538789  23.3096738  44.4882808
  39.6648060  29.8716943  40.3515675  40.3598964  30.4923636  40.5702989
  40.0071210  29.0212294  40.6268052  25.2815869  21.6934744  54.2112492
  24.5397605  21.8417379  54.7977122  24.9608613  21.9543010  53.3479241
  41.5639483  27.3216649  41.8803005  42.0890807  27.6603921  41.1552325
  41.4761835  26.3863664  41.6966140  33.2259531  31.2350722  54.0092882
  33.5346658  30.9899869  54.8815582  34.0235013  31.4397361  53.5211752
  33.2480143  33.3888632  46.2398259  32.8085134  32.8965011  46.9331115
  33.9988260  32.8461600  45.9990334  25.7272482  29.5800173  46.2422887
  26.5530502  29.2803945  45.8621530  25.3766534  28.8107795  46.6912675
  30.6954016  28.9326641  48.3120560  30.0734025  28.2697346  48.0122788
  31.3658882  28.9587773  47.6294208  23.9281087  27.4986499  47.2011820
  23.0912996  27.0708674  47.0195821  23.9004733  27.6918943  48.1382611
  30.7678543  17.4108429  57.9053066  30.8166699  18.2870552  57.5230836
  31.3101057  16.8685822  57.3324709  41.2533389  27.9549552  57.1854203
  40.4628932  27.9373691  56.6458703  41.0166743  28.4937846  57.9403240
  41.3731264  24.8042019  54.4986932  41.4229269  24.6392026  55.4402455
  41.2645187  23.9369278  54.1084813  30.2567522  27.4830564  41.7879021
  30.4055643  28.1666029  41.1345694  31.0633966  27.4635654  42.3028476
  38.6635026  20.7872947  55.8146239  39.5644889  20.6479412  55.5230236
  38.7383001  20.9527402  56.7544416  32.9977832  18.1639802  54.6599425
  32.1281141  18.4573368  54.3882013  33.2337312  18.7480246  55.3806689
  42.8749461  27.2238960  54.7428953  42.5834269  27.5868941  55.5792414
  42.2621592  26.5105969  54.5642285  44.0745143  24.7891840  47.2631524
  44.9092034  25.2281644  47.4269084  44.2104272  24.3130493  46.4439769
  41.1236649  22.3471575  53.2109011  41.5990770  22.5399221  52.4027863
  40.2002214  22.4030761  52.9652395  28.0120155  23.5095742  42.7940090
  27.7666197  22.6058072  42.9920300  28.1816070  23.5112892  41.8519568
  35.7016865  14.3819418  52.1764845  36.2198809  15.1180445  51.8511334
  35.3471998  14.6883412  53.0111604  27.2815803  19.2424100  40.2926251
  26.5885048  19.3168455  39.6366287  27.0367555  18.4784443  40.8147768
  35.9529460  10.8019701  47.6965742  36.2331213  10.1342890  48.3226168
  36.7380066  10.9948797  47.1840406  33.7562928  29.9778695  39.2590768
  33.1836895  30.5968882  38.8061240  34.3295722  30.5278057  39.7930690
  39.8238318  19.2237335  51.4437317  40.7755741  19.3235433  51.4649541
  39.6541768  18.4315604  51.9535401  37.8452697  16.3092918  51.6296718
  37.2502629  16.5897931  50.9343207  37.5602394  16.7986819  52.4013459
  36.9760188  30.2615845  40.3899350  37.9090861  30.1961407  40.5932226
  36.8883401  31.0972112  39.9313883  39.6048204  29.5781715  37.3503298
  39.5261836  29.2441579  38.2439056  40.4257871  30.0703483  37.3494770
  42.3026396  22.4443455  50.5579617  42.2702716  21.5059455  50.7439300
  42.9127019  22.5227491  49.8245442  34.1409727  21.3139508  36.6006821
  35.0868831  21.1845716  36.6695239  33.7623971  20.5754170  37.0776249
  42.4520884  19.2354498  50.6037900  41.9359933  18.4512955  50.4167829
  43.3360833  18.9073215  50.7684419  40.1131611  12.9795514  46.5633712
  39.9156432  12.6710602  47.4477044  40.7231317  13.7057153  46.6931642
  48.1202946  23.5059461  49.6985653  48.8506334  23.2444750  50.2593357
  47.5109891  22.7688183  49.7387721  46.2018243  21.6467324  50.2960105
  45.4751406  21.5123289  49.6876596  45.7865530  21.9544153  51.1016823
  34.0248419  25.3657254  58.0607478  34.9451429  25.5435853  58.2547524
  33.9898002  24.4213299  57.9087177  32.3252644  19.2389484  36.5361706
  31.4184099  18.9422597  36.6124420  32.6028625  18.9419302  35.6695992
  23.2430584  20.5595847  46.9860752  22.9233368  19.7061156  46.6935126
  22.6964012  20.7744426  47.7418720  27.0210492  23.2758288  50.7030259
  27.2396501  24.2075396  50.7218293  27.4336265  22.9166263  51.4885063
  33.9414709  13.7826374  42.6905947  33.1315438  13.4373459  43.0661193
  34.6299126  13.4733917  43.2793559  35.8705258  12.8604421  44.3130244
  36.4236296  13.2799874  44.9720267  36.1075344  11.9340169  44.3553200
  31.8938357  18.8491494  60.0933008  31.7935084  19.7985851  60.0245099
  31.6759899  18.5209733  59.2209078  31.0951428  16.0976419  36.6773685
  31.9570592  16.4231318  36.9369502  31.2801772  15.3107915  36.1646751
  23.1118844  24.1798759  48.9553874  22.4182315  23.7652712  48.4423828
  23.8591835  24.2219295  48.3587293  39.2484065  14.9704946  43.8208908
  38.6682734  15.6289750  43.4386961  38.9819997  14.1482290  43.4096326
  37.6987631  14.3710003  46.0230228  38.1987410  14.4826538  45.2144547
  38.3423239  14.0671056  46.6631037  31.7569627  22.2788633  58.9098069
  31.2736709  23.0788993  59.1161958  31.8430566  22.2896578  57.9565513
  25.0255587  24.1117013  46.8319889  25.0026275  24.2104700  45.8801772
  25.3356223  24.9582163  47.1537055  27.6842964  26.1693168  50.9466503
  28.6386218  26.1377110  50.8796435  27.4855488  25.7083791  51.7616729
  28.2742347  24.7394284  53.5137301  29.0935236  25.2338362  53.5372138
  28.5479154  23.8226252  53.4854868  38.0308943  17.1305036  42.8765256
  37.1434798  17.4154687  42.6585451  38.4462932  16.9698799  42.0292533
  41.3823479  17.1551557  46.5919596  42.1583869  17.6448009  46.8644212
  40.6571613  17.5809611  47.0491465  43.8196038  17.8679176  47.6493536
  44.4140528  17.6274912  46.9386844  43.8922621  17.1486307  48.2767073
  26.0393193  31.7112787  47.9636701  25.9047661  30.9513188  47.3974699
  25.6225256  32.4353687  47.4965490  37.1752156  26.8949711  36.9713276
  37.8788006  27.0999713  37.5870932  36.4514805  27.4626473  37.2362360
  38.0049967  22.6459572  43.0915547  37.9485168  23.1028123  42.2523179
  38.5578309  21.8850257  42.9138389  41.8154772  18.4349304  43.9165666
  41.5591707  18.0345940  44.7473874  41.1907640  19.1493098  43.7915805
  46.1267110  21.1745377  46.4236957  45.5666668  21.2438566  47.1968519
  45.5210614  20.9986362  45.7036454  29.1962319  32.6082104  48.1755144
  29.0794703  33.5527537  48.0733834  28.3754765  32.3055666  48.5640943
  39.0838854  27.3332240  39.0211736  39.9184458  26.9013438  38.8389211
  38.9223197  27.1614254  39.9488631  38.7384746  23.8364353  40.3868076
  38.6833550  23.6708625  39.4456520  38.1130801  24.5440386  40.5430265
  23.5277261  19.0732418  54.2129498  24.1736124  18.5631372  54.7016723
  23.3194412  19.8101099  54.7872923  36.0530653  26.1413265  59.7121638
  36.9221813  26.3153917  59.3508273  35.5737405  26.9607682  59.5897368
  32.0480871  13.3372462  39.9653394  32.0359541  14.2814302  40.1221665
  32.9404293  13.1542608  39.6712855  30.2216833  33.2610366  51.3911072
  31.1244080  33.2933976  51.7077567  29.9954203  32.3310817  51.4057408
  31.9770435  32.0141353  48.0521151  31.0266066  32.0143214  47.9385523
  32.2802921  31.2674087  47.5357185  35.8632991   9.9315239  44.2199331
  35.0965387   9.3773726  44.3656013  36.2743696  10.0037108  45.0813483
  27.8674752  16.2200035  58.3104512  28.7306213  15.8636840  58.5207837
  27.2940162  15.8813930  58.9979916  47.7123129  37.8501891  49.1166913
  48.3501539  37.7308638  48.4130253  47.5943972  38.7982735  49.1754865
  44.5212835  37.8029319  49.0528438  44.1831347  37.6870384  48.1648973
  45.3902603  37.4020484  49.0329444  40.3799651  39.6564796  45.0425329
  39.8164516  39.5654733  44.2741617  40.2652046  38.8364700  45.5227821
  37.9264083  41.1515987  47.8809549  38.7185375  40.8106812  47.4655849
  38.1660733  41.2610962  48.8011703  45.9599209  43.3235763  40.3539794
  45.3087189  43.9089844  39.9673807  46.7543572  43.8541958  40.4134831
  39.8854837  40.4124900  40.7526928  40.6585713  39.8653887  40.6139804
  40.2380235  41.2769150  40.9641389  42.6496086  39.1178131  50.5495187
  43.2459658  38.8934154  49.8352150  42.7071058  38.3762877  51.1520635
  42.2221114  36.5717567  38.3845378  42.4746635  36.0499088  37.6228841
  41.2845674  36.4083712  38.4872062  47.2664397  35.5753345  46.1920121
  48.0527486  35.1572768  45.8410538  47.5303102  36.4799437  46.3601770
  47.4374475  41.0126195  40.8908778  46.8020308  41.0860822  41.6029683
  47.1071881  41.6019794  40.2127857  52.6672824  35.5128578  47.0953100
  53.3997996  34.9427795  47.3290929  51.9112180  35.1250179  47.5359605
  41.9417403  38.4745672  40.5869753  41.8253661  37.7990576  41.2550837
  42.0519663  37.9878046  39.7701906  44.2848944  37.9355820  44.2916442
  43.9207151  37.4086441  45.0029364  45.1416060  37.5454289  44.1182928
  50.1898245  29.2250152  51.5547708  49.8581570  30.0945563  51.3308923
  49.5943858  28.9086436  52.2341739  43.9254431  32.9645719  39.2877791
  44.0928833  33.8325956  39.6548262  43.7351600  33.1273001  38.3639080
  46.6829764  41.4262698  50.9543621  46.3830487  42.3287737  50.8459428
  46.3380824  41.1594881  51.8064774  40.1342246  37.8776495  46.9880325
  39.2092742  37.7452709  47.1958017  40.3826659  38.6570714  47.4850268
  50.0826908  33.9445238  48.6341058  49.1743785  33.8760647  48.3399819
  50.0314504  34.4217183  49.4622884  43.9043652  35.4203377  40.2724457
  43.7843277  35.8660428  41.1109938  43.2096240  35.7688694  39.7137996
  37.4951057  37.5209769  47.8224115  37.6243438  37.7744248  48.7363526
  36.8148508  38.1137477  47.5028770  41.6650544  48.1907019  43.9214589
  41.5874574  49.1414844  44.0003069  41.0612188  47.8452891  44.5789515
  51.9488554  32.1461677  50.4118932  51.3062935  32.4394210  49.7658727
  51.4443483  32.0314597  51.2172129  49.6028718  35.8924850  41.1004792
  50.5146574  36.1252237  40.9252489  49.0938365  36.4761894  40.5379870
  48.2098300  40.8750668  48.4918373  47.5807163  41.0396383  47.7894441
  47.8223963  41.2892278  49.2629337  52.0887532  41.8105106  45.8462737
  51.4038570  42.1904008  45.2959770  52.1731382  42.4200433  46.5794685
  46.9464693  32.0682886  49.3494652  46.0849172  32.3664140  49.6411390
  46.9727128  32.2853285  48.4175685  43.7626262  40.6125077  45.7568458
  44.2264608  40.8912779  44.9673081  43.4983060  39.7108521  45.5741549
  40.6550343  40.1596558  48.6948221  41.2251700  40.5883826  48.0565706
  41.2458455  39.8779143  49.3932407  42.6995148  36.7348229  42.5658023
  43.4019192  37.1869273  43.0331950  42.3675777  36.0932048  43.1937916
  41.1475510  35.3259986  56.9409233  40.5174170  36.0076266  57.1744629
  41.0411598  35.2143067  55.9962371  36.4420482  34.9931782  47.8675157
  35.6519536  35.2489310  47.3915267  36.9331730  35.8080119  47.9727197
  38.3935228  35.3576361  44.8258634  37.5966391  35.4695055  45.3442129
  38.1660820  35.6963013  43.9599524  44.2240895  41.8821064  52.7741148
  44.2885328  42.3441471  53.6099320  43.5151819  41.2518429  52.9023458
  34.7258185  35.2462272  50.2990148  34.9766224  36.1309282  50.5647724
  35.2617734  35.0666874  49.5265239  58.5490285  38.6775769  46.9665409
  57.7953993  38.1083167  46.8109414  58.6837826  38.6438434  47.9136044
  43.9388913  43.5489172  42.6420128  43.8034588  44.3940707  43.0704976
  44.4798725  43.7508449  41.8786062  40.4256253  29.6280751  59.3034484
  40.0323198  29.0746950  59.9782128  41.2422393  29.9391330  59.6941001
  37.3918310  41.0664610  43.2148054  37.9042831  41.8607860  43.3653618
  38.0441023  40.3690900  43.1481655  39.2013195  44.1830366  45.2970807
  39.3779823  45.1048331  45.1091791  39.9970029  43.8688785  45.7265187
  43.3424214  31.0438630  56.8954740  44.0833927  31.6445784  56.8159203
  43.5742136  30.3016268  56.3372783  38.4865552  36.2294998  55.1732970
  38.3719067  35.3280255  55.4740069  37.6310069  36.4758694  54.8217786
  40.3244511  45.7008540  51.2981149  40.8751936  45.5725603  50.5258143
  39.4855986  46.0003429  50.9476042  47.2881377  27.0719733  51.1719022
  46.9445646  27.9621375  51.0958133  47.6560339  26.8821391  50.3088607
  35.3567227  39.3953264  43.9907624  36.1942449  39.8050272  43.7741332
  35.5345495  38.4552706  43.9607818  47.2531659  37.0628344  39.6791457
  46.7378283  37.8332949  39.9179844  46.9808968  36.3893481  40.3024518
  44.8378770  31.9078045  44.7376695  43.9820367  31.5184896  44.5582334
  45.2505722  31.9870006  43.8776481  46.3677917  29.4424389  49.1368255
  45.8642713  29.4054524  48.3236060  46.6608524  30.3517131  49.1964912
  42.6120803  29.5263118  48.1434437  43.4773800  29.3305927  47.7840326
  42.6798312  29.2973470  49.0703794  52.2265933  39.8160699  41.6144631
  51.4495376  39.4771859  41.1699793  52.9057414  39.8213322  40.9399596
  47.0417962  34.9355437  41.5051238  46.7368098  35.2501586  42.3561381
  47.9948405  35.0136856  41.5478571  45.4864394  41.0945660  43.1544192
  44.9585756  40.3598419  42.8417430  44.9851897  41.8720336  42.9084161
  50.4657240  39.2894680  48.2711239  49.8080915  39.9793942  48.3591367
  51.2697640  39.6791112  48.6145225  40.2183122  31.7565326  45.5150804
  40.7926874  31.5340508  44.7823997  40.8054104  31.8254021  46.2679405
  49.2762699  37.6439053  46.3215180  49.7894581  38.2769045  46.8236890
  49.9263923  37.0440249  45.9558540  40.5452709  33.7869787  39.5346689
  39.7090021  34.1244474  39.8555964  40.4057479  33.6518767  38.5973826
  42.5205790  28.6306575  44.2425873  41.8670202  28.3155592  43.6182488
  42.4786264  28.0082316  44.9685696  43.6316994  38.9125870  36.1579165
  42.7244056  38.6815124  36.3570314  44.1288026  38.1163489  36.3453147
  46.5385073  47.6223377  39.0775851  45.8646772  47.9255074  39.6860809
  46.9250895  48.4252458  38.7281308  45.7543530  35.1188509  48.5673521
  44.8366091  35.3403456  48.4095209  46.1703674  35.1934819  47.7085228
  46.5378578  36.5179924  43.6976201  47.2850397  37.0301322  43.3883323
  46.8070167  36.1963977  44.5580595  44.8105228  39.0138465  40.6803155
  43.9016447  38.7297498  40.7775625  44.8400312  39.4337544  39.8206462
  48.9857415  33.5537041  45.6794990  48.2480172  33.0414427  46.0105233
  49.2384188  33.1137422  44.8678267  49.0869042  26.3313293  46.2736760
  49.3927919  25.4710656  45.9862675  49.8121647  26.9230913  46.0735754
  35.3793398  36.7343979  44.6618358  35.1817798  36.1413340  43.9369424
  34.8240062  36.4296189  45.3794296  43.3590122  36.6267086  46.7812951
  43.4138732  35.6740922  46.7055427  42.5481324  36.7826525  47.2654249
  44.5081316  40.5547209  38.0191234  44.0700746  39.8383068  37.5596871
  45.2491757  40.7823324  37.4576325  41.2982482  35.2444145  44.5403330
  40.4850347  35.5438316  44.9468522  41.7941476  34.8499834  45.2577812
  43.4491060  45.2401902  46.4737594  43.4067239  45.4662749  45.5446126
  44.3653759  45.0065277  46.6223395  52.6254430  38.8304406  44.0767552
  52.4872329  39.0206002  43.1488742  52.2690649  39.5923789  44.5335604
  40.7896557  32.8162501  50.1564565  41.4295936  32.6751260  49.4587528
  39.9574087  32.5297014  49.7803166  52.6523810  40.8980933  49.0878824
  53.0860317  40.8056222  49.9361878  53.3655391  40.8738433  48.4498840
  41.5656861  42.1164931  46.2699557  42.3597459  41.6215251  46.0682132
  40.8548553  41.5882794  45.9067263  37.8739624  36.2608013  42.3459310
  36.9437212  36.1992469  42.5629272  37.9697096  35.7383966  41.5495951
  37.7925173  32.7862826  44.9337551  38.0531990  33.7008159  44.8246712
  38.6142345  32.3187268  45.0834164  39.2650098  34.2000583  52.1036376
  39.9373152  33.9917945  51.4549025  38.4379885  34.0022669  51.6641608
  45.1675670  30.8262524  54.1202037  44.5203585  31.5252474  54.0266513
  45.9376686  31.2598668  54.4878285  44.1428137  42.6893953  49.9497394
  44.0039222  42.3212738  50.8223332  43.3542733  43.2041593  49.7781352
  44.7376288  47.7903050  41.2922931  44.9128044  47.3191093  42.1068553
  44.0509077  48.4168816  41.5204191  45.6933352  42.0675556  47.3386232
  45.3583184  42.0276326  48.2343882  45.1937297  41.4020272  46.8656642
  39.6677596  37.4743186  52.8638813  39.5297394  36.7423425  53.4650352
  40.5782519  37.3852086  52.5823001  48.6292543  39.4131590  37.6123291
  48.0121714  38.6878419  37.5156344  48.1609032  40.1740951  37.2690366
  42.2959896  37.1863145  52.3522493  43.0059515  36.5456338  52.3109111
  42.2529204  37.4376040  53.2748673  41.0088830  34.1728363  54.1718132
  40.4726187  33.7219102  54.8239728  40.4205539  34.3074272  53.4288596
  40.4191089  33.6317015  36.7344596  39.5420556  33.5105815  36.3706842
  40.8948842  32.8403093  36.4823484  31.9393229  38.4194174  46.8286103
  32.6264269  38.1055904  46.2407118  31.7841358  39.3235539  46.5553354
  36.7427952  33.3084371  51.2571127  36.6586140  32.7010040  50.5221537
  35.9210658  33.7993389  51.2580623  43.6055015  45.9843305  43.9807116
  42.8222537  46.5264985  44.0745341  44.3047760  46.5017285  44.3801357
  46.9151665  31.7937934  46.6241322  47.4120365  31.0407897  46.3042392
  46.1438647  31.8302251  46.0584531  54.7681423  37.4978300  48.2659613
  54.7571299  38.3803015  47.8953546  53.8998802  37.1449851  48.0714150
  47.9981446  40.5509622  44.1979745  47.0637725  40.6711084  44.0284449
  48.1758115  39.6482088  43.9339755  43.4986634  33.9355317  46.3513006
  43.1284422  33.3826358  47.0393912  43.9945727  33.3313451  45.7988006
  51.3853997  36.3926941  44.7329779  51.8514450  37.2254933  44.6590082
  51.8361498  35.9271923  45.4375038  49.3570660  28.7607528  48.7720681
  48.4433740  28.9911755  48.9402887  49.7863762  28.8445972  49.6234713
  36.9243551  43.9289168  50.3799127  37.5096988  43.1832855  50.5127031
  36.7268389  44.2393124  51.2635791  39.7782206  46.9640415  45.3961569
  39.1092581  47.4486543  44.9125609  39.6395076  47.2109635  46.3104948
  31.5161205  36.4994768  49.1003570  31.5545305  35.9658358  49.8940688
  31.0101498  35.9729973  48.4814547  38.8951968  31.3459308  52.5966112
  38.9593294  32.2074139  52.1843510  38.8319088  30.7333310  51.8638471
  38.3704240  33.4182441  56.2439147  38.9976279  33.0359518  56.8576671
  37.5132159  33.1996643  56.6094839  35.1469783  35.2258870  42.1757501
  35.4423224  34.3169548  42.1224555  34.2457819  35.2046609  41.8538504
  38.6764030  33.3014866  48.1585050  37.9550616  33.9150834  48.0192523
  39.4657286  33.8372631  48.0801696  41.4790344  30.6369293  54.4325702
  42.0024745  30.8831590  55.1952011  41.2602677  31.4689328  54.0128839
  36.8757625  32.9072968  42.2996827  36.5470331  32.0270346  42.1171932
  37.2296995  32.8520636  43.1873216  39.9899448  33.1945937  42.6672304
  40.3295520  33.7231859  41.9450913  40.4371568  33.5326343  43.4430871
  42.6842889  31.5782988  52.1175372  42.3439709  30.7790801  52.5196052
  41.9781895  31.8784699  51.5452206  43.3359360  28.6632300  50.5702695
  44.1585430  28.1892779  50.4481586  43.5797424  29.4422784  51.0701382
  41.9767595  31.6920559  40.8665597  42.6975957  32.0701812  40.3629314
  41.3532899  32.4109436  40.9700575  46.1198718  32.3965708  41.8023929
  46.3362332  33.2790346  41.5012758  45.6392785  32.0051921  41.0729571
  40.8597939  35.3551421  48.3794674  40.7142520  35.6691724  49.2718955
  40.3823143  35.9736321  47.8265573  42.7194322  32.3453969  48.4275564
  42.7055891  31.4495062  48.0907861  43.4366750  32.3524633  49.0613850
  44.5720453  32.7791309  50.4728691  44.3138231  33.7008380  50.4713021
  44.0405493  32.3821744  51.1629155  35.3343601  37.8956766  51.3182335
  34.7897069  38.6716573  51.4502609  36.2122951  38.2427570  51.1601457
  42.1231218  31.2268349  43.6963134  42.2447129  30.2984996  43.8954021
  41.8333260  31.2407035  42.7841449  44.9922408  28.9123260  46.8329853
  45.0144105  28.9762593  45.8781833  45.4090467  28.0727768  47.0270360
  55.3706033  38.6478519  44.8709076  55.8137179  37.8985845  44.4728199
  54.4932543  38.6388656  44.4882808  36.1209623  37.0226662  54.2112492
  35.3791359  37.1709297  54.7977122  35.8002368  37.2834927  53.3479241
  36.5666237  44.9092091  46.2422887  37.3924257  44.6095862  45.8621530
  36.2160289  44.1399713  46.6912675  41.5347770  44.2618559  48.3120560
  40.9127779  43.5989264  48.0122788  42.2052637  44.2879691  47.6294208
  34.7674842  42.8278417  47.2011820  33.9306750  42.4000591  47.0195821
  34.7398487  43.0210860  48.1382611  41.6072298  32.7400347  57.9053066
  41.6560453  33.6162470  57.5230836  42.1494812  32.1977740  57.3324709
  41.0961277  42.8122482  41.7879021  41.2449397  43.4957946  41.1345694
  41.9027720  42.7927572  42.3028476  43.8371586  33.4931719  54.6599425
  42.9674895  33.7865285  54.3882013  44.0731066  34.0772164  55.3806689
  54.9138897  40.1183758  47.2631524  55.7485789  40.5573562  47.4269084
  55.0498026  39.6422411  46.4439769  38.8513910  38.8387660  42.7940090
  38.6059952  37.9349990  42.9920300  39.0209825  38.8404810  41.8519568
  46.5410620  29.7111336  52.1764845  47.0592564  30.4472363  51.8511334
  46.1865753  30.0175329  53.0111604  38.1209557  34.5716017  40.2926251
  37.4278802  34.6460372  39.6366287  37.8761309  33.8076361  40.8147768
  46.7923214  26.1311619  47.6965742  47.0724968  25.4634808  48.3226168
  47.5773821  26.3240714  47.1840406  44.5956683  45.3070613  39.2590768
  44.0230650  45.9260800  38.8061240  45.1689476  45.8569974  39.7930690
  48.6846452  31.6384836  51.6296718  48.0896384  31.9189849  50.9343207
  48.3996149  32.1278737  52.4013459  50.4441959  44.9073633  37.3503298
  50.3655590  44.5733497  38.2439056  51.2651626  45.3995401  37.3494770
  53.1420150  37.7735372  50.5579617  53.1096470  36.8351373  50.7439300
  53.7520774  37.8519409  49.8245442  44.9803481  36.6431425  36.6006821
  45.9262586  36.5137633  36.6695239  44.6017726  35.9046087  37.0776249
  53.2914639  34.5646416  50.6037900  52.7753687  33.7804872  50.4167829
  54.1754587  34.2365132  50.7684419  50.9525366  28.3087431  46.5633712
  50.7550187  28.0002520  47.4477044  51.5625071  29.0349070  46.6931642
  58.9596700  38.8351379  49.6985653  59.6900088  38.5736667  50.2593357
  58.3503645  38.0980101  49.7387721  57.0411997  36.9759242  50.2960105
  56.3145161  36.8415207  49.6876596  56.6259284  37.2836070  51.1016823
  43.1646398  34.5681402  36.5361706  42.2577854  34.2714514  36.6124420
  43.4422379  34.2711220  35.6695992  34.0824339  35.8887765  46.9860752
  33.7627123  35.0353073  46.6935126  33.5357767  36.1036343  47.7418720
  37.8604246  38.6050206  50.7030259  38.0790256  39.5367314  50.7218293
  38.2730020  38.2458180  51.4885063  44.7808464  29.1118291  42.6905947
  43.9709192  28.7665376  43.0661193  45.4692881  28.8025835  43.2793559
  46.7099012  28.1896338  44.3130244  47.2630051  28.6091792  44.9720267
  46.9469099  27.2632086  44.3553200  42.7332111  34.1783412  60.0933008
  42.6328838  35.1277769  60.0245099  42.5153653  33.8501651  59.2209078
  41.9345183  31.4268337  36.6773685  42.7964347  31.7523235  36.9369502
  42.1195527  30.6399833  36.1646751  33.9512599  39.5090677  48.9553874
  33.2576070  39.0944629  48.4423828  34.6985590  39.5511213  48.3587293
  50.0877819  30.2996863  43.8208908  49.5076488  30.9581667  43.4386961
  49.8213752  29.4774208  43.4096326  48.5381386  29.7001921  46.0230228
  49.0381164  29.8118456  45.2144547  49.1816994  29.3962974  46.6631037
  35.8649341  39.4408930  46.8319889  35.8420029  39.5396618  45.8801772
  36.1749978  40.2874081  47.1537055  38.5236719  41.4985085  50.9466503
  39.4779973  41.4669028  50.8796435  38.3249243  41.0375709  51.7616729
  39.1136101  40.0686201  53.5137301  39.9328990  40.5630280  53.5372138
  39.3872909  39.1518170  53.4854868  48.8702697  32.4596954  42.8765256
  47.9828552  32.7446604  42.6585451  49.2856686  32.2990717  42.0292533
  52.2217233  32.4843475  46.5919596  52.9977624  32.9739927  46.8644212
  51.4965368  32.9101529  47.0491465  54.6589792  33.1971094  47.6493536
  55.2534283  32.9566830  46.9386844  54.7316376  32.4778225  48.2767073
  36.8786948  47.0404705  47.9636701  36.7441416  46.2805106  47.3974699
  36.4619010  47.7645605  47.4965490  48.0145911  42.2241628  36.9713276
  48.7181761  42.4291631  37.5870932  47.2908560  42.7918390  37.2362360
  48.8443721  37.9751490  43.0915547  48.7878922  38.4320041  42.2523179
  49.3972063  37.2142174  42.9138389  52.6548527  33.7641222  43.9165666
  52.3985461  33.3637857  44.7473874  52.0301395  34.4785015  43.7915805
  56.9660865  36.5037295  46.4236957  56.4060423  36.5730484  47.1968519
  56.3604368  36.3278279  45.7036454  40.0356074  47.9374022  48.1755144
  39.9188458  48.8819454  48.0733834  39.2148520  47.6347583  48.5640943
  49.5778500  39.1656271  40.3868076  49.5227304  39.0000542  39.4456520
  48.9524556  39.8732304  40.5430265  34.3671015  34.4024335  54.2129498
  35.0129879  33.8923289  54.7016723  34.1588166  35.1393017  54.7872923
  42.8874626  28.6664380  39.9653394  42.8753296  29.6106220  40.1221665
  43.7798048  28.4834525  39.6712855  42.8164190  47.3433270  48.0521151
  41.8659821  47.3435132  47.9385523  43.1196676  46.5966005  47.5357185
  46.7026745  25.2607157  44.2199331  45.9359141  24.7065643  44.3656013
  47.1137450  25.3329025  45.0813483  38.7068506  31.5491952  58.3104512
  39.5699968  31.1928757  58.5207837  38.1333917  31.2105847  58.9979916
  53.0614869  51.9009484  38.3845378  53.3140390  51.3791005  37.6228841
  52.1239428  51.7375630  38.4872062  54.7648186  48.2937637  39.2877791
  54.9322588  49.1617873  39.6548262  54.5745355  48.4564919  38.3639080
  53.3599544  43.9598493  44.2425873  52.7063956  43.6447510  43.6182488
  53.3180018  43.3374233  44.9685696  59.8251169  48.8828958  45.6794990
  59.0873926  48.3706344  46.0105233  60.0777943  48.4429340  44.8678267
  51.2584844  48.9608932  36.7344596  50.3814310  48.8397733  36.3706842
  51.7342597  48.1695011  36.4823484  56.9592472  47.7257626  41.8023929
  57.1756087  48.6082263  41.5012758  56.4786539  47.3343839  41.0729571
  55.8316163  44.2415178  46.8329853  55.8537860  44.3054511  45.8781833
  56.2484222  43.4019686  47.0270360  54.0040153  49.8973319  36.5361706
  53.0971608  49.6006432  36.6124420  54.2816134  49.6003137  35.6695992
  55.6202218  44.4410209  42.6905947  54.8102947  44.0957294  43.0661193
  56.3086635  44.1317753  43.2793559  57.5492767  43.5188256  44.3130244
  58.1023805  43.9383709  44.9720267  57.7862853  42.5924004  44.3553200
  52.7738937  46.7560255  36.6773685  53.6358101  47.0815153  36.9369502
  52.9589281  45.9691750  36.1646751  60.9271574  45.6288781  43.8208908
  60.3470243  46.2873585  43.4386961  60.6607506  44.8066126  43.4096326
  57.5420500  40.5899074  44.2199331  56.7752896  40.0357561  44.3656013
  57.9531205  40.6620943  45.0813483  59.6051592  71.8099823  47.8809549
  60.3972884  71.4690647  47.4655849  59.8448242  71.9194798  48.8011703
  67.6386718  73.9819599  40.3539794  66.9874698  74.5673679  39.9673807
  68.4331081  74.5125794  40.4134831  61.5642346  71.0708736  40.7526928
  62.3373222  70.5237723  40.6139804  61.9167744  71.9352985  40.9641389
  63.3438053  78.8490854  43.9214589  63.2662083  79.7998679  44.0003069
  62.7399697  78.5036726  44.5789515  73.7675041  72.4688942  45.8462737
  73.0826079  72.8487843  45.2959770  73.8518891  73.0784268  46.5794685
  80.2277794  69.3359605  46.9665409  79.4741502  68.7667003  46.8109414
  80.3625335  69.3022269  47.9136044  65.6176422  74.2073007  42.6420128
  65.4822097  75.0524543  43.0704976  66.1586234  74.4092284  41.8786062
  59.0705819  71.7248445  43.2148054  59.5830340  72.5191695  43.3653618
  59.7228532  71.0274735  43.1481655  60.8800704  74.8414201  45.2970807
  61.0567332  75.7632166  45.1091791  61.6757538  74.5272620  45.7265187
  62.0032020  76.3592375  51.2981149  62.5539445  76.2309438  50.5258143
  61.1643495  76.6587264  50.9476042  57.0354736  70.0537099  43.9907624
  57.8729958  70.4634108  43.7741332  57.2133004  69.1136541  43.9607818
  68.2172582  78.2807213  39.0775851  67.5434281  78.5838909  39.6860809
  68.6038404  79.0836293  38.7281308  70.1644944  75.1205387  45.3844141
  70.4567918  75.6810444  44.6656507  70.6743564  75.4133948  46.1397300
  65.1278569  75.8985738  46.4737594  65.0854748  76.1246584  45.5446126
  66.0441268  75.6649112  46.6223395  63.2444370  72.7748767  46.2699557
  64.0384968  72.2799087  46.0682132  62.5336062  72.2466630  45.9067263
  68.0639214  75.1566862  50.6211925  68.1176236  75.7257799  51.3889640
  67.1953995  75.3268747  50.2565962  65.8215645  73.3477789  49.9497394
  65.6826731  72.9796573  50.8223332  65.0330242  73.8625428  49.7781352
  66.4163797  78.4486885  41.2922931  66.5915553  77.9774928  42.1068553
  65.7296585  79.0752651  41.5204191  60.9824883  81.5976248  48.0662791
  61.2221481  82.2294772  48.7441809  60.1394079  81.2464288  48.3528150
  53.6180738  69.0778010  46.8286103  54.3051778  68.7639740  46.2407118
  53.4628867  69.9819374  46.5553354  65.4952745  77.4055370  50.4704295
  65.4222916  78.2110342  50.9823599  65.0530138  77.6047336  49.6452316
  65.2842524  76.6427140  43.9807116  64.5010046  77.1848821  44.0745341
  65.9835269  77.1601120  44.3801357  76.4468932  68.1562135  48.2659613
  76.4358808  69.0386851  47.8953546  75.5786311  67.8033686  48.0714150
  67.9551428  77.3042204  52.6262453  68.6679400  77.9389669  52.5538355
  67.4641457  77.4006070  51.8102455  67.7671802  77.6440948  45.3748745
  67.9494196  76.8262604  45.8376497  68.5904788  77.8608641  44.9373635
  68.1013967  76.5709134  42.6363793  68.6301733  76.0601588  42.0233955
  68.3642187  76.2551664  43.5009326  58.6031060  74.5873003  50.3799127
  59.1884497  73.8416691  50.5127031  58.4055898  74.8976960  51.2635791
  61.4569715  77.6224250  45.3961569  60.7880090  78.1070378  44.9125609
  61.3182585  77.8693471  46.3104948  65.5974984  79.6567994  51.9944228
  66.1493292  79.8199615  52.7593313  65.9381177  80.2472432  51.3224252
  68.7343371  77.6049969  48.9807910  68.6094510  76.8039709  48.4718855
  69.3922462  78.0996163  48.4921880  70.7978279  75.4058989  50.6087460
  69.8508615  75.2864341  50.5365787  71.1461052  74.5181487  50.6913721
  67.8024713  75.2011706  46.8091812  67.6549675  74.2728413  46.9899382
  68.6278206  75.2231796  46.3248887  71.4058834  76.0240264  47.8956685
  72.3305382  75.8183126  47.7581136  71.2374138  75.7756666  48.8046026
  71.1954151  76.5425932  43.2518776  71.3691028  75.9772354  42.4992629
  71.6883042  77.3426827  43.0698266  72.1829323  75.8592696  40.3515675
  72.8780228  76.4799389  40.5702989  72.5252473  75.0088047  40.6268052
  74.0820746  73.3092402  41.8803005  74.6072070  73.6479674  41.1552325
  73.9943099  72.3739417  41.6966140  65.7661407  79.3764385  46.2398259
  65.3266397  78.8840764  46.9331115  66.5169524  78.8337353  45.9990334
  58.2453746  75.5675926  46.2422887  59.0711766  75.2679698  45.8621530
  57.8947798  74.7983548  46.6912675  63.2135279  74.9202394  48.3120560
  62.5915288  74.2573099  48.0122788  63.8840146  74.9463526  47.6294208
  56.4462351  73.4862252  47.2011820  55.6094259  73.0584427  47.0195821
  56.4185996  73.6794696  48.1382611  62.7748786  73.4706317  41.7879021
  62.9236906  74.1541782  41.1345694  63.5815229  73.4511408  42.3028476
  76.5926406  70.7767593  47.2631524  77.4273298  71.2157397  47.4269084
  76.7285535  70.3006246  46.4439769  60.5301419  69.4971495  42.7940090
  60.2847461  68.5933825  42.9920300  60.6997333  69.4988646  41.8519568
  66.2744191  75.9654448  39.2590768  65.7018159  76.5844635  38.8061240
  66.8476985  76.5153810  39.7930690  69.4941451  76.2491598  40.3899350
  70.4272124  76.1837160  40.5932226  69.4064664  77.0847865  39.9313883
  80.6384209  69.4935215  49.6985653  81.3687597  69.2320503  50.2593357
  80.0291154  68.7563936  49.7387721  57.5436850  70.0992766  46.8319889
  57.5207538  70.1980453  45.8801772  57.8537487  70.9457917  47.1537055
  58.5574457  77.6988540  47.9636701  58.4228925  76.9388941  47.3974699
  58.1406519  78.4229440  47.4965490  78.6448374  67.1621130  46.4236957
  78.0847932  67.2314319  47.1968519  78.0391877  66.9862115  45.7036454
  61.7143583  78.5957857  48.1755144  61.5975967  79.5403290  48.0733834
  60.8936029  78.2931419  48.5640943  62.7398097  79.2486119  51.3911072
  63.6425343  79.2809729  51.7077567  62.5135467  78.3186570  51.4057408
  64.4951699  78.0017106  48.0521151  63.5447330  78.0018967  47.9385523
  64.7984185  77.2549840  47.5357185  80.2304392  83.8377644  49.1166913
  80.8682802  83.7184391  48.4130253  80.1125235  84.7858488  49.1754865
  77.0394099  83.7905072  49.0528438  76.7012610  83.6746137  48.1648973
  77.9083867  83.3896237  49.0329444  72.8980914  85.6440549  45.0425329
  72.3345779  85.5530486  44.2741617  72.7833309  84.8240453  45.5227821
  70.4445346  87.1391740  47.8809549  71.2366638  86.7982565  47.4655849
  70.6841996  87.2486715  48.8011703  78.4780473  89.3111516  40.3539794
  77.8268453  89.8965597  39.9673807  79.2724836  89.8417711  40.4134831
  72.4036100  86.4000653  40.7526928  73.1766976  85.8529641  40.6139804
  72.7561499  87.2644903  40.9641389  74.2421143  87.7277036  53.9593827
  73.9511009  88.6322667  53.8440494  74.8778127  87.7693563  54.6737897
  75.1677350  85.1053884  50.5495187  75.7640922  84.8809907  49.8352150
  75.2252321  84.3638630  51.1520635  74.7402378  82.5593320  38.3845378
  74.9927899  82.0374841  37.6228841  73.8026937  82.3959465  38.4872062
  79.7845661  81.5629098  46.1920121  80.5708750  81.1448521  45.8410538
  80.0484365  82.4675190  46.3601770  79.9555738  87.0001948  40.8908778
  79.3201571  87.0736575  41.6029683  79.6253144  87.5895547  40.2127857
  85.1854088  81.5004331  47.0953100  85.9179260  80.9303548  47.3290929
  84.4293444  81.1125932  47.5359605  74.4598667  84.4621426  40.5869753
  74.3434925  83.7866329  41.2550837  74.5700927  83.9753799  39.7701906
  76.8030208  83.9231573  44.2916442  76.4388415  83.3962194  45.0029364
  77.6597323  83.5330042  44.1182928  82.7079508  75.2125905  51.5547708
  82.3762833  76.0821316  51.3308923  82.1125122  74.8962189  52.2341739
  76.4435695  78.9521472  39.2877791  76.6110097  79.8201709  39.6548262
  76.2532864  79.1148754  38.3639080  79.2011028  87.4138451  50.9543621
  78.9011751  88.3163490  50.8459428  78.8562087  87.1470634  51.8064774
  72.6523509  83.8652248  46.9880325  71.7274006  83.7328462  47.1958017
  72.9007922  84.6446467  47.4850268  82.6008172  79.9320991  48.6341058
  81.6925049  79.8636400  48.3399819  82.5495767  80.4092936  49.4622884
  76.4224915  81.4079130  40.2724457  76.3024541  81.8536181  41.1109938
  75.7277504  81.7564447  39.7137996  70.0132320  83.5085522  47.8224115
  70.1424701  83.7620001  48.7363526  69.3329772  84.1013230  47.5028770
  74.1831808  94.1782772  43.9214589  74.1055837  95.1290597  44.0003069
  73.5793451  93.8328644  44.5789515  84.4669818  78.1337430  50.4118932
  83.8244198  78.4269963  49.7658727  83.9624746  78.0190350  51.2172129
  82.1209982  81.8800603  41.1004792  83.0327838  82.1127990  40.9252489
  81.6119629  82.4637647  40.5379870  80.4050749  86.3025231  54.7366084
  80.8134105  85.8607641  53.9920716  79.6828011  85.7277858  54.9900277
  80.7279564  86.8626421  48.4918373  80.0988426  87.0272136  47.7894441
  80.3405226  87.2768031  49.2629337  84.6068796  87.7980859  45.8462737
  83.9219834  88.1779761  45.2959770  84.6912645  88.4076186  46.5794685
  79.9081265  78.9002206  53.7680815  79.6642197  79.6544266  53.2315090
  80.1841195  79.2787554  54.6028062  81.8619727  85.4440818  52.4458080
  82.0736623  86.0872578  51.7692461  81.8149476  84.6103135  51.9780010
  79.4645956  78.0558639  49.3494652  78.6030435  78.3539893  49.6411390
  79.4908391  78.2729038  48.4175685  76.2807526  86.6000830  45.7568458
  76.7445871  86.8788533  44.9673081  76.0164324  85.6984274  45.5741549
  73.1731607  86.1472311  48.6948221  73.7432964  86.5759579  48.0565706
  73.7639719  85.8654896  49.3932407  75.2176412  82.7223982  42.5658023
  75.9200455  83.1745026  43.0331950  74.8857040  82.0807801  43.1937916
  68.9601746  80.9807535  47.8675157  68.1700800  81.2365063  47.3915267
  69.4512993  81.7955872  47.9727197  82.9765555  88.3212774  50.6180438
  83.7982999  87.9192961  50.3363119  82.9727958  88.2181008  51.5696553
  70.9116491  81.3452114  44.8258634  70.1147654  81.4570808  45.3442129
  70.6842083  81.6838766  43.9599524  76.7422159  87.8696817  52.7741148
  76.8066591  88.3317224  53.6099320  76.0333083  87.2394182  52.9023458
  67.2439449  81.2338025  50.2990148  67.4947487  82.1185035  50.5647724
  67.7798997  81.0542627  49.5265239  91.0671548  84.6651522  46.9665409
  90.3135257  84.0958920  46.8109414  91.2019090  84.6314187  47.9136044
  76.4570176  89.5364925  42.6420128  76.3215851  90.3816460  43.0704976
  76.9979989  89.7384202  41.8786062  69.9099574  87.0540363  43.2148054
  70.4224094  87.8483613  43.3653618  70.5622287  86.3566653  43.1481655
  71.7194459  90.1706119  45.2970807  71.8961087  91.0924084  45.1091791
  72.5151292  89.8564538  45.7265187  78.0838653  90.1588491  56.7720471
  77.6402507  89.3724870  56.4541375  78.7455866  90.3467642  56.1064361
  72.8425774  91.6884293  51.2981149  73.3933199  91.5601356  50.5258143
  72.0037250  91.9879182  50.9476042  80.1819891  90.4391291  54.8001872
  80.1638366  91.2600172  54.3082141  81.1039811  90.3145366  55.0252013
  76.6392945  87.9535420  55.6425380  77.1721282  87.1923709  55.4124688
  76.1107026  87.6609072  56.3849535  79.8062640  73.0595486  51.1719022
  79.4626909  73.9497128  51.0958133  80.1741603  72.8697144  50.3088607
  67.8748491  85.3829017  43.9907624  68.7123713  85.7926025  43.7741332
  68.0526758  84.4428459  43.9607818  79.7712923  83.0504098  39.6791457
  79.2559546  83.8208702  39.9179844  79.4990231  82.3769234  40.3024518
  77.3560034  77.8953798  44.7376695  76.5001630  77.5060649  44.5582334
  77.7686986  77.9745759  43.8776481  78.8859180  75.4300142  49.1368255
  78.3823976  75.3930277  48.3236060  79.1789787  76.3392884  49.1964912
  75.1302066  75.5138871  48.1434437  75.9955063  75.3181680  47.7840326
  75.1979575  75.2849223  49.0703794  84.7447197  85.8036452  41.6144631
  83.9676640  85.4647612  41.1699793  85.4238678  85.8089075  40.9399596
  79.5599226  80.9231190  41.5051238  79.2549361  81.2377339  42.3561381
  80.5129668  81.0012610  41.5478571  78.0045658  87.0821413  43.1544192
  77.4767019  86.3474173  42.8417430  77.5033160  87.8596089  42.9084161
  82.9838504  85.2770433  48.2711239  82.3262178  85.9669695  48.3591367
  83.7878903  85.6666865  48.6145225  72.7364385  77.7441079  45.5150804
  73.3108137  77.5216261  44.7823997  73.3235368  77.8129774  46.2679405
  81.7943963  83.6314806  46.3215180  82.3075844  84.2644798  46.8236890
  82.4445186  83.0316002  45.9558540  73.0633972  79.7745540  39.5346689
  72.2271285  80.1120227  39.8555964  72.9238742  79.6394520  38.5973826
  75.0387053  74.6182328  44.2425873  74.3851465  74.3031345  43.6182488
  74.9967527  73.9958069  44.9685696  76.1498258  84.9001623  36.1579165
  75.2425320  84.6690877  36.3570314  76.6469290  84.1039242  36.3453147
  79.0566337  93.6099130  39.0775851  78.3828036  93.9130827  39.6860809
  79.4432159  94.4128211  38.7281308  78.2724793  81.1064262  48.5673521
  77.3547355  81.3279209  48.4095209  78.6884937  81.1810572  47.7085228
  79.0559841  82.5055677  43.6976201  79.8031660  83.0177075  43.3883323
  79.3251431  82.1839730  44.5580595  77.3286491  85.0014218  40.6803155
  76.4197711  84.7173251  40.7775625  77.3581575  85.4213297  39.8206462
  82.5605759  88.6120808  44.4494323  82.1068086  87.7711717  44.5059513
  81.9299725  89.2482206  44.7869103  81.5038678  79.5412794  45.6794990
  80.7661435  79.0290180  46.0105233  81.7565452  79.1013175  44.8678267
  81.0038698  90.4497304  45.3844141  81.2961672  91.0102361  44.6656507
  81.5137319  90.7425865  46.1397300  81.6050306  72.3189046  46.2736760
  81.9109182  71.4586409  45.9862675  82.3302910  72.9106666  46.0735754
  67.8974662  82.7219732  44.6618358  67.6999062  82.1289093  43.9369424
  67.3421326  82.4171942  45.3794296  75.8771385  82.6142839  46.7812951
  75.9319995  81.6616675  46.7055427  75.0662587  82.7702278  47.2654249
  77.0262579  86.5422962  38.0191234  76.5882009  85.8258821  37.5596871
  77.7673020  86.7699077  37.4576325  73.8163745  81.2319898  44.5403330
  73.0031611  81.5314069  44.9468522  74.3122740  80.8375587  45.2577812
  75.9672323  91.2277655  46.4737594  75.9248502  91.4538502  45.5446126
  76.8835022  90.9941030  46.6223395  79.4137957  81.6961723  53.3718223
  79.7687345  81.9233196  54.2312689  80.0610088  82.0280100  52.7495479
  85.1435694  84.8180159  44.0767552  85.0053593  85.0081755  43.1488742
  84.7871913  85.5799542  44.5335604  73.3077820  78.8038254  50.1564565
  73.9477199  78.6627013  49.4587528  72.4755351  78.5172767  49.7803166
  85.1705074  86.8856686  49.0878824  85.6041580  86.7931975  49.9361878
  85.8836654  86.8614186  48.4498840  74.0838124  88.1040684  46.2699557
  74.8778722  87.6091004  46.0682132  73.3729816  87.5758547  45.9067263
  78.9032968  90.4858780  50.6211925  78.9569991  91.0549716  51.3889640
  78.0347750  90.6560665  50.2565962  70.3920887  82.2483766  42.3459310
  69.4618476  82.1868222  42.5629272  70.4878359  81.7259719  41.5495951
  70.3106437  78.7738579  44.9337551  70.5713254  79.6883912  44.8246712
  71.1323609  78.3063021  45.0834164  71.7831362  80.1876336  52.1036376
  72.4554415  79.9793698  51.4549025  70.9561148  79.9898422  51.6641608
  86.0320623  86.9280386  51.6211709  86.2256513  87.8326197  51.8670984
  85.9321241  86.4687806  52.4550294  81.0935732  87.0787129  57.1952590
  80.9421238  86.8497681  56.2782674  81.0840411  88.0357731  57.2083935
  77.8621068  84.6519042  52.1798856  78.7913128  84.8030202  52.0067824
  77.4412098  84.7403063  51.3247503  76.6609400  88.6769706  49.9497394
  76.5220486  88.3088491  50.8223332  75.8723996  89.1917346  49.7781352
  77.2557552  93.7778803  41.2922931  77.4309308  93.3066846  42.1068553
  76.5690340  94.4044569  41.5204191  78.2114615  88.0551309  47.3386232
  77.8764448  88.0152079  48.2343882  77.7118561  87.3896025  46.8656642
  72.1858859  83.4618939  52.8638813  72.0478657  82.7299178  53.4650352
  73.0963783  83.3727839  52.5823001  81.1473807  85.4007343  37.6123291
  80.5302977  84.6754172  37.5156344  80.6790295  86.1616704  37.2690366
  82.8027938  90.1106252  55.2729072  82.7440485  89.4265472  54.6059655
  83.2047457  90.8525242  54.8209698  71.8218637  96.9268166  48.0662791
  72.0615235  97.5586690  48.7441809  70.9787834  96.5756206  48.3528150
  72.9372353  79.6192768  36.7344596  72.0601819  79.4981568  36.3706842
  73.4130106  78.8278846  36.4823484  82.8045346  88.0745836  53.5043052
  81.9172124  87.7371757  53.6269450  83.3743897  87.3428867  53.7411817
  64.4574493  84.4069927  46.8286103  65.1445533  84.0931657  46.2407118
  64.3022622  85.3111292  46.5553354  69.2609215  79.2960124  51.2571127
  69.1767404  78.6885794  50.5221537  68.4391921  79.7869142  51.2580623
  76.3346499  92.7347288  50.4704295  76.2616671  93.5402260  50.9823599
  75.8923892  92.9339254  49.6452316  76.1236279  91.9719058  43.9807116
  75.3403801  92.5140738  44.0745341  76.8229024  92.4893038  44.3801357
  79.4332929  77.7813688  46.6241322  79.9301628  77.0283650  46.3042392
  78.6619910  77.8178004  46.0584531  87.2862686  83.4854053  48.2659613
  87.2752562  84.3678768  47.8953546  86.4180066  83.1325604  48.0714150
  78.7945183  92.6334122  52.6262453  79.5073155  93.2681587  52.5538355
  78.3035211  92.7297988  51.8102455  80.5162710  86.5385375  44.1979745
  79.5818988  86.6586837  44.0284449  80.6939378  85.6357841  43.9339755
  76.0167898  79.9231070  46.3513006  75.6465685  79.3702111  47.0393912
  76.5126990  79.3189204  45.7988006  83.9035261  82.3802694  44.7329779
  84.3695713  83.2130686  44.6590082  84.3542761  81.9147676  45.4375038
  73.8457096  90.3828566  53.4468024  74.5466556  91.0165048  53.5997418
  73.3752211  90.7243297  52.6863663  81.9711492  88.7246515  41.7315931
  82.2471336  88.6103110  42.6409805  81.1015991  88.3264000  41.6928104
  81.8751924  74.7483281  48.7720681  80.9615003  74.9787508  48.9402887
  82.3045025  74.8321725  49.6234713  81.6458382  82.9373173  51.2720575
  80.9929832  83.1849080  50.6173027  82.0238762  82.1237311  50.9383052
  78.6065556  92.9732866  45.3748745  78.7887951  92.1554522  45.8376497
  79.4298542  93.1900558  44.9373635  78.9407722  91.9001051  42.6363793
  79.4695488  91.3893506  42.0233955  79.2035941  91.5843581  43.5009326
  69.4424814  89.9164921  50.3799127  70.0278251  89.1708608  50.5127031
  69.2449653  90.2268877  51.2635791  72.2963469  92.9516168  45.3961569
  71.6273845  93.4362296  44.9125609  72.1576339  93.1985388  46.3104948
  64.0342469  82.4870521  49.1003570  64.0726568  81.9534111  49.8940688
  63.5282762  81.9605726  48.4814547  76.4368738  94.9859911  51.9944228
  76.9887046  95.1491533  52.7593313  76.7774931  95.5764349  51.3224252
  81.2879612  89.8121169  57.8492882  81.8319516  90.4251127  57.3547837
  80.7066457  90.3700747  58.3659895  67.6651047  81.2134623  42.1757501
  67.9604488  80.3045301  42.1224555  66.7639082  81.1922362  41.8538504
  79.5737125  92.9341887  48.9807910  79.4488265  92.1331627  48.4718855
  80.2316216  93.4288080  48.4921880  71.1945294  79.2890619  48.1585050
  70.4731879  79.9026587  48.0192523  71.9838549  79.8248384  48.0801696
  81.6372034  90.7350907  50.6087460  80.6902369  90.6156258  50.5365787
  81.9854807  89.8473405  50.6913721  69.3938888  78.8948721  42.2996827
  69.0651594  78.0146100  42.1171932  69.7478259  78.8396389  43.1873216
  78.6418467  90.5303623  46.8091812  78.4943429  89.6020331  46.9899382
  79.4671960  90.5523714  46.3248887  72.5080711  79.1821690  42.6672304
  72.8476784  79.7107612  41.9450913  72.9552832  79.5202096  43.4430871
  82.2452589  91.3532182  47.8956685  83.1699136  91.1475043  47.7581136
  82.0767892  91.1048583  48.8046026  74.4948858  77.6796312  40.8665597
  75.2157221  78.0577565  40.3629314  73.8714163  78.3985189  40.9700575
  78.6379981  78.3841461  41.8023929  78.8543596  79.2666099  41.5012758
  78.1574048  77.9927674  41.0729571  73.3779203  81.3427174  48.3794674
  73.2323783  81.6567477  49.2718955  72.9004406  81.9612074  47.8265573
  75.2375586  78.3329722  48.4275564  75.2237154  77.4370815  48.0907861
  75.9548014  78.3400386  49.0613850  77.0901716  78.7667062  50.4728691
  76.8319494  79.6884133  50.4713021  76.5586757  78.3697497  51.1629155
  82.0347905  91.8717849  43.2518776  82.2084783  91.3064272  42.4992629
  82.5276796  92.6718744  43.0698266  67.8524865  83.8832519  51.3182335
  67.3078333  84.6592327  51.4502609  68.7304215  84.2303323  51.1601457
  74.6412481  77.2144102  43.6963134  74.7628393  76.2860749  43.8954021
  74.3514524  77.2282788  42.7841449  77.5103672  74.8999013  46.8329853
  77.5325369  74.9638346  45.8781833  77.9271731  74.0603522  47.0270360
  87.8887296  84.6354272  44.8709076  88.3318442  83.8861598  44.4728199
  87.0113807  84.6264409  44.4882808  83.0223078  91.1884614  40.3515675
  83.7173982  91.8091307  40.5702989  83.3646228  90.3379965  40.6268052
  68.6390887  83.0102415  54.2112492  67.8972623  83.1585050  54.7977122
  68.3183631  83.2710680  53.3479241  84.9214501  88.6384319  41.8803005
  85.4465825  88.9771592  41.1552325  84.8336853  87.7031335  41.6966140
  76.5834549  92.5518393  54.0092882  76.8921676  92.3067540  54.8815582
  77.3810031  92.7565032  53.5211752  76.6055161  94.7056303  46.2398259
  76.1660152  94.2132681  46.9331115  77.3563278  94.1629270  45.9990334
  69.0847500  90.8967844  46.2422887  69.9105520  90.5971615  45.8621530
  68.7341552  90.1275466  46.6912675  74.0529034  90.2494312  48.3120560
  73.4309043  89.5865017  48.0122788  74.7233900  90.2755444  47.6294208
  67.2856105  88.8154170  47.2011820  66.4488014  88.3876344  47.0195821
  67.2579751  89.0086613  48.1382611  84.6108407  89.2717223  57.1854203
  83.8203950  89.2541362  56.6458703  84.3741761  89.8105517  57.9403240
  84.7306282  86.1209689  54.4986932  84.7804287  85.9559697  55.4402455
  84.6220205  85.2536948  54.1084813  73.6142540  88.7998235  41.7879021
  73.7630661  89.4833700  41.1345694  74.4208984  88.7803325  42.3028476
  82.0210044  82.1040617  55.8146239  82.9219907  81.9647082  55.5230236
  82.0958019  82.2695072  56.7544416  86.2324479  88.5406631  54.7428953
  85.9409287  88.9036611  55.5792414  85.6196610  87.8273639  54.5642285
  87.4320161  86.1059511  47.2631524  88.2667052  86.5449315  47.4269084
  87.5679290  85.6298164  46.4439769  84.4811667  83.6639246  53.2109011
  84.9565788  83.8566892  52.4027863  83.5577232  83.7198431  52.9652395
  71.3695173  84.8263413  42.7940090  71.1241215  83.9225743  42.9920300
  71.5391088  84.8280563  41.8519568  79.0591883  75.6987089  52.1764845
  79.5773827  76.4348116  51.8511334  78.7047016  76.0051082  53.0111604
  70.6390821  80.5591770  40.2926251  69.9460066  80.6336125  39.6366287
  70.3942573  79.7952114  40.8147768  79.3104477  72.1187372  47.6965742
  79.5906231  71.4510561  48.3226168  80.0955084  72.3116467  47.1840406
  77.1137946  91.2946366  39.2590768  76.5411913  91.9136553  38.8061240
  77.6870740  91.8445727  39.7930690  83.1813336  80.5405006  51.4437317
  84.1330759  80.6403103  51.4649541  83.0116786  79.7483274  51.9535401
  81.2027715  77.6260589  51.6296718  80.6077647  77.9065602  50.9343207
  80.9177412  78.1154490  52.4013459  80.3335206  91.5783516  40.3899350
  81.2665879  91.5129077  40.5932226  80.2458419  92.4139783  39.9313883
  82.9623222  90.8949386  37.3503298  82.8836854  90.5609250  38.2439056
  83.7832889  91.3871154  37.3494770  85.6601414  83.7611125  50.5579617
  85.6277734  82.8227126  50.7439300  86.2702037  83.8395162  49.8245442
  77.4984744  82.6307178  36.6006821  78.4443849  82.5013386  36.6695239
  77.1198989  81.8921840  37.0776249  85.8095902  80.5522169  50.6037900
  85.2934951  79.7680625  50.4167829  86.6935851  80.2240885  50.7684419
  83.4706629  74.2963184  46.5633712  83.2731450  73.9878273  47.4477044
  84.0806335  75.0224823  46.6931642  75.6827662  80.5557155  36.5361706
  74.7759117  80.2590267  36.6124420  75.9603643  80.2586973  35.6695992
  66.6005602  81.8763518  46.9860752  66.2808386  81.0228826  46.6935126
  66.0539030  82.0912096  47.7418720  70.3785510  84.5925959  50.7030259
  70.5971519  85.5243067  50.7218293  70.7911283  84.2333934  51.4885063
  77.2989727  75.0994044  42.6905947  76.4890456  74.7541129  43.0661193
  77.9874144  74.7901588  43.2793559  79.2280276  74.1772091  44.3130244
  79.7811314  74.5967545  44.9720267  79.4650362  73.2507839  44.3553200
  66.4693862  85.4966430  48.9553874  65.7757333  85.0820382  48.4423828
  67.2166853  85.5386966  48.3587293  82.6059083  76.2872616  43.8208908
  82.0257752  76.9457420  43.4386961  82.3395015  75.4649961  43.4096326
  81.0562649  75.6877674  46.0230228  81.5562427  75.7994209  45.2144547
  81.6998257  75.3838727  46.6631037  68.3830605  85.4284683  46.8319889
  68.3601293  85.5272371  45.8801772  68.6931241  86.2749834  47.1537055
  71.0417982  87.4860838  50.9466503  71.9961236  87.4544781  50.8796435
  70.8430506  87.0251462  51.7616729  71.6317365  86.0561954  53.5137301
  72.4510254  86.5506033  53.5372138  71.9054172  85.1393923  53.4854868
  81.3883961  78.4472707  42.8765256  80.5009816  78.7322357  42.6585451
  81.8037950  78.2866470  42.0292533  84.7398497  78.4719228  46.5919596
  85.5158887  78.9615680  46.8644212  84.0146631  78.8977282  47.0491465
  87.1771056  79.1846847  47.6493536  87.7715546  78.9442583  46.9386844
  87.2497639  78.4653978  48.2767073  69.3968211  93.0280458  47.9636701
  69.2622679  92.2680859  47.3974699  68.9800273  93.7521358  47.4965490
  80.5327174  88.2117381  36.9713276  81.2363024  88.4167384  37.5870932
  79.8089823  88.7794143  37.2362360  81.3624984  83.9627243  43.0915547
  81.3060186  84.4195794  42.2523179  81.9153327  83.2017927  42.9138389
  85.1729790  79.7516975  43.9165666  84.9166725  79.3513610  44.7473874
  84.5482658  80.4660769  43.7915805  89.4842128  82.4913048  46.4236957
  88.9241686  82.5606237  47.1968519  88.8785632  82.3154032  45.7036454
  72.5537337  93.9249775  48.1755144  72.4369721  94.8695207  48.0733834
  71.7329783  93.6223336  48.5640943  82.4413872  88.6499911  39.0211736
  83.2759476  88.2181109  38.8389211  82.2798215  88.4781924  39.9488631
  82.0959764  85.1532024  40.3868076  82.0408568  84.9876295  39.4456520
  81.4705819  85.8608057  40.5430265  66.8852279  80.3900088  54.2129498
  67.5311142  79.8799042  54.7016723  66.6769430  81.1268770  54.7872923
  79.4105671  87.4580936  59.7121638  80.2796831  87.6321588  59.3508273
  78.9312422  88.2775353  59.5897368  75.4055889  74.6540133  39.9653394
  75.3934559  75.5981973  40.1221665  76.2979311  74.4710278  39.6712855
  73.5791851  94.5778037  51.3911072  74.4819098  94.6101647  51.7077567
  73.3529221  93.6478488  51.4057408  75.3345453  93.3309023  48.0521151
  74.3841084  93.3310885  47.9385523  75.6377939  92.5841758  47.5357185
  79.2208009  71.2482910  44.2199331  78.4540405  70.6941396  44.3656013
  79.6318714  71.3204778  45.0813483  91.0698147  99.1669562  49.1166913
  91.7076557  99.0476309  48.4130253  90.9518990 100.1150406  49.1754865
  87.8787853  99.1196990  49.0528438  87.5406365  99.0038055  48.1648973
  88.7477621  98.7188155  49.0329444  83.7374669 100.9732466  45.0425329
  83.1739534 100.8822403  44.2741617  83.6227064 100.1532371  45.5227821
  88.3607636 100.2731842  55.0114643  88.3496277  99.8784640  54.1395147
  88.5228275  99.5397914  55.6048415  81.2839101 102.4683658  47.8809549
  82.0760393 102.1274483  47.4655849  81.5235751 102.5778633  48.8011703
  89.3174227 104.6403434  40.3539794  88.6662207 105.2257514  39.9673807
  90.1118590 105.1709629  40.4134831  83.2429855 101.7292571  40.7526928
  84.0160731 101.1821558  40.6139804  83.5955253 102.5936820  40.9641389
  85.0814897 103.0568953  53.9593827  84.7904763 103.9614584  53.8440494
  85.7171881 103.0985481  54.6737897  86.0071104 100.4345802  50.5495187
  86.6034676 100.2101824  49.8352150  86.0646076  99.6930547  51.1520635
  85.5796132  97.8885237  38.3845378  85.8321653  97.3666759  37.6228841
  84.6420691  97.7251383  38.4872062  90.6239415  96.8921016  46.1920121
  91.4102504  96.4740439  45.8410538  90.8878120  97.7967108  46.3601770
  90.7949493 102.3293866  40.8908778  90.1595326 102.4028492  41.6029683
  90.4646899 102.9187465  40.2127857  96.0247842  96.8296249  47.0953100
  96.7573014  96.2595466  47.3290929  95.2687198  96.4417849  47.5359605
  85.2992421  99.7913343  40.5869753  85.1828679  99.1158247  41.2550837
  85.4094681  99.3045717  39.7701906  87.6423962  99.2523490  44.2916442
  87.2782169  98.7254111  45.0029364  88.4991078  98.8621959  44.1182928
  93.5473263  90.5417823  51.5547708  93.2156587  91.4113234  51.3308923
  92.9518876  90.2254107  52.2341739  87.2829449  94.2813390  39.2877791
  87.4503851  95.1493626  39.6548262  87.0926618  94.4440672  38.3639080
  90.0404782 102.7430369  50.9543621  89.7405505 103.6455408  50.8459428
  89.6955842 102.4762552  51.8064774  83.4917264  99.1944166  46.9880325
  82.5667760  99.0620380  47.1958017  83.7401677  99.9738385  47.4850268
  93.4401926  95.2612909  48.6341058  92.5318803  95.1928318  48.3399819
  93.3889522  95.7384854  49.4622884  87.2618670  96.7371047  40.2724457
  87.1418295  97.1828098  41.1109938  86.5671258  97.0856365  39.7137996
  80.8526075  98.8377439  47.8224115  80.9818456  99.0911918  48.7363526
  80.1723526  99.4305147  47.5028770  85.0225562 109.5074689  43.9214589
  84.9449592 110.4582514  44.0003069  84.4187206 109.1620562  44.5789515
  87.5142792  96.6802555  56.5775956  86.7376126  97.2396475  56.5678820
  88.1533355  97.1659338  57.0990826  95.3063572  93.4629347  50.4118932
  94.6637953  93.7561881  49.7658727  94.8018501  93.3482268  51.2172129
  92.9603736  97.2092521  41.1004792  93.8721592  97.4419907  40.9252489
  92.4513383  97.7929565  40.5379870  85.7689164  99.4888008  56.1393923
  86.5103848 100.0273052  55.8628746  85.0626150 100.1154297  56.2965474
  91.2444504 101.6317149  54.7366084  91.6527860 101.1899559  53.9920716
  90.5221765 101.0569776  54.9900277  87.5975574  96.5689755  52.1099641
  88.4436769  96.9929169  52.2534290  87.5374211  95.9123380  52.8038204
  91.5673318 102.1918339  48.4918373  90.9382181 102.3564053  47.7894441
  91.1798980 102.6059949  49.2629337  95.4462550 103.1272777  45.8462737
  94.7613588 103.5071678  45.2959770  95.5306400 103.7368104  46.5794685
  90.7475019  94.2294124  53.7680815  90.5035951  94.9836184  53.2315090
  91.0234950  94.6079471  54.6028062  92.7013482 100.7732736  52.4458080
  92.9130377 101.4164496  51.7692461  92.6543230  99.9395053  51.9780010
  90.3039711  93.3850557  49.3494652  89.4424190  93.6831810  49.6411390
  90.3302145  93.6020956  48.4175685  87.1201280 101.9292747  45.7568458
  87.5839626 102.2080450  44.9673081  86.8558078 101.0276192  45.5741549
  84.0125361 101.4764229  48.6948221  84.5826718 101.9051497  48.0565706
  84.6033473 101.1946813  49.3932407  86.0570166  98.0515900  42.5658023
  86.7594210  98.5036943  43.0331950  85.7250795  97.4099718  43.1937916
  84.5050528  96.6427656  56.9409233  83.8749188  97.3243937  57.1744629
  84.3986616  96.5310738  55.9962371  79.7995500  96.3099452  47.8675157
  79.0094554  96.5656981  47.3915267  80.2906748  97.1247790  47.9727197
  93.8159310 103.6504691  50.6180438  94.6376754 103.2484879  50.3363119
  93.8121713 103.5472926  51.5696553  81.7510246  96.6744031  44.8258634
  80.9541409  96.7862726  45.3442129  81.5235838  97.0130684  43.9599524
  87.5815913 103.1988735  52.7741148  87.6460346 103.6609142  53.6099320
  86.8726837 102.5686100  52.9023458  78.0833203  96.5629943  50.2990148
  78.3341242  97.4476953  50.5647724  78.6192752  96.3834544  49.5265239
 101.9065303  99.9943440  46.9665409 101.1529011  99.4250838  46.8109414
 102.0412844  99.9606104  47.9136044  87.2963931 104.8656842  42.6420128
  87.1609606 105.7108378  43.0704976  87.8373743 105.0676120  41.8786062
  83.7831271  90.9448422  59.3034484  83.3898216  90.3914621  59.9782128
  84.5997411  91.2559001  59.6941001  80.7493328 102.3832280  43.2148054
  81.2617849 103.1775530  43.3653618  81.4016041 101.6858571  43.1481655
  82.5588213 105.4998037  45.2970807  82.7354841 106.4216001  45.1091791
  83.3545047 105.1856456  45.7265187  86.6999232  92.3606301  56.8954740
  87.4408945  92.9613454  56.8159203  86.9317154  91.6183939  56.3372783
  81.8440570  97.5462668  55.1732970  81.7294085  96.6447926  55.4740069
  80.9885087  97.7926365  54.8217786  88.9232407 105.4880409  56.7720471
  88.4796262 104.7016787  56.4541375  89.5849621 105.6759559  56.1064361
  83.6819528 107.0176210  51.2981149  84.2326954 106.8893274  50.5258143
  82.8431004 107.3171099  50.9476042  91.0213645 105.7683209  54.8001872
  91.0032121 106.5892090  54.3082141  91.9433565 105.6437284  55.0252013
  87.4786700 103.2827338  55.6425380  88.0115036 102.5215626  55.4124688
  86.9500781 102.9900990  56.3849535  90.6456395  88.3887404  51.1719022
  90.3020664  89.2789046  51.0958133  91.0135357  88.1989062  50.3088607
  78.7142245 100.7120935  43.9907624  79.5517467 101.1217943  43.7741332
  78.8920513  99.7720377  43.9607818  90.6106677  98.3796015  39.6791457
  90.0953301  99.1500620  39.9179844  90.3383986  97.7061151  40.3024518
  88.1953788  93.2245716  44.7376695  87.3395385  92.8352566  44.5582334
  88.6080740  93.3037677  43.8776481  89.7252935  90.7592059  49.1368255
  89.2217730  90.7222194  48.3236060  90.0183542  91.6684802  49.1964912
  85.9695821  90.8430789  48.1434437  86.8348818  90.6473598  47.7840326
  86.0373330  90.6141141  49.0703794  95.5840951 101.1328370  41.6144631
  94.8070394 100.7939529  41.1699793  96.2632432 101.1380993  40.9399596
  90.3992980  96.2523107  41.5051238  90.0943116  96.5669256  42.3561381
  91.3523423  96.3304527  41.5478571  88.8439412 102.4113331  43.1544192
  88.3160774 101.6766090  42.8417430  88.3426915 103.1888007  42.9084161
  93.8232258 100.6062351  48.2711239  93.1655933 101.2961612  48.3591367
  94.6272657 100.9958783  48.6145225  83.5758140  93.0732997  45.5150804
  84.1501892  92.8508178  44.7823997  84.1629122  93.1421691  46.2679405
  92.6337717  98.9606724  46.3215180  93.1469599  99.5936716  46.8236890
  93.2838941  98.3607919  45.9558540  83.9027727  95.1037458  39.5346689
  83.0665039  95.4412144  39.8555964  83.7632497  94.9686438  38.5973826
  85.8780808  89.9474246  44.2425873  85.2245220  89.6323263  43.6182488
  85.8361282  89.3249986  44.9685696  86.9892012 100.2293541  36.1579165
  86.0819074  99.9982794  36.3570314  87.4863044  99.4331160  36.3453147
  89.8960091 108.9391048  39.0775851  89.2221790 109.2422745  39.6860809
  90.2825913 109.7420128  38.7281308  89.1118548  96.4356179  48.5673521
  88.1941109  96.6571126  48.4095209  89.5278692  96.5102490  47.7085228
  89.8953596  97.8347595  43.6976201  90.6425415  98.3468992  43.3883323
  90.1645185  97.5131648  44.5580595  88.1680246 100.3306136  40.6803155
  87.2591465 100.0465169  40.7775625  88.1975330 100.7505214  39.8206462
  93.3999513 103.9412725  44.4494323  92.9461840 103.1003635  44.5059513
  92.7693480 104.5774124  44.7869103  92.3432433  94.8704711  45.6794990
  91.6055190  94.3582097  46.0105233  92.5959206  94.4305093  44.8678267
  91.8432453 105.7789222  45.3844141  92.1355427 106.3394279  44.6656507
  92.3531073 106.0717783  46.1397300  92.4444060  87.6480963  46.2736760
  92.7502937  86.7878327  45.9862675  93.1696665  88.2398583  46.0735754
  78.7368416  98.0511650  44.6618358  78.5392816  97.4581011  43.9369424
  78.1815080  97.7463860  45.3794296  86.7165140  97.9434756  46.7812951
  86.7713750  96.9908593  46.7055427  85.9056342  98.0994195  47.2654249
  87.8656334 101.8714879  38.0191234  87.4275764 101.1550738  37.5596871
  88.6066775 102.0990994  37.4576325  84.6557500  96.5611816  44.5403330
  83.8425365  96.8605987  44.9468522  85.1516494  96.1667505  45.2577812
  86.8066078 106.5569573  46.4737594  86.7642257 106.7830419  45.5446126
  87.7228777 106.3232948  46.6223395  90.2531712  97.0253641  53.3718223
  90.6081099  97.2525114  54.2312689  90.9003843  97.3572017  52.7495479
  95.9829448 100.1472076  44.0767552  95.8447347 100.3373672  43.1488742
  95.6265667 100.9091459  44.5335604  84.1471575  94.1330172  50.1564565
  84.7870954  93.9918931  49.4587528  83.3149105  93.8464685  49.7803166
  96.0098828 102.2148603  49.0878824  96.4435335 102.1223893  49.9361878
  96.7230409 102.1906104  48.4498840  84.9231878 103.4332602  46.2699557
  85.7172477 102.9382922  46.0682132  84.2123571 102.9050465  45.9067263
  89.7426723 105.8150698  50.6211925  89.7963745 106.3841634  51.3889640
  88.8741504 105.9852583  50.2565962  81.2314642  97.5775684  42.3459310
  80.3012230  97.5160139  42.5629272  81.3272114  97.0551637  41.5495951
  81.1500191  94.1030497  44.9337551  81.4107008  95.0175830  44.8246712
  81.9717363  93.6354939  45.0834164  82.6225116  95.5168254  52.1036376
  83.2948170  95.3085616  51.4549025  81.7954903  95.3190340  51.6641608
  96.8714378 102.2572304  51.6211709  97.0650268 103.1618115  51.8670984
  96.7714996 101.7979723  52.4550294  88.5250688  92.1430195  54.1202037
  87.8778603  92.8420144  54.0266513  89.2951704  92.5766339  54.4878285
  91.9329486 102.4079047  57.1952590  91.7814993 102.1789599  56.2782674
  91.9234166 103.3649648  57.2083935  88.7014823  99.9810960  52.1798856
  89.6306883 100.1322119  52.0067824  88.2805853 100.0694980  51.3247503
  87.5003154 104.0061624  49.9497394  87.3614240 103.6380408  50.8223332
  86.7117751 104.5209263  49.7781352  88.0951306 109.1070720  41.2922931
  88.2703062 108.6358764  42.1068553  87.4084094 109.7336487  41.5204191
  89.0508370 103.3843227  47.3386232  88.7158202 103.3443997  48.2343882
  88.5512315 102.7187943  46.8656642  83.0252614  98.7910857  52.8638813
  82.8872412  98.0591096  53.4650352  83.9357537  98.7019757  52.5823001
  91.9867561 100.7299261  37.6123291  91.3696732 100.0046089  37.5156344
  91.5184050 101.4908621  37.2690366  85.6534914  98.5030816  52.3522493
  86.3634533  97.8624008  52.3109111  85.6104222  98.7543711  53.2748673
  93.6421693 105.4398169  55.2729072  93.5834239 104.7557390  54.6059655
  94.0441211 106.1817159  54.8209698  84.3663848  95.4896034  54.1718132
  83.8301205  95.0386772  54.8239728  83.7780557  95.6241943  53.4288596
  82.6612392 112.2560083  48.0662791  82.9008990 112.8878607  48.7441809
  81.8181588 111.9048123  48.3528150  83.7766107  94.9484685  36.7344596
  82.8995574  94.8273486  36.3706842  84.2523860  94.1570764  36.4823484
  93.6439100 103.4037753  53.5043052  92.7565879 103.0663675  53.6269450
  94.2137651 102.6720785  53.7411817  75.2968247  99.7361845  46.8286103
  75.9839287  99.4223575  46.2407118  75.1416376 100.6403210  46.5553354
  80.1002969  94.6252042  51.2571127  80.0161158  94.0177711  50.5221537
  79.2785676  95.1161060  51.2580623  87.1740254 108.0639206  50.4704295
  87.1010425 108.8694177  50.9823599  86.7317647 108.2631172  49.6452316
  86.9630033 107.3010976  43.9807116  86.1797555 107.8432656  44.0745341
  87.6622778 107.8184955  44.3801357  90.2726683  93.1105605  46.6241322
  90.7695383  92.3575568  46.3042392  89.5013665  93.1469922  46.0584531
  98.1256441  98.8145971  48.2659613  98.1146317  99.6970686  47.8953546
  97.2573820  98.4617522  48.0714150  89.6338937 107.9626040  52.6262453
  90.3466909 108.5973505  52.5538355  89.1428966 108.0589906  51.8102455
  91.3556464 101.8677292  44.1979745  90.4212743 101.9878755  44.0284449
  91.5333132 100.9649759  43.9339755  86.8561652  95.2522988  46.3513006
  86.4859440  94.6994029  47.0393912  87.3520745  94.6481122  45.7988006
  94.7429015  97.7094612  44.7329779  95.2089468  98.5422603  44.6590082
  95.1936516  97.2439593  45.4375038  84.6850851 105.7120483  53.4468024
  85.3860310 106.3456966  53.5997418  84.2145966 106.0535215  52.6863663
  92.8105246 104.0538433  41.7315931  93.0865090 103.9395028  42.6409805
  91.9409745 103.6555918  41.6928104  92.7145678  90.0775199  48.7720681
  91.8008758  90.3079426  48.9402887  93.1438780  90.1613643  49.6234713
  92.4852137  98.2665091  51.2720575  91.8323587  98.5140998  50.6173027
  92.8632517  97.4529229  50.9383052  89.4459310 108.3024784  45.3748745
  89.6281705 107.4846440  45.8376497  90.2692297 108.5192476  44.9373635
  89.7801476 107.2292969  42.6363793  90.3089242 106.7185424  42.0233955
  90.0429696 106.9135499  43.5009326  88.5339710  99.0084902  57.7586612
  87.8580347  98.9079031  58.4288987  89.3567344  98.8524115  58.2222609
  80.2818569 105.2456838  50.3799127  80.8672006 104.5000526  50.5127031
  80.0843407 105.5560795  51.2635791  83.1357224 108.2808086  45.3961569
  82.4667599 108.7654213  44.9125609  82.9970094 108.5277306  46.3104948
  74.8736223  97.8162438  49.1003570  74.9120323  97.2826029  49.8940688
  74.3676516  97.2897644  48.4814547  87.2762493 110.3151829  51.9944228
  87.8280801 110.4783451  52.7593313  87.6168686 110.9056267  51.3224252
  82.2526986  92.6626979  52.5966112  82.3168312  93.5241810  52.1843510
  82.1894106  92.0500981  51.8638471  81.7279258  94.7350111  56.2439147
  82.3551297  94.3527189  56.8576671  80.8707177  94.5164313  56.6094839
  92.1273367 105.1413087  57.8492882  92.6713271 105.7543045  57.3547837
  91.5460212 105.6992665  58.3659895  78.5044801  96.5426541  42.1757501
  78.7998242  95.6337219  42.1224555  77.6032837  96.5214280  41.8538504
  90.4130880 108.2633805  48.9807910  90.2882019 107.4623545  48.4718855
  91.0709971 108.7579998  48.4921880  82.0339048  94.6182537  48.1585050
  81.3125634  95.2318505  48.0192523  82.8232304  95.1540302  48.0801696
  92.4765788 106.0642825  50.6087460  91.5296124 105.9448176  50.5365787
  92.8248561 105.1765323  50.6913721  84.8365362  91.9536964  54.4325702
  85.3599763  92.1999260  55.1952011  84.6177695  92.7856998  54.0128839
  80.2332643  94.2240638  42.2996827  79.9045349  93.3438017  42.1171932
  80.5872013  94.1688307  43.1873216  89.4812221 105.8595541  46.8091812
  89.3337184 104.9312248  46.9899382  90.3065715 105.8815632  46.3248887
  83.3474466  94.5113608  42.6672304  83.6870538  95.0399529  41.9450913
  83.7946586  94.8494014  43.4430871  93.0846343 106.6824100  47.8956685
  94.0092891 106.4766961  47.7581136  92.9161647 106.4340501  48.8046026
  86.0417907  92.8950659  52.1175372  85.7014727  92.0958472  52.5196052
  85.3356913  93.1952370  51.5452206  86.6934378  89.9799971  50.5702695
  87.5160448  89.5060449  50.4481586  86.9372442  90.7590455  51.0701382
  85.3342613  93.0088230  40.8665597  86.0550975  93.3869482  40.3629314
  84.7107917  93.7277106  40.9700575  89.4773736  93.7133379  41.8023929
  89.6937350  94.5958016  41.5012758  88.9967803  93.3219592  41.0729571
  84.2172957  96.6719092  48.3794674  84.0717538  96.9859395  49.2718955
  83.7398161  97.2903992  47.8265573  86.0769340  93.6621640  48.4275564
  86.0630909  92.7662733  48.0907861  86.7941768  93.6692304  49.0613850
  87.9295471  94.0958980  50.4728691  87.6713249  95.0176051  50.4713021
  87.3980511  93.6989415  51.1629155  92.8741660 107.2009767  43.2518776
  93.0478537 106.6356190  42.4992629  93.3670551 108.0010662  43.0698266
  78.6918619  99.2124436  51.3182335  78.1472087  99.9884244  51.4502609
  79.5697969  99.5595241  51.1601457  85.4806236  92.5436020  43.6963134
  85.6022147  91.6152666  43.8954021  85.1908278  92.5574706  42.7841449
  88.3497426  90.2290931  46.8329853  88.3719123  90.2930264  45.8781833
  88.7665485  89.3895439  47.0270360  98.7281051  99.9646190  44.8709076
  99.1712197  99.2153515  44.4728199  97.8507561  99.9556326  44.4882808
  93.8616832 106.5176532  40.3515675  94.5567737 107.1383224  40.5702989
  94.2039982 105.6671883  40.6268052  79.4784641  98.3394333  54.2112492
  78.7366377  98.4876968  54.7977122  79.1577385  98.6002598  53.3479241
  95.7608255 103.9676237  41.8803005  96.2859579 104.3063510  41.1552325
  95.6730608 103.0323252  41.6966140  87.4228304 107.8810311  54.0092882
  87.7315430 107.6359457  54.8815582  88.2203786 108.0856949  53.5211752
  87.4448916 110.0348220  46.2398259  87.0053906 109.5424599  46.9331115
  88.1957033 109.4921188  45.9990334  79.9241255 106.2259761  46.2422887
  80.7499275 105.9263533  45.8621530  79.5735307 105.4567384  46.6912675
  84.8922788 105.5786229  48.3120560  84.2702797 104.9156934  48.0122788
  85.5627655 105.6047361  47.6294208  78.1249860 104.1446088  47.2011820
  77.2881768 103.7168262  47.0195821  78.0973505 104.3378531  48.1382611
  84.9647316  94.0568017  57.9053066  85.0135471  94.9330140  57.5230836
  85.5069830  93.5145411  57.3324709  95.4502161 104.6009141  57.1854203
  94.6597705 104.5833280  56.6458703  95.2135516 105.1397434  57.9403240
  95.5700036 101.4501607  54.4986932  95.6198041 101.2851615  55.4402455
  95.4613960 100.5828866  54.1084813  84.4536295 104.1290153  41.7879021
  84.6024415 104.8125617  41.1345694  85.2602738 104.1095243  42.3028476
  92.8603799  97.4332535  55.8146239  93.7613661  97.2939000  55.5230236
  92.9351773  97.5986990  56.7544416  87.1946604  94.8099390  54.6599425
  86.3249913  95.1032956  54.3882013  87.4306084  95.3939835  55.3806689
  97.0718233 103.8698549  54.7428953  96.7803041 104.2328529  55.5792414
  96.4590364 103.1565557  54.5642285  98.2713915 101.4351428  47.2631524
  99.1060807 101.8741232  47.4269084  98.4073044 100.9590082  46.4439769
  95.3205421  98.9931163  53.2109011  95.7959543  99.1858810  52.4027863
  94.3970987  99.0490349  52.9652395  82.2088928 100.1555330  42.7940090
  81.9634970  99.2517660  42.9920300  82.3784842 100.1572481  41.8519568
  89.8985638  91.0279007  52.1764845  90.4167582  91.7640034  51.8511334
  89.5440771  91.3343000  53.0111604  81.4784575  95.8883688  40.2926251
  80.7853820  95.9628043  39.6366287  81.2336327  95.1244032  40.8147768
  90.1498232  87.4479289  47.6965742  90.4299986  86.7802478  48.3226168
  90.9348839  87.6408385  47.1840406  87.9531700 106.6238283  39.2590768
  87.3805668 107.2428470  38.8061240  88.5264494 107.1737645  39.7930690
  94.0207090  95.8696923  51.4437317  94.9724513  95.9695021  51.4649541
  93.8510541  95.0775192  51.9535401  92.0421470  92.9552507  51.6296718
  91.4471402  93.2357519  50.9343207  91.7571166  93.4446407  52.4013459
  91.1728960 106.9075433  40.3899350  92.1059633 106.8420995  40.5932226
  91.0852173 107.7431700  39.9313883  93.8016977 106.2241304  37.3503298
  93.7230608 105.8901167  38.2439056  94.6226644 106.7163072  37.3494770
  96.4995168  99.0903043  50.5579617  96.4671488  98.1519044  50.7439300
  97.1095792  99.1687080  49.8245442  88.3378499  97.9599096  36.6006821
  89.2837604  97.8305304  36.6695239  87.9592744  97.2213758  37.0776249
  96.6489657  95.8814086  50.6037900  96.1328705  95.0972543  50.4167829
  97.5329605  95.5532803  50.7684419  94.3100384  89.6255102  46.5633712
  94.1125205  89.3170190  47.4477044  94.9200089  90.3516741  46.6931642
 102.3171718 100.1519050  49.6985653 103.0475106  99.8904338  50.2593357
 101.7078663  99.4147772  49.7387721 100.3987015  98.2926912  50.2960105
  99.6720179  98.1582877  49.6876596  99.9834302  98.6003741  51.1016823
  88.2217192 102.0116842  58.0607478  89.1420201 102.1895441  58.2547524
  88.1866775 101.0672887  57.9087177  86.5221416  95.8849072  36.5361706
  85.6152872  95.5882185  36.6124420  86.7997397  95.5878890  35.6695992
  77.4399357  97.2055436  46.9860752  77.1202141  96.3520744  46.6935126
  76.8932785  97.4204014  47.7418720  81.2179264  99.9217877  50.7030259
  81.4365274 100.8534985  50.7218293  81.6305038  99.5625851  51.4885063
  88.1383482  90.4285962  42.6905947  87.3284210  90.0833047  43.0661193
  88.8267899  90.1193506  43.2793559  90.0674030  89.5064009  44.3130244
  90.6205069  89.9259462  44.9720267  90.3044116  88.5799757  44.3553200
  86.0907129  95.4951083  60.0933008  85.9903856  96.4445440  60.0245099
  85.8728671  95.1669321  59.2209078  85.2920201  92.7436008  36.6773685
  86.1539365  93.0690906  36.9369502  85.4770545  91.9567504  36.1646751
  77.3087617 100.8258347  48.9553874  76.6151088 100.4112300  48.4423828
  78.0560608 100.8678884  48.3587293  93.4452837  91.6164534  43.8208908
  92.8651506  92.2749338  43.4386961  93.1788770  90.7941879  43.4096326
  91.8956404  91.0169592  46.0230228  92.3956182  91.1286126  45.2144547
  92.5392012  90.7130645  46.6631037  85.9538399  98.9248221  58.9098069
  85.4705481  99.7248581  59.1161958  86.0399338  98.9356166  57.9565513
  79.2224359 100.7576601  46.8319889  79.1995047 100.8564288  45.8801772
  79.5324996 101.6041752  47.1537055  81.8811737 102.8152756  50.9466503
  82.8354990 102.7836698  50.8796435  81.6824260 102.3543380  51.7616729
  82.4711119 101.3853872  53.5137301  83.2904008 101.8797951  53.5372138
  82.7447927 100.4685840  53.4854868  92.2277715  93.7764624  42.8765256
  91.3403570  94.0614275  42.6585451  92.6431704  93.6158388  42.0292533
  95.5792251  93.8011145  46.5919596  96.3552641  94.2907598  46.8644212
  94.8540386  94.2269200  47.0491465  98.0164810  94.5138765  47.6493536
  98.6109301  94.2734501  46.9386844  98.0891394  93.7945895  48.2767073
  80.2361966 108.3572376  47.9636701  80.1016434 107.5972776  47.3974699
  79.8194028 109.0813275  47.4965490  91.3720929 103.5409299  36.9713276
  92.0756779 103.7459302  37.5870932  90.6483577 104.1086061  37.2362360
  92.2018739  99.2919160  43.0915547  92.1453940  99.7487712  42.2523179
  92.7547081  98.5309845  42.9138389  96.0123545  95.0808892  43.9165666
  95.7560479  94.6805528  44.7473874  95.3876413  95.7952686  43.7915805
 100.3235883  97.8204965  46.4236957  99.7635441  97.8898155  47.1968519
  99.7179386  97.6445950  45.7036454  83.3931092 109.2541693  48.1755144
  83.2763476 110.1987125  48.0733834  82.5723538 108.9515254  48.5640943
  93.2807626 103.9791828  39.0211736  94.1153230 103.5473027  38.8389211
  93.1191969 103.8073842  39.9488631  92.9353518 100.4823942  40.3868076
  92.8802322 100.3168213  39.4456520  92.3099574 101.1899975  40.5430265
  77.7246033  95.7192006  54.2129498  78.3704897  95.2090960  54.7016723
  77.5163184  96.4560688  54.7872923  90.2499425 102.7872853  59.7121638
  91.1190585 102.9613506  59.3508273  89.7706177 103.6067270  59.5897368
  86.2449644  89.9832051  39.9653394  86.2328314  90.9273891  40.1221665
  87.1373066  89.8002196  39.6712855  84.4185606 109.9069954  51.3911072
  85.3212852 109.9393565  51.7077567  84.1922976 108.9770405  51.4057408
  86.1739208 108.6600941  48.0521151  85.2234839 108.6602803  47.9385523
  86.4771694 107.9133676  47.5357185  90.0601763  86.5774827  44.2199331
  89.2934159  86.0233314  44.3656013  90.4712468  86.6496696  45.0813483
  82.0643524  92.8659623  58.3104512  82.9274986  92.5096428  58.5207837
  81.4908935  92.5273518  58.9979916 101.9091901 114.4961479  49.1166913
 102.5470311 114.3768227  48.4130253 101.7912744 115.4442323  49.1754865
  98.7181607 114.4488908  49.0528438  98.3800119 114.3329972  48.1648973
  99.5871376 114.0480073  49.0329444  94.5768423 116.3024384  45.0425329
  94.0133288 116.2114321  44.2741617  94.4620818 115.4824288  45.5227821
  99.2001390 115.6023759  55.0114643  99.1890031 115.2076558  54.1395147
  99.3622030 114.8689832  55.6048415  92.1232855 117.7975576  47.8809549
  92.9154147 117.4566400  47.4655849  92.3629505 117.9070551  48.8011703
  94.0823609 117.0584489  40.7526928  94.8554485 116.5113476  40.6139804
  94.4349008 117.9228738  40.9641389  95.9208652 118.3860871  53.9593827
  95.6298518 119.2906502  53.8440494  96.5565636 118.4277399  54.6737897
  96.8464858 115.7637720  50.5495187  97.4428431 115.5393742  49.8352150
  96.9039830 115.0222465  51.1520635  96.4189887 113.2177155  38.3845378
  96.6715408 112.6958676  37.6228841  95.4814446 113.0543300  38.4872062
 101.4633170 112.2212933  46.1920121 102.2496259 111.8032356  45.8410538
 101.7271874 113.1259025  46.3601770 106.8641597 112.1588166  47.0953100
 107.5966769 111.5887383  47.3290929 106.1080953 111.7709767  47.5359605
  96.1386176 115.1205261  40.5869753  96.0222434 114.4450164  41.2550837
  96.2488436 114.6337635  39.7701906  98.4817717 114.5815408  44.2916442
  98.1175924 114.0546029  45.0029364  99.3384832 114.1913877  44.1182928
 104.3867017 105.8709741  51.5547708 104.0550342 106.7405152  51.3308923
 103.7912631 105.5546025  52.2341739  98.1223204 109.6105308  39.2877791
  98.2897606 110.4785544  39.6548262  97.9320373 109.7732589  38.3639080
  94.3311018 114.5236083  46.9880325  93.4061515 114.3912298  47.1958017
  94.5795431 115.3030303  47.4850268 104.2795681 110.5904827  48.6341058
 103.3712558 110.5220235  48.3399819 104.2283276 111.0676772  49.4622884
  98.1012424 112.0662965  40.2724457  97.9812050 112.5120016  41.1109938
  97.4065013 112.4148283  39.7137996  91.6919829 114.1669357  47.8224115
  91.8212210 114.4203836  48.7363526  91.0117281 114.7597065  47.5028770
  98.3536546 112.0094472  56.5775956  97.5769880 112.5688392  56.5678820
  98.9927109 112.4951255  57.0990826 106.1457327 108.7921265  50.4118932
 105.5031707 109.0853798  49.7658727 105.6412255 108.6774185  51.2172129
 103.7997491 112.5384438  41.1004792 104.7115347 112.7711825  40.9252489
 103.2907138 113.1221483  40.5379870  96.6082919 114.8179926  56.1393923
  97.3497603 115.3564970  55.8628746  95.9019904 115.4446214  56.2965474
 102.0838258 116.9609066  54.7366084 102.4921614 116.5191477  53.9920716
 101.3615520 116.3861694  54.9900277  98.4369328 111.8981673  52.1099641
  99.2830523 112.3221087  52.2534290  98.3767966 111.2415297  52.8038204
 101.5868774 109.5586041  53.7680815 101.3429705 110.3128102  53.2315090
 101.8628704 109.9371389  54.6028062 101.1433465 108.7142474  49.3494652
 100.2817944 109.0123728  49.6411390 101.1695900 108.9312873  48.4175685
  97.9595035 117.2584665  45.7568458  98.4233380 117.5372368  44.9673081
  97.6951833 116.3568109  45.5741549  94.8519116 116.8056146  48.6948221
  95.4220473 117.2343415  48.0565706  95.4427228 116.5238731  49.3932407
  96.8963921 113.3807817  42.5658023  97.5987964 113.8328861  43.0331950
  96.5644549 112.7391636  43.1937916  95.3444282 111.9719574  56.9409233
  94.7142943 112.6535855  57.1744629  95.2380370 111.8602655  55.9962371
  90.6389255 111.6391370  47.8675157  89.8488309 111.8948898  47.3915267
  91.1300502 112.4539708  47.9727197  92.5904000 112.0035949  44.8258634
  91.7935163 112.1154643  45.3442129  92.3629592 112.3422601  43.9599524
  98.4209668 118.5280652  52.7741148  98.4854100 118.9901060  53.6099320
  97.7120592 117.8978017  52.9023458  88.9226958 111.8921860  50.2990148
  89.1734996 112.7768870  50.5647724  89.4586506 111.7126462  49.5265239
  94.6225025 106.2740340  59.3034484  94.2291971 105.7206538  59.9782128
  95.4391165 106.5850918  59.6941001  91.5887083 117.7124198  43.2148054
  92.1011603 118.5067448  43.3653618  92.2409796 117.0150488  43.1481655
  93.3981968 120.8289954  45.2970807  93.5748596 121.7507919  45.1091791
  94.1938801 120.5148373  45.7265187  97.5392986 107.6898219  56.8954740
  98.2802699 108.2905372  56.8159203  97.7710909 106.9475857  56.3372783
  92.6834324 112.8754586  55.1732970  92.5687839 111.9739843  55.4740069
  91.8278842 113.1218283  54.8217786  94.5213283 122.3468128  51.2981149
  95.0720708 122.2185191  50.5258143  93.6824759 122.6463017  50.9476042
  98.3180454 118.6119256  55.6425380  98.8508791 117.8507544  55.4124688
  97.7894535 118.3192908  56.3849535 101.4850149 103.7179322  51.1719022
 101.1414418 104.6080963  51.0958133 101.8529112 103.5280979  50.3088607
  89.5536000 116.0412852  43.9907624  90.3911222 116.4509861  43.7741332
  89.7314267 115.1012294  43.9607818 101.4500432 113.7087933  39.6791457
 100.9347055 114.4792538  39.9179844 101.1777740 113.0353069  40.3024518
  99.0347543 108.5537634  44.7376695  98.1789139 108.1644484  44.5582334
  99.4474495 108.6329594  43.8776481 100.5646689 106.0883977  49.1368255
 100.0611485 106.0514112  48.3236060 100.8577296 106.9976720  49.1964912
  96.8089575 106.1722707  48.1434437  97.6742572 105.9765515  47.7840326
  96.8767084 105.9433058  49.0703794 101.2386735 111.5815025  41.5051238
 100.9336870 111.8961174  42.3561381 102.1917177 111.6596445  41.5478571
  99.6833167 117.7405248  43.1544192  99.1554528 117.0058008  42.8417430
  99.1820669 118.5179925  42.9084161  94.4151894 108.4024915  45.5150804
  94.9895646 108.1800096  44.7823997  95.0022877 108.4713609  46.2679405
 103.4731472 114.2898641  46.3215180 103.9863353 114.9228633  46.8236890
 104.1232695 113.6899837  45.9558540  94.7421481 110.4329376  39.5346689
  93.9058794 110.7704062  39.8555964  94.6026251 110.2978355  38.5973826
  96.7174562 105.2766163  44.2425873  96.0638974 104.9615181  43.6182488
  96.6755036 104.6541904  44.9685696  97.8285767 115.5585459  36.1579165
  96.9212829 115.3274712  36.3570314  98.3256799 114.7623078  36.3453147
  99.9512302 111.7648097  48.5673521  99.0334864 111.9863044  48.4095209
 100.3672446 111.8394407  47.7085228 100.7347350 113.1639513  43.6976201
 101.4819169 113.6760910  43.3883323 101.0038940 112.8423565  44.5580595
  99.0074000 115.6598053  40.6803155  98.0985220 115.3757086  40.7775625
  99.0369084 116.0797132  39.8206462 103.1826187 110.1996629  45.6794990
 102.4448944 109.6874015  46.0105233 103.4352961 109.7597011  44.8678267
 103.2837815 102.9772881  46.2736760 103.5896691 102.1170244  45.9862675
 104.0090419 103.5690501  46.0735754  89.5762171 113.3803568  44.6618358
  89.3786571 112.7872928  43.9369424  89.0208835 113.0755778  45.3794296
  97.5558894 113.2726674  46.7812951  97.6107504 112.3200510  46.7055427
  96.7450096 113.4286113  47.2654249  98.7050088 117.2006797  38.0191234
  98.2669518 116.4842656  37.5596871  99.4460529 117.4282912  37.4576325
  95.4951254 111.8903734  44.5403330  94.6819120 112.1897904  44.9468522
  95.9910248 111.4959423  45.2577812 101.0925466 112.3545558  53.3718223
 101.4474854 112.5817031  54.2312689 101.7397597 112.6863935  52.7495479
  94.9865329 109.4622089  50.1564565  95.6264708 109.3210848  49.4587528
  94.1542860 109.1756603  49.7803166  95.7625633 118.7624520  46.2699557
  96.5566231 118.2674840  46.0682132  95.0517325 118.2342383  45.9067263
  92.0708396 112.9067601  42.3459310  91.1405985 112.8452057  42.5629272
  92.1665868 112.3843554  41.5495951  91.9893945 109.4322414  44.9337551
  92.2500763 110.3467748  44.8246712  92.8111118 108.9646857  45.0834164
  93.4618871 110.8460171  52.1036376  94.1341924 110.6377534  51.4549025
  92.6348657 110.6482257  51.6641608  99.3644443 107.4722112  54.1202037
  98.7172358 108.1712062  54.0266513 100.1345458 107.9058256  54.4878285
  99.5408577 115.3102877  52.1798856 100.4700637 115.4614037  52.0067824
  99.1199607 115.3986898  51.3247503  98.3396909 119.3353542  49.9497394
  98.2007995 118.9672326  50.8223332  97.5511505 119.8501181  49.7781352
  99.8902124 118.7135144  47.3386232  99.5551957 118.6735914  48.2343882
  99.3906070 118.0479860  46.8656642  93.8646368 114.1202774  52.8638813
  93.7266166 113.3883013  53.4650352  94.7751292 114.0311675  52.5823001
 102.8261316 116.0591179  37.6123291 102.2090486 115.3338007  37.5156344
 102.3577804 116.8200539  37.2690366  96.4928669 113.8322734  52.3522493
  97.2028287 113.1915926  52.3109111  96.4497977 114.0835629  53.2748673
  95.2057603 110.8187952  54.1718132  94.6694960 110.3678690  54.8239728
  94.6174311 110.9533860  53.4288596  94.6159862 110.2776603  36.7344596
  93.7389328 110.1565404  36.3706842  95.0917615 109.4862681  36.4823484
  86.1362002 115.0653763  46.8286103  86.8233042 114.7515493  46.2407118
  85.9810131 115.9695127  46.5553354  90.9396724 109.9543959  51.2571127
  90.8554913 109.3469629  50.5221537  90.1179430 110.4452978  51.2580623
 101.1120438 108.4397523  46.6241322 101.6089137 107.6867485  46.3042392
 100.3407419 108.4761840  46.0584531 102.1950219 117.1969210  44.1979745
 101.2606497 117.3170673  44.0284449 102.3726887 116.2941677  43.9339755
  97.6955407 110.5814906  46.3513006  97.3253194 110.0285946  47.0393912
  98.1914499 109.9773039  45.7988006 105.5822770 113.0386529  44.7329779
 106.0483222 113.8714521  44.6590082 106.0330270 112.5731511  45.4375038
  95.5244605 121.0412401  53.4468024  96.2254065 121.6748884  53.5997418
  95.0539720 121.3827132  52.6863663 103.5539433 105.4067116  48.7720681
 102.6402512 105.6371343  48.9402887 103.9832534 105.4905560  49.6234713
 103.3245891 113.5957008  51.2720575 102.6717341 113.8432916  50.6173027
 103.7026271 112.7821147  50.9383052  99.3733464 114.3376819  57.7586612
  98.6974101 114.2370949  58.4288987 100.1961098 114.1816033  58.2222609
  91.1212323 120.5748756  50.3799127  91.7065760 119.8292444  50.5127031
  90.9237162 120.8852713  51.2635791  85.7129978 113.1454356  49.1003570
  85.7514077 112.6117947  49.8940688  85.2070271 112.6189562  48.4814547
  93.0920740 107.9918897  52.5966112  93.1562067 108.8533728  52.1843510
  93.0287860 107.3792898  51.8638471  92.5673013 110.0642029  56.2439147
  93.1945052 109.6819106  56.8576671  91.7100932 109.8456231  56.6094839
  89.3438556 111.8718458  42.1757501  89.6391997 110.9629137  42.1224555
  88.4426591 111.8506198  41.8538504  92.8732803 109.9474455  48.1585050
  92.1519388 110.5610423  48.0192523  93.6626058 110.4832220  48.0801696
  95.6759116 107.2828881  54.4325702  96.1993518 107.5291178  55.1952011
  95.4571449 108.1148916  54.0128839  91.0726397 109.5532556  42.2996827
  90.7439103 108.6729935  42.1171932  91.4265768 109.4980225  43.1873216
  94.1868220 109.8405526  42.6672304  94.5264293 110.3691447  41.9450913
  94.6340341 110.1785932  43.4430871  96.8811661 108.2242576  52.1175372
  96.5408481 107.4250390  52.5196052  96.1750667 108.5244287  51.5452206
  97.5328133 105.3091889  50.5702695  98.3554202 104.8352367  50.4481586
  97.7766196 106.0882373  51.0701382  96.1736367 108.3380147  40.8665597
  96.8944730 108.7161400  40.3629314  95.5501672 109.0569024  40.9700575
 100.3167490 109.0425296  41.8023929 100.5331105 109.9249934  41.5012758
  99.8361557 108.6511510  41.0729571  95.0566712 112.0011010  48.3794674
  94.9111292 112.3151313  49.2718955  94.5791915 112.6195910  47.8265573
  96.9163095 108.9913558  48.4275564  96.9024663 108.0954651  48.0907861
  97.6335523 108.9984221  49.0613850  98.7689225 109.4250898  50.4728691
  98.5107003 110.3467968  50.4713021  98.2374266 109.0281332  51.1629155
  89.5312374 114.5416354  51.3182335  88.9865842 115.3176162  51.4502609
  90.4091724 114.8887158  51.1601457  96.3199990 107.8727938  43.6963134
  96.4415902 106.9444584  43.8954021  96.0302033 107.8866624  42.7841449
  99.1891181 105.5582848  46.8329853  99.2112878 105.6222181  45.8781833
  99.6059240 104.7187357  47.0270360  90.3178396 113.6686250  54.2112492
  89.5760132 113.8168886  54.7977122  89.9971140 113.9294516  53.3479241
  90.7635009 121.5551679  46.2422887  91.5893029 121.2555451  45.8621530
  90.4129061 120.7859301  46.6912675  95.7316543 120.9078147  48.3120560
  95.1096552 120.2448852  48.0122788  96.4021409 120.9339279  47.6294208
  88.9643614 119.4738005  47.2011820  88.1275523 119.0460180  47.0195821
  88.9367260 119.6670449  48.1382611  95.8041070 109.3859935  57.9053066
  95.8529225 110.2622058  57.5230836  96.3463584 108.8437328  57.3324709
  95.2930049 119.4582070  41.7879021  95.4418170 120.1417535  41.1345694
  96.0996493 119.4387161  42.3028476 103.6997553 112.7624453  55.8146239
 104.6007416 112.6230918  55.5230236 103.7745528 112.9278908  56.7544416
  98.0340358 110.1391308  54.6599425  97.1643668 110.4324874  54.3882013
  98.2699839 110.7231753  55.3806689  93.0482682 115.4847248  42.7940090
  92.8028724 114.5809578  42.9920300  93.2178597 115.4864399  41.8519568
 100.7379392 106.3570924  52.1764845 101.2561336 107.0931951  51.8511334
 100.3834525 106.6634918  53.0111604  92.3178330 111.2175606  40.2926251
  91.6247575 111.2919961  39.6366287  92.0730082 110.4535949  40.8147768
 100.9891986 102.7771207  47.6965742 101.2693740 102.1094396  48.3226168
 101.7742593 102.9700303  47.1840406 104.8600845 111.1988841  51.4437317
 105.8118268 111.2986939  51.4649541 104.6904295 110.4067110  51.9535401
 102.8815224 108.2844424  51.6296718 102.2865156 108.5649437  50.9343207
 102.5964921 108.7738325  52.4013459  99.1772253 113.2891014  36.6006821
 100.1231358 113.1597222  36.6695239  98.7986498 112.5505676  37.0776249
 107.4883411 111.2106004  50.6037900 106.9722460 110.4264461  50.4167829
 108.3723360 110.8824721  50.7684419 105.1494138 104.9547020  46.5633712
 104.9518959 104.6462108  47.4477044 105.7593844 105.6808659  46.6931642
  99.0610946 117.3408760  58.0607478  99.9813955 117.5187359  58.2547524
  99.0260529 116.3964805  57.9087177  97.3615171 111.2140990  36.5361706
  96.4546626 110.9174103  36.6124420  97.6391152 110.9170808  35.6695992
  88.2793111 112.5347353  46.9860752  87.9595895 111.6812662  46.6935126
  87.7326539 112.7495932  47.7418720  92.0573019 115.2509794  50.7030259
  92.2759028 116.1826902  50.7218293  92.4698792 114.8917769  51.4885063
  98.9777236 105.7577880  42.6905947  98.1677965 105.4124965  43.0661193
  99.6661653 105.4485424  43.2793559 100.9067785 104.8355927  44.3130244
 101.4598823 105.2551380  44.9720267 101.1437871 103.9091675  44.3553200
  96.9300884 110.8243000  60.0933008  96.8297611 111.7737357  60.0245099
  96.7122426 110.4961239  59.2209078  96.1313955 108.0727925  36.6773685
  96.9933119 108.3982824  36.9369502  96.3164299 107.2859421  36.1646751
  88.1481371 116.1550265  48.9553874  87.4544842 115.7404218  48.4423828
  88.8954362 116.1970801  48.3587293 104.2846592 106.9456452  43.8208908
 103.7045261 107.6041256  43.4386961 104.0182524 106.1233796  43.4096326
 102.7350158 106.3461509  46.0230228 103.2349936 106.4578044  45.2144547
 103.3785766 106.0422562  46.6631037  96.7932154 114.2540139  58.9098069
  96.3099236 115.0540499  59.1161958  96.8793093 114.2648084  57.9565513
  90.0618114 116.0868519  46.8319889  90.0388802 116.1856206  45.8801772
  90.3718750 116.9333670  47.1537055  92.7205491 118.1444674  50.9466503
  93.6748745 118.1128616  50.8796435  92.5218015 117.6835298  51.7616729
  93.3104874 116.7145790  53.5137301  94.1297763 117.2089868  53.5372138
  93.5841681 115.7977758  53.4854868 103.0671470 109.1056542  42.8765256
 102.1797325 109.3906193  42.6585451 103.4825459 108.9450305  42.0292533
 106.4186006 109.1303063  46.5919596 107.1946396 109.6199516  46.8644212
 105.6934140 109.5561117  47.0491465 108.8558564 109.8430682  47.6493536
 109.4503055 109.6026418  46.9386844 108.9285148 109.1237813  48.2767073
  91.0755720 123.6864293  47.9636701  90.9410188 122.9264694  47.3974699
  90.6587782 124.4105193  47.4965490 103.0412493 114.6211078  43.0915547
 102.9847695 115.0779629  42.2523179 103.5940836 113.8601763  42.9138389
 106.8517299 110.4100810  43.9165666 106.5954234 110.0097446  44.7473874
 106.2270167 111.1244604  43.7915805 103.7747273 115.8115859  40.3868076
 103.7196077 115.6460131  39.4456520 103.1493328 116.5191892  40.5430265
  88.5639788 111.0483924  54.2129498  89.2098651 110.5382878  54.7016723
  88.3556939 111.7852605  54.7872923  97.0843398 105.3123968  39.9653394
  97.0722068 106.2565808  40.1221665  97.9766820 105.1294114  39.6712855
 100.8995518 101.9066745  44.2199331 100.1327914 101.3525232  44.3656013
 101.3106223 101.9788614  45.0813483  92.9037279 108.1951541  58.3104512
  93.7668740 107.8388346  58.5207837  92.3302689 107.8565436  58.9979916
  36.8729376  -0.4727904  35.8412220  37.5107785  -0.5921157  35.1375560
  36.7550218   0.4752940  35.9000172  33.6819082  -0.5200476  35.7773744
  33.3437593  -0.6359411  34.8894279  34.5508850  -0.9209311  35.7574751
  34.1638865   0.6334376  41.7359950  34.1527506   0.2387174  40.8640454
  34.3259504  -0.0999552  42.3293721  27.0870329   2.8286192  34.6054856
  27.8791621   2.4877017  34.1901155  27.3266980   2.9381167  35.5257009
  30.8846126   3.4171488  40.6839134  30.5935992   4.3217118  40.5685800
  31.5203110   3.4588015  41.3983204  31.8102333   0.7948336  37.2740494
  32.4065905   0.5704359  36.5597457  31.8677304   0.0533082  37.8765941
  41.8279071  -2.8101217  33.8198406  42.5604243  -3.3802000  34.0536236
  41.0718427  -3.1979617  34.2604912  35.8436011   3.1032903  37.6788928
  35.5436734   4.0057942  37.5704735  35.4987071   2.8365086  38.5310081
  39.2433155  -4.3784557  35.3586365  38.3350032  -4.4469148  35.0645126
  39.1920751  -3.9012612  36.1868190  30.8256791   9.8677223  30.6459895
  30.7480821  10.8185049  30.7248376  30.2218434   9.5223096  31.3034822
  33.3174021  -2.9594911  43.3021262  32.5407355  -2.4000991  43.2924127
  33.9564584  -2.4738128  43.8236132  41.1094801  -6.1768118  37.1364239
  40.4669181  -5.8835585  36.4904034  40.6049730  -6.2915198  37.9417436
  31.5720393  -0.1509458  42.8639229  32.3135077   0.3875586  42.5874053
  30.8657378   0.4756831  43.0210781  37.0475733   1.9919683  41.4611391
  37.4559089   1.5502093  40.7166023  36.3252994   1.4172310  41.7145584
  33.4006803  -3.0707711  38.8344948  34.2467998  -2.6468297  38.9779597
  33.3405440  -3.7274086  39.5283511  37.3704547   2.5520873  35.2163680
  36.7413410   2.7166587  34.5139748  36.9830209   2.9662483  35.9874644
  41.2493779   3.4875311  32.5708043  40.5644817   3.8674213  32.0205077
  41.3337628   4.0970638  33.3039991  36.5506248  -5.4103342  40.4926121
  36.3067180  -4.6561282  39.9560397  36.8266178  -5.0317995  41.3273368
  38.5044711   1.1335270  39.1703387  38.7161606   1.7767030  38.4937768
  38.4574459   0.2997587  38.7025317  29.8156590   1.8366763  35.4193528
  30.3857947   2.2654031  34.7811013  30.4064702   1.5549348  36.1177714
  39.6190539   4.0107226  37.3425744  40.4407982   3.6087413  37.0608426
  39.6152942   3.9075460  38.2941860  33.3847142   3.5591269  39.4986455
  33.4491575   4.0211676  40.3344627  32.6758066   2.9288634  39.6268765
  47.7096532   0.3545974  33.6910716  46.9560240  -0.2146628  33.5354720
  47.8444073   0.3208639  34.6381350  28.3619442   5.8600571  32.0216113
  28.5386070   6.7818535  31.8337097  29.1576275   5.5458990  32.4510493
  34.7263636   5.8482943  43.4965777  34.2827490   5.0619321  43.1786682
  35.3880850   6.0362093  42.8309668  29.4850757   7.3778745  38.0226456
  30.0358182   7.2495808  37.2503450  28.6462233   7.6773634  37.6721348
  36.8244874   6.1285743  41.5247178  36.8063350   6.9494624  41.0327448
  37.7464794   6.0039818  41.7497320  33.2817928   3.6429872  42.3670687
  33.8146265   2.8818161  42.1369995  32.7532009   3.3503524  43.1094841
  39.6263487   0.9664885  34.9956545  38.9687161   1.6564147  35.0836674
  40.4303886   1.3561317  35.3390531  38.4368946  -0.6790742  33.0460487
  38.9500828  -0.0460750  33.5482197  39.0870170  -1.2789546  32.6803847
  34.9149777  -3.2041286  35.2918827  33.9972338  -2.9826339  35.1340515
  35.3309920  -3.1294976  34.4330535  39.2030742   4.3015259  31.1739630
  38.7493069   3.4606169  31.2304820  38.5724709   4.9376658  31.5114410
  37.6463681   6.1391756  32.1089448  37.9386656   6.6996813  31.3901813
  38.1562302   6.4320317  32.8642607  32.6097307   6.9172107  33.1982901
  32.5673485   7.1432954  32.2691433  33.5260005   6.6835482  33.3468702
  36.0562940  -2.6143825  40.0963530  36.4112328  -2.3872352  40.9557996
  36.7035072  -2.2825448  39.4740785  41.7860677   0.5074611  30.8012859
  41.6478576   0.6976207  29.8734048  41.4296896   1.2693993  31.2580910
  41.8130057   2.5751138  35.8124131  42.2466564   2.4826427  36.6607185
  42.5261638   2.5508638  35.1744147  35.5457952   6.1753232  37.3457231
  35.5994974   6.7444168  38.1134947  34.6772733   6.3455117  36.9811268
  42.6745606   2.6174838  38.3457016  42.8681496   3.5220649  38.5916291
  42.5746225   2.1582257  39.1795601  37.7360715   2.7681581  43.9197897
  37.5846222   2.5392133  43.0027980  37.7265395   3.7252182  43.9329242
  34.5046051   0.3413494  38.9044163  35.4338111   0.4924653  38.7313130
  34.0837082   0.4297515  38.0492810  33.3034383   4.3664158  36.6742701
  33.1645469   3.9982943  37.5468639  32.5148980   4.8811798  36.5026658
  33.8982535   9.4673255  28.0168237  34.0734291   8.9961298  28.8313860
  33.2115323  10.0939021  28.2449498  34.8539598   3.7445761  34.0631538
  34.5189431   3.7046531  34.9589188  34.3543544   3.0790477  33.5901949
  28.8283842  -0.8486609  39.5884120  28.6903640  -1.5806370  40.1895659
  29.7388766  -0.9377709  39.3068307  31.4566143  -1.1366650  39.0767799
  32.1665762  -1.7773458  39.0354418  31.4135451  -0.8853755  39.9993980
  39.4452922   5.8000704  41.9974378  39.3865468   5.1159924  41.3304962
  39.8472440   6.5419694  41.5455004  28.4643621  12.6162617  34.7908097
  28.7040219  13.2481142  35.4687116  27.6212817  12.2650657  35.0773457
  39.4470329   3.7640288  40.2288358  38.5597108   3.4266209  40.3514757
  40.0168880   3.0323319  40.4657124  32.9771482   8.4241740  37.1949601
  32.9041654   9.2296711  37.7068906  32.5348876   8.6233706  36.3697623
  32.7661262   7.6613510  30.7052423  31.9828784   8.2035190  30.7990647
  33.4654007   8.1787490  31.1046664  43.9287670  -0.8251495  34.9904920
  43.9177546   0.0573220  34.6198853  43.0605049  -1.1779944  34.7959457
  35.4370166   8.3228574  39.3507760  36.1498138   8.9576039  39.2783661
  34.9460195   8.4192440  38.5347762  30.4882079   6.0723017  40.1713331
  31.1891539   6.7059500  40.3242725  30.0177194   6.4137749  39.4108970
  38.2883365  -1.3732375  37.9965881  37.6354816  -1.1256468  37.3418334
  38.6663745  -2.1868237  37.6628358  35.2490539   8.6627318  32.0994051
  35.4312934   7.8448974  32.5621804  36.0723525   8.8795010  31.6618941
  35.5832705   7.5895503  29.3609100  36.1120471   7.0787958  28.7479262
  35.8460924   7.2738033  30.2254633  34.3370938  -0.6312564  44.4831918
  33.6611575  -0.7318435  45.1534294  35.1598572  -0.7873350  44.9467916
  26.0849798   5.6059372  37.1044434  26.6703234   4.8603060  37.2372338
  25.8874636   5.9163329  37.9881097  28.9388453   8.6410620  32.1206876
  28.2698828   9.1256747  31.6370916  28.8001322   8.8879840  33.0350254
  33.0793721  10.6754363  38.7189534  33.6312029  10.8385985  39.4838620
  33.4199915  11.2658801  38.0469559  37.9304596   5.5015621  44.5738189
  38.4744500   6.1145579  44.0793144  37.3491440   6.0595199  45.0905202
  36.2162109   8.6236339  35.7053216  36.0913248   7.8226079  35.1964162
  36.8741200   9.1182532  35.2167186  38.2797017   6.4245359  37.3332767
  37.3327353   6.3050710  37.2611093  38.6279790   5.5367857  37.4159028
  35.2843450   6.2198075  33.5337119  35.1368413   5.2914783  33.7144689
  36.1096944   6.2418166  33.0494194  38.8877572   7.0426634  34.6201992
  39.8124120   6.8369495  34.4826443  38.7192876   6.7943035  35.5291333
  38.6772888   7.5612301  29.9764083  38.8509766   6.9958724  29.2237935
  39.1701780   8.3613196  29.7943573  44.5312280   0.3248724  31.5954383
  44.9743426  -0.4243950  31.1973506  43.6538790   0.3158861  31.2128115
  39.6648061   6.8779066  27.0760981  40.3598965   7.4985758  27.2948296
  40.0071211   6.0274417  27.3513359  41.5639484   4.3278771  28.6048312
  42.0890808   4.6666044  27.8797632  41.4761837   3.3925787  28.4211447
  33.2259533   8.2412845  40.7338189  33.5346659   7.9961992  41.6060888
  34.0235015   8.4459483  40.2457059  33.2480145  10.3950755  32.9643565
  32.8085135   9.9027133  33.6576422  33.9988262   9.8523722  32.7235640
  25.7272484   6.5862295  32.9668193  26.5530504   6.2866067  32.5866837
  25.3766536   5.8169918  33.4157982  30.6954017   5.9388764  35.0365867
  30.0734026   5.2759469  34.7368095  31.3658884   5.9649896  34.3539515
  41.2533390   4.9611675  43.9099510  40.4628934   4.9435814  43.3704009
  41.0166745   5.4999969  44.6648547  41.3731265   1.8104141  41.2232239
  41.4229270   1.6454149  42.1647761  41.2645188   0.9431400  40.8330119
  38.6635027  -2.2064931  42.5391545  39.5644890  -2.3458466  42.2475543
  38.7383002  -2.0410476  43.4789723  42.8749462   4.2301083  41.4674260
  42.5834270   4.5931063  42.3037721  42.2621593   3.5168091  41.2887592
  44.0745144   1.7953963  33.9876830  44.9092036   2.2343767  34.1514391
  44.2104273   1.3192616  33.1685076  41.1236650  -0.6466303  39.9354318
  41.5990772  -0.4538656  39.1273169  40.2002216  -0.5907117  39.6897702
  39.8238319  -3.7700542  38.1682624  40.7755742  -3.6702445  38.1894848
  39.6541770  -4.5622274  38.6780708  37.8452699  -6.6844959  38.3542025
  37.2502631  -6.4039947  37.6588513  37.5602395  -6.1951058  39.1258766
  42.3026397  -0.5494423  37.2824923  42.2702717  -1.4878422  37.4684607
  42.9127021  -0.4710386  36.5490748  42.4520885  -3.7583379  37.3283206
  41.9359934  -4.5424923  37.1413135  43.3360834  -4.0864663  37.4929726
  48.1202947   0.5121584  36.4230960  48.8506335   0.2506872  36.9838663
  47.5109892  -0.2249694  36.4633028  46.2018244  -1.3470553  37.0205411
  45.4751407  -1.4814588  36.4121903  45.7865531  -1.0393725  37.8262129
  34.0248420   2.3719376  44.7852784  34.9451430   2.5497975  44.9792831
  33.9898003   1.4275422  44.6332484  27.0210493   0.2820411  37.4275565
  27.2396503   1.2137519  37.4463599  27.4336267  -0.0771615  38.2130369
  31.7569628  -0.7149244  45.6343376  31.2736710   0.0851116  45.8407265
  31.8430567  -0.7041300  44.6810820  27.6842966   3.1755290  37.6711810
  28.6386219   3.1439233  37.6041741  27.4855489   2.7145914  38.4862036
  28.2742348   1.7456406  40.2382608  29.0935237   2.2400485  40.2617445
  28.5479156   0.8288374  40.2100175  43.8196039  -5.1258701  34.3738843
  44.4140530  -5.3662965  33.6632151  43.8922623  -5.8451571  35.0012379
  26.0393195   8.7174910  34.6882008  25.9047662   7.9575311  34.1220006
  25.6225257   9.4415810  34.2210797  46.1267112  -1.8192500  33.1482264
  45.5666670  -1.7499311  33.9213826  45.5210615  -1.9951516  32.4281760
  29.1962320   9.6144227  34.9000450  29.0794705  10.5589659  34.7979141
  28.3754767   9.3117788  35.2886250  36.0530654   3.1475388  46.4366945
  36.9221814   3.3216040  46.0753580  35.5737406   3.9669805  46.3142674
  30.2216835  10.2672489  38.1156379  31.1244081  10.2996099  38.4322874
  29.9954205   9.3372940  38.1302715  31.9770437   9.0203475  34.7766457
  31.0266068   9.0205337  34.6630830  32.2802923   8.2736210  34.2602492
  47.7123130  14.8564014  35.8412220  48.3501540  14.7370761  35.1375560
  47.5943973  15.8044858  35.9000172  44.5212836  14.8091442  35.7773744
  44.1831348  14.6932506  34.8894279  45.3902604  14.4082607  35.7574751
  40.3799652  16.6626918  31.7670635  39.8164517  16.5716855  30.9986923
  40.2652047  15.8426823  32.2473128  45.0032619  15.9626293  41.7359950
  44.9921260  15.5679092  40.8640454  45.1653259  15.2292366  42.3293721
  37.9264084  18.1578110  34.6054856  38.7185376  17.8168934  34.1901155
  38.1660734  18.2673085  35.5257009  45.9599211  20.3297886  27.0785100
  45.3087190  20.9151966  26.6919114  46.7543574  20.8604081  27.1380138
  39.8854838  17.4187023  27.4772235  40.6585714  16.8716010  27.3385110
  40.2380237  18.2831272  27.6886696  41.7239880  18.7463405  40.6839134
  41.4329746  19.6509036  40.5685800  42.3596865  18.7879933  41.3983204
  42.6496087  16.1240254  37.2740494  43.2459660  15.8996276  36.5597457
  42.7071059  15.3824999  37.8765941  42.2221116  13.5779689  25.1090685
  42.4746636  13.0561210  24.3474148  41.2845675  13.4145835  25.2117368
  47.2664398  12.5815467  32.9165428  48.0527488  12.1634891  32.5655845
  47.5303103  13.4861560  33.0847076  47.4374476  18.0188318  27.6154085
  46.8020309  18.0922944  28.3274989  47.1071882  18.6081917  26.9373164
  52.6672826  12.5190701  33.8198406  53.3997998  11.9489917  34.0536236
  51.9112181  12.1312301  34.2604912  41.9417404  15.4807795  27.3115060
  41.8253663  14.8052698  27.9796144  42.0519664  14.9940169  26.4947213
  44.2848945  14.9417942  31.0161749  43.9207153  14.4148563  31.7274670
  45.1416061  14.5516411  30.8428234  50.1898246   6.2312275  38.2793015
  49.8581571   7.1007686  38.0554230  49.5943859   5.9148559  38.9587045
  43.9254432   9.9707842  26.0123097  44.0928835  10.8388078  26.3793568
  43.7351601  10.1335124  25.0884387  46.6829766  18.4324821  37.6788928
  46.3830489  19.3349860  37.5704735  46.3380825  18.1657004  38.5310081
  40.1342247  14.8838618  33.7125632  39.2092743  14.7514832  33.9203324
  40.3826660  15.6632837  34.2095575  50.0826909  10.9507361  35.3586365
  49.1743787  10.8822769  35.0645126  50.0314505  11.4279306  36.1868190
  43.9043653  12.4265499  26.9969764  43.7843278  12.8722550  27.8355244
  43.2096242  12.7750817  26.4383302  37.4951058  14.5271891  34.5469421
  37.6243439  14.7806370  35.4608833  36.8148509  15.1199599  34.2274076
  41.6650545  25.1969141  30.6459895  41.5874575  26.1476966  30.7248376
  41.0612189  24.8515014  31.3034822  44.1567775  12.3697007  43.3021262
  43.3801109  12.9290927  43.2924127  44.7958338  12.8553790  43.8236132
  51.9488556   9.1523799  37.1364239  51.3062936   9.4456333  36.4904034
  51.4443484   9.0376720  37.9417436  49.6028719  12.8986973  27.8250098
  50.5146575  13.1314359  27.6497796  49.0938366  13.4824017  27.2625177
  42.4114147  15.1782460  42.8639229  43.1528832  15.7167504  42.5874053
  41.7051133  15.8048749  43.0210781  47.8869487  17.3211600  41.4611391
  48.2952843  16.8794011  40.7166023  47.1646749  16.7464228  41.7145584
  44.2400557  12.2584207  38.8344948  45.0861752  12.6823621  38.9779597
  44.1799195  11.6017831  39.5283511  48.2098302  17.8812791  35.2163680
  47.5807164  18.0458505  34.5139748  47.8223964  18.2954401  35.9874644
  52.0887534  18.8167229  32.5708043  51.4038572  19.1966130  32.0205077
  52.1731383  19.4262556  33.3039991  47.3900002   9.9188576  40.4926121
  47.1460934  10.6730636  39.9560397  47.6659933  10.2973923  41.3273368
  49.3438465  16.4627188  39.1703387  49.5555360  17.1058948  38.4937768
  49.2968213  15.6289504  38.7025317  46.9464694   9.0745009  36.0739959
  46.0849173   9.3726262  36.3656697  46.9727129   9.2915407  35.1420992
  43.7626264  17.6187199  32.4813765  44.2264609  17.8974902  31.6918387
  43.4983062  16.7170644  32.2986855  40.6550345  17.1658681  35.4193528
  41.2251702  17.5945949  34.7811013  41.2458456  16.8841265  36.1177714
  42.6995150  13.7410351  29.2903330  43.4019193  14.1931395  29.7577256
  42.3675778  13.0994170  29.9183223  41.1475511  12.3322108  43.6654539
  40.5174172  13.0138389  43.8989936  41.0411599  12.2205190  42.7207678
  36.4420484  11.9993904  34.5920463  35.6519538  12.2551433  34.1160574
  36.9331731  12.8142242  34.6972504  50.4584293  19.3399143  37.3425744
  51.2801737  18.9379331  37.0608426  50.4546696  19.2367377  38.2941860
  38.3935229  12.3638483  31.5503940  37.5966392  12.4757178  32.0687436
  38.1660821  12.7025136  30.6844831  44.2240897  18.8883187  39.4986455
  44.2885329  19.3503594  40.3344627  43.5151820  18.2580552  39.6268765
  34.7258187  12.2524395  37.0235454  34.9766225  13.1371404  37.2893030
  35.2617735  12.0728996  36.2510546  58.5490286  15.6837892  33.6910716
  57.7953995  15.1145290  33.5354720  58.6837827  15.6500556  34.6381350
  43.9388914  20.5551294  29.3665435  43.8034589  21.4002830  29.7950283
  44.4798727  20.7570572  28.6031369  40.4256254   6.6342874  46.0279790
  40.0323199   6.0809072  46.7027435  41.2422394   6.9453452  46.4186308
  37.3918312  18.0726732  29.9393360  37.9042832  18.8669982  30.0898925
  38.0441024  17.3753023  29.8726962  39.2013196  21.1892488  32.0216113
  39.3779825  22.1110453  31.8337097  39.9970030  20.8750908  32.4510493
  43.3424215   8.0500753  43.6200047  44.0833928   8.6507906  43.5404509
  43.5742138   7.3078391  43.0618089  38.4865553  13.2357120  41.8978277
  38.3719068  12.3342378  42.1985375  37.6310071  13.4820817  41.5463093
  45.5657391  21.1774861  43.4965777  45.1221245  20.3911239  43.1786682
  46.2274604  21.3654011  42.8309668  40.3244512  22.7070662  38.0226456
  40.8751937  22.5787726  37.2503450  39.4855988  23.0065551  37.6721348
  47.6638629  21.4577661  41.5247178  47.6457104  22.2786542  41.0327448
  48.5858549  21.3331736  41.7497320  44.1211683  18.9721790  42.3670687
  44.6540020  18.2110078  42.1369995  43.5925764  18.6795442  43.1094841
  47.2881378   4.0781856  37.8964329  46.9445647   4.9683498  37.8203439
  47.6560340   3.8883514  37.0333914  35.3567228  16.4015386  30.7152931
  36.1942450  16.8112395  30.4986638  35.5345496  15.4614829  30.6853125
  47.2531661  14.0690467  26.4036764  46.7378284  14.8395072  26.6425151
  46.9808969  13.3955603  27.0269825  44.8378772   8.9140168  31.4622002
  43.9820368   8.5247018  31.2827641  45.2505723   8.9932129  30.6021788
  46.3677918   6.4486511  35.8613562  45.8642714   6.4116646  35.0481367
  46.6608525   7.3579254  35.9210218  42.6120804   6.5325241  34.8679744
  43.4773801   6.3368050  34.5085633  42.6798313   6.3035593  35.7949100
  52.2265935  16.8222822  28.3389937  51.4495377  16.4833981  27.8945099
  52.9057416  16.8275445  27.6644902  47.0417964  11.9417559  28.2296545
  46.7368099  12.2563708  29.0806688  47.9948406  12.0198979  28.2723878
  45.4864396  18.1007782  29.8789499  44.9585757  17.3660542  29.5662736
  44.9851898  18.8782459  29.6329467  50.4657242  16.2956803  34.9956545
  49.8080916  16.9856064  35.0836674  51.2697641  16.6853235  35.3390531
  40.2183123   8.7627449  32.2396110  40.7926875   8.5402630  31.5069303
  40.8054106   8.8316143  32.9924712  49.2762700  14.6501176  33.0460487
  49.7894582  15.2831168  33.5482197  49.9263924  14.0502371  32.6803847
  40.5452710  10.7931910  26.2591996  39.7090023  11.1306596  26.5801270
  40.4057480  10.6580890  25.3219133  42.5205791   5.6368698  30.9671180
  41.8670203   5.3217715  30.3427795  42.4786265   5.0144438  31.6931003
  43.6316996  15.9187993  22.8824472  42.7244057  15.6877246  23.0815621
  44.1288028  15.1225612  23.0698453  46.5385075  24.6285500  25.8021158
  45.8646773  24.9317197  26.4106116  46.9250897  25.4314580  25.4526615
  45.7543531  12.1250631  35.2918827  44.8366093  12.3465578  35.1340515
  46.1703675  12.1996942  34.4330535  46.5378579  13.5242047  30.4221508
  47.2850398  14.0363444  30.1128630  46.8070169  13.2026100  31.2825901
  44.8105229  16.0200588  27.4048462  43.9016448  15.7359620  27.5020932
  44.8400313  16.4399666  26.5451769  50.0424497  19.6307177  31.1739630
  49.5886824  18.7898087  31.2304820  49.4118463  20.2668575  31.5114410
  48.9857416  10.5599163  32.4040297  48.2480173  10.0476549  32.7350540
  49.2384190  10.1199545  31.5923574  48.4857436  21.4683674  32.1089448
  48.7780410  22.0288731  31.3901813  48.9956056  21.7612235  32.8642607
  49.0869043   3.3375415  32.9982066  49.3927920   2.4772779  32.7107981
  49.8121648   3.9293035  32.7981060  35.3793400  13.7406102  31.3863664
  35.1817799  13.1475462  30.6614731  34.8240064  13.4358312  32.1039603
  43.3590123  13.6329208  33.5058257  43.4138733  12.6803045  33.4300734
  42.5481325  13.7888647  33.9899556  44.5081317  17.5609331  24.7436541
  44.0700747  16.8445190  24.2842178  45.2491758  17.7885446  24.1821632
  41.2982483  12.2506268  31.2648636  40.4850349  12.5500439  31.6713828
  41.7941477  11.8561957  31.9823118  43.4491061  22.2464025  33.1982901
  43.4067240  22.4724871  32.2691433  44.3653760  22.0127399  33.3468702
  46.8956695  12.7148092  40.0963530  47.2506083  12.9419566  40.9557996
  47.5428826  13.0466469  39.4740785  52.6254432  15.8366528  30.8012859
  52.4872330  16.0268124  29.8734048  52.2690651  16.5985911  31.2580910
  40.7896558   9.8224623  36.8809871  41.4295937   9.6813383  36.1832834
  39.9574088   9.5359137  36.5048473  52.6523811  17.9043055  35.8124131
  53.0860318  17.8118344  36.6607185  53.3655392  17.8800556  35.1744147
  41.5656862  19.1227054  32.9944864  42.3597460  18.6277374  32.7927439
  40.8548554  18.5944917  32.6312569  46.3851706  21.5045149  37.3457231
  46.4388729  22.0736086  38.1134947  45.5166488  21.6747034  36.9811268
  37.8739625  13.2670136  29.0704616  36.9437213  13.2054591  29.2874578
  37.9697097  12.7446088  28.2741258  37.7925174   9.7924948  31.6582858
  38.0531992  10.7070282  31.5492018  38.6142347   9.3249391  31.8079471
  39.2650100  11.2062706  38.8281682  39.9373153  10.9980068  38.1794331
  38.4379886  11.0084792  38.3886915  53.5139361  17.9466756  38.3457016
  53.7075251  18.8512566  38.5916291  53.4139979  17.4874175  39.1795601
  45.1675672   7.8324647  40.8447343  44.5203587   8.5314596  40.7511820
  45.9376687   8.2660790  41.2123592  48.5754470  18.0973499  43.9197897
  48.4239976  17.8684050  43.0027980  48.5659149  19.0544100  43.9329242
  45.3439806  15.6705411  38.9044163  46.2731866  15.8216571  38.7313130
  44.9230836  15.7589432  38.0492810  44.1428138  19.6956076  36.6742701
  44.0039223  19.3274860  37.5468639  43.3542734  20.2103715  36.5026658
  44.7376290  24.7965172  28.0168237  44.9128045  24.3253216  28.8313860
  44.0509078  25.4230939  28.2449498  45.6933353  19.0737679  34.0631538
  45.3583186  19.0338449  34.9589188  45.1937299  18.4082395  33.5901949
  39.6677597  14.4805309  39.5884120  39.5297395  13.7485547  40.1895659
  40.5782520  14.3914209  39.3068307  48.6292545  16.4193713  24.3368598
  48.0121715  15.6940541  24.2401651  48.1609033  17.1803073  23.9935672
  42.2959898  14.1925268  39.0767799  43.0059516  13.5518460  39.0354418
  42.2529206  14.4438163  39.9993980  50.2846676  21.1292621  41.9974378
  50.2259222  20.4451841  41.3304962  50.6866195  21.8711611  41.5455004
  41.0088832  11.1790486  40.8963439  40.4726189  10.7281224  41.5485035
  40.4205540  11.3136395  40.1533903  39.3037375  27.9454535  34.7908097
  39.5433973  28.5773059  35.4687116  38.4606572  27.5942575  35.0773457
  50.2864084  19.0932205  40.2288358  49.3990862  18.7558127  40.3514757
  50.8562635  18.3615236  40.4657124  31.9393231  15.4256297  33.5531410
  32.6264270  15.1118027  32.9652425  31.7841359  16.3297662  33.2798661
  36.7427953  10.3146494  37.9816433  36.6586141   9.7072163  37.2466843
  35.9210659  10.8055512  37.9825930  43.8165237  23.7533658  37.1949601
  43.7435408  24.5588629  37.7068906  43.3742630  23.9525623  36.3697623
  43.6055017  22.9905428  30.7052423  42.8222538  23.5327108  30.7990647
  44.3047762  23.5079407  31.1046664  46.9151667   8.8000057  33.3486628
  47.4120366   8.0470019  33.0287699  46.1438648   8.8364374  32.7829838
  54.7681424  14.5040423  34.9904920  54.7571300  15.3865138  34.6198853
  53.8998803  14.1511973  34.7959457  46.2763920  23.6520492  39.3507760
  46.9891893  24.2867956  39.2783661  45.7853949  23.7484358  38.5347762
  47.9981447  17.5571744  30.9225052  47.0637726  17.6773207  30.7529756
  48.1758116  16.6544211  30.6585062  43.4986635  10.9417440  33.0758313
  43.1284423  10.3888480  33.7639218  43.9945728  10.3375574  32.5233313
  51.3853999  13.3989064  31.4575086  51.8514451  14.2317055  31.3835388
  51.8361499  12.9334045  32.1620344  41.3275834  21.4014935  40.1713331
  42.0285293  22.0351418  40.3242725  40.8570949  21.7429667  39.4108970
  49.4530230  19.7432885  28.4561238  49.7290074  19.6289479  29.3655112
  48.5834729  19.3450370  28.4173411  49.3570661   5.7669651  35.4965987
  48.4433741   5.9973877  35.6648194  49.7863763   5.8508095  36.3480020
  49.1277120  13.9559543  37.9965881  48.4748570  14.2035450  37.3418334
  49.5057500  13.1423681  37.6628358  46.0884294  23.9919236  32.0994051
  46.2706688  23.1740892  32.5621804  46.9117280  24.2086928  31.6618941
  46.4226459  22.9187421  29.3609100  46.9514226  22.4079875  28.7479262
  46.6854679  22.6029951  30.2254633  45.1764693  14.6979354  44.4831918
  44.5005330  14.5973483  45.1534294  45.9992327  14.5418567  44.9467916
  36.9243552  20.9351290  37.1044434  37.5096989  20.1894978  37.2372338
  36.7268390  21.2455247  37.9881097  39.7782207  23.9702538  32.1206876
  39.1092582  24.4548665  31.6370916  39.6395077  24.2171758  33.0350254
  31.5161207  13.5056890  35.8248877  31.5545306  12.9720481  36.6185995
  31.0101500  12.9792096  35.2059854  43.9187476  26.0046281  38.7189534
  44.4705784  26.1677903  39.4838620  44.2593669  26.5950719  38.0469559
  38.8951969   8.3521431  39.3211419  38.9593296   9.2136262  38.9088817
  38.8319089   7.7395432  38.5883777  38.3704242  10.4244563  42.9684453
  38.9976280  10.0421641  43.5821978  37.5132160  10.2058765  43.3340146
  48.7698350  20.8307539  44.5738189  49.3138254  21.4437497  44.0793144
  48.1885195  21.3887117  45.0905202  35.1469784  12.2320992  28.9002808
  35.4423225  11.3231671  28.8469862  34.2457820  12.2108732  28.5783810
  47.0555863  23.9528257  35.7053216  46.9307003  23.1517996  35.1964162
  47.7134954  24.4474450  35.2167186  38.6764031  10.3076989  34.8830357
  37.9550617  10.9212957  34.7437830  39.4657287  10.8434754  34.8047003
  49.1190771  21.7537277  37.3332767  48.1721107  21.6342628  37.2611093
  49.4673545  20.8659775  37.4159028  41.4790345   7.6431416  41.1571008
  42.0024747   7.8893712  41.9197318  41.2602678   8.4751450  40.7374146
  36.8757626   9.9135090  29.0242133  36.5470332   9.0332469  28.8417239
  37.2296997   9.8582759  29.9118522  46.1237205  21.5489993  33.5337119
  45.9762167  20.6206700  33.7144689  46.9490698  21.5710084  33.0494194
  39.9899449  10.2008060  29.3917611  40.3295522  10.7293981  28.6696219
  40.4371570  10.5388466  30.1676177  49.7271327  22.3718552  34.6201992
  50.6517874  22.1661413  34.4826443  49.5586630  22.1234953  35.5291333
  42.6842890   8.5845111  38.8420679  42.3439710   7.7852924  39.2441359
  41.9781896   8.8846822  38.2697512  43.3359362   5.6694423  37.2948002
  44.1585431   5.1954901  37.1726892  43.5797425   6.4484907  37.7946688
  41.9767596   8.6982682  27.5910904  42.6975959   9.0763934  27.0874621
  41.3532900   9.4171558  27.6945882  46.1198719   9.4027831  28.5269236
  46.3362333  10.2852468  28.2258064  45.6392786   9.0114044  27.7974878
  40.8597940  12.3613544  35.1039981  40.7142521  12.6753847  35.9964262
  40.3823144  12.9798444  34.5510879  42.7194323   9.3516092  35.1520870
  42.7055892   8.4557185  34.8153168  43.4366751   9.3586755  35.7859156
  44.5720454   9.7853432  37.1973998  44.3138232  10.7070503  37.1958328
  44.0405494   9.3883866  37.8874462  49.5166643  22.8904219  29.9764083
  49.6903520  22.3250642  29.2237935  50.0095534  23.6905114  29.7943573
  35.3343603  14.9018888  38.0427642  34.7897071  15.6778696  38.1747916
  36.2122952  15.2489693  37.8846763  42.1231219   8.2330472  30.4208440
  42.2447130   7.3047118  30.6199328  41.8333262   8.2469158  29.5086756
  44.9922410   5.9185382  33.5575160  45.0144106   5.9824716  32.6027140
  45.4090469   5.0789891  33.7515666  55.3706034  15.6540642  31.5954383
  55.8137180  14.9047967  31.1973506  54.4932544  15.6450778  31.2128115
  50.5041815  22.2070983  27.0760981  51.1992720  22.8277676  27.2948296
  50.8464965  21.3566335  27.3513359  36.1209624  14.0288784  40.9357799
  35.3791361  14.1771420  41.5222429  35.8002369  14.2897050  40.0724548
  52.4033238  19.6570689  28.6048312  52.9284563  19.9957962  27.8797632
  52.3155591  18.7217704  28.4211447  44.0653287  23.5704763  40.7338189
  44.3740414  23.3253909  41.6060888  44.8628769  23.7751401  40.2457059
  44.0873899  25.7242672  32.9643565  43.6478889  25.2319051  33.6576422
  44.8382016  25.1815640  32.7235640  36.5666238  21.9154213  32.9668193
  37.3924258  21.6157985  32.5866837  36.2160290  21.1461836  33.4157982
  41.5347771  21.2680681  35.0365867  40.9127781  20.6051386  34.7368095
  42.2052638  21.2941813  34.3539515  34.7674843  19.8340540  33.9257127
  33.9306752  19.4062714  33.7441128  34.7398489  20.0272983  34.8627918
  41.6072299   9.7462469  44.6298373  41.6560454  10.6224592  44.2476142
  42.1494813   9.2039862  44.0570016  52.0927145  20.2903593  43.9099510
  51.3022688  20.2727731  43.3704009  51.8560499  20.8291886  44.6648547
  52.2125020  17.1396059  41.2232239  52.2623024  16.9746066  42.1647761
  52.1038943  16.2723318  40.8330119  41.0961278  19.8184605  28.5124327
  41.2449399  20.5020069  27.8591000  41.9027722  19.7989695  29.0273783
  49.5028782  13.1226987  42.5391545  50.4038645  12.9833452  42.2475543
  49.5776756  13.2881442  43.4789723  43.8371587  10.4993842  41.3844732
  42.9674897  10.7927408  41.1127320  44.0731068  11.0834287  42.1051995
  53.7143216  19.5593001  41.4674260  53.4228025  19.9222981  42.3037721
  53.1015348  18.8460009  41.2887592  54.9138899  17.1245880  33.9876830
  55.7485790  17.5635684  34.1514391  55.0498027  16.6484533  33.1685076
  51.9630405  14.6825615  39.9354318  52.4384526  14.8753261  39.1273169
  51.0395970  14.7384801  39.6897702  38.8513911  15.8449782  29.5185396
  38.6059953  14.9412112  29.7165606  39.0209826  15.8466933  28.5764874
  46.5410621   6.7173459  38.9010152  47.0592565   7.4534486  38.5756640
  46.1865754   7.0237452  39.7356911  38.1209559  11.5778140  27.0171558
  37.4278804  11.6522495  26.3611594  37.8761311  10.8138484  27.5393075
  46.7923215   3.1373741  34.4211049  47.0724969   2.4696930  35.0471475
  47.5773822   3.3302837  33.9085712  44.5956684  22.3132735  25.9836075
  44.0230651  22.9322922  25.5306547  45.1689477  22.8632097  26.5175997
  50.6632074  11.5591375  38.1682624  51.6149497  11.6589473  38.1894848
  50.4935524  10.7669644  38.6780708  48.6846453   8.6446958  38.3542025
  48.0896385   8.9251971  37.6588513  48.3996150   9.1340859  39.1258766
  47.8153944  22.5969885  27.1144657  48.7484617  22.5315447  27.3177533
  47.7277156  23.4326152  26.6559190  50.4441960  21.9135756  24.0748605
  50.3655592  21.5795619  24.9684363  51.2651627  22.4057524  24.0740077
  53.1420151  14.7797495  37.2824923  53.1096472  13.8413496  37.4684607
  53.7520775  14.8581532  36.5490748  44.9803482  13.6493548  23.3252127
  45.9262587  13.5199756  23.3940545  44.6017727  12.9108210  23.8021555
  53.2914640  11.5708538  37.3283206  52.7753689  10.7866995  37.1413135
  54.1754588  11.2427255  37.4929726  50.9525367   5.3149554  33.2879019
  50.7550188   5.0064642  34.1722351  51.5625072   6.0411193  33.4176949
  58.9596701  15.8413502  36.4230960  59.6900090  15.5798790  36.9838663
  58.3503647  15.1042224  36.4633028  57.0411998  13.9821364  37.0205411
  56.3145162  13.8477329  36.4121903  56.6259285  14.2898193  37.8262129
  44.8642175  17.7011294  44.7852784  45.7845184  17.8789893  44.9792831
  44.8291758  16.7567339  44.6332484  34.0824340  12.8949888  33.7106059
  33.7627124  12.0415196  33.4180433  33.5357768  13.1098466  34.4664026
  37.8604247  15.6112329  37.4275565  38.0790257  16.5429436  37.4463599
  38.2730021  15.2520303  38.2130369  44.7808465   6.1180414  29.4151254
  43.9709193   5.7727499  29.7906500  45.4692882   5.8087958  30.0038865
  46.7099013   5.1958461  31.0375550  47.2630052   5.6153914  31.6965574
  46.9469100   4.2694209  31.0798506  42.7332113  11.1845534  46.8178314
  42.6328840  12.1339891  46.7490405  42.5153655  10.8563773  45.9454384
  33.9512600  16.5152799  35.6799181  33.2576071  16.1006752  35.1669135
  34.6985591  16.5573336  35.0832599  50.0877821   7.3058986  30.5454215
  49.5076490   7.9643790  30.1632267  49.8213753   6.4836331  30.1341632
  48.5381387   6.7064044  32.7475535  49.0381165   6.8180578  31.9389854
  49.1816995   6.4025097  33.3876344  42.5963383  14.6142673  45.6343376
  42.1130464  15.4143033  45.8407265  42.6824322  14.6250618  44.6810820
  35.8649342  16.4471053  33.5565195  35.8420030  16.5458740  32.6047079
  36.1749979  17.2936204  33.8782362  38.5236720  18.5047208  37.6711810
  39.4779974  18.4731150  37.6041741  38.3249244  18.0437832  38.4862036
  39.1136102  17.0748324  40.2382608  39.9328991  17.5692403  40.2617445
  39.3872910  16.1580292  40.2100175  48.8702699   9.4659076  29.6010563
  47.9828554   9.7508727  29.3830758  49.2856688   9.3052840  28.7537840
  52.2217235   9.4905597  33.3164902  52.9977625   9.9802050  33.5889519
  51.4965369   9.9163652  33.7736772  54.6589793  10.2033217  34.3738843
  55.2534284   9.9628952  33.6632151  54.7316377   9.4840347  35.0012379
  36.8786949  24.0466827  34.6882008  36.7441417  23.2867228  34.1220006
  36.4619011  24.7707727  34.2210797  48.0145912  19.2303751  23.6958583
  48.7181762  19.4353754  24.3116239  47.2908561  19.7980513  23.9607667
  48.8443722  14.9813612  29.8160853  48.7878924  15.4382164  28.9768486
  49.3972065  14.2204297  29.6383696  52.6548528  10.7703344  30.6410973
  52.3985462  10.3699980  31.4719180  52.0301396  11.4847138  30.5161112
  56.9660866  13.5099417  33.1482264  56.4060424  13.5792607  33.9213826
  56.3604369  13.3340402  32.4281760  40.0356075  24.9436144  34.9000450
  39.9188459  25.8881577  34.7979141  39.2148521  24.6409706  35.2886250
  49.9232609  19.6686280  25.7457043  50.7578213  19.2367479  25.5634518
  49.7616952  19.4968294  26.6733938  49.5778502  16.1718394  27.1113382
  49.5227305  16.0062665  26.1701826  48.9524557  16.8794426  27.2675572
  34.3671017  11.4086458  40.9374805  35.0129880  10.8985412  41.4262030
  34.1588168  12.1455140  41.5118230  46.8924409  18.4767305  46.4366945
  47.7615568  18.6507958  46.0753580  46.4131160  19.2961722  46.3142674
  42.8874627   5.6726503  26.6898701  42.8753297   6.6168342  26.8466972
  43.7798049   5.4896648  26.3958162  41.0610589  25.5964406  38.1156379
  41.9637836  25.6288017  38.4322874  40.8347959  24.6664857  38.1302715
  42.8164191  24.3495393  34.7766457  41.8659822  24.3497255  34.6630830
  43.1196677  23.6028127  34.2602492  46.7026747   2.2669279  30.9444638
  45.9359142   1.7127766  31.0901320  47.1137451   2.3391148  31.8058789
  38.7068508   8.5554075  45.0349819  39.5699969   8.1990880  45.2453143
  38.1333918   8.2167970  45.7225223  58.5516885  30.1855931  35.8412220
  59.1895294  30.0662679  35.1375560  58.4337727  31.1336775  35.9000172
  55.3606591  30.1383359  35.7773744  55.0225102  30.0224424  34.8894279
  56.2296359  29.7374525  35.7574751  51.2193406  31.9918836  31.7670635
  50.6558272  31.9008773  30.9986923  51.1045802  31.1718740  32.2473128
  55.8426374  31.2918211  41.7359950  55.8315015  30.8971009  40.8640454
  56.0047013  30.5584284  42.3293721  48.7657838  33.4870027  34.6054856
  49.5579130  33.1460852  34.1901155  49.0054489  33.5965002  35.5257009
  56.7992965  35.6589804  27.0785100  56.1480945  36.2443884  26.6919114
  57.5937328  36.1895998  27.1380138  50.7248592  32.7478941  27.4772235
  51.4979468  32.2007928  27.3385110  51.0773991  33.6123190  27.6886696
  52.5633635  34.0755323  40.6839134  52.2723501  34.9800954  40.5685800
  53.1990619  34.1171851  41.3983204  53.4889842  31.4532171  37.2740494
  54.0853414  31.2288194  36.5597457  53.5464813  30.7116917  37.8765941
  53.0614870  28.9071607  25.1090685  53.3140391  28.3853128  24.3474148
  52.1239429  28.7437752  25.2117368  58.1058153  27.9107385  32.9165428
  58.8921242  27.4926808  32.5655845  58.3696857  28.8153477  33.0847076
  58.2768230  33.3480235  27.6154085  57.6414063  33.4214862  28.3274989
  57.9465637  33.9373834  26.9373164  63.5066580  27.8482618  33.8198406
  64.2391752  27.2781835  34.0536236  62.7505936  27.4604219  34.2604912
  52.7811159  30.8099713  27.3115060  52.6647417  30.1344616  27.9796144
  52.8913419  30.3232087  26.4947213  55.1242700  30.2709860  31.0161749
  54.7600907  29.7440481  31.7274670  55.9809816  29.8808329  30.8428234
  61.0292000  21.5604192  38.2793015  60.6975325  22.4299603  38.0554230
  60.4337614  21.2440476  38.9587045  54.7648187  25.2999760  26.0123097
  54.9322589  26.1679996  26.3793568  54.5745356  25.4627041  25.0884387
  57.5223520  33.7616738  37.6788928  57.2224243  34.6641777  37.5704735
  57.1774580  33.4948922  38.5310081  50.9736001  30.2130535  33.7125632
  50.0486498  30.0806749  33.9203324  51.2220415  30.9924755  34.2095575
  60.9220664  26.2799279  35.3586365  60.0137541  26.2114687  35.0645126
  60.8708260  26.7571224  36.1868190  54.7437408  27.7557417  26.9969764
  54.6237033  28.2014468  27.8355244  54.0489996  28.1042735  26.4383302
  48.3344813  29.8563809  34.5469421  48.4637194  30.1098288  35.4608833
  47.6542264  30.4491517  34.2274076  52.5044300  40.5261059  30.6459895
  52.4268329  41.4768884  30.7248376  51.9005943  40.1806931  31.3034822
  54.9961530  27.6988924  43.3021262  54.2194864  28.2582844  43.2924127
  55.6352093  28.1845707  43.8236132  62.7882310  24.4815717  37.1364239
  62.1456690  24.7748250  36.4904034  62.2837239  24.3668637  37.9417436
  60.4422474  28.2278890  27.8250098  61.3540330  28.4606277  27.6497796
  59.9332121  28.8115934  27.2625177  53.2507902  30.5074378  42.8639229
  53.9922586  31.0459422  42.5874053  52.5444887  31.1340666  43.0210781
  58.7263242  32.6503518  41.4611391  59.1346598  32.2085929  40.7166023
  58.0040503  32.0756146  41.7145584  55.0794312  27.5876125  38.8344948
  55.9255507  28.0115538  38.9779597  55.0192949  26.9309749  39.5283511
  59.0492056  33.2104709  35.2163680  58.4200919  33.3750423  34.5139748
  58.6617718  33.6246318  35.9874644  62.9281288  34.1459147  32.5708043
  62.2432326  34.5258048  32.0205077  63.0125137  34.7554473  33.3039991
  58.2293757  25.2480493  40.4926121  57.9854689  26.0022554  39.9560397
  58.5053687  25.6265841  41.3273368  60.1832220  31.7919106  39.1703387
  60.3949115  32.4350865  38.4937768  60.1361968  30.9581422  38.7025317
  57.7858449  24.4036926  36.0739959  56.9242928  24.7018180  36.3656697
  57.8120883  24.6207325  35.1420992  54.6020018  32.9479117  32.4813765
  55.0658364  33.2266820  31.6918387  54.3376816  32.0462561  32.2986855
  51.4944099  32.4950598  35.4193528  52.0645456  32.9237867  34.7811013
  52.0852211  32.2133183  36.1177714  53.5388904  29.0702269  29.2903330
  54.2412947  29.5223313  29.7577256  53.2069533  28.4286088  29.9183223
  51.9869266  27.6614026  43.6654539  51.3567926  28.3430307  43.8989936
  51.8805354  27.5497107  42.7207678  47.2814238  27.3285822  34.5920463
  46.4913292  27.5843350  34.1160574  47.7725485  28.1434160  34.6972504
  61.2978048  34.6691061  37.3425744  62.1195491  34.2671248  37.0608426
  61.2940450  34.5659295  38.2941860  49.2328983  27.6930401  31.5503940
  48.4360147  27.8049095  32.0687436  49.0054576  28.0317053  30.6844831
  55.0634651  34.2175104  39.4986455  55.1279084  34.6795512  40.3344627
  54.3545575  33.5872469  39.6268765  45.5651941  27.5816312  37.0235454
  45.8159979  28.4663322  37.2893030  46.1011489  27.4020914  36.2510546
  69.3884041  31.0129809  33.6910716  68.6347749  30.4437208  33.5354720
  69.5231582  30.9792474  34.6381350  54.7782669  35.8843212  29.3665435
  54.6428344  36.7294747  29.7950283  55.3192481  36.0862489  28.6031369
  51.2650008  21.9634792  46.0279790  50.8716954  21.4100990  46.7027435
  52.0816149  22.2745370  46.4186308  48.2312066  33.4018650  29.9393360
  48.7436587  34.1961900  30.0898925  48.8834779  32.7044940  29.8726962
  50.0406951  36.5184406  32.0216113  50.2173579  37.4402371  31.8337097
  50.8363784  36.2042825  32.4510493  54.1817969  23.3792671  43.6200047
  54.9227683  23.9799824  43.5404509  54.4135892  22.6370309  43.0618089
  49.3259307  28.5649038  41.8978277  49.2112822  27.6634295  42.1985375
  48.4703825  28.8112735  41.5463093  56.4051145  36.5066778  43.4965777
  55.9614999  35.7203157  43.1786682  57.0668359  36.6945929  42.8309668
  51.1638266  38.0362580  38.0226456  51.7145691  37.9079643  37.2503450
  50.3249742  38.3357469  37.6721348  58.5032383  36.7869578  41.5247178
  58.4850859  37.6078459  41.0327448  59.4252303  36.6623653  41.7497320
  54.9605437  34.3013708  42.3670687  55.4933774  33.5401996  42.1369995
  54.4319518  34.0087360  43.1094841  58.1275132  19.4073774  37.8964329
  57.7839402  20.2975415  37.8203439  58.4954095  19.2175431  37.0333914
  46.1960983  31.7307304  30.7152931  47.0336205  32.1404312  30.4986638
  46.3739251  30.7906746  30.6853125  58.0925415  29.3982385  26.4036764
  57.5772038  30.1686989  26.6425151  57.8202723  28.7247521  27.0269825
  55.6772526  24.2432086  31.4622002  54.8214122  23.8538936  31.2827641
  56.0899478  24.3224046  30.6021788  57.2071673  21.7778429  35.8613562
  56.7036468  21.7408564  35.0481367  57.5002280  22.6871172  35.9210218
  53.4514559  21.8617159  34.8679744  54.3167555  21.6659967  34.5085633
  53.5192067  21.6327510  35.7949100  63.0659689  32.1514739  28.3389937
  62.2889132  31.8125899  27.8945099  63.7451170  32.1567363  27.6644902
  57.8811718  27.2709477  28.2296545  57.5761854  27.5855626  29.0806688
  58.8342160  27.3490897  28.2723878  56.3258150  33.4299700  29.8789499
  55.7979512  32.6952460  29.5662736  55.8245653  34.2074377  29.6329467
  61.3050996  31.6248721  34.9956545  60.6474670  32.3147982  35.0836674
  62.1091395  32.0145153  35.3390531  51.0576878  24.0919366  32.2396110
  51.6320630  23.8694548  31.5069303  51.6447860  24.1608061  32.9924712
  60.1156455  29.9793093  33.0460487  60.6288337  30.6123085  33.5482197
  60.7657679  29.3794289  32.6803847  51.3846465  26.1223827  26.2591996
  50.5483777  26.4598514  26.5801270  51.2451234  25.9872807  25.3219133
  53.3599545  20.9660615  30.9671180  52.7063958  20.6509633  30.3427795
  53.3180019  20.3436356  31.6931003  54.4710750  31.2479910  22.8824472
  53.5637812  31.0169164  23.0815621  54.9681782  30.4517530  23.0698453
  57.3778829  39.9577418  25.8021158  56.7040528  40.2609114  26.4106116
  57.7644651  40.7606498  25.4526615  56.5937286  27.4542549  35.2918827
  55.6759847  27.6757496  35.1340515  57.0097429  27.5288859  34.4330535
  57.3772333  28.8533965  30.4221508  58.1244152  29.3655362  30.1128630
  57.6463923  28.5318017  31.2825901  55.6498984  31.3492505  27.4048462
  54.7410203  31.0651538  27.5020932  55.6794067  31.7691584  26.5451769
  60.8818251  34.9599095  31.1739630  60.4280578  34.1190005  31.2304820
  60.2512218  35.5960493  31.5114410  59.8251171  25.8891081  32.4040297
  59.0873927  25.3768467  32.7350540  60.0777944  25.4491462  31.5923574
  59.3251190  36.7975591  32.1089448  59.6174165  37.3580649  31.3901813
  59.8349811  37.0904152  32.8642607  59.9262798  18.6667333  32.9982066
  60.2321675  17.8064696  32.7107981  60.6515403  19.2584953  32.7981060
  46.2187154  29.0698019  31.3863664  46.0211554  28.4767380  30.6614731
  45.6633818  28.7650230  32.1039603  54.1983878  28.9621126  33.5058257
  54.2532487  28.0094962  33.4300734  53.3875080  29.1180565  33.9899556
  55.3475071  32.8901249  24.7436541  54.9094501  32.1737108  24.2842178
  56.0885512  33.1177364  24.1821632  52.1376238  27.5798186  31.2648636
  51.3244103  27.8792356  31.6713828  52.6335232  27.1853874  31.9823118
  54.2884815  37.5755943  33.1982901  54.2460994  37.8016789  32.2691433
  55.2047514  37.3419317  33.3468702  57.7350449  28.0440010  40.0963530
  58.0899837  28.2711483  40.9557996  58.3822581  28.3758387  39.4740785
  63.4648186  31.1658446  30.8012859  63.3266085  31.3560042  29.8734048
  63.1084405  31.9277829  31.2580910  51.6290312  25.1516541  36.8809871
  52.2689692  25.0105300  36.1832834  50.7967843  24.8651055  36.5048473
  63.4917566  33.2334973  35.8124131  63.9254072  33.1410262  36.6607185
  64.2049147  33.2092473  35.1744147  52.4050616  34.4518972  32.9944864
  53.1991215  33.9569292  32.7927439  51.6942309  33.9236835  32.6312569
  57.2245461  36.8337067  37.3457231  57.2782483  37.4028003  38.1134947
  56.3560242  37.0038952  36.9811268  48.7133380  28.5962053  29.0704616
  47.7830968  28.5346509  29.2874578  48.8090852  28.0738006  28.2741258
  48.6318929  25.1216866  31.6582858  48.8925746  26.0362199  31.5492018
  49.4536101  24.6541309  31.8079471  50.1043854  26.5354623  38.8281682
  50.7766908  26.3271985  38.1794331  49.2773641  26.3376709  38.3886915
  64.3533115  33.2758674  38.3457016  64.5469005  34.1804484  38.5916291
  64.2533734  32.8166093  39.1795601  56.0069426  23.1616564  40.8447343
  55.3597341  23.8606514  40.7511820  56.7770442  23.5952708  41.2123592
  59.4148224  33.4265416  43.9197897  59.2633730  33.1975968  43.0027980
  59.4052904  34.3836018  43.9329242  56.1833560  30.9997329  38.9044163
  57.1125620  31.1508489  38.7313130  55.7624590  31.0881350  38.0492810
  54.9821892  35.0247994  36.6742701  54.8432978  34.6566778  37.5468639
  54.1936488  35.5395633  36.5026658  55.5770044  40.1257090  28.0168237
  55.7521800  39.6545133  28.8313860  54.8902832  40.7522856  28.2449498
  56.5327107  34.4029596  34.0631538  56.1976940  34.3630366  34.9589188
  56.0331053  33.7374312  33.5901949  50.5071351  29.8097226  39.5884120
  50.3691149  29.0777465  40.1895659  51.4176275  29.7206126  39.3068307
  59.4686299  31.7485631  24.3368598  58.8515470  31.0232459  24.2401651
  59.0002788  32.5094991  23.9935672  53.1353652  29.5217186  39.0767799
  53.8453271  28.8810378  39.0354418  53.0922960  29.7730080  39.9993980
  61.1240431  36.4584539  41.9974378  61.0652977  35.7743759  41.3304962
  61.5259949  37.2003529  41.5455004  51.8482586  26.5082404  40.8963439
  51.3119943  26.0573142  41.5485035  51.2599294  26.6428312  40.1533903
  50.1431130  43.2746453  34.7908097  50.3827728  43.9064977  35.4687116
  49.3000326  42.9234493  35.0773457  51.2584845  25.9671055  23.4589902
  50.3814311  25.8459856  23.0952149  51.7342598  25.1757133  23.2068791
  61.1257838  34.4224123  40.2288358  60.2384617  34.0850045  40.3514757
  61.6956389  33.6907154  40.4657124  42.7786985  30.7548215  33.5531410
  43.4658025  30.4409945  32.9652425  42.6235114  31.6589579  33.2798661
  47.5821707  25.6438411  37.9816433  47.4979896  25.0364081  37.2466843
  46.7604414  26.1347430  37.9825930  54.6558991  39.0825575  37.1949601
  54.5829163  39.8880547  37.7068906  54.2136384  39.2817541  36.3697623
  54.4448771  38.3197345  30.7052423  53.6616293  38.8619025  30.7990647
  55.1441516  38.8371325  31.1046664  57.7545421  24.1291975  33.3486628
  58.2514121  23.3761937  33.0287699  56.9832403  24.1656291  32.7829838
  65.6075179  29.8332340  34.9904920  65.5965055  30.7157056  34.6198853
  64.7392558  29.4803891  34.7959457  57.1157675  38.9812409  39.3507760
  57.8285647  39.6159874  39.2783661  56.6247704  39.0776275  38.5347762
  58.8375202  32.8863662  30.9225052  57.9031481  33.0065124  30.7529756
  59.0151870  31.9836129  30.6585062  54.3380390  26.2709358  33.0758313
  53.9678177  25.7180398  33.7639218  54.8339482  25.6667491  32.5233313
  62.2247753  28.7280981  31.4575086  62.6908205  29.5608973  31.3835388
  62.6755254  28.2625963  32.1620344  52.1669588  36.7306853  40.1713331
  52.8679048  37.3643336  40.3242725  51.6964703  37.0721584  39.4108970
  60.2923984  35.0724803  28.4561238  60.5683828  34.9581397  29.3655112
  59.4228483  34.6742287  28.4173411  60.1964416  21.0961568  35.4965987
  59.2827496  21.3265795  35.6648194  60.6257517  21.1800012  36.3480020
  59.9670874  29.2851460  37.9965881  59.3142325  29.5327368  37.3418334
  60.3451254  28.4715598  37.6628358  56.9278048  39.3211153  32.0994051
  57.1100443  38.5032809  32.5621804  57.7511034  39.5378846  31.6618941
  57.2620214  38.2479339  29.3609100  57.7907980  37.7371793  28.7479262
  57.5248433  37.9321869  30.2254633  56.0158447  30.0271271  44.4831918
  55.3399084  29.9265401  45.1534294  56.8386081  29.8710485  44.9467916
  47.7637306  36.2643208  37.1044434  48.3490743  35.5186896  37.2372338
  47.5662145  36.5747165  37.9881097  50.6175962  39.2994455  32.1206876
  49.9486337  39.7840583  31.6370916  50.4788831  39.5463676  33.0350254
  42.3554961  28.8348808  35.8248877  42.3939061  28.3012399  36.6185995
  41.8495254  28.3084014  35.2059854  54.7581230  41.3338199  38.7189534
  55.3099538  41.4969820  39.4838620  55.0987424  41.9242637  38.0469559
  49.7345724  23.6813349  39.3211419  49.7987050  24.5428179  38.9088817
  49.6712844  23.0687350  38.5883777  49.2097996  25.7536481  42.9684453
  49.8370035  25.3713558  43.5821978  48.3525915  25.5350683  43.3340146
  59.6092105  36.1599456  44.5738189  60.1532009  36.7729414  44.0793144
  59.0278949  36.7179035  45.0905202  45.9863539  27.5612910  28.9002808
  46.2816980  26.6523589  28.8469862  45.0851575  27.5400650  28.5783810
  57.8949618  39.2820174  35.7053216  57.7700757  38.4809914  35.1964162
  58.5528709  39.7766368  35.2167186  49.5157786  25.6368907  34.8830357
  48.7944372  26.2504874  34.7437830  50.3051042  26.1726672  34.8047003
  59.9584526  37.0829194  37.3332767  59.0114861  36.9634546  37.2611093
  60.3067299  36.1951692  37.4159028  52.3184099  22.9723333  41.1571008
  52.8418501  23.2185630  41.9197318  52.0996433  23.8043368  40.7374146
  47.7151380  25.2427008  29.0242133  47.3864087  24.3624387  28.8417239
  48.0690751  25.1874677  29.9118522  56.9630959  36.8781911  33.5337119
  56.8155922  35.9498618  33.7144689  57.7884453  36.9002001  33.0494194
  50.8293204  25.5299978  29.3917611  51.1689276  26.0585899  28.6696219
  51.2765324  25.8680384  30.1676177  60.5665081  37.7010469  34.6201992
  61.4911629  37.4953331  34.4826443  60.3980384  37.4526870  35.5291333
  53.5236644  23.9137028  38.8420679  53.1833465  23.1144841  39.2441359
  52.8175651  24.2138739  38.2697512  54.1753116  20.9986341  37.2948002
  54.9979186  20.5246819  37.1726892  54.4191180  21.7776825  37.7946688
  52.8161351  24.0274599  27.5910904  53.5369713  24.4055852  27.0874621
  52.1926655  24.7463476  27.6945882  56.9592474  24.7319748  28.5269236
  57.1756088  25.6144386  28.2258064  56.4786541  24.3405962  27.7974878
  51.6991695  27.6905461  35.1039981  51.5536276  28.0045764  35.9964262
  51.2216899  28.3090362  34.5510879  53.5588078  24.6808009  35.1520870
  53.5449647  23.7849103  34.8153168  54.2760506  24.6878673  35.7859156
  55.4114209  25.1145350  37.1973998  55.1531986  26.0362420  37.1958328
  54.8799249  24.7175784  37.8874462  60.3560397  38.2196137  29.9764083
  60.5297275  37.6542559  29.2237935  60.8489289  39.0197032  29.7943573
  46.1737357  30.2310806  38.0427642  45.6290825  31.0070614  38.1747916
  47.0516707  30.5781610  37.8846763  52.9624974  23.5622390  30.4208440
  53.0840885  22.6339036  30.6199328  52.6727016  23.5761076  29.5086756
  55.8316164  21.2477300  33.5575160  55.8537861  21.3116633  32.6027140
  56.2484223  20.4081809  33.7515666  66.2099788  30.9832560  31.5954383
  66.6530935  30.2339885  31.1973506  65.3326299  30.9742696  31.2128115
  61.3435570  37.5362901  27.0760981  62.0386474  38.1569594  27.2948296
  61.6858720  36.6858252  27.3513359  46.9603379  29.3580702  40.9357799
  46.2185115  29.5063337  41.5222429  46.6396123  29.6188968  40.0724548
  63.2426993  34.9862607  28.6048312  63.7678317  35.3249879  27.8797632
  63.1549345  34.0509622  28.4211447  54.9047042  38.8996680  40.7338189
  55.2134168  38.6545827  41.6060888  55.7022524  39.1043319  40.2457059
  54.9267654  41.0534590  32.9643565  54.4872644  40.5610969  33.6576422
  55.6775771  40.5107558  32.7235640  47.4059993  37.2446131  32.9668193
  48.2318013  36.9449903  32.5866837  47.0554045  36.4753753  33.4157982
  52.3741526  36.5972599  35.0365867  51.7521535  35.9343304  34.7368095
  53.0446393  36.6233731  34.3539515  45.6068598  35.1632457  33.9257127
  44.7700506  34.7354632  33.7441128  45.5792243  35.3564901  34.8627918
  52.4466053  25.0754387  44.6298373  52.4954209  25.9516510  44.2476142
  52.9888568  24.5331780  44.0570016  62.9320899  35.6195510  43.9099510
  62.1416443  35.6019649  43.3704009  62.6954254  36.1583804  44.6648547
  63.0518774  32.4687977  41.2232239  63.1016779  32.3037984  42.1647761
  62.9432697  31.6015236  40.8330119  51.9355033  35.1476522  28.5124327
  52.0843153  35.8311987  27.8591000  52.7421476  35.1281612  29.0273783
  60.3422536  28.4518905  42.5391545  61.2432399  28.3125370  42.2475543
  60.4170511  28.6173360  43.4789723  54.6765342  25.8285759  41.3844732
  53.8068651  26.1219326  41.1127320  54.9124822  26.4126204  42.1051995
  64.5536971  34.8884918  41.4674260  64.2621779  35.2514899  42.3037721
  63.9409102  34.1751926  41.2887592  65.7532653  32.4537798  33.9876830
  66.5879545  32.8927602  34.1514391  65.8891782  31.9776451  33.1685076
  62.8024159  30.0117533  39.9354318  63.2778281  30.2045179  39.1273169
  61.8789724  30.0676719  39.6897702  49.6907666  31.1741700  29.5185396
  49.4453708  30.2704030  29.7165606  49.8603580  31.1758850  28.5764874
  57.3804376  22.0465376  38.9010152  57.8986319  22.7826403  38.5756640
  57.0259508  22.3529370  39.7356911  48.9603313  26.9070058  27.0171558
  48.2672558  26.9814413  26.3611594  48.7155065  26.1430401  27.5393075
  57.6316970  18.4665659  34.4211049  57.9118724  17.7988848  35.0471475
  58.4167577  18.6594755  33.9085712  55.4350438  37.6424653  25.9836075
  54.8624405  38.2614840  25.5306547  56.0083232  38.1924014  26.5175997
  61.5025828  26.8883293  38.1682624  62.4543251  26.9881391  38.1894848
  61.3329279  26.0961561  38.6780708  59.5240208  23.9738876  38.3542025
  58.9290140  24.2543889  37.6588513  59.2389904  24.4632777  39.1258766
  58.6547698  37.9261803  27.1144657  59.5878371  37.8607365  27.3177533
  58.5670911  38.7618070  26.6559190  61.2835715  37.2427673  24.0748605
  61.2049346  36.9087537  24.9684363  62.1045382  37.7349441  24.0740077
  63.9813906  30.1089413  37.2824923  63.9490226  29.1705413  37.4684607
  64.5914530  30.1873449  36.5490748  55.8197237  28.9785466  23.3252127
  56.7656341  28.8491674  23.3940545  55.4411482  28.2400127  23.8021555
  64.1308394  26.9000456  37.3283206  63.6147443  26.1158913  37.1413135
  65.0148343  26.5719173  37.4929726  61.7919121  20.6441472  33.2879019
  61.5943942  20.3356560  34.1722351  62.4018827  21.3703111  33.4176949
  69.7990456  31.1705419  36.4230960  70.5293844  30.9090708  36.9838663
  69.1897401  30.4334141  36.4633028  67.8805753  29.3113282  37.0205411
  67.1538916  29.1769247  36.4121903  67.4653040  29.6190111  37.8262129
  55.7035929  33.0303212  44.7852784  56.6238939  33.2081811  44.9792831
  55.6685512  32.0859257  44.6332484  54.0040154  26.9035442  23.2607013
  53.0971609  26.6068555  23.3369726  54.2816135  26.6065260  22.3941299
  44.9218094  28.2241805  33.7106059  44.6020879  27.3707114  33.4180433
  44.3751522  28.4390384  34.4664026  48.6998002  30.9404246  37.4275565
  48.9184012  31.8721354  37.4463599  49.1123776  30.5812221  38.2130369
  55.6202220  21.4472332  29.4151254  54.8102948  21.1019417  29.7906500
  56.3086637  21.1379875  30.0038865  57.5492768  20.5250378  31.0375550
  58.1023807  20.9445832  31.6965574  57.7862854  19.5986127  31.0798506
  53.5725867  26.5137452  46.8178314  53.4722594  27.4631809  46.7490405
  53.3547409  26.1855691  45.9454384  52.7738939  23.7622377  23.4018992
  53.6358103  24.0877275  23.6614809  52.9589283  22.9753873  22.8892058
  44.7906354  31.8444717  35.6799181  44.0969826  31.4298670  35.1669135
  45.5379345  31.8865253  35.0832599  60.9271575  22.6350904  30.5454215
  60.3470244  23.2935708  30.1632267  60.6607508  21.8128248  30.1341632
  59.3775141  22.0355961  32.7475535  59.8774920  22.1472496  31.9389854
  60.0210749  21.7317014  33.3876344  53.4357137  29.9434591  45.6343376
  52.9524219  30.7434951  45.8407265  53.5218076  29.9542536  44.6810820
  46.7043097  31.7762971  33.5565195  46.6813785  31.8750658  32.6047079
  47.0143733  32.6228121  33.8782362  49.3630475  33.8339126  37.6711810
  50.3173728  33.8023068  37.6041741  49.1642998  33.3729749  38.4862036
  49.9529857  32.4040242  40.2382608  50.7722746  32.8984320  40.2617445
  50.2266665  31.4872210  40.2100175  59.7096453  24.7950994  29.6010563
  58.8222308  25.0800645  29.3830758  60.1250442  24.6344757  28.7537840
  63.0610989  24.8197515  33.3164902  63.8371379  25.3093967  33.5889519
  62.3359123  25.2455569  33.7736772  65.4983548  25.5325134  34.3738843
  66.0928039  25.2920870  33.6632151  65.5710131  24.8132265  35.0012379
  47.7180703  39.3758745  34.6882008  47.5835171  38.6159146  34.1220006
  47.3012766  40.0999645  34.2210797  58.8539666  34.5595669  23.6958583
  59.5575517  34.7645671  24.3116239  58.1302315  35.1272431  23.9607667
  59.6837477  30.3105530  29.8160853  59.6272678  30.7674081  28.9768486
  60.2365819  29.5496215  29.6383696  63.4942283  26.0995262  30.6410973
  63.2379217  25.6991897  31.4719180  62.8695151  26.8139056  30.5161112
  67.8054621  28.8391335  33.1482264  67.2454179  28.9084524  33.9213826
  67.1998124  28.6632320  32.4281760  50.8749829  40.2728062  34.9000450
  50.7582214  41.2173495  34.7979141  50.0542276  39.9701624  35.2886250
  60.7626364  34.9978198  25.7457043  61.5971968  34.5659396  25.5634518
  60.6010707  34.8260212  26.6733938  60.4172256  31.5010311  27.1113382
  60.3621060  31.3354583  26.1701826  59.7918311  32.2086344  27.2675572
  45.2064771  26.7378376  40.9374805  45.8523635  26.2277330  41.4262030
  44.9981922  27.4747057  41.5118230  57.7318163  33.8059223  46.4366945
  58.6009323  33.9799875  46.0753580  57.2524915  34.6253640  46.3142674
  53.7268382  21.0018420  26.6898701  53.7147051  21.9460260  26.8466972
  54.6191803  20.8188566  26.3958162  51.9004343  40.9256324  38.1156379
  52.8031590  40.9579934  38.4322874  51.6741714  39.9956775  38.1302715
  53.6557946  39.6787311  34.7766457  52.7053577  39.6789172  34.6630830
  53.9590432  38.9320045  34.2602492  57.5420501  17.5961197  30.9444638
  56.7752897  17.0419684  31.0901320  57.9531206  17.6683066  31.8058789
  49.5462262  23.8845993  45.0349819  50.4093724  23.5282797  45.2453143
  48.9727673  23.5459887  45.7225223  62.1043763  37.2926709  46.0279790
  61.7110708  36.7392908  46.7027435  62.9209903  37.6037288  46.4186308
  60.1653062  43.8940956  41.8978277  60.0506577  42.9926213  42.1985375
  59.3097580  44.1404652  41.5463093  57.0354737  47.0599222  30.7152931
  57.8729959  47.4696230  30.4986638  57.2133005  46.1198664  30.6853125
  64.2908313  37.1909076  34.8679744  65.1561310  36.9951885  34.5085633
  64.3585822  36.9619428  35.7949100  61.8970632  39.4211284  32.2396110
  62.4714384  39.1986466  31.5069303  62.4841615  39.4899979  32.9924712
  64.1993300  36.2952533  30.9671180  63.5457712  35.9801550  30.3427795
  64.1573774  35.6728273  31.6931003  65.3104505  46.5771828  22.8824472
  64.4031566  46.3461082  23.0815621  65.8075537  45.7809447  23.0698453
  70.7656552  33.9959251  32.9982066  71.0715429  33.1356614  32.7107981
  71.4909157  34.5876871  32.7981060  57.0580909  44.3989937  31.3863664
  56.8605308  43.8059298  30.6614731  56.5027573  44.0942147  32.1039603
  59.5527134  43.9253971  29.0704616  58.6224722  43.8638426  29.2874578
  59.6484606  43.4029924  28.2741258  59.4712683  40.4508784  31.6582858
  59.7319501  41.3654117  31.5492018  60.2929856  39.9833226  31.8079471
  62.0978599  41.2962973  23.4589902  61.2208066  41.1751773  23.0952149
  62.5736353  40.5049051  23.2068791  53.6180740  46.0840132  33.5531410
  54.3051779  45.7701862  32.9652425  53.4628868  46.9881497  33.2798661
  53.1948716  44.1640726  35.8248877  53.2332815  43.6304316  36.6185995
  52.6889009  43.6375931  35.2059854  60.5739478  39.0105266  39.3211419
  60.6380805  39.8720097  38.9088817  60.5106598  38.3979268  38.5883777
  60.0491751  41.0828399  42.9684453  60.6763789  40.7005476  43.5821978
  59.1919669  40.8642601  43.3340146  56.8257293  42.8904828  28.9002808
  57.1210734  41.9815506  28.8469862  55.9245329  42.8692567  28.5783810
  63.1577854  38.3015251  41.1571008  63.6812256  38.5477547  41.9197318
  62.9390187  39.1335286  40.7374146  58.5545135  40.5718925  29.0242133
  58.2257841  39.6916304  28.8417239  58.9084506  40.5166594  29.9118522
  66.6709919  36.5769218  33.5575160  66.6931615  36.6408551  32.6027140
  67.0877978  35.7373726  33.7515666  57.7997133  44.6872620  40.9357799
  57.0578870  44.8355255  41.5222429  57.4789878  44.9480885  40.0724548
  59.7997068  42.2361975  27.0171558  59.1066313  42.3106330  26.3611594
  59.5548820  41.4722319  27.5393075  68.4710724  33.7957577  34.4211049
  68.7512478  33.1280766  35.0471475  69.2561331  33.9886672  33.9085712
  66.6590991  44.3077383  23.3252127  67.6050096  44.1783591  23.3940545
  66.2805236  43.5692045  23.8021555  55.7611849  43.5533723  33.7106059
  55.4414633  42.6999031  33.4180433  55.2145277  43.7682301  34.4664026
  68.3886522  35.8542296  31.0375550  68.9417561  36.2737750  31.6965574
  68.6256609  34.9278044  31.0798506  63.6132693  39.0914295  23.4018992
  64.4751857  39.4169193  23.6614809  63.7983037  38.3045791  22.8892058
  55.6300109  47.1736635  35.6799181  54.9363580  46.7590587  35.1669135
  56.3773100  47.2157171  35.0832599  57.5436851  47.1054888  33.5565195
  57.5207539  47.2042576  32.6047079  57.8537488  47.9520039  33.8782362
  56.0458526  42.0670293  40.9374805  56.6917389  41.5569247  41.4262030
  55.8375677  42.8038975  41.5118230  64.5662136  36.3310338  26.6898701
  64.5540806  37.2752178  26.8466972  65.4585558  36.1480483  26.3958162
  68.3814255  32.9253115  30.9444638  67.6146651  32.3711601  31.0901320
  68.7924960  32.9974983  31.8058789  60.3856017  39.2137910  45.0349819
  61.2487478  38.8574715  45.2453143  59.8121427  38.8751805  45.7225223
  78.4780474  66.3173639  27.0785100  77.8268454  66.9027719  26.6919114
  79.2724837  66.8479834  27.1380138  79.9555739  64.0064071  27.6154085
  79.3201572  64.0798697  28.3274989  79.6253146  64.5957670  26.9373164
  85.1854089  58.5066454  33.8198406  85.9179261  57.9365671  34.0536236
  84.4293445  58.1188054  34.2604912  74.1831809  71.1844894  30.6459895
  74.1055838  72.1352719  30.7248376  73.5793452  70.8390767  31.3034822
  82.1209983  58.8862726  27.8250098  83.0327839  59.1190112  27.6497796
  81.6119630  59.4699770  27.2625177  91.0671550  61.6713645  33.6910716
  90.3135258  61.1021043  33.5354720  91.2019091  61.6376309  34.6381350
  76.4570178  66.5427047  29.3665435  76.3215852  67.3878583  29.7950283
  76.9979990  66.7446325  28.6031369  79.7712924  60.0566220  26.4036764
  79.2559547  60.8270825  26.6425151  79.4990232  59.3831356  27.0269825
  84.7447198  62.8098575  28.3389937  83.9676641  62.4709734  27.8945099
  85.4238679  62.8151198  27.6644902  76.1498259  61.9063746  22.8824472
  75.2425321  61.6752999  23.0815621  76.6469291  61.1101365  23.0698453
  79.0566338  70.6161253  25.8021158  78.3828037  70.9192950  26.4106116
  79.4432160  71.4190333  25.4526615  77.0262580  63.5485084  24.7436541
  76.5882010  62.8320943  24.2842178  77.7673021  63.7761199  24.1821632
  75.9672324  68.2339778  33.1982901  75.9248503  68.4600624  32.2691433
  76.8835023  68.0003153  33.3468702  85.1435695  61.8242281  30.8012859
  85.0053594  62.0143877  29.8734048  84.7871914  62.5861664  31.2580910
  77.2557553  70.7840925  28.0168237  77.4309309  70.3128969  28.8313860
  76.5690341  71.4106692  28.2449498  81.1473808  62.4069466  24.3368598
  80.5302979  61.6816294  24.2401651  80.6790297  63.1678826  23.9935672
  76.1236280  68.9781181  30.7052423  75.3403802  69.5202861  30.7990647
  76.8229025  69.4955160  31.1046664  87.2862688  60.4916176  34.9904920
  87.2752564  61.3740891  34.6198853  86.4180067  60.1387726  34.7959457
  83.9035262  59.3864817  31.4575086  84.3695714  60.2192808  31.3835388
  84.3542763  58.9209798  32.1620344  81.9711493  65.7308638  28.4561238
  82.2471337  65.6165232  29.3655112  81.1015992  65.3326123  28.4173411
  76.4368739  71.9922034  38.7189534  76.9887047  72.1553656  39.4838620
  76.7774933  72.5826472  38.0469559  81.2879614  66.8183292  44.5738189
  81.8319518  67.4313250  44.0793144  80.7066458  67.3762870  45.0905202
  87.8887297  61.6416395  31.5954383  88.3318444  60.8923720  31.1973506
  87.0113808  61.6326531  31.2128115  83.0223079  68.1946736  27.0760981
  83.7173983  68.8153429  27.2948296  83.3646229  67.3442088  27.3513359
  84.9214502  65.6446442  28.6048312  85.4465826  65.9833715  27.8797632
  84.8336854  64.7093457  28.4211447  76.6055163  71.7118425  32.9643565
  76.1660153  71.2194804  33.6576422  77.3563280  71.1691393  32.7235640
  84.6108408  66.2779346  43.9099510  83.8203952  66.2603484  43.3704009
  84.3741763  66.8167639  44.6648547  86.2324480  65.5468754  41.4674260
  85.9409288  65.9098734  42.3037721  85.6196611  64.8335762  41.2887592
  87.4320162  63.1121633  33.9876830  88.2667054  63.5511437  34.1514391
  87.5679291  62.6360287  33.1685076  77.1137947  68.3008488  25.9836075
  76.5411914  68.9198675  25.5306547  77.6870741  68.8507850  26.5175997
  80.3335207  68.5845638  27.1144657  81.2665880  68.5191200  27.3177533
  80.2458420  69.4201905  26.6559190  82.9623224  67.9011509  24.0748605
  82.8836855  67.5671372  24.9684363  83.7832890  68.3933277  24.0740077
  77.4984746  59.6369301  23.3252127  78.4443850  59.5075509  23.3940545
  77.1198991  58.8983963  23.8021555  91.4777965  61.8289255  36.4230960
  92.2081353  61.5674543  36.9838663  90.8684910  61.0917977  36.4633028
  89.5593262  59.9697117  37.0205411  88.8326425  59.8353082  36.4121903
  89.1440549  60.2773946  37.8262129  87.1771057  56.1908970  34.3738843
  87.7715548  55.9504706  33.6632151  87.2497640  55.4716100  35.0012379
  80.5327175  65.2179504  23.6958583  81.2363026  65.4229507  24.3116239
  79.8089824  65.7856266  23.9607667  81.3624986  60.9689365  29.8160853
  81.3060187  61.4257917  28.9768486  81.9153328  60.2080050  29.6383696
  85.1729792  56.7579097  30.6410973  84.9166726  56.3575733  31.4719180
  84.5482660  57.4722891  30.5161112  89.4842130  59.4975170  33.1482264
  88.9241688  59.5668360  33.9213826  88.8785633  59.3216155  32.4281760
  82.4413873  65.6562033  25.7457043  83.2759477  65.2243232  25.5634518
  82.2798216  65.4844047  26.6733938  82.0959765  62.1594147  27.1113382
  82.0408569  61.9938418  26.1701826  81.4705820  62.8670179  27.2675572
  79.4105672  64.4643058  46.4366945  80.2796832  64.6383711  46.0753580
  78.9312424  65.2837475  46.3142674  91.0698148  76.1731684  35.8412220
  91.7076558  76.0538432  35.1375560  90.9518991  77.1212528  35.9000172
  87.8787854  76.1259112  35.7773744  87.5406366  76.0100177  34.8894279
  88.7477622  75.7250278  35.7574751  83.7374670  77.9794589  31.7670635
  83.1739535  77.8884526  30.9986923  83.6227065  77.1594493  32.2473128
  88.3607637  77.2793964  41.7359950  88.3496278  76.8846762  40.8640454
  88.5228277  76.5460037  42.3293721  81.2839102  79.4745780  34.6054856
  82.0760394  79.1336605  34.1901155  81.5235752  79.5840756  35.5257009
  89.3174229  81.6465557  27.0785100  88.6662208  82.2319637  26.6919114
  90.1118591  82.1771751  27.1380138  83.2429856  78.7354694  27.4772235
  84.0160732  78.1883681  27.3385110  83.5955255  79.5998943  27.6886696
  85.0814898  80.0631076  40.6839134  84.7904764  80.9676707  40.5685800
  85.7171883  80.1047604  41.3983204  86.0071105  77.4407925  37.2740494
  86.6034677  77.2163947  36.5597457  86.0646077  76.6992670  37.8765941
  85.5796134  74.8947360  25.1090685  85.8321654  74.3728881  24.3474148
  84.6420693  74.7313505  25.2117368  90.6239416  73.8983138  32.9165428
  91.4102506  73.4802561  32.5655845  90.8878121  74.8029230  33.0847076
  90.7949494  79.3355989  27.6154085  90.1595327  79.4090615  28.3274989
  90.4646900  79.9249587  26.9373164  96.0247844  73.8358371  33.8198406
  96.7573016  73.2657588  34.0536236  95.2687199  73.4479972  34.2604912
  85.2992422  76.7975466  27.3115060  85.1828680  76.1220369  27.9796144
  85.4094682  76.3107840  26.4947213  87.6423963  76.2585613  31.0161749
  87.2782171  75.7316234  31.7274670  88.4991079  75.8684082  30.8428234
  93.5473264  67.5479946  38.2793015  93.2156589  68.4175356  38.0554230
  92.9518877  67.2316230  38.9587045  87.2829450  71.2875513  26.0123097
  87.4503853  72.1555749  26.3793568  87.0926619  71.4502794  25.0884387
  90.0404783  79.7492491  37.6788928  89.7405507  80.6517530  37.5704735
  89.6955843  79.4824675  38.5310081  83.4917265  76.2006288  33.7125632
  82.5667761  76.0682502  33.9203324  83.7401678  76.9800508  34.2095575
  93.4401927  72.2675032  35.3586365  92.5318805  72.1990440  35.0645126
  93.3889523  72.7446977  36.1868190  87.2618671  73.7433170  26.9969764
  87.1418296  74.1890221  27.8355244  86.5671260  74.0918488  26.4383302
  80.8526076  75.8439562  34.5469421  80.9818457  76.0974041  35.4608833
  80.1723527  76.4367270  34.2274076  85.0225563  86.5136812  30.6459895
  84.9449593  87.4644637  30.7248376  84.4187207  86.1682684  31.3034822
  87.5142793  73.6864677  43.3021262  86.7376127  74.2458597  43.2924127
  88.1533356  74.1721460  43.8236132  95.3063574  70.4691470  37.1364239
  94.6637954  70.7624003  36.4904034  94.8018502  70.3544390  37.9417436
  92.9603737  74.2154643  27.8250098  93.8721593  74.4482030  27.6497796
  92.4513384  74.7991687  27.2625177  85.7689165  76.4950131  42.8639229
  86.5103850  77.0335175  42.5874053  85.0626151  77.1216419  43.0210781
  91.2444505  78.6379271  41.4611391  91.6527861  78.1961682  40.7166023
  90.5221766  78.0631899  41.7145584  87.5975575  73.5751878  38.8344948
  88.4436770  73.9991291  38.9779597  87.5374213  72.9185502  39.5283511
  91.5673320  79.1980462  35.2163680  90.9382182  79.3626176  34.5139748
  91.1798982  79.6122071  35.9874644  95.4462552  80.1334900  32.5708043
  94.7613590  80.5133801  32.0205077  95.5306401  80.7430226  33.3039991
  90.7475020  71.2356246  40.4926121  90.5035952  71.9898307  39.9560397
  91.0234951  71.6141594  41.3273368  92.7013483  77.7794859  39.1703387
  92.9130378  78.4226618  38.4937768  92.6543231  76.9457175  38.7025317
  90.3039712  70.3912679  36.0739959  89.4424191  70.6893933  36.3656697
  90.3302147  70.6083078  35.1420992  87.1201282  78.9354870  32.4813765
  87.5839627  79.2142573  31.6918387  86.8558080  78.0338314  32.2986855
  84.0125363  78.4826351  35.4193528  84.5826720  78.9113620  34.7811013
  84.6033474  78.2008936  36.1177714  86.0570168  75.0578022  29.2903330
  86.7594211  75.5099066  29.7577256  85.7250796  74.4161841  29.9183223
  84.5050529  73.6489779  43.6654539  83.8749190  74.3306060  43.8989936
  84.3986617  73.5372860  42.7207678  79.7995502  73.3161575  34.5920463
  79.0094556  73.5719103  34.1160574  80.2906749  74.1309913  34.6972504
  93.8159311  80.6566814  37.3425744  94.6376755  80.2547001  37.0608426
  93.8121714  80.5535048  38.2941860  81.7510247  73.6806154  31.5503940
  80.9541410  73.7924848  32.0687436  81.5235839  74.0192806  30.6844831
  87.5815915  80.2050857  39.4986455  87.6460347  80.6671265  40.3344627
  86.8726838  79.5748222  39.6268765  78.0833205  73.5692065  37.0235454
  78.3341243  74.4539075  37.2893030  78.6192753  73.3896667  36.2510546
 101.9065304  77.0005562  33.6910716 101.1529013  76.4312961  33.5354720
 102.0412845  76.9668227  34.6381350  87.2963932  81.8718965  29.3665435
  87.1609607  82.7170501  29.7950283  87.8373745  82.0738242  28.6031369
  83.7831272  67.9510545  46.0279790  83.3898217  67.3976743  46.7027435
  84.5997412  68.2621123  46.4186308  80.7493330  79.3894403  29.9393360
  81.2617850  80.1837653  30.0898925  81.4016042  78.6920693  29.8726962
  82.5588214  82.5060159  32.0216113  82.7354843  83.4278124  31.8337097
  83.3545048  82.1918578  32.4510493  86.6999233  69.3668424  43.6200047
  87.4408946  69.9675577  43.5404509  86.9317156  68.6246062  43.0618089
  81.8440571  74.5524791  41.8978277  81.7294086  73.6510048  42.1985375
  80.9885089  74.7988488  41.5463093  88.9232409  82.4942531  43.4965777
  88.4796263  81.7078910  43.1786682  89.5849622  82.6821682  42.8309668
  83.6819530  84.0238333  38.0226456  84.2326955  83.8955396  37.2503450
  82.8431006  84.3233222  37.6721348  91.0213647  82.7745331  41.5247178
  91.0032122  83.5954212  41.0327448  91.9433567  82.6499406  41.7497320
  87.4786701  80.2889461  42.3670687  88.0115038  79.5277749  42.1369995
  86.9500782  79.9963113  43.1094841  90.6456396  65.3949527  37.8964329
  90.3020665  66.2851168  37.8203439  91.0135358  65.2051184  37.0333914
  78.7142246  77.7183057  30.7152931  79.5517468  78.1280066  30.4986638
  78.8920514  76.7782499  30.6853125  90.6106678  75.3858138  26.4036764
  90.0953302  76.1562742  26.6425151  90.3383987  74.7123274  27.0269825
  88.1953790  70.2307839  31.4622002  87.3395386  69.8414689  31.2827641
  88.6080741  70.3099799  30.6021788  89.7252936  67.7654182  35.8613562
  89.2217732  67.7284317  35.0481367  90.0183543  68.6746925  35.9210218
  85.9695822  67.8492912  34.8679744  86.8348819  67.6535720  34.5085633
  86.0373331  67.6203263  35.7949100  95.5840953  78.1390492  28.3389937
  94.8070395  77.8001652  27.8945099  96.2632434  78.1443116  27.6644902
  90.3992982  73.2585230  28.2296545  90.0943117  73.5731379  29.0806688
  91.3523424  73.3366650  28.2723878  88.8439413  79.4175453  29.8789499
  88.3160775  78.6828213  29.5662736  88.3426916  80.1950130  29.6329467
  93.8232260  77.6124474  34.9956545  93.1655934  78.3023735  35.0836674
  94.6272659  78.0020906  35.3390531  83.5758141  70.0795119  32.2396110
  84.1501893  69.8570301  31.5069303  84.1629124  70.1483814  32.9924712
  92.6337718  75.9668846  33.0460487  93.1469600  76.5998838  33.5482197
  93.2838942  75.3670042  32.6803847  83.9027728  72.1099581  26.2591996
  83.0665040  72.4474267  26.5801270  83.7632498  71.9748560  25.3219133
  85.8780809  66.9536368  30.9671180  85.2245221  66.6385386  30.3427795
  85.8361283  66.3312109  31.6931003  86.9892014  77.2355663  22.8824472
  86.0819075  77.0044917  23.0815621  87.4863046  76.4393283  23.0698453
  89.8960093  85.9453171  25.8021158  89.2221791  86.2484867  26.4106116
  90.2825915  86.7482251  25.4526615  89.1118549  73.4418302  35.2918827
  88.1941111  73.6633249  35.1340515  89.5278693  73.5164612  34.4330535
  89.8953597  74.8409718  30.4221508  90.6425416  75.3531115  30.1128630
  90.1645186  74.5193770  31.2825901  88.1680247  77.3368258  27.4048462
  87.2591466  77.0527291  27.5020932  88.1975331  77.7567337  26.5451769
  93.3999515  80.9474848  31.1739630  92.9461842  80.1065758  31.2304820
  92.7693481  81.5836246  31.5114410  92.3432434  71.8766834  32.4040297
  91.6055191  71.3644220  32.7350540  92.5959208  71.4367215  31.5923574
  91.8432454  82.7851345  32.1089448  92.1355428  83.3456402  31.3901813
  92.3531074  83.0779906  32.8642607  92.4444061  64.6543086  32.9982066
  92.7502938  63.7940449  32.7107981  93.1696666  65.2460706  32.7981060
  78.7368417  75.0573772  31.3863664  78.5392817  74.4643133  30.6614731
  78.1815081  74.7525983  32.1039603  86.7165141  74.9496879  33.5058257
  86.7713751  73.9970715  33.4300734  85.9056343  75.1056318  33.9899556
  87.8656335  78.8777002  24.7436541  87.4275765  78.1612861  24.2842178
  88.6066776  79.1053117  24.1821632  84.6557501  73.5673939  31.2648636
  83.8425367  73.8668109  31.6713828  85.1516495  73.1729627  31.9823118
  86.8066079  83.5631696  33.1982901  86.7642258  83.7892542  32.2691433
  87.7228778  83.3295070  33.3468702  90.2531713  74.0315763  40.0963530
  90.6081100  74.2587236  40.9557996  90.9003844  74.3634140  39.4740785
  95.9829450  77.1534199  30.8012859  95.8447348  77.3435795  29.8734048
  95.6265669  77.9153582  31.2580910  84.1471576  71.1392294  36.8809871
  84.7870955  70.9981053  36.1832834  83.3149106  70.8526808  36.5048473
  96.0098829  79.2210726  35.8124131  96.4435336  79.1286015  36.6607185
  96.7230410  79.1968227  35.1744147  84.9231880  80.4394725  32.9944864
  85.7172478  79.9445045  32.7927439  84.2123572  79.9112588  32.6312569
  89.7426724  82.8212820  37.3457231  89.7963746  83.3903756  38.1134947
  88.8741506  82.9914705  36.9811268  81.2314643  74.5837806  29.0704616
  80.3012231  74.5222262  29.2874578  81.3272115  74.0613759  28.2741258
  82.6225118  72.5230376  38.8281682  83.2948171  72.3147738  38.1794331
  81.7954904  72.3252462  38.3886915  96.8714379  79.2634427  38.3457016
  97.0650269  80.1680237  38.5916291  96.7714997  78.8041846  39.1795601
  88.5250690  69.1492317  40.8447343  87.8778605  69.8482267  40.7511820
  89.2951705  69.5828461  41.2123592  91.9329488  79.4141169  43.9197897
  91.7814994  79.1851721  43.0027980  91.9234167  80.3711771  43.9329242
  88.7014824  76.9873082  38.9044163  89.6306884  77.1384242  38.7313130
  88.2805854  77.0757103  38.0492810  87.5003156  81.0123747  36.6742701
  87.3614241  80.6442531  37.5468639  86.7117752  81.5271386  36.5026658
  88.0951308  86.1132843  28.0168237  88.2703063  85.6420886  28.8313860
  87.4084096  86.7398609  28.2449498  89.0508371  80.3905349  34.0631538
  88.7158203  80.3506119  34.9589188  88.5512317  79.7250065  33.5901949
  83.0252615  75.7972979  39.5884120  82.8872413  75.0653218  40.1895659
  83.9357538  75.7081879  39.3068307  91.9867563  77.7361384  24.3368598
  91.3696733  77.0108212  24.2401651  91.5184051  78.4970744  23.9935672
  85.6534916  75.5092939  39.0767799  86.3634534  74.8686131  39.0354418
  85.6104224  75.7605834  39.9993980  93.6421694  82.4460292  41.9974378
  93.5834240  81.7619512  41.3304962  94.0441213  83.1879282  41.5455004
  84.3663849  72.4958157  40.8963439  83.8301207  72.0448895  41.5485035
  83.7780558  72.6304065  40.1533903  82.6612393  89.2622206  34.7908097
  82.9008991  89.8940730  35.4687116  81.8181589  88.9110246  35.0773457
  83.7766108  71.9546808  23.4589902  82.8995575  71.8335609  23.0952149
  84.2523862  71.1632886  23.2068791  93.6439101  80.4099876  40.2288358
  92.7565880  80.0725798  40.3514757  94.2137653  79.6782907  40.4657124
  87.1740255  85.0701328  37.1949601  87.1010426  85.8756300  37.7068906
  86.7317648  85.2693294  36.3697623  86.9630034  84.3073098  30.7052423
  86.1797556  84.8494779  30.7990647  87.6622780  84.8247078  31.1046664
  90.2726685  70.1167728  33.3486628  90.7695384  69.3637690  33.0287699
  89.5013666  70.1532044  32.7829838  98.1256442  75.8208093  34.9904920
  98.1146318  76.7032809  34.6198853  97.2573821  75.4679644  34.7959457
  89.6338938  84.9688162  39.3507760  90.3466911  85.6035627  39.2783661
  89.1428967  85.0652028  38.5347762  91.3556465  78.8739415  30.9225052
  90.4212744  78.9940877  30.7529756  91.5333134  77.9711882  30.6585062
  86.8561653  72.2585111  33.0758313  86.4859441  71.7056151  33.7639218
  87.3520746  71.6543244  32.5233313  94.7429017  74.7156734  31.4575086
  95.2089469  75.5484726  31.3835388  95.1936517  74.2501716  32.1620344
  84.6850852  82.7182606  40.1713331  85.3860311  83.3519089  40.3242725
  84.2145967  83.0597337  39.4108970  92.8105248  81.0600556  28.4561238
  93.0865092  80.9457150  29.3655112  91.9409746  80.6618040  28.4173411
  92.7145679  67.0837321  35.4965987  91.8008759  67.3141548  35.6648194
  93.1438781  67.1675765  36.3480020  92.4852138  75.2727213  37.9965881
  91.8323588  75.5203121  37.3418334  92.8632518  74.4591351  37.6628358
  89.4459312  85.3086906  32.0994051  89.6281706  84.4908562  32.5621804
  90.2692298  85.5254599  31.6618941  89.7801477  84.2355092  29.3609100
  90.3089244  83.7247546  28.7479262  90.0429697  83.9197622  30.2254633
  88.5339711  76.0147024  44.4831918  87.8580348  75.9141154  45.1534294
  89.3567345  75.8586238  44.9467916  80.2818570  82.2518961  37.1044434
  80.8672007  81.5062649  37.2372338  80.0843408  82.5622918  37.9881097
  83.1357225  85.2870208  32.1206876  82.4667600  85.7716336  31.6370916
  82.9970095  85.5339429  33.0350254  87.2762494  87.3213952  38.7189534
  87.8280802  87.4845573  39.4838620  87.6168687  87.9118390  38.0469559
  81.7279260  71.7412234  42.9684453  82.3551298  71.3589311  43.5821978
  80.8707178  71.5226436  43.3340146  92.1273368  82.1475209  44.5738189
  92.6713272  82.7605168  44.0793144  91.5460213  82.7054788  45.0905202
  78.5044802  73.5488663  28.9002808  78.7998243  72.6399342  28.8469862
  77.6032838  73.5276403  28.5783810  90.4130881  85.2695927  35.7053216
  90.2882021  84.4685667  35.1964162  91.0709972  85.7642121  35.2167186
  82.0339049  71.6244660  34.8830357  81.3125635  72.2380627  34.7437830
  82.8232305  72.1602425  34.8047003  92.4765789  83.0704947  37.3332767
  91.5296125  82.9510299  37.2611093  92.8248563  82.1827445  37.4159028
  84.8365363  68.9599086  41.1571008  85.3599765  69.2061383  41.9197318
  84.6177696  69.7919121  40.7374146  80.2332644  71.2302761  29.0242133
  79.9045350  70.3500140  28.8417239  80.5872015  71.1750430  29.9118522
  89.4812223  82.8657664  33.5337119  89.3337185  81.9374371  33.7144689
  90.3065716  82.8877754  33.0494194  83.3474467  71.5175731  29.3917611
  83.6870540  72.0461652  28.6696219  83.7946588  71.8556137  30.1676177
  93.0846345  83.6886222  34.6201992  94.0092892  83.4829084  34.4826443
  92.9161648  83.4402623  35.5291333  86.0417908  69.9012781  38.8420679
  85.7014728  69.1020594  39.2441359  85.3356914  70.2014492  38.2697512
  86.6934380  66.9862094  37.2948002  87.5160449  66.5122572  37.1726892
  86.9372443  67.7652578  37.7946688  85.3342614  70.0150352  27.5910904
  86.0550977  70.3931605  27.0874621  84.7107918  70.7339229  27.6945882
  89.4773737  70.7195501  28.5269236  89.6937351  71.6020139  28.2258064
  88.9967804  70.3281715  27.7974878  84.2172958  73.6781214  35.1039981
  84.0717539  73.9921518  35.9964262  83.7398162  74.2966115  34.5510879
  86.0769341  70.6683762  35.1520870  86.0630910  69.7724856  34.8153168
  86.7941769  70.6754426  35.7859156  87.9295472  71.1021103  37.1973998
  87.6713250  72.0238173  37.1958328  87.3980512  70.7051537  37.8874462
  92.8741661  84.2071890  29.9764083  93.0478538  83.6418312  29.2237935
  93.3670552  85.0072785  29.7943573  78.6918621  76.2186559  38.0427642
  78.1472089  76.9946367  38.1747916  79.5697970  76.5657363  37.8846763
  85.4806237  69.5498143  30.4208440  85.6022148  68.6214789  30.6199328
  85.1908280  69.5636829  29.5086756  88.3497428  67.2353053  33.5575160
  88.3719124  67.2992386  32.6027140  88.7665487  66.3957562  33.7515666
  98.7281052  76.9708313  31.5954383  99.1712198  76.2215638  31.1973506
  97.8507562  76.9618449  31.2128115  93.8616833  83.5238654  27.0760981
  94.5567738  84.1445347  27.2948296  94.2039983  82.6734005  27.3513359
  79.4784642  75.3456455  40.9357799  78.7366378  75.4939090  41.5222429
  79.1577387  75.6064721  40.0724548  95.7608256  80.9738360  28.6048312
  96.2859580  81.3125632  27.8797632  95.6730609  80.0385375  28.4211447
  87.4228305  84.8872433  40.7338189  87.7315432  84.6421580  41.6060888
  88.2203787  85.0919072  40.2457059  87.4448917  87.0410343  32.9643565
  87.0053907  86.5486722  33.6576422  88.1957034  86.4983311  32.7235640
  79.9241256  83.2321884  32.9668193  80.7499276  82.9325656  32.5866837
  79.5735308  82.4629506  33.4157982  84.8922789  82.5848352  35.0365867
  84.2702799  81.9219057  34.7368095  85.5627656  82.6109484  34.3539515
  78.1249861  81.1508210  33.9257127  77.2881769  80.7230385  33.7441128
  78.0973507  81.3440654  34.8627918  84.9647317  71.0630140  44.6298373
  85.0135472  71.9392263  44.2476142  85.5069831  70.5207533  44.0570016
  95.4502162  81.6071263  43.9099510  94.6597706  81.5895402  43.3704009
  95.2135517  82.1459557  44.6648547  95.5700038  78.4563730  41.2232239
  95.6198042  78.2913737  42.1647761  95.4613961  77.5890989  40.8330119
  84.4536296  81.1352275  28.5124327  84.6024417  81.8187740  27.8591000
  85.2602740  81.1157365  29.0273783  92.8603800  74.4394658  42.5391545
  93.7613663  74.3001123  42.2475543  92.9351774  74.6049113  43.4789723
  87.1946605  71.8161512  41.3844732  86.3249915  72.1095079  41.1127320
  87.4306086  72.4001957  42.1051995  97.0718234  80.8760671  41.4674260
  96.7803043  81.2390652  42.3037721  96.4590366  80.1627679  41.2887592
  98.2713917  78.4413551  33.9876830  99.1060808  78.8803355  34.1514391
  98.4073045  77.9652204  33.1685076  95.3205423  75.9993286  39.9354318
  95.7959544  76.1920932  39.1273169  94.3970988  76.0552472  39.6897702
  82.2088929  77.1617453  29.5185396  81.9634971  76.2579783  29.7165606
  82.3784844  77.1634603  28.5764874  89.8985639  68.0341129  38.9010152
  90.4167583  68.7702156  38.5756640  89.5440772  68.3405123  39.7356911
  81.4784577  72.8945811  27.0171558  80.7853822  72.9690166  26.3611594
  81.2336329  72.1306154  27.5393075  90.1498233  64.4541412  34.4211049
  90.4299987  63.7864601  35.0471475  90.9348840  64.6470508  33.9085712
  87.9531702  83.6300406  25.9836075  87.3805669  84.2490593  25.5306547
  88.5264495  84.1799768  26.5175997  94.0207092  72.8759046  38.1682624
  94.9724514  72.9757144  38.1894848  93.8510542  72.0837314  38.6780708
  92.0421471  69.9614629  38.3542025  91.4471403  70.2419642  37.6588513
  91.7571168  70.4508530  39.1258766  91.1728962  83.9137556  27.1144657
  92.1059635  83.8483118  27.3177533  91.0852174  84.7493823  26.6559190
  93.8016978  83.2303426  24.0748605  93.7230610  82.8963290  24.9684363
  94.6226645  83.7225194  24.0740077  96.4995169  76.0965166  37.2824923
  96.4671489  75.1581166  37.4684607  97.1095793  76.1749202  36.5490748
  88.3378500  74.9661219  23.3252127  89.2837605  74.8367427  23.3940545
  87.9592745  74.2275880  23.8021555  96.6489658  72.8876209  37.3283206
  96.1328707  72.1034666  37.1413135  97.5329606  72.5594926  37.4929726
  94.3100385  66.6317225  33.2879019  94.1125206  66.3232313  34.1722351
  94.9200090  67.3578864  33.4176949 102.3171719  77.1581172  36.4230960
 103.0475108  76.8966461  36.9838663 101.7078665  76.4209894  36.4633028
 100.3987016  75.2989035  37.0205411  99.6720180  75.1645000  36.4121903
  99.9834303  75.6065864  37.8262129  88.2217193  79.0178965  44.7852784
  89.1420202  79.1957564  44.9792831  88.1866776  78.0735010  44.6332484
  86.5221417  72.8911195  23.2607013  85.6152873  72.5944308  23.3369726
  86.7997398  72.5941013  22.3941299  81.2179265  76.9279999  37.4275565
  81.4365275  77.8597107  37.4463599  81.6305039  76.5687974  38.2130369
  88.1383483  67.4348085  29.4151254  87.3284211  67.0895170  29.7906500
  88.8267900  67.1255628  30.0038865  90.0674031  66.5126132  31.0375550
  90.6205070  66.9321585  31.6965574  90.3044118  65.5861880  31.0798506
  86.0907131  72.5013205  46.8178314  85.9903858  73.4507562  46.7490405
  85.8728673  72.1731444  45.9454384  85.2920202  69.7498130  23.4018992
  86.1539366  70.0753029  23.6614809  85.4770546  68.9629626  22.8892058
  93.4452838  68.6226657  30.5454215  92.8651508  69.2811461  30.1632267
  93.1788771  67.8004001  30.1341632  91.8956405  68.0231714  32.7475535
  92.3956183  68.1348249  31.9389854  92.5392013  67.7192767  33.3876344
  85.9538401  75.9310344  45.6343376  85.4705482  76.7310704  45.8407265
  86.0399340  75.9418289  44.6810820  79.2224360  77.7638724  33.5565195
  79.1995048  77.8626411  32.6047079  79.5324997  78.6103874  33.8782362
  81.8811738  79.8214879  37.6711810  82.8354992  79.7898821  37.6041741
  81.6824262  79.3605502  38.4862036  82.4711120  78.3915995  40.2382608
  83.2904009  78.8860073  40.2617445  82.7447928  77.4747963  40.2100175
  92.2277717  70.7826747  29.6010563  91.3403572  71.0676398  29.3830758
  92.6431706  70.6220510  28.7537840  95.5792253  70.8073268  33.3164902
  96.3552643  71.2969720  33.5889519  94.8540387  71.2331322  33.7736772
  98.0164811  71.5200887  34.3738843  98.6109302  71.2796623  33.6632151
  98.0891395  70.8008018  35.0012379  80.2361967  85.3634498  34.6882008
  80.1016435  84.6034899  34.1220006  79.8194029  86.0875398  34.2210797
  91.3720930  80.5471422  23.6958583  92.0756780  80.7521424  24.3116239
  90.6483579  81.1148184  23.9607667  92.2018740  76.2981283  29.8160853
  92.1453942  76.7549834  28.9768486  92.7547083  75.5371968  29.6383696
  96.0123546  72.0871015  30.6410973  95.7560480  71.6867651  31.4719180
  95.3876414  72.8014809  30.5161112 100.3235884  74.8267088  33.1482264
  99.7635442  74.8960277  33.9213826  99.7179387  74.6508073  32.4281760
  83.3931093  86.2603815  34.9000450  83.2763477  87.2049248  34.7979141
  82.5723539  85.9577377  35.2886250  93.2807627  80.9853951  25.7457043
  94.1153231  80.5535149  25.5634518  93.1191970  80.8135965  26.6733938
  92.9353520  77.4886064  27.1113382  92.8802323  77.3230336  26.1701826
  92.3099575  78.1962097  27.2675572  77.7246035  72.7254129  40.9374805
  78.3704898  72.2153083  41.4262030  77.5163186  73.4622810  41.5118230
  90.2499427  79.7934976  46.4366945  91.1190586  79.9675628  46.0753580
  89.7706178  80.6129393  46.3142674  86.2449645  66.9894173  26.6898701
  86.2328315  67.9336013  26.8466972  87.1373067  66.8064319  26.3958162
  84.4185607  86.9132077  38.1156379  85.3212854  86.9455687  38.4322874
  84.1922977  85.9832528  38.1302715  86.1739209  85.6663064  34.7766457
  85.2234840  85.6664925  34.6630830  86.4771695  84.9195798  34.2602492
  90.0601764  63.5836950  30.9444638  89.2934160  63.0295437  31.0901320
  90.4712469  63.6558819  31.8058789  82.0643526  69.8721746  45.0349819
  82.9274987  69.5158551  45.2453143  81.4908936  69.5335640  45.7225223
 101.9091902  91.5023602  35.8412220 102.5470312  91.3830349  35.1375560
 101.7912745  92.4504446  35.9000172  98.7181609  91.4551030  35.7773744
  98.3800120  91.3392095  34.8894279  99.5871377  91.0542195  35.7574751
  94.5768424  93.3086507  31.7670635  94.0133290  93.2176443  30.9986923
  94.4620819  92.4886411  32.2473128  99.2001392  92.6085882  41.7359950
  99.1890033  92.2138680  40.8640454  99.3622031  91.8751954  42.3293721
  92.1232856  94.8037698  34.6054856  92.9154148  94.4628523  34.1901155
  92.3629507  94.9132673  35.5257009 100.1567983  96.9757474  27.0785100
  99.5055963  97.5611555  26.6919114 100.9512346  97.5063669  27.1380138
  94.0823610  94.0646611  27.4772235  94.8554486  93.5175598  27.3385110
  94.4349009  94.9290861  27.6886696  95.9208653  95.3922994  40.6839134
  95.6298519  96.2968625  40.5685800  96.5565637  95.4339521  41.3983204
  96.8464860  92.7699842  37.2740494  97.4428432  92.5455865  36.5597457
  96.9039831  92.0284588  37.8765941  96.4189888  90.2239278  25.1090685
  96.6715409  89.7020799  24.3474148  95.4814447  90.0605423  25.2117368
 101.4633171  89.2275056  32.9165428 102.2496260  88.8094479  32.5655845
 101.7271875  90.1321148  33.0847076 101.6343248  94.6647906  27.6154085
 100.9989081  94.7382533  28.3274989 101.3040655  95.2541505  26.9373164
 106.8641598  89.1650289  33.8198406 107.5966770  88.5949506  34.0536236
 106.1080954  88.7771890  34.2604912  96.1386177  92.1267383  27.3115060
  96.0222435  91.4512287  27.9796144  96.2488437  91.6399757  26.4947213
  98.4817718  91.5877531  31.0161749  98.1175925  91.0608152  31.7274670
  99.3384834  91.1976000  30.8428234 104.3867018  82.8771863  38.2793015
 104.0550343  83.7467274  38.0554230 103.7912632  82.5608147  38.9587045
  98.1223205  86.6167430  26.0123097  98.2897607  87.4847667  26.3793568
  97.9320374  86.7794712  25.0884387 100.8798538  95.0784409  37.6788928
 100.5799261  95.9809448  37.5704735 100.5349597  94.8116592  38.5310081
  94.3311019  91.5298206  33.7125632  93.4061516  91.3974420  33.9203324
  94.5795433  92.3092425  34.2095575 104.2795682  87.5966949  35.3586365
 103.3712559  87.5282358  35.0645126 104.2283278  88.0738894  36.1868190
  98.1012426  89.0725088  26.9969764  97.9812051  89.5182139  27.8355244
  97.4065014  89.4210405  26.4383302  91.6919830  91.1731480  34.5469421
  91.8212212  91.4265958  35.4608833  91.0117282  91.7659188  34.2274076
  95.8619318 101.8428730  30.6459895  95.7843347 102.7936555  30.7248376
  95.2580961 101.4974602  31.3034822  98.3536548  89.0156595  43.3021262
  97.5769882  89.5750515  43.2924127  98.9927111  89.5013378  43.8236132
 106.1457328  85.7983388  37.1364239 105.5031708  86.0915921  36.4904034
 105.6412257  85.6836308  37.9417436 103.7997492  89.5446561  27.8250098
 104.7115348  89.7773948  27.6497796 103.2907139  90.1283605  27.2625177
  96.6082920  91.8242048  42.8639229  97.3497604  92.3627092  42.5874053
  95.9019905  92.4508337  43.0210781 102.0838259  93.9671189  41.4611391
 102.4921616  93.5253599  40.7166023 101.3615521  93.3923816  41.7145584
  98.4369330  88.9043796  38.8344948  99.2830525  89.3283209  38.9779597
  98.3767967  88.2477420  39.5283511 102.4067074  94.5272379  35.2163680
 101.7775937  94.6918094  34.5139748 102.0192736  94.9413989  35.9874644
 106.2856306  95.4626817  32.5708043 105.6007344  95.8425719  32.0205077
 106.3700155  96.0722144  33.3039991 101.5868775  86.5648164  40.4926121
 101.3429707  87.3190224  39.9560397 101.8628705  86.9433512  41.3273368
 103.5407238  93.1086776  39.1703387 103.7524133  93.7518536  38.4937768
 103.4936986  92.2749093  38.7025317 101.1433467  85.7204597  36.0739959
 100.2817946  86.0185850  36.3656697 101.1695901  85.9374996  35.1420992
  97.9595036  94.2646787  32.4813765  98.4233382  94.5434490  31.6918387
  97.6951834  93.3630232  32.2986855  94.8519117  93.8118269  35.4193528
  95.4220474  94.2405537  34.7811013  95.4427229  93.5300854  36.1177714
  96.8963922  90.3869940  29.2903330  97.5987965  90.8390984  29.7577256
  96.5644551  89.7453759  29.9183223  95.3444284  88.9781696  43.6654539
  94.7142944  89.6597977  43.8989936  95.2380371  88.8664778  42.7207678
  90.6389256  88.6453493  34.5920463  89.8488310  88.9011021  34.1160574
  91.1300503  89.4601830  34.6972504 104.6553066  95.9858732  37.3425744
 105.4770509  95.5838919  37.0608426 104.6515468  95.8826966  38.2941860
  92.5904001  89.0098072  31.5503940  91.7935165  89.1216766  32.0687436
  92.3629594  89.3484724  30.6844831  98.4209669  95.5342775  39.4986455
  98.4854102  95.9963182  40.3344627  97.7120593  94.9040140  39.6268765
  88.9226959  88.8983983  37.0235454  89.1734997  89.7830993  37.2893030
  89.4586507  88.7188584  36.2510546 112.7459059  92.3297480  33.6910716
 111.9922767  91.7604878  33.5354720 112.8806600  92.2960145  34.6381350
  98.1357687  97.2010882  29.3665435  98.0003361  98.0462418  29.7950283
  98.6767499  97.4030160  28.6031369  94.6225026  83.2802462  46.0279790
  94.2291972  82.7268661  46.7027435  95.4391167  83.5913041  46.4186308
  91.5887084  94.7186321  29.9393360  92.1011605  95.5129571  30.0898925
  92.2409797  94.0212611  29.8726962  93.3981969  97.8352077  32.0216113
  93.5748597  98.7570041  31.8337097  94.1938802  97.5210496  32.4510493
  97.5392987  84.6960341  43.6200047  98.2802701  85.2967495  43.5404509
  97.7710910  83.9537979  43.0618089  92.6834325  89.8816709  41.8978277
  92.5687840  88.9801966  42.1985375  91.8278843  90.1280405  41.5463093
  99.7626163  97.8234449  43.4965777  99.3190017  97.0370828  43.1786682
 100.4243377  98.0113599  42.8309668  94.5213284  99.3530251  38.0226456
  95.0720709  99.2247314  37.2503450  93.6824760  99.6525140  37.6721348
 101.8607401  98.1037249  41.5247178 101.8425876  98.9246130  41.0327448
 102.7827321  97.9791324  41.7497320  98.3180455  95.6181378  42.3670687
  98.8508792  94.8569667  42.1369995  97.7894536  95.3255030  43.1094841
 101.4850150  80.7241444  37.8964329 101.1414420  81.6143086  37.8203439
 101.8529113  80.5343102  37.0333914  89.5536001  93.0474975  30.7152931
  90.3911223  93.4571983  30.4986638  89.7314269  92.1074417  30.6853125
 101.4500433  90.7150055  26.4036764 100.9347056  91.4854660  26.6425151
 101.1777741  90.0415192  27.0269825  99.0347544  85.5599756  31.4622002
  98.1789140  85.1706607  31.2827641  99.4474496  85.6391717  30.6021788
 100.5646691  83.0946100  35.8613562 100.0611486  83.0576235  35.0481367
 100.8577298  84.0038842  35.9210218  96.8089577  83.1784829  34.8679744
  97.6742573  82.9827638  34.5085633  96.8767085  82.9495181  35.7949100
 106.4234707  93.4682410  28.3389937 105.6464150  93.1293570  27.8945099
 107.1026188  93.4735033  27.6644902 101.2386736  88.5877148  28.2296545
 100.9336872  88.9023297  29.0806688 102.1917178  88.6658567  28.2723878
  99.6833168  94.7467371  29.8789499  99.1554530  94.0120130  29.5662736
  99.1820671  95.5242047  29.6329467 104.6626014  92.9416391  34.9956545
 104.0049688  93.6315653  35.0836674 105.4666413  93.3312823  35.3390531
  94.4151896  85.4087037  32.2396110  94.9895648  85.1862219  31.5069303
  95.0022878  85.4775732  32.9924712 103.4731473  91.2960764  33.0460487
 103.9863355  91.9290756  33.5482197 104.1232697  90.6961960  32.6803847
  94.7421483  87.4391498  26.2591996  93.9058795  87.7766185  26.5801270
  94.6026252  87.3040478  25.3219133  96.7174563  82.2828286  30.9671180
  96.0638976  81.9677303  30.3427795  96.6755037  81.6604027  31.6931003
  97.8285768  92.5647581  22.8824472  96.9212830  92.3336835  23.0815621
  98.3256800  91.7685200  23.0698453  99.9512304  88.7710220  35.2918827
  99.0334865  88.9925167  35.1340515 100.3672447  88.8456530  34.4330535
 100.7347351  90.1701635  30.4221508 101.4819170  90.6823033  30.1128630
 101.0038941  89.8485688  31.2825901  99.0074002  92.6660176  27.4048462
  98.0985221  92.3819209  27.5020932  99.0369085  93.0859255  26.5451769
 104.2393269  96.2766766  31.1739630 103.7855596  95.4357675  31.2304820
 103.6087236  96.9128164  31.5114410 103.1826189  87.2058752  32.4040297
 102.4448945  86.6936138  32.7350540 103.4352962  86.7659133  31.5923574
 102.6826208  98.1143262  32.1089448 102.9749183  98.6748319  31.3901813
 103.1924829  98.4071823  32.8642607 103.2837816  79.9835004  32.9982066
 103.5896693  79.1232367  32.7107981 104.0090421  80.5752624  32.7981060
  89.5762172  90.3865690  31.3863664  89.3786572  89.7935051  30.6614731
  89.0208836  90.0817900  32.1039603  97.5558896  90.2788797  33.5058257
  97.6107505  89.3262633  33.4300734  96.7450098  90.4348236  33.9899556
  98.7050089  94.2068920  24.7436541  98.2669519  93.4904779  24.2842178
  99.4460530  94.4345034  24.1821632  95.4951256  88.8965856  31.2648636
  94.6819121  89.1960027  31.6713828  95.9910250  88.5021545  31.9823118
  97.6459833  98.8923613  33.1982901  97.6036012  99.1184460  32.2691433
  98.5622532  98.6586988  33.3468702 101.0925467  89.3607681  40.0963530
 101.4474855  89.5879154  40.9557996 101.7397598  89.6926058  39.4740785
 106.8223204  92.4826117  30.8012859 106.6841103  92.6727713  29.8734048
 106.4659423  93.2445500  31.2580910  94.9865330  86.4684212  36.8809871
  95.6264710  86.3272971  36.1832834  94.1542861  86.1818725  36.5048473
 106.8492584  94.5502644  35.8124131 107.2829090  94.4577933  36.6607185
 107.5624164  94.5260144  35.1744147  95.7625634  95.7686642  32.9944864
  96.5566233  95.2736962  32.7927439  95.0517327  95.2404505  32.6312569
 100.5820479  98.1504738  37.3457231 100.6357501  98.7195674  38.1134947
  99.7135260  98.3206623  36.9811268  92.0708398  89.9129724  29.0704616
  91.1405986  89.8514180  29.2874578  92.1665870  89.3905677  28.2741258
  91.9893947  86.4384537  31.6582858  92.2500764  87.3529870  31.5492018
  92.8111119  85.9708979  31.8079471  93.4618872  87.8522294  38.8281682
  94.1341926  87.6439656  38.1794331  92.6348659  87.6544380  38.3886915
 107.7108133  94.5926344  38.3457016 107.9044023  95.4972155  38.5916291
 107.6108752  94.1333763  39.1795601  99.3644444  84.4784235  40.8447343
  98.7172359  85.1774185  40.7511820 100.1345459  84.9120379  41.2123592
 102.7723242  94.7433087  43.9197897 102.6208748  94.5143639  43.0027980
 102.7627922  95.7003689  43.9329242  99.5408578  92.3165000  38.9044163
 100.4700638  92.4676159  38.7313130  99.1199608  92.4049021  38.0492810
  98.3396910  96.3415664  36.6742701  98.2007996  95.9734449  37.5468639
  97.5511506  96.8563304  36.5026658  98.9345062 101.4424761  28.0168237
  99.1096818 100.9712804  28.8313860  98.2477850 102.0690527  28.2449498
  99.8902125  95.7197267  34.0631538  99.5551958  95.6798037  34.9589188
  99.3906071  95.0541983  33.5901949  93.8646369  91.1264897  39.5884120
  93.7266167  90.3945136  40.1895659  94.7751293  91.0373797  39.3068307
 102.8261317  93.0653301  24.3368598 102.2090488  92.3400129  24.2401651
 102.3577805  93.8262662  23.9935672  96.4928670  90.8384856  39.0767799
  97.2028289  90.1978049  39.0354418  96.4497978  91.0897751  39.9993980
 104.4815449  97.7752210  41.9974378 104.4227995  97.0911430  41.3304962
 104.8834967  98.5171200  41.5455004  95.2057604  87.8250074  40.8963439
  94.6694961  87.3740813  41.5485035  94.6174312  87.9595983  40.1533903
  93.5006147 104.5914124  34.7908097  93.7402746 105.2232648  35.4687116
  92.6575344 104.2402164  35.0773457  94.6159863  87.2838726  23.4589902
  93.7389329  87.1627526  23.0952149  95.0917616  86.4924804  23.2068791
 104.4832856  95.7391794  40.2288358 103.5959635  95.4017715  40.3514757
 105.0531407  95.0074825  40.4657124  86.1362003  92.0715885  33.5531410
  86.8233043  91.7577615  32.9652425  85.9810132  92.9757250  33.2798661
  90.9396725  86.9606082  37.9816433  90.8554914  86.3531751  37.2466843
  90.1179432  87.4515100  37.9825930  98.0134009 100.3993246  37.1949601
  97.9404181 101.2048217  37.7068906  97.5711402 100.5985212  36.3697623
  97.8023789  99.6365016  30.7052423  97.0191311 100.1786696  30.7990647
  98.5016534 100.1538996  31.1046664 101.1120439  85.4459645  33.3486628
 101.6089139  84.6929608  33.0287699 100.3407421  85.4823962  32.7829838
 108.9650196  91.1500011  34.9904920 108.9540073  92.0324726  34.6198853
 108.0967576  90.7971562  34.7959457 100.4732693 100.2980080  39.3507760
 101.1860665 100.9327545  39.2783661  99.9822722 100.3943946  38.5347762
 102.1950220  94.2031333  30.9225052 101.2606499  94.3232795  30.7529756
 102.3726888  93.3003799  30.6585062  97.6955408  87.5877028  33.0758313
  97.3253195  87.0348069  33.7639218  98.1914500  86.9835162  32.5233313
 105.5822771  90.0448652  31.4575086 106.0483223  90.8776644  31.3835388
 106.0330272  89.5793634  32.1620344  95.5244606  98.0474523  40.1713331
  96.2254066  98.6811006  40.3242725  95.0539721  98.3889255  39.4108970
 103.6499002  96.3892473  28.4561238 103.9258846  96.2749068  29.3655112
 102.7803501  95.9909958  28.4173411 103.5539434  82.4129239  35.4965987
 102.6402514  82.6433466  35.6648194 103.9832535  82.4967683  36.3480020
 103.3245892  90.6019131  37.9965881 102.6717343  90.8495038  37.3418334
 103.7026272  89.7883269  37.6628358 100.2853066 100.6378824  32.0994051
 100.4675461  99.8200480  32.5621804 101.1086052 100.8546516  31.6618941
 100.6195232  99.5647009  29.3609100 101.1482998  99.0539464  28.7479262
 100.8823451  99.2489539  30.2254633  99.3733465  91.3438942  44.4831918
  98.6974102  91.2433071  45.1534294 100.1961099  91.1878156  44.9467916
  91.1212324  97.5810878  37.1044434  91.7065761  96.8354566  37.2372338
  90.9237163  97.8914835  37.9881097  93.9750980 100.6162126  32.1206876
  93.3061355 101.1008254  31.6370916  93.8363849 100.8631346  33.0350254
  85.7129979  90.1516479  35.8248877  85.7514079  89.6180069  36.6185995
  85.2070272  89.6251684  35.2059854  98.1156248 102.6505869  38.7189534
  98.6674556 102.8137491  39.4838620  98.4562442 103.2410307  38.0469559
  93.0920741  84.9981019  39.3211419  93.1562068  85.8595850  38.9088817
  93.0287862  84.3855021  38.5883777  92.5673014  87.0704152  42.9684453
  93.1945053  86.6881229  43.5821978  91.7100933  86.8518354  43.3340146
 102.9667123  97.4767127  44.5738189 103.5107027  98.0897085  44.0793144
 102.3853967  98.0346705  45.0905202  89.3438557  88.8780581  28.9002808
  89.6391998  87.9691259  28.8469862  88.4426593  88.8568320  28.5783810
 101.2524636 100.5987845  35.7053216 101.1275775  99.7977585  35.1964162
 101.9103727 101.0934038  35.2167186  92.8732804  86.9536577  34.8830357
  92.1519390  87.5672545  34.7437830  93.6626060  87.4894342  34.8047003
 103.3159544  98.3996865  37.3332767 102.3689879  98.2802216  37.2611093
 103.6642317  97.5119363  37.4159028  95.6759117  84.2891004  41.1571008
  96.1993519  84.5353300  41.9197318  95.4571451  85.1211039  40.7374146
  91.0726398  86.5594679  29.0242133  90.7439105  85.6792057  28.8417239
  91.4265769  86.5042347  29.9118522 100.3205977  98.1949581  33.5337119
 100.1730940  97.2666289  33.7144689 101.1459471  98.2169672  33.0494194
  94.1868222  86.8467648  29.3917611  94.5264294  87.3753570  28.6696219
  94.6340342  87.1848054  30.1676177 103.9240099  99.0178140  34.6201992
 104.8486647  98.8121001  34.4826443 103.7555402  98.7694541  35.5291333
  96.8811662  85.2304699  38.8420679  96.5408483  84.4312512  39.2441359
  96.1750669  85.5306410  38.2697512  97.5328134  82.3154011  37.2948002
  98.3554203  81.8414490  37.1726892  97.7766198  83.0944495  37.7946688
  96.1736369  85.3442270  27.5910904  96.8944731  85.7223523  27.0874621
  95.5501673  86.0631147  27.6945882 100.3167492  86.0487419  28.5269236
 100.5331106  86.9312057  28.2258064  99.8361559  85.6573632  27.7974878
  95.0566713  89.0073132  35.1039981  94.9111294  89.3213435  35.9964262
  94.5791917  89.6258032  34.5510879  96.9163096  85.9975680  35.1520870
  96.9024665  85.1016773  34.8153168  97.6335524  86.0046344  35.7859156
  98.7689227  86.4313020  37.1973998  98.5107004  87.3530091  37.1958328
  98.2374267  86.0343455  37.8874462 103.7135415  99.5363807  29.9764083
 103.8872293  98.9710230  29.2237935 104.2064307 100.3364702  29.7943573
  89.5312375  91.5478477  38.0427642  88.9865843  92.3238284  38.1747916
  90.4091725  91.8949281  37.8846763  96.3199992  84.8790060  30.4208440
  96.4415903  83.9506707  30.6199328  96.0302034  84.8928746  29.5086756
  99.1891182  82.5644971  33.5575160  99.2112879  82.6284304  32.6027140
  99.6059241  81.7249479  33.7515666 109.5674806  92.3000230  31.5954383
 110.0105952  91.5507556  31.1973506 108.6901317  92.2910367  31.2128115
 104.7010588  98.8530572  27.0760981 105.3961492  99.4737265  27.2948296
 105.0433738  98.0025923  27.3513359  90.3178397  90.6748373  40.9357799
  89.5760133  90.8231008  41.5222429  89.9971141  90.9356638  40.0724548
 106.6002011  96.3030277  28.6048312 107.1253335  96.6417550  27.8797632
 106.5124363  95.3677293  28.4211447  98.2622060 100.2164351  40.7338189
  98.5709186  99.9713498  41.6060888  99.0597542 100.4210989  40.2457059
  98.2842672 102.3702261  32.9643565  97.8447662 101.8778639  33.6576422
  99.0350789 101.8275228  32.7235640  90.7635011  98.5613801  32.9668193
  91.5893031  98.2617573  32.5866837  90.4129063  97.7921424  33.4157982
  95.7316544  97.9140270  35.0365867  95.1096553  97.2510975  34.7368095
  96.4021411  97.9401402  34.3539515  88.9643616  96.4800128  33.9257127
  88.1275524  96.0522302  33.7441128  88.9367261  96.6732571  34.8627918
  95.8041071  86.3922058  44.6298373  95.8529227  87.2684181  44.2476142
  96.3463585  85.8499451  44.0570016 106.2895917  96.9363181  43.9099510
 105.4991461  96.9187320  43.3704009 106.0529272  97.4751475  44.6648547
 106.4093792  93.7855647  41.2232239 106.4591797  93.6205655  42.1647761
 106.3007715  92.9182906  40.8330119  95.2930051  96.4644193  28.5124327
  95.4418171  97.1479657  27.8591000  96.0996494  96.4449283  29.0273783
 103.6997554  89.7686575  42.5391545 104.6007417  89.6293040  42.2475543
 103.7745529  89.9341030  43.4789723  98.0340360  87.1453430  41.3844732
  97.1643669  87.4386996  41.1127320  98.2699840  87.7293875  42.1051995
 107.9111989  96.2052589  41.4674260 107.6196797  96.5682569  42.3037721
 107.2984120  95.4919597  41.2887592 109.1107671  93.7705469  33.9876830
 109.9454563  94.2095273  34.1514391 109.2466800  93.2944122  33.1685076
 106.1599177  91.3285204  39.9354318 106.6353299  91.5212850  39.1273169
 105.2364742  91.3844389  39.6897702  93.0482684  92.4909371  29.5185396
  92.8028726  91.5871701  29.7165606  93.2178598  92.4926521  28.5764874
 100.7379394  83.3633047  38.9010152 101.2561337  84.0994074  38.5756640
 100.3834526  83.6697040  39.7356911  92.3178331  88.2237728  27.0171558
  91.6247576  88.2982083  26.3611594  92.0730083  87.4598072  27.5393075
 100.9891988  79.7833330  34.4211049 101.2693741  79.1156519  35.0471475
 101.7742595  79.9762425  33.9085712  98.7925456  98.9592324  25.9836075
  98.2199423  99.5782511  25.5306547  99.3658250  99.5091685  26.5175997
 104.8600846  88.2050964  38.1682624 105.8118269  88.3049061  38.1894848
 104.6904296  87.4129232  38.6780708 102.8815226  85.2906547  38.3542025
 102.2865158  85.5711560  37.6588513 102.5964922  85.7800448  39.1258766
 102.0122716  99.2429474  27.1144657 102.9453389  99.1775035  27.3177533
 101.9245929 100.0785740  26.6559190 107.3388924  91.4257083  37.2824923
 107.3065244  90.4873084  37.4684607 107.9489548  91.5041120  36.5490748
  99.1772255  90.2953136  23.3252127 100.1231359  90.1659344  23.3940545
  98.7986500  89.5567798  23.8021555 107.4883412  88.2168127  37.3283206
 106.9722461  87.4326583  37.1413135 108.3723361  87.8886843  37.4929726
 105.1494139  81.9609142  33.2879019 104.9518960  81.6524230  34.1722351
 105.7593845  82.6870781  33.4176949 113.1565474  92.4873090  36.4230960
 113.8868862  92.2258378  36.9838663 112.5472419  91.7501812  36.4633028
 111.2380771  90.6280953  37.0205411 110.5113934  90.4936918  36.4121903
 110.8228058  90.9357781  37.8262129  99.0610947  94.3470882  44.7852784
  99.9813957  94.5249481  44.9792831  99.0260530  93.4026928  44.6332484
  97.3615172  88.2203113  23.2607013  96.4546627  87.9236225  23.3369726
  97.6391153  87.9232931  22.3941299  88.2793112  89.5409476  33.7106059
  87.9595897  88.6874784  33.4180433  87.7326540  89.7558054  34.4664026
  92.0573020  92.2571917  37.4275565  92.2759030  93.1889025  37.4463599
  92.4698794  91.8979891  38.2130369  98.9777238  82.7640002  29.4151254
  98.1677966  82.4187087  29.7906500  99.6661655  82.4547546  30.0038865
 100.9067786  81.8418049  31.0375550 101.4598824  82.2613503  31.6965574
 101.1437872  80.9153797  31.0798506  96.9300885  87.8305123  46.8178314
  96.8297612  88.7799480  46.7490405  96.7122427  87.5023362  45.9454384
  96.1313957  85.0790048  23.4018992  96.9933120  85.4044946  23.6614809
  96.3164301  84.2921544  22.8892058  88.1481372  93.1612388  35.6799181
  87.4544844  92.7466340  35.1669135  88.8954363  93.2032924  35.0832599
 104.2846593  83.9518574  30.5454215 103.7045262  84.6103378  30.1632267
 104.0182526  83.1295919  30.1341632 102.7350159  83.3523632  32.7475535
 103.2349938  83.4640167  31.9389854 103.3785767  83.0484685  33.3876344
  96.7932155  91.2602262  45.6343376  96.3099237  92.0602622  45.8407265
  96.8793094  91.2710207  44.6810820  90.0618115  93.0930641  33.5565195
  90.0388803  93.1918329  32.6047079  90.3718751  93.9395792  33.8782362
  92.7205493  95.1506796  37.6711810  93.6748746  95.1190739  37.6041741
  92.5218016  94.6897420  38.4862036  93.3104875  93.7207912  40.2382608
  94.1297764  94.2151991  40.2617445  93.5841683  92.8039881  40.2100175
 103.0671471  86.1118665  29.6010563 102.1797326  86.3968315  29.3830758
 103.4825460  85.9512428  28.7537840 106.4186007  86.1365186  33.3164902
 107.1946397  86.6261638  33.5889519 105.6934141  86.5623240  33.7736772
 108.8558566  86.8492805  34.3738843 109.4503057  86.6088541  33.6632151
 108.9285149  86.1299935  35.0012379  91.0755721 100.6926416  34.6882008
  90.9410189  99.9326817  34.1220006  90.6587784 101.4167316  34.2210797
 103.0412495  91.6273201  29.8160853 102.9847696  92.0841752  28.9768486
 103.5940837  90.8663885  29.6383696 106.8517301  87.4162933  30.6410973
 106.5954235  87.0159568  31.4719180 106.2270169  88.1306726  30.5161112
 111.1629639  90.1559006  33.1482264 110.6029196  90.2252195  33.9213826
 110.5573142  89.9799990  32.4281760  94.2324847 101.5895733  34.9000450
  94.1157231 102.5341165  34.7979141  93.4117294 101.2869294  35.2886250
 104.1201382  96.3145869  25.7457043 104.9546986  95.8827067  25.5634518
 103.9585725  96.1427882  26.6733938 103.7747274  92.8177982  27.1113382
 103.7196078  92.6522253  26.1701826 103.1493329  93.5254015  27.2675572
  88.5639789  88.0546046  40.9374805  89.2098653  87.5445000  41.4262030
  88.3556940  88.7914728  41.5118230 101.0893181  95.1226894  46.4366945
 101.9584341  95.2967546  46.0753580 100.6099933  95.9421311  46.3142674
  97.0843400  82.3186091  26.6898701  97.0722069  83.2627931  26.8466972
  97.9766821  82.1356236  26.3958162  95.2579361 102.2423995  38.1156379
  96.1606608 102.2747605  38.4322874  95.0316732 101.3124446  38.1302715
  97.0132963 100.9954981  34.7766457  96.0628594 100.9956843  34.6630830
  97.3165450 100.2487716  34.2602492 100.8995519  78.9128868  30.9444638
 100.1327915  78.3587354  31.0901320 101.3106224  78.9850736  31.8058789
  92.9037280  85.2013663  45.0349819  93.7668742  84.8450468  45.2453143
  92.3302691  84.8627558  45.7225223 112.7485657 106.8315520  35.8412220
 113.3864067 106.7122267  35.1375560 112.6306500 107.7796364  35.9000172
 109.5575363 106.7842948  35.7773744 109.2193875 106.6684013  34.8894279
 110.4265131 106.3834113  35.7574751 110.0395146 107.9377800  41.7359950
 110.0283787 107.5430598  40.8640454 110.2015786 107.2043872  42.3293721
 102.9626611 110.1329616  34.6054856 103.7547903 109.7920440  34.1901155
 103.2023261 110.2424591  35.5257009 106.7602407 110.7214911  40.6839134
 106.4692273 111.6260542  40.5685800 107.3959392 110.7631439  41.3983204
 107.6858614 108.0991760  37.2740494 108.2822186 107.8747782  36.5597457
 107.7433586 107.3576505  37.8765941 115.2260773  98.2063781  38.2793015
 114.8944098  99.0759192  38.0554230 114.6306386  97.8900065  38.9587045
 105.1704774 106.8590124  33.7125632 104.2455270 106.7266338  33.9203324
 105.4189187 107.6384343  34.2095575 115.1189436 102.9258867  35.3586365
 114.2106314 102.8574275  35.0645126 115.0677032 103.4030812  36.1868190
 102.5313585 106.5023397  34.5469421 102.6605966 106.7557876  35.4608833
 101.8511036 107.0951105  34.2274076 109.1930302 104.3448513  43.3021262
 108.4163636 104.9042433  43.2924127 109.8320865 104.8305296  43.8236132
 116.9851083 101.1275305  37.1364239 116.3425463 101.4207839  36.4904034
 116.4806011 101.0128226  37.9417436 107.4476674 107.1533966  42.8639229
 108.1891359 107.6919010  42.5874053 106.7413660 107.7800255  43.0210781
 112.9232014 109.2963106  41.4611391 113.3315370 108.8545517  40.7166023
 112.2009275 108.7215734  41.7145584 109.2763084 104.2335713  38.8344948
 110.1224279 104.6575127  38.9779597 109.2161722 103.5769338  39.5283511
 112.4262529 101.8940082  40.4926121 112.1823461 102.6482142  39.9560397
 112.7022460 102.2725429  41.3273368 111.9827221 101.0496515  36.0739959
 111.1211700 101.3477768  36.3656697 112.0089656 101.2666913  35.1420992
 105.6912872 109.1410187  35.4193528 106.2614229 109.5697455  34.7811013
 106.2820983 108.8592771  36.1177714 106.1838038 104.3073614  43.6654539
 105.5536699 104.9889895  43.8989936 106.0774126 104.1956696  42.7207678
 101.4783011 103.9745410  34.5920463 100.6882064 104.2302939  34.1160574
 101.9694258 104.7893748  34.6972504 103.4297756 104.3389989  31.5503940
 102.6328919 104.4508684  32.0687436 103.2023348 104.6776642  30.6844831
 109.2603424 110.8634693  39.4986455 109.3247856 111.3255100  40.3344627
 108.5514347 110.2332058  39.6268765  99.7620713 104.2275901  37.0235454
 100.0128752 105.1122911  37.2893030 100.2980262 104.0480502  36.2510546
 105.4618781  98.6094380  46.0279790 105.0685726  98.0560579  46.7027435
 106.2784921  98.9204958  46.4186308 108.3786742 100.0252259  43.6200047
 109.1196455 100.6259412  43.5404509 108.6104665  99.2829897  43.0618089
 103.5228080 105.2108626  41.8978277 103.4081595 104.3093884  42.1985375
 102.6672598 105.4572323  41.5463093 105.3607039 114.6822168  38.0226456
 105.9114464 114.5539232  37.2503450 104.5218515 114.9817057  37.6721348
 109.1574210 110.9473296  42.3670687 109.6902547 110.1861584  42.1369995
 108.6288291 110.6546948  43.1094841 112.3243905  96.0533362  37.8964329
 111.9808174  96.9435004  37.8203439 112.6922867  95.8635020  37.0333914
 109.8741298 100.8891674  31.4622002 109.0182895 100.4998524  31.2827641
 110.2868250 100.9683635  30.6021788 111.4040445  98.4238017  35.8613562
 110.9005241  98.3868152  35.0481367 111.6971052  99.3330760  35.9210218
 107.6483331  98.5076747  34.8679744 108.5136328  98.3119556  34.5085633
 107.7160840  98.2787099  35.7949100 105.2545650 100.7378955  32.2396110
 105.8289402 100.5154136  31.5069303 105.8416633 100.8067649  32.9924712
 107.5568318  97.6120204  30.9671180 106.9032730  97.2969221  30.3427795
 107.5148792  96.9895944  31.6931003 110.7906058 104.1002137  35.2918827
 109.8728620 104.3217084  35.1340515 111.2066202 104.1748448  34.4330535
 114.1231570  95.3126921  32.9982066 114.4290447  94.4524285  32.7107981
 114.8484175  95.9044541  32.7981060 100.4155926 105.7157608  31.3863664
 100.2180326 105.1226969  30.6614731  99.8602590 105.4109818  32.1039603
 108.3952650 105.6080714  33.5058257 108.4501260 104.6554551  33.4300734
 107.5843852 105.7640153  33.9899556 106.3345010 104.2257774  31.2648636
 105.5212876 104.5251945  31.6713828 106.8304004 103.8313463  31.9823118
 111.9319222 104.6899599  40.0963530 112.2868609 104.9171072  40.9557996
 112.5791353 105.0217975  39.4740785 105.8259085 101.7976130  36.8809871
 106.4658464 101.6564889  36.1832834 104.9936615 101.5110643  36.5048473
 102.8287701 101.7676455  31.6582858 103.0894519 102.6821788  31.5492018
 103.6504874 101.3000897  31.8079471 104.3012627 103.1814212  38.8281682
 104.9735680 102.9731574  38.1794331 103.4742413 102.9836298  38.3886915
 110.2038199  99.8076153  40.8447343 109.5566114 100.5066102  40.7511820
 110.9739214 100.2412297  41.2123592 110.3802333 107.6456918  38.9044163
 111.3094393 107.7968077  38.7313130 109.9593363 107.7340938  38.0492810
 109.1790665 111.6707582  36.6742701 109.0401750 111.3026366  37.5468639
 108.3905261 112.1855221  36.5026658 104.7040124 106.4556815  39.5884120
 104.5659922 105.7237054  40.1895659 105.6145047 106.3665715  39.3068307
 107.3322424 106.1676774  39.0767799 108.0422043 105.5269966  39.0354418
 107.2891733 106.4189669  39.9993980 106.0451358 103.1541992  40.8963439
 105.5088715 102.7032730  41.5485035 105.4568067 103.2887901  40.1533903
  96.9755758 107.4007803  33.5531410  97.6626797 107.0869533  32.9652425
  96.8203886 108.3049168  33.2798661 101.7790480 102.2898000  37.9816433
 101.6948668 101.6823669  37.2466843 100.9573186 102.7807018  37.9825930
 111.9514194 100.7751563  33.3486628 112.4482893 100.0221525  33.0287699
 111.1801175 100.8115880  32.7829838 108.5349162 102.9168946  33.0758313
 108.1646950 102.3639986  33.7639218 109.0308255 102.3127080  32.5233313
 106.3638361 113.3766441  40.1713331 107.0647820 114.0102924  40.3242725
 105.8933476 113.7181173  39.4108970 114.3933188  97.7421157  35.4965987
 113.4796268  97.9725383  35.6648194 114.8226290  97.8259601  36.3480020
 114.1639647 105.9311049  37.9965881 113.5111097 106.1786956  37.3418334
 114.5420027 105.1175187  37.6628358 110.2127220 106.6730860  44.4831918
 109.5367857 106.5724989  45.1534294 111.0354854 106.5170073  44.9467916
 101.9606079 112.9102796  37.1044434 102.5459516 112.1646484  37.2372338
 101.7630917 113.2206753  37.9881097  96.5523734 105.4808396  35.8248877
  96.5907833 104.9471987  36.6185995  96.0464027 104.9543602  35.2059854
 103.9314496 100.3272937  39.3211419 103.9955822 101.1887768  38.9088817
 103.8681616  99.7146939  38.5883777 103.4066769 102.3996069  42.9684453
 104.0338807 102.0173147  43.5821978 102.5494687 102.1810271  43.3340146
 100.1832311 104.2072499  28.9002808 100.4785752 103.2983177  28.8469862
  99.2820347 104.1860238  28.5783810 103.7126558 102.2828495  34.8830357
 102.9913144 102.8964463  34.7437830 104.5019814 102.8186260  34.8047003
 106.5152872  99.6182922  41.1571008 107.0387274  99.8645218  41.9197318
 106.2965205 100.4502956  40.7374146 101.9120153 101.8886596  29.0242133
 101.5832859 101.0083975  28.8417239 102.2659524 101.8334265  29.9118522
 107.7205417 100.5596617  38.8420679 107.3802237  99.7604430  39.2441359
 107.0144423 100.8598328  38.2697512 108.3721889  97.6445929  37.2948002
 109.1947958  97.1706407  37.1726892 108.6159952  98.4236413  37.7946688
 105.8960467 104.3365050  35.1039981 105.7505048 104.6505353  35.9964262
 105.4185671 104.9549950  34.5510879 107.7556850 101.3267598  35.1520870
 107.7418419 100.4308691  34.8153168 108.4729278 101.3338262  35.7859156
 109.6082981 101.7604938  37.1973998 109.3500759 102.6822009  37.1958328
 109.0768021 101.3635373  37.8874462 100.3706130 106.8770394  38.0427642
  99.8259598 107.6530202  38.1747916 101.2485479 107.2241199  37.8846763
 107.1593746 100.2081978  30.4208440 107.2809657  99.2798624  30.6199328
 106.8695789 100.2220664  29.5086756 110.0284937  97.8936888  33.5575160
 110.0506633  97.9576222  32.6027140 110.4452996  97.0541397  33.7515666
 101.1572151 106.0040290  40.9357799 100.4153887 106.1522926  41.5222429
 100.8364896 106.2648556  40.0724548  99.8037370 111.8092046  33.9257127
  98.9669278 111.3814220  33.7441128  99.7761016 112.0024489  34.8627918
 106.6434826 101.7213975  44.6298373 106.6922981 102.5976098  44.2476142
 107.1857340 101.1791368  44.0570016 114.5391309 105.0978493  42.5391545
 115.4401172 104.9584958  42.2475543 114.6139283 105.2632948  43.4789723
 108.8734114 102.4745348  41.3844732 108.0037424 102.7678914  41.1127320
 109.1093595 103.0585793  42.1051995 111.5773148  98.6924965  38.9010152
 112.0955092  99.4285992  38.5756640 111.2228281  98.9988958  39.7356911
 111.8285742  95.1125247  34.4211049 112.1087496  94.4448436  35.0471475
 112.6136349  95.3054343  33.9085712 115.6994601 103.5342881  38.1682624
 116.6512023 103.6340979  38.1894848 115.5298051 102.7421150  38.6780708
 113.7208980 100.6198464  38.3542025 113.1258912 100.9003477  37.6588513
 113.4358677 101.1092365  39.1258766 118.3277167 103.5460044  37.3283206
 117.8116215 102.7618501  37.1413135 119.2117115 103.2178761  37.4929726
 115.9887894  97.2901060  33.2879019 115.7912715  96.9816148  34.1722351
 116.5987599  98.0162699  33.4176949 109.9004702 109.6762800  44.7852784
 110.8207711 109.8541399  44.9792831 109.8654285 108.7318845  44.6332484
  99.1186867 104.8701394  33.7106059  98.7989651 104.0166702  33.4180433
  98.5720295 105.0849972  34.4664026 102.8966774 107.5863835  37.4275565
 103.1152784 108.5180943  37.4463599 103.3092548 107.2271809  38.2130369
 109.8170992  98.0931920  29.4151254 109.0071720  97.7479005  29.7906500
 110.5055409  97.7839464  30.0038865 111.7461540  97.1709967  31.0375550
 112.2992579  97.5905420  31.6965574 111.9831627  96.2445715  31.0798506
 107.7694640 103.1597040  46.8178314 107.6691367 104.1091397  46.7490405
 107.5516182 102.8315279  45.9454384  98.9875127 108.4904305  35.6799181
  98.2938598 108.0758258  35.1669135  99.7348118 108.5324842  35.0832599
 113.5743914  98.6815550  32.7475535 114.0743692  98.7932084  31.9389854
 114.2179522  98.3776603  33.3876344 107.6325910 106.5894179  45.6343376
 107.1492991 107.3894539  45.8407265 107.7186849 106.6002124  44.6810820
 100.9011869 108.4222559  33.5565195 100.8782557 108.5210246  32.6047079
 101.2112506 109.2687710  33.8782362 103.5599247 110.4798714  37.6711810
 104.5142501 110.4482656  37.6041741 103.3611771 110.0189338  38.4862036
 104.1498629 109.0499830  40.2382608 104.9691518 109.5443909  40.2617445
 104.4235437 108.1331798  40.2100175  99.4033544 103.3837964  40.9374805
 100.0492407 102.8736918  41.4262030  99.1950695 104.1206646  41.5118230
 111.7389273  94.2420785  30.9444638 110.9721669  93.6879272  31.0901320
 112.1499978  94.3142654  31.8058789 103.7431035 100.5305581  45.0349819
 104.6062496 100.1742386  45.2453143 103.1696445 100.1919476  45.7225223
  50.2846677  -1.8645256  28.7219685  50.2259224  -2.5486036  28.0550268
  50.6866196  -1.1226266  28.2700311  48.7698351  -2.1630339  31.2983495
  49.3138255  -1.5500381  30.8038450  48.1885196  -1.6050760  31.8150508
  52.0927146  -2.7034285  30.6344817  51.3022689  -2.7210146  30.0949316
  51.8560500  -2.1645991  31.3893853  53.7143218  -3.4344877  28.1919567
  53.4228026  -3.0714896  29.0283028  53.1015349  -4.1477869  28.0132899
  46.8924410  -4.5170572  33.1612252  47.7615570  -4.3429920  32.7998887
  46.4131162  -3.6976155  33.0387981  58.5516886   7.1918054  22.5657526
  59.1895296   7.0724801  21.8620867  58.4337729   8.1398898  22.6245479
  55.3606592   7.1445482  22.5019051  55.0225104   7.0286547  21.6139586
  56.2296360   6.7436647  22.4820057  55.8426375   8.2980334  28.4605257
  55.8315016   7.9033132  27.5885760  56.0047015   7.5646406  29.0539028
  48.7657840  10.4932150  21.3300163  49.5579132  10.1522975  20.9146462
  49.0054490  10.6027125  22.2502316  52.5633636  11.0817446  27.4084441
  52.2723502  11.9863076  27.2931107  53.1990621  11.1233973  28.1228510
  53.4889843   8.4594294  23.9985800  54.0853415   8.2350316  23.2842763
  53.5464815   7.7179040  24.6011248  63.5066581   4.8544741  20.5443713
  64.2391753   4.2843958  20.7781542  62.7505937   4.4666341  20.9850219
  61.0292002  -1.4333685  25.0038322  60.6975327  -0.5638274  24.7799537
  60.4337615  -1.7497401  25.6832352  57.5223521  10.7678861  24.4034234
  57.2224244  11.6703900  24.2950042  57.1774581  10.5011044  25.2555387
  60.9220665   3.2861401  22.0831672  60.0137542   3.2176810  21.7890433
  60.8708261   3.7633346  22.9113497  52.5044301  17.5323181  17.3705202
  52.4268331  18.4831006  17.4493683  51.9005945  17.1869054  18.0280128
  54.9961531   4.7051047  30.0266569  54.2194865   5.2644967  30.0169434
  55.6352094   5.1907830  30.5481439  62.7882311   1.4877840  23.8609546
  62.1456692   1.7810373  23.2149340  62.2837240   1.3730760  24.6662742
  53.2507903   7.5136500  29.5884536  53.9922588   8.0521544  29.3119360
  52.5444889   8.1402789  29.7456088  58.7263243   9.6565641  28.1856697
  59.1346599   9.2148051  27.4411330  58.0040504   9.0818268  28.4390890
  55.0794313   4.5938247  25.5590254  55.9255508   5.0177661  25.7024903
  55.0192950   3.9371872  26.2528817  59.0492057  10.2166831  21.9408986
  58.4200920  10.3812545  21.2385054  58.6617720  10.6308441  22.7119950
  62.9281289  11.1521269  19.2953350  62.2432327  11.5320170  18.7450383
  63.0125139  11.7616596  20.0285298  58.2293758   2.2542616  27.2171428
  57.9854690   3.0084676  26.6805704  58.5053689   2.6327963  28.0518675
  60.1832221   8.7981228  25.8948694  60.3949116   9.4412988  25.2183075
  60.1361969   7.9643545  25.4270624  51.4944100   9.5012721  22.1438835
  52.0645457   9.9299989  21.5056319  52.0852212   9.2195306  22.8423020
  51.9869267   4.6676148  30.3899846  51.3567927   5.3492429  30.6235243
  51.8805355   4.5559230  29.4452984  61.2978049  11.6753184  24.0671051
  62.1195493  11.2733371  23.7853733  61.2940452  11.5721418  25.0187167
  55.0634652  11.2237227  26.2231761  55.1279085  11.6857634  27.0589933
  54.3545576  10.5934592  26.3514071  69.3884042   8.0191932  20.4156022
  68.6347750   7.4499330  20.2600027  69.5231583   7.9854597  21.3626657
  51.2650010  -1.0303086  32.7525097  50.8716955  -1.5836887  33.4272741
  52.0816150  -0.7192507  33.1431614  50.0406952  13.5246529  18.7461420
  50.2173580  14.4464493  18.5582404  50.8363786  13.2104948  19.1755800
  54.1817971   0.3854793  30.3445354  54.9227684   0.9861946  30.2649816
  54.4135893  -0.3567569  29.7863396  49.3259309   5.5711161  28.6223583
  49.2112824   4.6696418  28.9230682  48.4703826   5.8174857  28.2708400
  56.4051146  13.5128901  30.2211084  55.9615001  12.7265279  29.9031988
  57.0668360  13.7008051  29.5554975  51.1638268  15.0424702  24.7471762
  51.7145693  14.9141766  23.9748756  50.3249743  15.3419591  24.3966655
  58.5032384  13.7931701  28.2492485  58.4850860  14.6140582  27.7572754
  59.4252304  13.6685776  28.4742626  54.9605439  11.3075830  29.0915993
  55.4933775  10.5464118  28.8615301  54.4319520  11.0149482  29.8340148
  61.3050997   8.6310843  21.7201852  60.6474672   9.3210105  21.8081980
  62.1091397   9.0207275  22.0635838  60.1156456   6.9855216  19.7705794
  60.6288338   7.6185208  20.2727503  60.7657680   6.3856411  19.4049154
  56.5937287   4.4604671  22.0164134  55.6759848   4.6819618  21.8585822
  57.0097431   4.5350982  21.1575841  60.8818252  11.9661217  17.8984936
  60.4280579  11.1252127  17.9550127  60.2512219  12.6022616  18.2359716
  59.3251192  13.8037714  18.8334754  59.6174166  14.3642771  18.1147120
  59.8349812  14.0966275  19.5887913  54.2884817  14.5818065  19.9228208
  54.2460996  14.8078911  18.9936740  55.2047516  14.3481440  20.0714009
  57.7350451   5.0502133  26.8208837  58.0899838   5.2773606  27.6803302
  58.3822582   5.3820510  26.1986092  63.4648187   8.1720569  17.5258166
  63.3266086   8.3622165  16.5979355  63.1084406   8.9339951  17.9826217
  63.4917567  10.2397096  22.5369437  63.9254074  10.1472385  23.3852491
  64.2049148  10.2154596  21.8989453  57.2245462  13.8399190  24.0702538
  57.2782484  14.4090126  24.8380254  56.3560243  14.0101075  23.7056575
  50.1043855   3.5416746  25.5526989  50.7766909   3.3334108  24.9039638
  49.2773642   3.3438832  25.1132221  64.3533117  10.2820796  25.0702323
  64.5469007  11.1866607  25.3161598  64.2533735   9.8228215  25.9040908
  56.0069427   0.1678687  27.5692650  55.3597342   0.8668637  27.4757126
  56.7770443   0.6014831  27.9368898  59.4148225  10.4327539  30.6443203
  59.2633732  10.2038091  29.7273287  59.4052905  11.3898140  30.6574548
  56.1833562   8.0059452  25.6289470  57.1125622   8.1570611  25.4558437
  55.7624592   8.0943473  24.7738116  54.9821894  12.0310116  23.3988007
  54.8432979  11.6628901  24.2713945  54.1936490  12.5457756  23.2271965
  55.5770045  17.1319213  14.7413544  55.7521801  16.6607256  15.5559167
  54.8902834  17.7584979  14.9694805  56.5327109  11.4091719  20.7876845
  56.1976941  11.3692489  21.6834495  56.0331054  10.7436435  20.3147255
  50.5071353   6.8159349  26.3129426  50.3691151   6.0839588  26.9140965
  51.4176276   6.7268249  26.0313614  53.1353653   6.5279308  25.8013106
  53.8453272   5.8872500  25.7599724  53.0922961   6.7792203  26.7239287
  61.1240432  13.4646662  28.7219685  61.0652978  12.7805882  28.0550268
  61.5259950  14.2065652  28.2700311  51.8482587   3.5144526  27.6208745
  51.3119944   3.0635265  28.2730342  51.2599296   3.6490435  26.8779210
  50.1431131  20.2808575  21.5153404  50.3827729  20.9127100  22.1932423
  49.3000327  19.9296615  21.8018763  61.1257839  11.4286246  26.9533665
  60.2384618  11.0912167  27.0760064  61.6956390  10.6969277  27.1902430
  54.6558993  16.0887698  23.9194908  54.5829164  16.8942669  24.4314213
  54.2136386  16.2879664  23.0942929  54.4448772  15.3259468  17.4297730
  53.6616294  15.8681148  17.5235954  55.1441517  15.8433448  17.8291971
  65.6075180   6.8394463  21.7150226  65.5965056   7.7219178  21.3444160
  64.7392559   6.4866014  21.5204763  57.1157676  15.9874532  26.0753067
  57.8285648  16.6221997  26.0028968  56.6247705  16.0838398  25.2593068
  52.1669590  13.7368975  26.8958637  52.8679049  14.3705458  27.0488032
  51.6964705  14.0783707  26.1354277  59.9670876   6.2913583  24.7211188
  59.3142326   6.5389490  24.0663641  60.3451256   5.4777721  24.3873665
  56.9278050  16.3273276  18.8239358  57.1100444  15.5094932  19.2867110
  57.7511036  16.5440968  18.3864248  57.2620215  15.2541461  16.0854407
  57.7907981  14.7433916  15.4724569  57.5248435  14.9383991  16.9499940
  56.0158449   7.0333394  31.2077225  55.3399086   6.9327523  31.8779600
  56.8386083   6.8772608  31.6713222  47.7637308  13.2705330  23.8289740
  48.3490745  12.5249018  23.9617644  47.5662146  13.5809287  24.7126404
  50.6175963  16.3056578  18.8452183  49.9486338  16.7902705  18.3616223
  50.4788833  16.5525798  19.7595561  54.7581232  18.3400321  25.4434841
  55.3099540  18.5031943  26.2083926  55.0987425  18.9304759  24.7714866
  49.2097997   2.7598604  29.6929760  49.8370036   2.3775681  30.3067284
  48.3525916   2.5412806  30.0585452  59.6092106  13.1661579  31.2983495
  60.1532010  13.7791537  30.8038450  59.0278951  13.7241157  31.8150508
  57.8949619  16.2882297  22.4298523  57.7700758  15.4872037  21.9209469
  58.5528710  16.7828490  21.9412493  59.9584527  14.0891317  24.0578073
  59.0114863  13.9696668  23.9856400  60.3067300  13.2013815  24.1404335
  52.3184101  -0.0214544  27.8816315  52.8418502   0.2247752  28.6442624
  52.0996434   0.8105491  27.4619452  56.9630961  13.8844033  20.2582425
  56.8155923  12.9560741  20.4389995  57.7884454  13.9064124  19.7739501
  60.5665082  14.7072592  21.3447298  61.4911630  14.5015453  21.2071749
  60.3980386  14.4588993  22.2536640  53.5236646   0.9199151  25.5665986
  53.1833466   0.1206964  25.9686665  52.8175652   1.2200862  24.9942819
  55.4114210   2.1207472  23.9219304  55.1531988   3.0424543  23.9203635
  54.8799250   1.7237907  24.6119768  60.3560399  15.2258259  16.7009390
  60.5297276  14.6604682  15.9483242  60.8489290  16.0259154  16.5188880
  46.1737358   7.2372928  24.7672948  45.6290826   8.0132736  24.8993223
  47.0516708   7.5843733  24.6092070  66.2099790   7.9894682  18.3199689
  66.6530936   7.2402007  17.9218813  65.3326300   7.9804819  17.9373421
  61.3435571  14.5425024  13.8006288  62.0386476  15.1631716  14.0193603
  61.6858721  13.6920375  14.0758666  46.9603380   6.3642825  27.6603105
  46.2185116   6.5125460  28.2467736  46.6396125   6.6251090  26.7969855
  63.2426994  11.9924729  15.3293619  63.7678318  12.3312002  14.6042939
  63.1549347  11.0571745  15.1456753  54.9047043  15.9058803  27.4583495
  55.2134169  15.6607950  28.3306195  55.7022525  16.1105441  26.9702366
  54.9267655  18.0596713  19.6888872  54.4872645  17.5673091  20.3821729
  55.6775772  17.5169680  19.4480947  47.4059994  14.2508253  19.6913500
  48.2318014  13.9512025  19.3112143  47.0554046  13.4815876  20.1403289
  52.3741527  13.6034722  21.7611174  51.7521536  12.9405427  21.4613401
  53.0446394  13.6295854  21.0784821  52.4466055   2.0816510  31.3543680
  52.4954210   2.9578632  30.9721449  52.9888569   1.5393903  30.7815323
  62.9320900  12.6257633  30.6344817  62.1416444  12.6081772  30.0949316
  62.6954255  13.1645927  31.3893853  63.0518775   9.4750099  27.9477545
  63.1016780   9.3100107  28.8893068  62.9432699   8.6077358  27.5575426
  60.3422538   5.4581027  29.2636852  61.2432400   5.3187492  28.9720850
  60.4170512   5.6235482  30.2035029  54.6765343   2.8347882  28.1090038
  53.8068652   3.1281448  27.8372627  54.9124823   3.4188327  28.8297302
  64.5536972  11.8947041  28.1919567  64.2621780  12.2577021  29.0283028
  63.9409103  11.1814049  28.0132899  65.7532654   9.4599921  20.7122137
  66.5879546   9.8989725  20.8759697  65.8891783   8.9838574  19.8930383
  62.8024160   7.0179655  26.6599625  63.2778282   7.2107302  25.8518476
  61.8789726   7.0738841  26.4143008  57.3804377  -0.9472501  25.6255459
  57.8986321  -0.2111474  25.3001947  57.0259510  -0.6408508  26.4602218
  61.5025829   3.8945415  24.8927930  62.4543252   3.9943513  24.9140154
  61.3329280   3.1023684  25.4026015  59.5240209   0.9800999  25.0787331
  58.9290141   1.2606011  24.3833820  59.2389906   1.4694900  25.8504072
  63.9813907   7.1151535  24.0070230  63.9490227   6.1767536  24.1929914
  64.5914531   7.1935572  23.2736055  64.1308396   3.9062579  24.0528513
  63.6147444   3.1221035  23.8658442  65.0148344   3.5781295  24.2175033
  69.7990457   8.1767542  23.1476267  70.5293845   7.9152830  23.7083970
  69.1897402   7.4396264  23.1878335  67.8805754   6.3175405  23.7450718
  67.1538918   6.1831370  23.1367210  67.4653041   6.6252233  24.5507436
  55.7035931  10.0365334  31.5098091  56.6238940  10.2143933  31.7038137
  55.6685514   9.0921380  31.3577790  48.6998003   7.9466369  24.1520872
  48.9184013   8.8783477  24.1708906  49.1123777   7.5874343  24.9375676
  53.5725868   3.5199575  33.5423621  53.4722595   4.4693932  33.4735712
  53.3547410   3.1917814  32.6699691  53.4357138   6.9496714  32.3588683
  52.9524220   7.7497074  32.5652572  53.5218078   6.9604658  31.4056127
  49.3630476  10.8401248  24.3957116  50.3173730  10.8085191  24.3287048
  49.1643000  10.3791872  25.2107342  49.9529858   9.4102364  26.9627914
  50.7722747   9.9046443  26.9862751  50.2266666   8.4934332  26.9345482
  65.4983549   2.5387257  21.0984150  66.0928040   2.2982993  20.3877458
  65.5710133   1.8194387  21.7257686  47.7180705  16.3820868  21.4127314
  47.5835173  15.6221269  20.8465312  47.3012767  17.1061768  20.9456103
  67.8054622   5.8453458  19.8727571  67.2454180   5.9146647  20.6459133
  67.1998125   5.6694442  19.1527067  50.8749831  17.2790185  21.6245757
  50.7582215  18.2235617  21.5224447  50.0542277  16.9763746  22.0131556
  45.2064772   3.7440498  27.6620111  45.8523636   3.2339452  28.1507336
  44.9981923   4.4809180  28.2363536  57.7318165  10.8121346  33.1612252
  58.6009324  10.9861998  32.7998887  57.2524916  11.6315762  33.0387981
  51.9004345  17.9318447  24.8401685  52.8031591  17.9642057  25.1568180
  51.6741715  17.0018898  24.8548021  53.6557947  16.6849433  21.5011764
  52.7053578  16.6851295  21.3876136  53.9590433  15.9382168  20.9847799
  49.5462263   0.8908115  31.7595125  50.4093725   0.5344920  31.9698450
  48.9727674   0.5522010  32.4470530  69.3910640  22.5209972  22.5657526
  70.0289050  22.4016719  21.8620867  69.2731483  23.4690816  22.6245479
  66.2000347  22.4737400  22.5019051  65.8618858  22.3578464  21.6139586
  67.0690115  22.0728565  22.4820057  62.0587162  24.3272876  18.4915942
  61.4952027  24.2362813  17.7232230  61.9439557  23.5072781  18.9718435
  66.6820130  23.6272251  28.4605257  66.6708770  23.2325050  27.5885760
  66.8440769  22.8938324  29.0539028  59.6051594  25.8224068  21.3300163
  60.3972886  25.4814892  20.9146462  59.8448244  25.9319043  22.2502316
  67.6386721  27.9943844  13.8030407  66.9874701  28.5797924  13.4164421
  68.4331084  28.5250039  13.8625444  61.5642348  25.0832981  14.2017541
  62.3373224  24.5361968  14.0630417  61.9167747  25.9477230  14.4132003
  63.4027391  26.4109363  27.4084441  63.1117257  27.3154994  27.2931107
  64.0384375  26.4525891  28.1228510  64.3283598  23.7886212  23.9985800
  64.9247170  23.5642234  23.2842763  64.3858569  23.0470957  24.6011248
  63.9008626  21.2425647  11.8335991  64.1534147  20.7207168  11.0719454
  62.9633185  21.0791793  11.9362675  68.9451909  20.2461425  19.6410734
  69.7314998  19.8280849  19.2901151  69.2090613  21.1507518  19.8092383
  69.1161986  25.6834276  14.3399391  68.4807819  25.7568902  15.0520296
  68.7859393  26.2727875  13.6618471  74.3460336  20.1836659  20.5443713
  75.0785508  19.6135875  20.7781542  73.5899692  19.7958259  20.9850219
  63.6204915  23.1453753  14.0360366  63.5041173  22.4698656  14.7041451
  63.7307175  22.6586127  13.2192519  65.9636456  22.6063900  17.7407055
  65.5994663  22.0794521  18.4519977  66.8203572  22.2162369  17.5673541
  71.8685756  13.8958233  25.0038322  71.5369081  14.7653644  24.7799537
  71.2731370  13.5794517  25.6832352  65.6041943  17.6353800  12.7368404
  65.7716345  18.5034036  13.1038875  65.4139112  17.7981082  11.8129693
  68.3617276  26.0970779  24.4034234  68.0617999  26.9995818  24.2950042
  68.0168335  25.8302962  25.2555387  61.8129757  22.5484576  20.4370939
  60.8880254  22.4160790  20.6448631  62.0614170  23.3278795  20.9340881
  71.7614420  18.6153319  22.0831672  70.8531297  18.5468727  21.7890433
  71.7102015  19.0925264  22.9113497  65.5831163  20.0911457  13.7215071
  65.4630789  20.5368508  14.5600551  64.8883752  20.4396775  13.1628609
  59.1738568  22.1917849  21.2714728  59.3030949  22.4452328  22.1854140
  58.4936020  22.7845557  20.9519383  63.3438056  32.8615099  17.3705202
  63.2662085  33.8122924  17.4493683  62.7399699  32.5160972  18.0280128
  65.8355285  20.0342965  30.0266569  65.0588619  20.5936885  30.0169434
  66.4745848  20.5199747  30.5481439  73.6276066  16.8169757  23.8609546
  72.9850446  17.1102290  23.2149340  73.1230994  16.7022678  24.6662742
  71.2816230  20.5632931  14.5495405  72.1934086  20.7960317  14.3743102
  70.7725877  21.1469975  13.9870483  64.0901658  22.8428418  29.5884536
  64.8316342  23.3813462  29.3119360  63.3838643  23.4694707  29.7456088
  69.5656997  24.9857558  28.1856697  69.9740353  24.5439969  27.4411330
  68.8434259  24.4110186  28.4390890  65.9188067  19.9230165  25.5590254
  66.7649263  20.3469579  25.7024903  65.8586705  19.2663789  26.2528817
  69.8885812  25.5458749  21.9408986  69.2594674  25.7104463  21.2385054
  69.5011474  25.9600359  22.7119950  73.7675044  26.4813187  19.2953350
  73.0826082  26.8612088  18.7450383  73.8518893  27.0908513  20.0285298
  69.0687513  17.5834533  27.2171428  68.8248445  18.3376594  26.6805704
  69.3447443  17.9619881  28.0518675  71.0225975  24.1273146  25.8948694
  71.2342871  24.7704906  25.2183075  70.9755724  23.2935462  25.4270624
  68.6252204  16.7390966  22.7985266  67.7636683  17.0372220  23.0902003
  68.6514639  16.9561365  21.8666298  65.4413774  25.2833157  19.2059071
  65.9052119  25.5620860  18.4163694  65.1770572  24.3816602  19.0232162
  62.3337855  24.8304639  22.1438835  62.9039212  25.2591907  21.5056319
  62.9245967  24.5487223  22.8423020  64.3782660  21.4056309  16.0148637
  65.0806703  21.8577353  16.4822563  64.0463288  20.7640128  16.6428530
  62.8263021  19.9968066  30.3899846  62.1961682  20.6784347  30.6235243
  62.7199109  19.8851148  29.4452984  58.1207994  19.6639862  21.3165770
  57.3307048  19.9197391  20.8405881  58.6119241  20.4788200  21.4217811
  72.1371803  27.0045101  24.0671051  72.9589247  26.6025289  23.7853733
  72.1334206  26.9013335  25.0187167  60.0722739  20.0284441  18.2749247
  59.2753902  20.1403136  18.7932742  59.8448331  20.3671094  17.4090137
  65.9028407  26.5529145  26.2231761  65.9672839  27.0149552  27.0589933
  65.1939331  25.9226509  26.3514071  56.4045697  19.9170353  23.7480761
  56.6553735  20.8017362  24.0138337  56.9405245  19.7374954  22.9755853
  80.2277796  23.3483850  20.4156022  79.4741505  22.7791248  20.2600027
  80.3625338  23.3146514  21.3626657  65.6176424  28.2197252  16.0910742
  65.4822099  29.0648788  16.5195590  66.1586237  28.4216530  15.3276676
  62.1043764  14.2988832  32.7525097  61.7110710  13.7455030  33.4272741
  62.9209904  14.6099410  33.1431614  59.0705822  25.7372690  16.6638667
  59.5830342  26.5315940  16.8144232  59.7228535  25.0398981  16.5972268
  60.8800707  28.8538446  18.7461420  61.0567335  29.7756411  18.5582404
  61.6757540  28.5396866  19.1755800  65.0211725  15.7146711  30.3445354
  65.7621438  16.3153864  30.2649816  65.2529648  14.9724349  29.7863396
  60.1653063  20.9003078  28.6223583  60.0506578  19.9988335  28.9230682
  59.3097581  21.1466775  28.2708400  67.2444901  28.8420819  30.2211084
  66.8008755  28.0557197  29.9031988  67.9062114  29.0299969  29.5554975
  62.0032022  30.3716620  24.7471762  62.5539447  30.2433684  23.9748756
  61.1643498  30.6711509  24.3966655  69.3426139  29.1223618  28.2492485
  69.3244614  29.9432500  27.7572754  70.2646059  28.9977694  28.4742626
  65.7999193  26.6367748  29.0915993  66.3327530  25.8756036  28.8615301
  65.2713274  26.3441400  29.8340148  68.9668888  11.7427814  24.6209635
  68.6233157  12.6329456  24.5448746  69.3347851  11.5529472  23.7579220
  57.0354739  24.0661344  17.4398237  57.8729961  24.4758353  17.2231945
  57.2133006  23.1260787  17.4098431  68.9319171  21.7336425  13.1282070
  68.4165794  22.5041030  13.3670458  68.6596479  21.0601561  13.7515132
  66.5166282  16.5786126  18.1867309  65.6607878  16.1892976  18.0072947
  66.9293234  16.6578087  17.3267094  68.0465428  14.1132469  22.5858868
  67.5430224  14.0762604  21.7726674  68.3396035  15.0225212  22.6455525
  64.2908314  14.1971199  21.5925050  65.1561311  14.0014007  21.2330940
  64.3585823  13.9681551  22.5194407  73.9053445  24.4868780  15.0635244
  73.1282888  24.1479939  14.6190406  74.5844926  24.4921403  14.3890209
  68.7205474  19.6063517  14.9541851  68.4155609  19.9209666  15.8051995
  69.6735916  19.6844937  14.9969184  67.1651906  25.7653740  16.6034805
  66.6373267  25.0306500  16.2908043  66.6639408  26.5428417  16.3574774
  72.1444752  23.9602761  21.7201852  71.4868426  24.6502022  21.8081980
  72.9485151  24.3499193  22.0635838  61.8970633  16.4273407  18.9641417
  62.4714385  16.2048588  18.2314610  62.4841616  16.4962101  19.7170018
  70.9550211  22.3147134  19.7705794  71.4682092  22.9477125  20.2727503
  71.6051434  21.7148329  19.4049154  62.2240220  18.4577868  12.9837302
  61.3877533  18.7952554  13.3046577  62.0844990  18.3226848  12.0464439
  64.1993301  13.3014656  17.6916486  63.5457713  12.9863673  17.0673101
  64.1573775  12.6790396  18.4176309  65.3104506  23.5833951   9.6069778
  64.4031568  23.3523204   9.8060927  65.8075538  22.7871570   9.7943760
  68.2172585  32.2931458  12.5266465  67.5434284  32.5963155  13.1351422
  68.6038407  33.0960538  12.1771922  67.4331041  19.7896589  22.0164134
  66.5153603  20.0111536  21.8585822  67.8491185  19.8642900  21.1575841
  68.2166089  21.1888005  17.1466814  68.9637908  21.7009402  16.8373936
  68.4857679  20.8672058  18.0071208  66.4892739  23.6846546  14.1293769
  65.5803959  23.4005578  14.2266238  66.5187823  24.1045624  13.2697075
  71.7212007  27.2953135  17.8984936  71.2674334  26.4544045  17.9550127
  71.0905974  27.9314533  18.2359716  70.6644926  18.2245121  19.1285604
  69.9267683  17.7122507  19.4595846  70.9171700  17.7845503  18.3168880
  70.1644946  29.1329632  18.8334754  70.4567920  29.6934689  18.1147120
  70.6743567  29.4258193  19.5887913  70.7656554  11.0021373  19.7227373
  71.0715430  10.1418737  19.4353288  71.4909159  11.5938993  19.5226367
  57.0580910  21.4052060  18.1108971  56.8605310  20.8121420  17.3860037
  56.5027574  21.1004270  18.8284910  65.0377633  21.2975166  20.2303564
  65.0926243  20.3449003  20.1546041  64.2268835  21.4534605  20.7144862
  66.1868827  25.2255289  11.4681847  65.7488257  24.5091148  11.0087485
  66.9279268  25.4531404  10.9066939  62.9769993  19.9152226  17.9893943
  62.1637859  20.2146396  18.3959135  63.4728988  19.5207915  18.7068425
  65.1278571  29.9109983  19.9228208  65.0854750  30.1370829  18.9936740
  66.0441270  29.6773357  20.0714009  68.5744205  20.3794050  26.8208837
  68.9293593  20.6065524  27.6803302  69.2216336  20.7112427  26.1986092
  74.3041942  23.5012486  17.5258166  74.1659841  23.6914082  16.5979355
  73.9478161  24.2631869  17.9826217  62.4684068  17.4870581  23.6055178
  63.1083447  17.3459341  22.9078141  61.6361599  17.2005095  23.2293780
  74.3311322  25.5689013  22.5369437  74.7647828  25.4764302  23.3852491
  75.0442902  25.5446514  21.8989453  63.2444372  26.7873012  19.7190170
  64.0384971  26.2923332  19.5172745  62.5336064  26.2590875  19.3557876
  68.0639216  29.1691107  24.0702538  68.1176239  29.7382044  24.8380254
  67.1953998  29.3392992  23.7056575  59.5527135  20.9316094  15.7949923
  58.6224724  20.8700549  16.0119885  59.6484607  20.4092046  14.9986564
  59.4712685  17.4570906  18.3828165  59.7319502  18.3716240  18.2737325
  60.2929857  16.9895349  18.5324777  60.9437610  18.8708664  25.5526989
  61.6160663  18.6626026  24.9039638  60.1167396  18.6730750  25.1132221
  75.1926871  25.6112714  25.0702323  75.3862761  26.5158524  25.3161598
  75.0927489  25.1520133  25.9040908  66.8463182  15.4970605  27.5692650
  66.1991097  16.1960554  27.4757126  67.6164197  15.9306748  27.9368898
  70.2541980  25.7619457  30.6443203  70.1027486  25.5330008  29.7273287
  70.2446659  26.7190058  30.6574548  67.0227316  23.3351369  25.6289470
  67.9519376  23.4862529  25.4558437  66.6018346  23.4235390  24.7738116
  65.8215648  27.3602034  23.3988007  65.6826734  26.9920818  24.2713945
  65.0330244  27.8749673  23.2271965  66.4163800  32.4611130  14.7413544
  66.5915556  31.9899174  15.5559167  65.7296588  33.0876897  14.9694805
  67.3720863  26.7383637  20.7876845  67.0370696  26.6984407  21.6834495
  66.8724809  26.0728352  20.3147255  61.3465107  22.1451267  26.3129426
  61.2084905  21.4131505  26.9140965  62.2570031  22.0560167  26.0313614
  70.3080055  24.0839671  11.0613905  69.6909225  23.3586499  10.9646957
  69.8396543  24.8449031  10.7180979  63.9747408  21.8571226  25.8013106
  64.6847026  21.2164418  25.7599724  63.9316716  22.1084121  26.7239287
  71.9634186  28.7938579  28.7219685  71.9046733  28.1097799  28.0550268
  72.3653705  29.5357569  28.2700311  62.6876342  18.8436444  27.6208745
  62.1513699  18.3927182  28.2730342  62.0993050  18.9782353  26.8779210
  60.9824885  35.6100493  21.5153404  61.2221483  36.2419017  22.1932423
  60.1394082  35.2588533  21.8018763  71.9651594  26.7578163  26.9533665
  71.0778372  26.4204085  27.0760064  72.5350145  26.0261194  27.1902430
  53.6180741  23.0902255  20.2776716  54.3051781  22.7763985  19.6897731
  53.4628870  23.9943620  20.0043968  58.4215463  17.9792451  24.7061740
  58.3373652  17.3718121  23.9712150  57.5998169  18.4701470  24.7071236
  65.4952747  31.4179616  23.9194908  65.4222919  32.2234587  24.4314213
  65.0530140  31.6171581  23.0942929  65.2842527  30.6551386  17.4297730
  64.5010049  31.1973066  17.5235954  65.9835272  31.1725365  17.8291971
  68.5939177  16.4646015  20.0731935  69.0907876  15.7115977  19.7533005
  67.8226158  16.5010332  19.5075144  76.4468934  22.1686381  21.7150226
  76.4358811  23.0511096  21.3444160  75.5786314  21.8157931  21.5204763
  67.9551431  31.3166450  26.0753067  68.6679403  31.9513914  26.0028968
  67.4641459  31.4130316  25.2593068  69.6768958  25.2217702  17.6470358
  68.7425236  25.3419165  17.4775063  69.8545626  24.3190169  17.3830368
  65.1774146  18.6063398  19.8003620  64.8071933  18.0534438  20.4884525
  65.6733238  18.0021531  19.2478620  73.0641509  21.0635022  18.1820392
  73.5301961  21.8963013  18.1080695  73.5149009  20.5980003  18.8865651
  63.0063344  29.0660893  26.8958637  63.7072804  29.6997376  27.0488032
  62.5358459  29.4075625  26.1354277  71.1317740  27.4078843  15.1806545
  71.4077584  27.2935437  16.0900419  70.2622239  27.0096328  15.1418718
  71.0358172  13.4315609  22.2211294  70.1221251  13.6619835  22.3893501
  71.4651273  13.5154053  23.0725326  70.8064630  21.6205500  24.7211188
  70.1536080  21.8681408  24.0663641  71.1845010  20.8069639  24.3873665
  67.7671804  31.6565194  18.8239358  67.9494199  30.8386850  19.2867110
  68.5904790  31.8732886  18.3864248  68.1013970  30.5833379  16.0854407
  68.6301736  30.0725833  15.4724569  68.3642189  30.2675909  16.9499940
  66.8552203  22.3625312  31.2077225  66.1792840  22.2619441  31.8779600
  67.6779837  22.2064525  31.6713222  58.6031062  28.5997248  23.8289740
  59.1884499  27.8540936  23.9617644  58.4055901  28.9101205  24.7126404
  61.4569717  31.6348495  18.8452183  60.7880093  32.1194623  18.3616223
  61.3182587  31.8817716  19.7595561  53.1948717  21.1702848  22.5494183
  53.2332816  20.6366439  23.3431301  52.6889010  20.6438054  21.9305160
  65.5974986  33.6692239  25.4434841  66.1493294  33.8323860  26.2083926
  65.9381180  34.2596677  24.7714866  60.5739479  16.0167389  26.0456726
  60.6380806  16.8782220  25.6334123  60.5106600  15.4041390  25.3129084
  60.0491752  18.0890521  29.6929760  60.6763791  17.7067599  30.3067284
  59.1919671  17.8704723  30.0585452  70.4485860  28.4953496  31.2983495
  70.9925764  29.1083455  30.8038450  69.8672705  29.0533075  31.8150508
  56.8257295  19.8966950  15.6248115  57.1210736  18.9877629  15.5715168
  55.9245330  19.8754690  15.3029117  68.7343373  31.6174215  22.4298523
  68.6094513  30.8163954  21.9209469  69.3922464  32.1120408  21.9412493
  60.3551542  17.9722947  21.6075663  59.6338127  18.5858915  21.4683137
  61.1444797  18.5080712  21.5292309  70.7978282  29.4183235  24.0578073
  69.8508617  29.2988586  23.9856400  71.1461055  28.5305733  24.1404335
  63.1577855  15.3077374  27.8816315  63.6812257  15.5539670  28.6442624
  62.9390188  16.1397408  27.4619452  58.5545136  17.5781048  15.7487440
  58.2257842  16.6978427  15.5662546  58.9084507  17.5228717  16.6363829
  67.8024715  29.2135951  20.2582425  67.6549677  28.2852658  20.4389995
  68.6278209  29.2356042  19.7739501  61.6686959  17.8654018  16.1162918
  62.0083032  18.3939939  15.3941526  62.1159080  18.2034424  16.8921484
  71.4058837  30.0364510  21.3447298  72.3305384  29.8307371  21.2071749
  71.2374140  29.7880911  22.2536640  64.3630400  16.2491069  25.5665986
  64.0227220  15.4498882  25.9686665  63.6569406  16.5492779  24.9942819
  65.0146872  13.3340381  24.0193309  65.8372941  12.8600859  23.8972199
  65.2584935  14.1130865  24.5191995  63.6555106  16.3628639  14.3156210
  64.3763469  16.7409892  13.8119927  63.0320411  17.0817516  14.4191188
  67.7986229  17.0673788  15.2514543  68.0149844  17.9498426  14.9503371
  67.3180296  16.6760002  14.5220185  62.5385451  20.0259502  21.8285287
  62.3930031  20.3399805  22.7209569  62.0610654  20.6444402  21.2756186
  64.3981834  17.0162050  21.8766177  64.3843402  16.1203143  21.5398475
  65.1154262  17.0232713  22.5104463  66.2507964  17.4499390  23.9219304
  65.9925742  18.3716461  23.9203635  65.7193005  17.0529824  24.6119768
  71.1954153  30.5550177  16.7009390  71.3691031  29.9896599  15.9483242
  71.6883044  31.3551072  16.5188880  57.0131113  22.5664846  24.7672948
  56.4684581  23.3424654  24.8993223  57.8910463  22.9135651  24.6092070
  63.8018730  15.8976430  17.1453747  63.9234641  14.9693076  17.3444634
  63.5120772  15.9115116  16.2332062  66.6709920  13.5831340  20.2820467
  66.6931617  13.6470673  19.3272446  67.0877979  12.7435849  20.4760973
  77.0493544  23.3186600  18.3199689  77.4924690  22.5693925  17.9218813
  76.1720055  23.3096736  17.9373421  72.1829326  29.8716941  13.8006288
  72.8780230  30.4923634  14.0193603  72.5252476  29.0212293  14.0758666
  57.7997135  21.6934742  27.6603105  57.0578871  21.8417378  28.2467736
  57.4789879  21.9543008  26.7969855  74.0820749  27.3216647  15.3293619
  74.6072073  27.6603920  14.6042939  73.9943101  26.3863662  15.1456753
  65.7440797  31.2350721  27.4583495  66.0527924  30.9899867  28.3306195
  66.5416279  31.4397359  26.9702366  65.7661409  33.3888630  19.6888872
  65.3266400  32.8965009  20.3821729  66.5169526  32.8461598  19.4480947
  58.2453748  29.5800171  19.6913500  59.0711768  29.2803943  19.3112143
  57.8947800  28.8107793  20.1403289  63.2135282  28.9326639  21.7611174
  62.5915291  28.2697344  21.4613401  63.8840148  28.9587771  21.0784821
  56.4462353  27.4986498  20.6502434  55.6094262  27.0708672  20.4686435
  56.4185999  27.6918941  21.5873225  63.2859809  17.4108427  31.3543680
  63.3347965  18.2870550  30.9721449  63.8282323  16.8685820  30.7815323
  73.7714655  27.9549551  30.6344817  72.9810198  27.9373689  30.0949316
  73.5348009  28.4937844  31.3893853  73.8912530  24.8042017  27.9477545
  73.9410535  24.6392024  28.8893068  73.7826453  23.9369276  27.5575426
  62.7748788  27.4830563  15.2369634  62.9236909  28.1666027  14.5836307
  63.5815232  27.4635653  15.7519090  71.1816292  20.7872945  29.2636852
  72.0826155  20.6479410  28.9720850  71.2564267  20.9527400  30.2035029
  65.5159098  18.1639800  28.1090038  64.6462407  18.4573366  27.8372627
  65.7518578  18.7480245  28.8297302  75.3930727  27.2238958  28.1919567
  75.1015535  27.5868939  29.0283028  74.7802858  26.5105967  28.0132899
  76.5926409  24.7891838  20.7122137  77.4273300  25.2281642  20.8759697
  76.7285538  24.3130491  19.8930383  73.6417915  22.3471573  26.6599625
  74.1172036  22.5399219  25.8518476  72.7183480  22.4030759  26.4143008
  60.5301421  23.5095740  16.2430703  60.2847463  22.6058070  16.4410913
  60.6997336  23.5112891  15.3010181  68.2198131  14.3819417  25.6255459
  68.7380075  15.1180444  25.3001947  67.8653264  14.6883410  26.4602218
  59.7997069  19.2424098  13.7416864  59.1066314  19.3168453  13.0856900
  59.5548821  18.4784441  14.2638381  68.4710726  10.8019699  21.1456355
  68.7512479  10.1342888  21.7716782  69.2561332  10.9948795  20.6331019
  66.2744194  29.9778693  12.7081381  65.7018161  30.5968880  12.2551853
  66.8476988  30.5278055  13.2421303  72.3419584  19.2237333  24.8927930
  73.2937007  19.3235431  24.9140154  72.1723034  18.4315602  25.4026015
  70.3633963  16.3092916  25.0787331  69.7683895  16.5897929  24.3833820
  70.0783660  16.7986817  25.8504072  69.4941454  30.2615843  13.8389964
  70.4272127  30.1961405  14.0422839  69.4064667  31.0972110  13.3804496
  72.1229470  29.5781714  10.7993911  72.0443102  29.2441577  11.6929669
  72.9439137  30.0703481  10.7985384  74.8207662  22.4443453  24.0070230
  74.7883982  21.5059454  24.1929914  75.4308285  22.5227490  23.2736055
  66.6590993  21.3139506  10.0497434  67.6050097  21.1845714  10.1185852
  66.2805237  20.5754168  10.5266862  74.9702150  19.2354496  24.0528513
  74.4541199  18.4512953  23.8658442  75.8542099  18.9073213  24.2175033
  72.6312877  12.9795512  20.0124326  72.4337698  12.6710600  20.8967658
  73.2412583  13.7057151  20.1422256  80.6384211  23.5059460  23.1476267
  81.3687600  23.2444748  23.7083970  80.0291157  22.7688182  23.1878335
  78.7199509  21.6467322  23.7450718  77.9932672  21.5123287  23.1367210
  78.3046795  21.9544151  24.5507436  66.5429685  25.3657252  31.5098091
  67.4632695  25.5435851  31.7038137  66.5079268  24.4213297  31.3577790
  55.7611850  20.5595846  20.4351366  55.4414634  19.7061154  20.1425740
  55.2145278  20.7744424  21.1909333  59.5391758  23.2758287  24.1520872
  59.7577767  24.2075394  24.1708906  59.9517531  22.9166261  24.9375676
  66.4595975  13.7826372  16.1396560  65.6496704  13.4373457  16.5151807
  67.1480392  13.4733916  16.7284172  68.3886524  12.8604419  17.7620857
  68.9417562  13.2799872  18.4210880  68.6256610  11.9340167  17.8043813
  64.4119623  18.8491492  33.5423621  64.3116350  19.7985849  33.4735712
  64.1941165  18.5209731  32.6699691  55.6300110  24.1798757  22.4044487
  54.9363581  23.7652710  21.8914442  56.3773101  24.2219294  21.8077906
  71.7665331  14.9704944  17.2699521  71.1864000  15.6289748  16.8877574
  71.5001263  14.1482288  16.8586939  70.2168897  14.3710002  19.4720842
  70.7168675  14.4826536  18.6635161  70.8604505  14.0671054  20.1121650
  64.2750893  22.2788631  32.3588683  63.7917975  23.0788991  32.5652572
  64.3611832  22.2896576  31.4056127  57.5436853  24.1117011  20.2810502
  57.5207541  24.2104698  19.3292385  57.8537489  24.9582162  20.6027668
  60.2024230  26.1693166  24.3957116  61.1567484  26.1377108  24.3287048
  60.0036754  25.7083790  25.2107342  60.7923613  24.7394282  26.9627914
  61.6116502  25.2338361  26.9862751  61.0660420  23.8226250  26.9345482
  70.5490209  17.1305034  16.3255870  69.6616064  17.4154685  16.1076064
  70.9644198  16.9698798  15.4783147  73.9004745  17.1551555  20.0410209
  74.6765135  17.6448008  20.3134826  73.1752879  17.5809609  20.4982078
  76.3377304  17.8679174  21.0984150  76.9321794  17.6274910  20.3877458
  76.4103887  17.1486305  21.7257686  58.5574459  31.7112785  21.4127314
  58.4228927  30.9513186  20.8465312  58.1406522  32.4353685  20.9456103
  69.6933422  26.8949709  10.4203890  70.3969272  27.0999711  11.0361545
  68.9696071  27.4626471  10.6852973  70.5231233  22.6459570  16.5406160
  70.4666434  23.1028122  15.7013792  71.0759575  21.8850255  16.3629003
  74.3336038  18.4349302  17.3656279  74.0772973  18.0345938  18.1964487
  73.7088906  19.1493096  17.2406418  78.6448376  21.1745375  19.8727571
  78.0847934  21.2438565  20.6459133  78.0391880  20.9986360  19.1527067
  61.7143585  32.6082102  21.6245757  61.5975969  33.5527535  21.5224447
  60.8936031  32.3055664  22.0131556  71.6020120  27.3332238  12.4702350
  72.4365724  26.9013437  12.2879824  71.4404463  27.1614252  13.3979244
  71.2566012  23.8364351  13.8358689  71.2014816  23.6708623  12.8947133
  70.6312067  24.5440384  13.9920879  56.0458527  19.0732416  27.6620111
  56.6917390  18.5631370  28.1507336  55.8375678  19.8101097  28.2363536
  68.5711919  26.1413263  33.1612252  69.4403079  26.3153916  32.7998887
  68.0918670  26.9607680  33.0387981  64.5662137  13.3372460  13.4144007
  64.5540807  14.2814300  13.5712278  65.4585559  13.1542606  13.1203469
  62.7398099  33.2610364  24.8401685  63.6425346  33.2933975  25.1568180
  62.5135469  32.3310815  24.8548021  64.4951701  32.0141351  21.5011764
  63.5447332  32.0143212  21.3876136  64.7984187  31.2674085  20.9847799
  68.3814257   9.9315237  17.6689944  67.6146653   9.3773724  17.8146627
  68.7924962  10.0037106  18.5304096  60.3856018  16.2200033  31.7595125
  61.2487479  15.8636838  31.9698450  59.8121428  15.8813928  32.4470530
  80.2304395  37.8501889  22.5657526  80.8682805  37.7308637  21.8620867
  80.1125238  38.7982733  22.6245479  77.0394101  37.8029317  22.5019051
  76.7012613  37.6870382  21.6139586  77.9083869  37.4020482  22.4820057
  72.8980917  39.6564794  18.4915942  72.3345782  39.5654731  17.7232230
  72.7833312  38.8364698  18.9718435  70.4445349  41.1515985  21.3300163
  71.2366641  40.8106810  20.9146462  70.6841999  41.2610960  22.2502316
  78.4780475  43.3235761  13.8030407  77.8268455  43.9089842  13.4164421
  79.2724838  43.8541956  13.8625444  72.4036103  40.4124899  14.2017541
  73.1766979  39.8653886  14.0630417  72.7561501  41.2769148  14.4132003
  75.1677352  39.1178129  23.9985800  75.7640924  38.8934152  23.2842763
  75.2252324  38.3762875  24.6011248  74.7402380  36.5717565  11.8335991
  74.9927901  36.0499086  11.0719454  73.8026940  36.4083710  11.9362675
  79.7845663  35.5753343  19.6410734  80.5708752  35.1572766  19.2901151
  80.0484368  36.4799435  19.8092383  79.9555741  41.0126193  14.3399391
  79.3201574  41.0860820  15.0520296  79.6253147  41.6019792  13.6618471
  85.1854090  35.5128576  20.5443713  85.9179262  34.9427793  20.7781542
  84.4293446  35.1250177  20.9850219  74.4598669  38.4745671  14.0360366
  74.3434927  37.7990574  14.7041451  74.5700929  37.9878045  13.2192519
  76.8030210  37.9355818  17.7407055  76.4388417  37.4086439  18.4519977
  77.6597326  37.5454287  17.5673541  82.7079511  29.2250150  25.0038322
  82.3762835  30.0945561  24.7799537  82.1125124  28.9086434  25.6832352
  76.4435697  32.9645718  12.7368404  76.6110099  33.8325954  13.1038875
  76.2532866  33.1272999  11.8129693  79.2011030  41.4262696  24.4034234
  78.9011753  42.3287735  24.2950042  78.8562090  41.1594880  25.2555387
  72.6523512  37.8776493  20.4370939  71.7274008  37.7452707  20.6448631
  72.9007925  38.6570712  20.9340881  82.6008174  33.9445237  22.0831672
  81.6925051  33.8760645  21.7890433  82.5495770  34.4217182  22.9113497
  76.4224918  35.4203375  13.7215071  76.3024543  35.8660426  14.5600551
  75.7277506  35.7688693  13.1628609  70.0132323  37.5209767  21.2714728
  70.1424704  37.7744246  22.1854140  69.3329774  38.1137475  20.9519383
  74.1831810  48.1907017  17.3705202  74.1055840  49.1414842  17.4493683
  73.5793454  47.8452889  18.0280128  84.4669820  32.1461675  23.8609546
  83.8244201  32.4394208  23.2149340  83.9624749  32.0314595  24.6662742
  82.1209984  35.8924848  14.5495405  83.0327840  36.1252235  14.3743102
  81.6119631  36.4761892  13.9870483  74.9295412  38.1720336  29.5884536
  75.6710096  38.7105380  29.3119360  74.2232398  38.7986624  29.7456088
  76.7581822  35.2522083  25.5590254  77.6043017  35.6761496  25.7024903
  76.6980459  34.5955707  26.2528817  80.7279566  40.8750667  21.9408986
  80.0988429  41.0396381  21.2385054  80.3405228  41.2892276  22.7119950
  84.6068798  41.8105104  19.2953350  83.9219836  42.1904006  18.7450383
  84.6912648  42.4200431  20.0285298  79.9081267  32.9126451  27.2171428
  79.6642199  33.6668512  26.6805704  80.1841198  33.2911799  28.0518675
  81.8619730  39.4565064  25.8948694  82.0736625  40.0996823  25.2183075
  81.8149478  38.6227380  25.4270624  79.4645959  32.0682884  22.7985266
  78.6030438  32.3664138  23.0902003  79.4908394  32.2853283  21.8666298
  76.2807528  40.6125075  19.2059071  76.7445874  40.8912778  18.4163694
  76.0164326  39.7108519  19.0232162  73.1731609  40.1596556  22.1438835
  73.7432966  40.5883825  21.5056319  73.7639721  39.8779141  22.8423020
  75.2176414  36.7348227  16.0148637  75.9200458  37.1869271  16.4822563
  74.8857043  36.0932046  16.6428530  73.6656776  35.3259984  30.3899846
  73.0355436  36.0076265  30.6235243  73.5592864  35.2143065  29.4452984
  68.9601748  34.9931780  21.3165770  68.1700802  35.2489308  20.8405881
  69.4512996  35.8080118  21.4217811  82.9765558  42.3337019  24.0671051
  83.7983002  41.9317206  23.7853733  82.9727961  42.2305253  25.0187167
  70.9116494  35.3576359  18.2749247  70.1147657  35.4695053  18.7932742
  70.6842086  35.6963011  17.4090137  67.2439451  35.2462270  23.7480761
  67.4947490  36.1309280  24.0138337  67.7799000  35.0666872  22.9755853
  91.0671551  38.6775767  20.4156022  90.3135259  38.1083165  20.2600027
  91.2019092  38.6438432  21.3626657  76.4570179  43.5489170  16.0910742
  76.3215854  44.3940705  16.5195590  76.9979991  43.7508447  15.3276676
  72.9437519  29.6280750  32.7525097  72.5504464  29.0746948  33.4272741
  73.7603659  29.9391328  33.1431614  69.9099576  41.0664608  16.6638667
  70.4224097  41.8607858  16.8144232  70.5622289  40.3690898  16.5972268
  71.7194461  44.1830364  18.7461420  71.8961089  45.1048329  18.5582404
  72.5151295  43.8688783  19.1755800  71.0046818  36.2294996  28.6223583
  70.8900333  35.3280253  28.9230682  70.1491335  36.4758693  28.2708400
  79.8062643  27.0719732  24.6209635  79.4626912  27.9621373  24.5448746
  80.1741605  26.8821389  23.7579220  67.8748493  39.3953262  17.4398237
  68.7123715  39.8050270  17.2231945  68.0526761  38.4552704  17.4098431
  79.7712925  37.0628343  13.1282070  79.2559549  37.8332947  13.3670458
  79.4990234  36.3893479  13.7515132  77.3560036  31.9078043  18.1867309
  76.5001633  31.5184894  18.0072947  77.7686988  31.9870004  17.3267094
  78.8859183  29.4424387  22.5858868  78.3823979  29.4054522  21.7726674
  79.1789790  30.3517129  22.6455525  75.1302069  29.5263116  21.5925050
  75.9955066  29.3305925  21.2330940  75.1979578  29.2973468  22.5194407
  84.7447199  39.8160697  15.0635244  83.9676642  39.4771857  14.6190406
  85.4238680  39.8213321  14.3890209  79.5599228  34.9355435  14.9541851
  79.2549364  35.2501584  15.8051995  80.5129671  35.0136855  14.9969184
  78.0045660  41.0945658  16.6034805  77.4767022  40.3598418  16.2908043
  77.5033163  41.8720334  16.3574774  82.9838506  39.2894679  21.7201852
  82.3262181  39.9793940  21.8081980  83.7878905  39.6791111  22.0635838
  72.7364388  31.7565324  18.9641417  73.3108140  31.5340506  18.2314610
  73.3235370  31.8254019  19.7170018  81.7943965  37.6439051  19.7705794
  82.3075847  38.2769043  20.2727503  82.4445189  37.0440247  19.4049154
  73.0633975  33.7869785  12.9837302  72.2271287  34.1244472  13.3046577
  72.9238745  33.6518765  12.0464439  75.0387056  28.6306573  17.6916486
  74.3851468  28.3155590  17.0673101  74.9967530  28.0082314  18.4176309
  76.1498260  38.9125868   9.6069778  75.2425322  38.6815122   9.8060927
  76.6469292  38.1163488   9.7943760  79.0566339  47.6223376  12.5266465
  78.3828038  47.9255072  13.1351422  79.4432161  48.4252456  12.1771922
  78.2724796  35.1188507  22.0164134  77.3547357  35.3403454  21.8585822
  78.6884940  35.1934817  21.1575841  79.0559844  36.5179923  17.1466814
  79.8031663  37.0301320  16.8373936  79.3251433  36.1963975  18.0071208
  77.3286494  39.0138463  14.1293769  76.4197713  38.7297496  14.2266238
  77.3581578  39.4337542  13.2697075  82.5605761  42.6245053  17.8984936
  82.1068088  41.7835963  17.9550127  81.9299728  43.2606451  18.2359716
  81.5038681  33.5537039  19.1285604  80.7661438  33.0414425  19.4595846
  81.7565454  33.1137420  18.3168880  81.0038701  44.4621549  18.8334754
  81.2961675  45.0226607  18.1147120  81.5137321  44.7550110  19.5887913
  81.6050308  26.3313291  19.7227373  81.9109185  25.4710654  19.4353288
  82.3302913  26.9230911  19.5226367  67.8974664  36.7343977  18.1108971
  67.6999064  36.1413338  17.3860037  67.3421328  36.4296188  18.8284910
  75.8771388  36.6267084  20.2303564  75.9319998  35.6740920  20.1546041
  75.0662590  36.7826523  20.7144862  77.0262582  40.5547207  11.4681847
  76.5882012  39.8383066  11.0087485  77.7673023  40.7823322  10.9066939
  73.8163748  35.2444144  17.9893943  73.0031613  35.5438314  18.3959135
  74.3122742  34.8499832  18.7068425  75.9672326  45.2401901  19.9228208
  75.9248505  45.4662747  18.9936740  76.8835025  45.0065275  20.0714009
  79.4137960  35.7085968  26.8208837  79.7687347  35.9357441  27.6803302
  80.0610091  36.0404345  26.1986092  85.1435696  38.8304404  17.5258166
  85.0053595  39.0206000  16.5979355  84.7871915  39.5923787  17.9826217
  73.3077823  32.8162499  23.6055178  73.9477202  32.6751258  22.9078141
  72.4755353  32.5297013  23.2293780  85.1705076  40.8980931  22.5369437
  85.6041583  40.8056220  23.3852491  85.8836657  40.8738431  21.8989453
  74.0838127  42.1164930  19.7190170  74.8778725  41.6215250  19.5172745
  73.3729819  41.5882793  19.3557876  70.3920890  36.2608011  15.7949923
  69.4618478  36.1992467  16.0119885  70.4878362  35.7383964  14.9986564
  70.3106439  32.7862824  18.3828165  70.5713256  33.7008157  18.2737325
  71.1323611  32.3187267  18.5324777  71.7831364  34.2000581  25.5526989
  72.4554418  33.9917943  24.9039638  70.9561151  34.0022667  25.1132221
  86.0320626  40.9404632  25.0702323  86.2256516  41.8450442  25.3161598
  85.9321244  40.4812051  25.9040908  77.8621071  38.6643287  25.6289470
  78.7913131  38.8154447  25.4558437  77.4412101  38.7527308  24.7738116
  76.6609403  42.6893952  23.3988007  76.5220488  42.3212736  24.2713945
  75.8723999  43.2041591  23.2271965  77.2557554  47.7903048  14.7413544
  77.4309310  47.3191091  15.5559167  76.5690342  48.4168814  14.9694805
  78.2114618  42.0675554  20.7876845  77.8764450  42.0276324  21.6834495
  77.7118563  41.4020270  20.3147255  72.1858862  37.4743184  26.3129426
  72.0478660  36.7423423  26.9140965  73.0963785  37.3852084  26.0313614
  81.1473809  39.4131589  11.0613905  80.5302980  38.6878417  10.9646957
  80.6790298  40.1740949  10.7180979  74.8141162  37.1863144  25.8013106
  75.5240781  36.5456336  25.7599724  74.7710470  37.4376038  26.7239287
  82.8027941  44.1230497  28.7219685  82.7440487  43.4389717  28.0550268
  83.2047459  44.8649487  28.2700311  73.5270096  34.1728361  27.6208745
  72.9907453  33.7219100  28.2730342  72.9386805  34.3074270  26.8779210
  72.9372355  33.6317013  10.1835209  72.0601822  33.5105814   9.8197456
  73.4130108  32.8403091   9.9314098  82.8045348  42.0870081  26.9533665
  81.9172127  41.7496003  27.0760064  83.3743899  41.3553112  27.1902430
  64.4574495  38.4194173  20.2776716  65.1445535  38.1055903  19.6897731
  64.3022624  39.3235537  20.0043968  69.2609217  33.3084369  24.7061740
  69.1767406  32.7010039  23.9712150  68.4391924  33.7993387  24.7071236
  76.1236281  45.9843303  17.4297730  75.3403803  46.5264983  17.5235954
  76.8229026  46.5017283  17.8291971  79.4332931  31.7937933  20.0731935
  79.9301631  31.0407895  19.7533005  78.6619913  31.8302249  19.5075144
  87.2862689  37.4978298  21.7150226  87.2752565  38.3803014  21.3444160
  86.4180068  37.1449849  21.5204763  80.5162712  40.5509620  17.6470358
  79.5818991  40.6711082  17.4775063  80.6939381  39.6482087  17.3830368
  76.0167900  33.9355316  19.8003620  75.6465688  33.3826356  20.4884525
  76.5126993  33.3313449  19.2478620  83.9035263  36.3926939  18.1820392
  84.3695716  37.2254931  18.1080695  84.3542764  35.9271921  18.8865651
  81.9711495  42.7370760  15.1806545  82.2471338  42.6227355  16.0900419
  81.1015993  42.3388245  15.1418718  81.8751926  28.7607526  22.2211294
  80.9615006  28.9911753  22.3893501  82.3045028  28.8445970  23.0725326
  81.6458385  36.9497418  24.7211188  80.9929835  37.1973326  24.0663641
  82.0238765  36.1361556  24.3873665  78.6065559  46.9857111  18.8239358
  78.7887953  46.1678767  19.2867110  79.4298545  47.2024804  18.3864248
  78.9407724  45.9125296  16.0854407  79.4695490  45.4017751  15.4724569
  79.2035944  45.5967827  16.9499940  69.4424817  43.9289166  23.8289740
  70.0278254  43.1832854  23.9617644  69.2449655  44.2393122  24.7126404
  72.2963472  46.9640413  18.8452183  71.6273847  47.4486541  18.3616223
  72.1576342  47.2109634  19.7595561  64.0342471  36.4994766  22.5494183
  64.0726571  35.9658357  23.3431301  63.5282764  35.9729971  21.9305160
  71.4133234  31.3459306  26.0456726  71.4774560  32.2074137  25.6334123
  71.3500354  30.7333308  25.3129084  70.8885506  33.4182439  29.6929760
  71.5157545  33.0359516  30.3067284  70.0313425  33.1996641  30.0585452
  67.6651049  35.2258868  15.6248115  67.9604490  34.3169547  15.5715168
  66.7639085  35.2046608  15.3029117  79.5737128  46.9466132  22.4298523
  79.4488267  46.1455872  21.9209469  80.2316219  47.4412326  21.9412493
  71.1945296  33.3014865  21.6075663  70.4731882  33.9150832  21.4683137
  71.9838552  33.8372630  21.5292309  81.6372036  44.7475152  24.0578073
  80.6902372  44.6280503  23.9856400  81.9854809  43.8597650  24.1404335
  73.9971610  30.6369291  27.8816315  74.5206011  30.8831588  28.6442624
  73.7783943  31.4689326  27.4619452  69.3938891  32.9072966  15.7487440
  69.0651597  32.0270345  15.5662546  69.7478261  32.8520634  16.6363829
  78.6418470  44.5427868  20.2582425  78.4943432  43.6144576  20.4389995
  79.4671963  44.5647959  19.7739501  72.5080714  33.1945936  16.1162918
  72.8476786  33.7231857  15.3941526  72.9552834  33.5326342  16.8921484
  82.2452591  45.3656427  21.3447298  83.1699139  45.1599289  21.2071749
  82.0767895  45.1172828  22.2536640  75.2024155  31.5782986  25.5665986
  74.8620975  30.7790799  25.9686665  74.4963161  31.8784697  24.9942819
  75.8540626  28.6632299  24.0193309  76.6766696  28.1892777  23.8972199
  76.0978690  29.4422782  24.5191995  74.4948861  31.6920557  14.3156210
  75.2157223  32.0701810  13.8119927  73.8714165  32.4109434  14.4191188
  78.6379984  32.3965706  15.2514543  78.8543598  33.2790344  14.9503371
  78.1574051  32.0051920  14.5220185  73.3779205  35.3551419  21.8285287
  73.2323786  35.6691722  22.7209569  72.9004409  35.9736320  21.2756186
  75.2375588  32.3453967  21.8766177  75.2237157  31.4495061  21.5398475
  75.9548016  32.3524631  22.5104463  77.0901719  32.7791308  23.9219304
  76.8319497  33.7008378  23.9203635  76.5586759  32.3821742  24.6119768
  82.0347908  45.8842095  16.7009390  82.2084785  45.3188517  15.9483242
  82.5276799  46.6842990  16.5188880  67.8524867  37.8956764  24.7672948
  67.3078335  38.6716572  24.8993223  68.7304217  38.2427568  24.6092070
  74.6412484  31.2268348  17.1453747  74.7628395  30.2984994  17.3444634
  74.3514526  31.2407034  16.2332062  77.5103674  28.9123258  20.2820467
  77.5325371  28.9762591  19.3272446  77.9271733  28.0727767  20.4760973
  87.8887299  38.6478518  18.3199689  88.3318445  37.8985843  17.9218813
  87.0113809  38.6388654  17.9373421  83.0223080  45.2008859  13.8006288
  83.7173985  45.8215552  14.0193603  83.3646230  44.3504210  14.0758666
  68.6390889  37.0226660  27.6603105  67.8972625  37.1709295  28.2467736
  68.3183634  37.2834926  26.7969855  84.9214503  42.6508565  15.3293619
  85.4465827  42.9895837  14.6042939  84.8336856  41.7155580  15.1456753
  76.6055164  48.7180548  19.6888872  76.1660154  48.2256927  20.3821729
  77.3563281  48.1753516  19.4480947  69.0847503  44.9092089  19.6913500
  69.9105523  44.6095861  19.3112143  68.7341555  44.1399711  20.1403289
  74.0529036  44.2618557  21.7611174  73.4309045  43.5989262  21.4613401
  74.7233903  44.2879689  21.0784821  67.2856108  42.8278415  20.6502434
  66.4488016  42.4000590  20.4686435  67.2579753  43.0210859  21.5873225
  84.7306284  40.1333935  27.9477545  84.7804289  39.9683942  28.8893068
  84.6220208  39.2661194  27.5575426  73.6142543  42.8122480  15.2369634
  73.7630663  43.4957945  14.5836307  74.4208986  42.7927570  15.7519090
  87.4320163  40.1183756  20.7122137  88.2667055  40.5573560  20.8759697
  87.5679292  39.6422409  19.8930383  84.4811669  37.6763491  26.6599625
  84.9565791  37.8691137  25.8518476  83.5577235  37.7322677  26.4143008
  71.3695176  38.8387658  16.2430703  71.1241218  37.9349988  16.4410913
  71.5391090  38.8404808  15.3010181  79.0591886  29.7111334  25.6255459
  79.5773830  30.4472361  25.3001947  78.7047019  30.0175328  26.4602218
  70.6390823  34.5716016  13.7416864  69.9460068  34.6460371  13.0856900
  70.3942575  33.8076359  14.2638381  79.3104480  26.1311617  21.1456355
  79.5906234  25.4634806  21.7716782  80.0955087  26.3240712  20.6331019
  77.1137948  45.3070611  12.7081381  76.5411916  45.9260798  12.2551853
  77.6870742  45.8569972  13.2421303  83.1813338  34.5529251  24.8927930
  84.1330761  34.6527349  24.9140154  83.0116789  33.7607519  25.4026015
  81.2027718  31.6384834  25.0787331  80.6077650  31.9189847  24.3833820
  80.9177415  32.1278735  25.8504072  80.3335208  45.5907761  13.8389964
  81.2665881  45.5253323  14.0422839  80.2458421  46.4264028  13.3804496
  82.9623225  44.9073631  10.7993911  82.8836856  44.5733495  11.6929669
  83.7832892  45.3995399  10.7985384  85.6601416  37.7735371  24.0070230
  85.6277736  36.8351371  24.1929914  86.2702040  37.8519407  23.2736055
  77.4984747  36.6431424  10.0497434  78.4443852  36.5137632  10.1185852
  77.1198992  35.9046085  10.5266862  85.8095905  34.5646414  24.0528513
  85.2934953  33.7804871  23.8658442  86.6935853  34.2365131  24.2175033
  83.4706632  28.3087430  20.0124326  83.2731453  28.0002518  20.8967658
  84.0806337  29.0349068  20.1422256  91.4777966  38.8351377  23.1476267
  92.2081354  38.5736666  23.7083970  90.8684911  38.0980099  23.1878335
  89.5593263  36.9759240  23.7450718  88.8326427  36.8415205  23.1367210
  89.1440550  37.2836069  24.5507436  75.6827664  34.5681400   9.9852319
  74.7759120  34.2714513  10.0615033  75.9603645  34.2711218   9.1186605
  66.6005605  35.8887763  20.4351366  66.2808389  35.0353072  20.1425740
  66.0539033  36.1036341  21.1909333  70.3785512  38.6050204  24.1520872
  70.5971522  39.5367312  24.1708906  70.7911286  38.2458179  24.9375676
  77.2989730  29.1118290  16.1396560  76.4890458  28.7665375  16.5151807
  77.9874147  28.8025833  16.7284172  79.2280278  28.1896336  17.7620857
  79.7811317  28.6091790  18.4210880  79.4650365  27.2632085  17.8043813
  74.4526449  31.4268335  10.1264298  75.3145613  31.7523233  10.3860116
  74.6376793  30.6399831   9.6137364  66.4693865  39.5090675  22.4044487
  65.7757336  39.0944628  21.8914442  67.2166856  39.5511211  21.8077906
  82.6059085  30.2996862  17.2699521  82.0257754  30.9581666  16.8877574
  82.3395018  29.4774206  16.8586939  81.0562652  29.7001919  19.4720842
  81.5562430  29.8118454  18.6635161  81.6998260  29.3962972  20.1121650
  68.3830607  39.4408929  20.2810502  68.3601295  39.5396616  19.3292385
  68.6931244  40.2874079  20.6027668  81.3883963  32.4596952  16.3255870
  80.5009818  32.7446603  16.1076064  81.8037952  32.2990715  15.4783147
  84.7398499  32.4843473  20.0410209  85.5158890  32.9739925  20.3134826
  84.0146634  32.9101527  20.4982078  87.1771058  33.1971092  21.0984150
  87.7715549  32.9566828  20.3877458  87.2497642  32.4778223  21.7257686
  69.3968214  47.0404703  21.4127314  69.2622682  46.2805104  20.8465312
  68.9800276  47.7645603  20.9456103  80.5327177  42.2241627  10.4203890
  81.2363027  42.4291629  11.0361545  79.8089826  42.7918389  10.6852973
  81.3624987  37.9751488  16.5406160  81.3060188  38.4320039  15.7013792
  81.9153329  37.2142172  16.3629003  85.1729793  33.7641220  17.3656279
  84.9166727  33.3637855  18.1964487  84.5482661  34.4785014  17.2406418
  89.4842131  36.5037293  19.8727571  88.9241689  36.5730482  20.6459133
  88.8785634  36.3278278  19.1527067  82.4413874  42.6624156  12.4702350
  83.2759478  42.2305354  12.2879824  82.2798217  42.4906170  13.3979244
  82.0959766  39.1656269  13.8358689  82.0408570  39.0000541  12.8947133
  81.4705822  39.8732302  13.9920879  66.8852281  34.4024334  27.6620111
  67.5311145  33.8923287  28.1507336  66.6769432  35.1393015  28.2363536
  75.4055892  28.6664378  13.4144007  75.3934562  29.6106218  13.5712278
  76.2979314  28.4834524  13.1203469  75.3345456  47.3433269  21.5011764
  74.3841087  47.3435130  21.3876136  75.6377942  46.5966003  20.9847799
  79.2208011  25.2607155  17.6689944  78.4540407  24.7065641  17.8146627
  79.6318716  25.3329024  18.5304096  71.2249772  31.5491951  31.7595125
  72.0881234  31.1928755  31.9698450  70.6515183  31.2105845  32.4470530
  91.0698149  53.1793807  22.5657526  91.7076559  53.0600554  21.8620867
  90.9518992  54.1274651  22.6245479  87.8787856  53.1321235  22.5019051
  87.5406367  53.0162300  21.6139586  88.7477624  52.7312400  22.4820057
  83.7374671  54.9856711  18.4915942  83.1739536  54.8946648  17.7232230
  83.6227066  54.1656616  18.9718435  88.3607639  54.2856087  28.4605257
  88.3496279  53.8908885  27.5885760  88.5228278  53.5522159  29.0539028
  81.2839103  56.4807903  21.3300163  82.0760395  56.1398728  20.9146462
  81.5235753  56.5902878  22.2502316  89.3174230  58.6527679  13.8030407
  88.6662210  59.2381760  13.4164421  90.1118593  59.1833874  13.8625444
  83.2429857  55.7416816  14.2017541  84.0160733  55.1945803  14.0630417
  83.5955256  56.6061066  14.4132003  85.0814900  57.0693199  27.4084441
  84.7904766  57.9738829  27.2931107  85.7171884  57.1109726  28.1228510
  86.0071107  54.4470047  23.9985800  86.6034679  54.2226069  23.2842763
  86.0646078  53.7054793  24.6011248  85.5796135  51.9009482  11.8335991
  85.8321656  51.3791004  11.0719454  84.6420694  51.7375628  11.9362675
  90.6239418  50.9045261  19.6410734  91.4102507  50.4864684  19.2901151
  90.8878122  51.8091353  19.8092383  90.7949495  56.3418111  14.3399391
  90.1595328  56.4152738  15.0520296  90.4646901  56.9311710  13.6618471
  96.0247845  50.8420494  20.5443713  96.7573017  50.2719711  20.7781542
  95.2687201  50.4542094  20.9850219  85.2992424  53.8037588  14.0360366
  85.1828682  53.1282492  14.7041451  85.4094684  53.3169962  13.2192519
  87.6423965  53.2647735  17.7407055  87.2782172  52.7378356  18.4519977
  88.4991080  52.8746205  17.5673541  93.5473265  44.5542068  25.0038322
  93.2156590  45.4237479  24.7799537  92.9518879  44.2378352  25.6832352
  87.2829452  48.2937635  12.7368404  87.4503854  49.1617872  13.1038875
  87.0926621  48.4564917  11.8129693  90.0404785  56.7554614  24.4034234
  89.7405508  57.6579653  24.2950042  89.6955844  56.4886797  25.2555387
  83.4917266  53.2068411  20.4370939  82.5667763  53.0744625  20.6448631
  83.7401679  53.9862630  20.9340881  93.4401929  49.2737154  22.0831672
  92.5318806  49.2052563  21.7890433  93.3889524  49.7509099  22.9113497
  87.2618672  50.7495293  13.7215071  87.1418298  51.1952343  14.5600551
  86.5671261  51.0980610  13.1628609  80.8526077  52.8501684  21.2714728
  80.9818458  53.1036163  22.1854140  80.1723529  53.4429392  20.9519383
  85.0225565  63.5198934  17.3705202  84.9449594  64.4706760  17.4493683
  84.4187208  63.1744807  18.0280128  87.5142794  50.6926800  30.0266569
  86.7376128  51.2520720  30.0169434  88.1533357  51.1783583  30.5481439
  95.3063575  47.4753593  23.8609546  94.6637955  47.7686126  23.2149340
  94.8018503  47.3606513  24.6662742  92.9603739  51.2216766  14.5495405
  93.8721595  51.4544153  14.3743102  92.4513386  51.8053810  13.9870483
  85.7689167  53.5012253  29.5884536  86.5103851  54.0397297  29.3119360
  85.0626152  54.1278542  29.7456088  91.2444506  55.6441394  28.1856697
  91.6527862  55.2023804  27.4411330  90.5221768  55.0694021  28.4390890
  87.5975576  50.5814000  25.5590254  88.4436771  51.0053414  25.7024903
  87.5374214  49.9247625  26.2528817  91.5673321  56.2042584  21.9408986
  90.9382183  56.3688298  21.2385054  91.1798983  56.6184194  22.7119950
  95.4462553  57.1397022  19.2953350  94.7613591  57.5195924  18.7450383
  95.5306402  57.7492349  20.0285298  90.7475022  48.2418369  27.2171428
  90.5035954  48.9960429  26.6805704  91.0234952  48.6203716  28.0518675
  92.7013484  54.7856981  25.8948694  92.9130380  55.4288741  25.2183075
  92.6543233  53.9519298  25.4270624  90.3039713  47.3974802  22.7985266
  89.4424192  47.6956055  23.0902003  90.3302148  47.6145201  21.8666298
  87.1201283  55.9416992  19.2059071  87.5839628  56.2204695  18.4163694
  86.8558081  55.0400437  19.0232162  84.0125364  55.4888474  22.1438835
  84.5826721  55.9175742  21.5056319  84.6033476  55.2071059  22.8423020
  86.0570169  52.0640145  16.0148637  86.7594212  52.5161188  16.4822563
  85.7250797  51.4223964  16.6428530  84.5050530  50.6551901  30.3899846
  83.8749191  51.3368182  30.6235243  84.3986618  50.5434983  29.4452984
  79.7995503  50.3223697  21.3165770  79.0094557  50.5781226  20.8405881
  80.2906750  51.1372035  21.4217811  93.8159312  57.6628937  24.0671051
  94.6376756  57.2609124  23.7853733  93.8121715  57.5597171  25.0187167
  81.7510248  50.6868277  18.2749247  80.9541411  50.7986971  18.7932742
  81.5235840  51.0254929  17.4090137  87.5815916  57.2112980  26.2231761
  87.6460348  57.6733387  27.0589933  86.8726840  56.5810345  26.3514071
 101.9065305  54.0067685  20.4156022 101.1529014  53.4375083  20.2600027
 102.0412847  53.9730350  21.3626657  87.2963933  58.8781087  16.0910742
  87.1609608  59.7232623  16.5195590  87.8373746  59.0800365  15.3276676
  83.7831273  44.9572667  32.7525097  83.3898219  44.4038866  33.4272741
  84.5997413  45.2683246  33.1431614  80.7493331  56.3956525  16.6638667
  81.2617851  57.1899776  16.8144232  81.4016044  55.6982816  16.5972268
  82.5588216  59.5122282  18.7461420  82.7354844  60.4340246  18.5582404
  83.3545049  59.1980701  19.1755800  88.9232410  59.5004654  30.2211084
  88.4796264  58.7141032  29.9031988  89.5849623  59.6883804  29.5554975
  83.6819531  61.0300455  24.7471762  84.2326956  60.9017519  23.9748756
  82.8431007  61.3295345  24.3966655  91.0213648  59.7807454  28.2492485
  91.0032123  60.6016335  27.7572754  91.9433568  59.6561529  28.4742626
  87.4786702  57.2951583  29.0915993  88.0115039  56.5339871  28.8615301
  86.9500783  57.0025235  29.8340148  90.6456397  42.4011649  24.6209635
  90.3020666  43.2913291  24.5448746  91.0135360  42.2113307  23.7579220
  78.7142248  54.7245180  17.4398237  79.5517470  55.1342188  17.2231945
  78.8920515  53.7844622  17.4098431  90.6106680  52.3920260  13.1282070
  90.0953303  53.1624865  13.3670458  90.3383988  51.7185397  13.7515132
  88.1953791  47.2369961  18.1867309  87.3395387  46.8476812  18.0072947
  88.6080743  47.3161922  17.3267094  89.7252937  44.7716304  22.5858868
  89.2217733  44.7346440  21.7726674  90.0183544  45.6809047  22.6455525
  85.9695823  44.8555034  21.5925050  86.8348820  44.6597843  21.2330940
  86.0373332  44.6265386  22.5194407  95.5840954  55.1452615  15.0635244
  94.8070397  54.8063775  14.6190406  96.2632435  55.1505238  14.3890209
  90.3992983  50.2647352  14.9541851  90.0943118  50.5793502  15.8051995
  91.3523425  50.3428772  14.9969184  88.8439415  56.4237576  16.6034805
  88.3160776  55.6890335  16.2908043  88.3426917  57.2012252  16.3574774
  93.8232261  54.6186596  21.7201852  93.1655935  55.3085858  21.8081980
  94.6272660  55.0083028  22.0635838  83.5758142  47.0857242  18.9641417
  84.1501894  46.8632424  18.2314610  84.1629125  47.1545937  19.7170018
  92.6337720  52.9730969  19.7705794  93.1469601  53.6060961  20.2727503
  93.2838943  52.3732164  19.4049154  83.9027729  49.1161703  12.9837302
  83.0665042  49.4536390  13.3046577  83.7632499  48.9810683  12.0464439
  85.8780810  43.9598491  17.6916486  85.2245222  43.6447508  17.0673101
  85.8361284  43.3374231  18.4176309  86.9892015  54.2417786   9.6069778
  86.0819077  54.0107040   9.8060927  87.4863047  53.4455405   9.7943760
  89.8960094  62.9515293  12.5266465  89.2221793  63.2546990  13.1351422
  90.2825916  63.7544374  12.1771922  89.1118550  50.4480425  22.0164134
  88.1941112  50.6695372  21.8585822  89.5278694  50.5226735  21.1575841
  89.8953598  51.8471840  17.1466814  90.6425417  52.3593237  16.8373936
  90.1645188  51.5255893  18.0071208  88.1680248  54.3430381  14.1293769
  87.2591468  54.0589414  14.2266238  88.1975332  54.7629459  13.2697075
  93.3999516  57.9536970  17.8984936  92.9461843  57.1127880  17.9550127
  92.7693482  58.5898369  18.2359716  92.3432435  48.8828956  19.1285604
  91.6055192  48.3706343  19.4595846  92.5959209  48.4429338  18.3168880
  91.8432455  59.7913467  18.8334754  92.1355429  60.3518524  18.1147120
  92.3531076  60.0842028  19.5887913  92.4444063  41.6605208  19.7227373
  92.7502939  40.8002572  19.4353288  93.1696667  42.2522829  19.5226367
  78.7368419  52.0635895  18.1108971  78.5392819  51.4705256  17.3860037
  78.1815083  51.7588105  18.8284910  86.7165142  51.9559002  20.2303564
  86.7713752  51.0032838  20.1546041  85.9056344  52.1118441  20.7144862
  87.8656336  55.8839125  11.4681847  87.4275766  55.1674984  11.0087485
  88.6066777  56.1115239  10.9066939  84.6557502  50.5736061  17.9893943
  83.8425368  50.8730232  18.3959135  85.1516497  50.1791750  18.7068425
  86.8066080  60.5693818  19.9228208  86.7642259  60.7954665  18.9936740
  87.7228779  60.3357193  20.0714009  90.2531714  51.0377886  26.8208837
  90.6081102  51.2649359  27.6803302  90.9003845  51.3696263  26.1986092
  95.9829451  54.1596322  17.5258166  95.8447350  54.3497918  16.5979355
  95.6265670  54.9215704  17.9826217  84.1471577  48.1454417  23.6055178
  84.7870956  48.0043176  22.9078141  83.3149108  47.8588930  23.2293780
  96.0098831  56.2272849  22.5369437  96.4435337  56.1348138  23.3852491
  96.7230411  56.2030349  21.8989453  84.9231881  57.4456847  19.7190170
  85.7172479  56.9507167  19.5172745  84.2123573  56.9174710  19.3557876
  89.7426725  59.8274943  24.0702538  89.7963748  60.3965879  24.8380254
  88.8741507  59.9976828  23.7056575  81.2314644  51.5899929  15.7949923
  80.3012233  51.5284384  16.0119885  81.3272116  51.0675882  14.9986564
  81.1500194  48.1154742  18.3828165  81.4107011  49.0300075  18.2737325
  81.9717366  47.6479184  18.5324777  82.6225119  49.5292499  25.5526989
  83.2948172  49.3209861  24.9039638  81.7954905  49.3314585  25.1132221
  96.8714380  56.2696549  25.0702323  97.0650270  57.1742360  25.3161598
  96.7714998  55.8103968  25.9040908  88.5250691  46.1554440  27.5692650
  87.8778606  46.8544390  27.4757126  89.2951706  46.5890584  27.9368898
  91.9329489  56.4203292  30.6443203  91.7814995  56.1913844  29.7273287
  91.9234168  57.3773893  30.6574548  88.7014825  53.9935205  25.6289470
  89.6306885  54.1446364  25.4558437  88.2805855  54.0819226  24.7738116
  87.5003157  58.0185869  23.3988007  87.3614243  57.6504654  24.2713945
  86.7117753  58.5333509  23.2271965  88.0951309  63.1194966  14.7413544
  88.2703065  62.6483009  15.5559167  87.4084097  63.7460732  14.9694805
  89.0508372  57.3967472  20.7876845  88.7158205  57.3568242  21.6834495
  88.5512318  56.7312188  20.3147255  83.0252616  52.8035102  26.3129426
  82.8872414  52.0715341  26.9140965  83.9357540  52.7144002  26.0313614
  91.9867564  54.7423506  11.0613905  91.3696734  54.0170334  10.9646957
  91.5184052  55.5032867  10.7180979  85.6534917  52.5155061  25.8013106
  86.3634535  51.8748253  25.7599724  85.6104225  52.7667956  26.7239287
  93.6421695  59.4522415  28.7219685  93.5834242  58.7681635  28.0550268
  94.0441214  60.1941405  28.2700311  84.3663851  49.5020279  27.6208745
  83.8301208  49.0511018  28.2730342  83.7780559  49.6366188  26.8779210
  82.6612394  66.2684328  21.5153404  82.9008992  66.9002853  22.1932423
  81.8181591  65.9172368  21.8018763  83.7766110  48.9608931  10.1835209
  82.8995576  48.8397731   9.8197456  84.2523863  48.1695009   9.9314098
  93.6439103  57.4161999  26.9533665  92.7565881  57.0787920  27.0760064
  94.2137654  56.6845030  27.1902430  75.2968250  53.7486090  20.2776716
  75.9839290  53.4347820  19.6897731  75.1416379  54.6527455  20.0043968
  87.1740256  62.0763451  23.9194908  87.1010428  62.8818422  24.4314213
  86.7317649  62.2755417  23.0942929  86.9630036  61.3135221  17.4297730
  86.1797558  61.8556901  17.5235954  87.6622781  61.8309201  17.8291971
  90.2726686  47.1229850  20.0731935  90.7695385  46.3699813  19.7533005
  89.5013667  47.1594167  19.5075144  98.1256443  52.8270216  21.7150226
  98.1146319  53.7094931  21.3444160  97.2573823  52.4741767  21.5204763
  89.6338940  61.9750285  26.0753067  90.3466912  62.6097750  26.0028968
  89.1428968  62.0714151  25.2593068  91.3556467  55.8801538  17.6470358
  90.4212745  56.0003000  17.4775063  91.5333135  54.9774004  17.3830368
  86.8561655  49.2647233  19.8003620  86.4859442  48.7118274  20.4884525
  87.3520747  48.6605367  19.2478620  94.7429018  51.7218857  18.1820392
  95.2089470  52.5546848  18.1080695  95.1936518  51.2563838  18.8865651
  84.6850853  59.7244728  26.8958637  85.3860313  60.3581211  27.0488032
  84.2145968  60.0659460  26.1354277  92.8105249  58.0662678  15.1806545
  93.0865093  57.9519273  16.0900419  91.9409748  57.6680163  15.1418718
  92.7145681  44.0899444  22.2211294  91.8008760  44.3203671  22.3893501
  93.1438782  44.1737888  23.0725326  92.4852139  52.2789336  24.7211188
  91.8323589  52.5265243  24.0663641  92.8632519  51.4653474  24.3873665
  89.4459313  62.3149029  18.8239358  89.6281708  61.4970685  19.2867110
  90.2692299  62.5316721  18.3864248  89.7801479  61.2417214  16.0854407
  90.3089245  60.7309669  15.4724569  90.0429698  60.9259744  16.9499940
  88.5339712  53.0209147  31.2077225  87.8580349  52.9203276  31.8779600
  89.3567346  52.8648361  31.6713222  80.2818571  59.2581083  23.8289740
  80.8672008  58.5124771  23.9617644  80.0843410  59.5685040  24.7126404
  83.1357226  62.2932331  18.8452183  82.4667602  62.7778458  18.3616223
  82.9970096  62.5401551  19.7595561  74.8736226  51.8286684  22.5494183
  74.9120325  51.2950274  23.3431301  74.3676519  51.3021889  21.9305160
  87.2762495  64.3276074  25.4434841  87.8280803  64.4907696  26.2083926
  87.6168688  64.9180512  24.7714866  82.2526988  46.6751224  26.0456726
  82.3168315  47.5366055  25.6334123  82.1894109  46.0625226  25.3129084
  92.1273369  59.1537332  31.2983495  92.6713273  59.7667290  30.8038450
  91.5460214  59.7116910  31.8150508  78.5044804  50.5550786  15.6248115
  78.7998245  49.6461464  15.5715168  77.6032839  50.5338525  15.3029117
  90.4130882  62.2758050  22.4298523  90.2882022  61.4747790  21.9209469
  91.0709973  62.7704243  21.9412493  82.0339051  48.6306782  21.6075663
  81.3125636  49.2442750  21.4683137  82.8232306  49.1664547  21.5292309
  92.4765791  60.0767070  24.0578073  91.5296126  59.9572421  23.9856400
  92.8248564  59.1889568  24.1404335  84.8365364  45.9661209  27.8816315
  85.3599766  46.2123505  28.6442624  84.6177697  46.7981244  27.4619452
  80.2332645  48.2364883  15.7487440  79.9045351  47.3562262  15.5662546
  80.5872016  48.1812552  16.6363829  89.4812224  59.8719786  20.2582425
  89.3337186  58.9436494  20.4389995  90.3065718  59.8939877  19.7739501
  83.3474468  48.5237853  16.1162918  83.6870541  49.0523774  15.3941526
  83.7946589  48.8618259  16.8921484  93.0846346  60.6948345  21.3447298
  94.0092893  60.4891206  21.2071749  92.9161649  60.4464746  22.2536640
  86.0417909  46.9074904  25.5665986  85.7014729  46.1082717  25.9686665
  85.3356915  47.2076615  24.9942819  86.6934381  43.9924216  24.0193309
  87.5160450  43.5184695  23.8972199  86.9372444  44.7714700  24.5191995
  85.3342615  47.0212475  14.3156210  86.0550978  47.3993728  13.8119927
  84.7107920  47.7401352  14.4191188  89.4773738  47.7257624  15.2514543
  89.6937353  48.6082262  14.9503371  88.9967805  47.3343837  14.5220185
  84.2172960  50.6843337  21.8285287  84.0717540  50.9983640  22.7209569
  83.7398163  51.3028237  21.2756186  86.0769343  47.6745885  21.8766177
  86.0630911  46.7786978  21.5398475  86.7941771  47.6816549  22.5104463
  87.9295473  48.1083225  23.9219304  87.6713251  49.0300296  23.9203635
  87.3980514  47.7113660  24.6119768  92.8741662  61.2134012  16.7009390
  93.0478540  60.6480435  15.9483242  93.3670553  62.0134907  16.5188880
  85.4806239  46.5560265  17.1453747  85.6022150  45.6276911  17.3444634
  85.1908281  46.5698951  16.2332062  88.3497429  44.2415176  20.2820467
  88.3719126  44.3054509  19.3272446  88.7665488  43.4019684  20.4760973
  98.7281053  53.9770435  18.3199689  99.1712199  53.2277760  17.9218813
  97.8507564  53.9680572  17.9373421  93.8616835  60.5300777  13.8006288
  94.5567739  61.1507469  14.0193603  94.2039985  59.6796128  14.0758666
  95.7608258  57.9800482  15.3293619  96.2859582  58.3187755  14.6042939
  95.6730610  57.0447498  15.1456753  87.4228306  61.8934556  27.4583495
  87.7315433  61.6483703  28.3306195  88.2203788  62.0981194  26.9702366
  87.4448918  64.0472466  19.6888872  87.0053909  63.5548844  20.3821729
  88.1957035  63.5045433  19.4480947  79.9241257  60.2384006  19.6913500
  80.7499277  59.9387778  19.3112143  79.5735309  59.4691629  20.1403289
  84.8922791  59.5910475  21.7611174  84.2702800  58.9281180  21.4613401
  85.5627657  59.6171607  21.0784821  78.1249862  58.1570333  20.6502434
  77.2881771  57.7292507  20.4686435  78.0973508  58.3502776  21.5873225
  84.9647318  48.0692263  31.3543680  85.0135474  48.9454385  30.9721449
  85.5069832  47.5269656  30.7815323  95.4502164  58.6133386  30.6344817
  94.6597707  58.5957525  30.0949316  95.2135518  59.1521680  31.3893853
  95.5700039  55.4625852  27.9477545  95.6198044  55.2975860  28.8893068
  95.4613962  54.5953111  27.5575426  84.4536297  58.1414398  15.2369634
  84.6024418  58.8249862  14.5836307  85.2602741  58.1219488  15.7519090
  92.8603801  51.4456780  29.2636852  93.7613664  51.3063245  28.9720850
  92.9351776  51.6111235  30.2035029  87.1946606  48.8223635  28.1090038
  86.3249916  49.1157201  27.8372627  87.4306087  49.4064080  28.8297302
  97.0718236  57.8822794  28.1919567  96.7803044  58.2452774  29.0283028
  96.4590367  57.1689802  28.0132899  98.2713918  55.4475674  20.7122137
  99.1060809  55.8865478  20.8759697  98.4073047  54.9714327  19.8930383
  95.3205424  53.0055408  26.6599625  95.7959545  53.1983055  25.8518476
  94.3970989  53.0614594  26.4143008  82.2088930  54.1679576  16.2430703
  81.9634972  53.2641906  16.4410913  82.3784845  54.1696726  15.3010181
  89.8985640  45.0403252  25.6255459  90.4167584  45.7764279  25.3001947
  89.5440773  45.3467245  26.4602218  81.4784578  49.9007933  13.7416864
  80.7853823  49.9752288  13.0856900  81.2336330  49.1368277  14.2638381
  90.1498234  41.4603535  21.1456355  90.4299988  40.7926724  21.7716782
  90.9348841  41.6532630  20.6331019  87.9531703  60.6362528  12.7081381
  87.3805670  61.2552716  12.2551853  88.5264497  61.1861890  13.2421303
  94.0207093  49.8821169  24.8927930  94.9724516  49.9819266  24.9140154
  93.8510543  49.0899437  25.4026015  92.0421472  46.9676752  25.0787331
  91.4471404  47.2481764  24.3833820  91.7571169  47.4570653  25.8504072
  91.1728963  60.9199679  13.8389964  92.1059636  60.8545240  14.0422839
  91.0852176  61.7555945  13.3804496  93.8016979  60.2365549  10.7993911
  93.7230611  59.9025413  11.6929669  94.6226646  60.7287317  10.7985384
  96.4995171  53.1027288  24.0070230  96.4671491  52.1643289  24.1929914
  97.1095794  53.1811325  23.2736055  88.3378501  51.9723341  10.0497434
  89.2837606  51.8429549  10.1185852  87.9592746  51.2338003  10.5266862
  96.6489659  49.8938332  24.0528513  96.1328708  49.1096788  23.8658442
  97.5329608  49.5657048  24.2175033  94.3100386  43.6379347  20.0124326
  94.1125207  43.3294435  20.8967658  94.9200092  44.3640986  20.1422256
 102.3171720  54.1643295  23.1476267 103.0475109  53.9028583  23.7083970
 101.7078666  53.4272017  23.1878335 100.3987018  52.3051158  23.7450718
  99.6720181  52.1707123  23.1367210  99.9834304  52.6127986  24.5507436
  88.2217194  56.0241087  31.5098091  89.1420203  56.2019686  31.7038137
  88.1866777  55.0797133  31.3577790  86.5221419  49.8973318   9.9852319
  85.6152874  49.6006430  10.0615033  86.7997400  49.6003136   9.1186605
  77.4399359  51.2179681  20.4351366  77.1202143  50.3644989  20.1425740
  76.8932787  51.4328259  21.1909333  88.1383484  44.4410207  16.1396560
  87.3284213  44.0957292  16.5151807  88.8267901  44.1317751  16.7284172
  90.0674033  43.5188254  17.7620857  90.6205071  43.9383708  18.4210880
  90.3044119  42.5924002  17.8043813  86.0907132  49.5075328  33.5423621
  85.9903859  50.4569685  33.4735712  85.8728674  49.1793567  32.6699691
  85.2920203  46.7560253  10.1264298  86.1539367  47.0815151  10.3860116
  85.4770547  45.9691749   9.6137364  77.3087619  54.8382592  22.4044487
  76.6151090  54.4236545  21.8914442  78.0560610  54.8803129  21.8077906
  93.4452840  45.6288779  17.2699521  92.8651509  46.2873583  16.8877574
  93.1788772  44.8066124  16.8586939  91.8956406  45.0293837  19.4720842
  92.3956184  45.1410371  18.6635161  92.5392014  44.7254890  20.1121650
  79.2224362  54.7700846  20.2810502  79.1995050  54.8688534  19.3292385
  79.5324998  55.6165997  20.6027668  81.8811739  56.8277001  24.3957116
  82.8354993  56.7960944  24.3287048  81.6824263  56.3667625  25.2107342
  92.2277718  47.7888870  16.3255870  91.3403573  48.0738520  16.1076064
  92.6431707  47.6282633  15.4783147  95.5792254  47.8135391  20.0410209
  96.3552644  48.3031843  20.3134826  94.8540388  48.2393445  20.4982078
  98.0164813  48.5263010  21.0984150  98.6109303  48.2858746  20.3877458
  98.0891396  47.8070140  21.7257686  80.2361968  62.3696621  21.4127314
  80.1016436  61.6097022  20.8465312  79.8194030  63.0937521  20.9456103
  91.3720931  57.5533544  10.4203890  92.0756781  57.7583547  11.0361545
  90.6483580  58.1210306  10.6852973  92.2018742  53.3043406  16.5406160
  92.1453943  53.7611957  15.7013792  92.7547084  52.5434090  16.3629003
  96.0123547  49.0933137  17.3656279  95.7560482  48.6929773  18.1964487
  95.3876415  49.8076931  17.2406418 100.3235885  51.8329211  19.8727571
  99.7635443  51.9022400  20.6459133  99.7179389  51.6570195  19.1527067
  83.3931094  63.2665938  21.6245757  83.2763478  64.2111370  21.5224447
  82.5723540  62.9639499  22.0131556  93.2807629  57.9916074  12.4702350
  94.1153233  57.5597272  12.2879824  93.1191972  57.8198087  13.3979244
  92.9353521  54.4948187  13.8358689  92.8802325  54.3292458  12.8947133
  92.3099576  55.2024220  13.9920879  90.2499428  56.7997099  33.1612252
  91.1190588  56.9737751  32.7998887  89.7706179  57.6191516  33.0387981
  86.2449646  43.9956296  13.4144007  86.2328316  44.9398136  13.5712278
  87.1373068  43.8126441  13.1203469  84.4185608  63.9194200  24.8401685
  85.3212855  63.9517810  25.1568180  84.1922978  62.9894651  24.8548021
  86.1739210  62.6725186  21.5011764  85.2234841  62.6727048  21.3876136
  86.4771696  61.9257921  20.9847799  90.0601766  40.5899072  17.6689944
  89.2934162  40.0357559  17.8146627  90.4712471  40.6620941  18.5304096
 101.9091904  68.5085725  22.5657526 102.5470314  68.3892472  21.8620867
 101.7912747  69.4566569  22.6245479  98.7181610  68.4613153  22.5019051
  98.3800122  68.3454217  21.6139586  99.5871378  68.0604318  22.4820057
  94.5768426  70.3148629  18.4915942  94.0133291  70.2238566  17.7232230
  94.4620821  69.4948534  18.9718435  99.2001393  69.6148004  28.4605257
  99.1890034  69.2200803  27.5885760  99.3622032  68.8814077  29.0539028
  92.1232858  71.8099821  21.3300163  92.9154150  71.4690645  20.9146462
  92.3629508  71.9194796  22.2502316 100.1567984  73.9819597  13.8030407
  99.5055964  74.5673677  13.4164421 100.9512347  74.5125792  13.8625444
  94.0823612  71.0708734  14.2017541  94.8554488  70.5237721  14.0630417
  94.4349010  71.9352983  14.4132003  95.9208654  72.3985116  27.4084441
  95.6298520  73.3030747  27.2931107  96.5565638  72.4401644  28.1228510
  96.8464861  69.7761965  23.9985800  97.4428433  69.5517987  23.2842763
  96.9039833  69.0346710  24.6011248  96.4189889  67.2301400  11.8335991
  96.6715410  66.7082921  11.0719454  95.4814448  67.0667546  11.9362675
 101.4633172  66.2337178  19.6410734 102.2496261  65.8156602  19.2901151
 101.7271877  67.1383271  19.8092383 101.6343250  71.6710029  14.3399391
 100.9989083  71.7444655  15.0520296 101.3040656  72.2603628  13.6618471
 106.8641599  66.1712412  20.5443713 107.5966771  65.6011628  20.7781542
 106.1080955  65.7834012  20.9850219  96.1386178  69.1329506  14.0360366
  96.0222436  68.4574409  14.7041451  96.2488438  68.6461880  13.2192519
  98.4817719  68.5939653  17.7407055  98.1175926  68.0670274  18.4519977
  99.3384835  68.2038122  17.5673541 104.3867020  59.8833986  25.0038322
 104.0550344  60.7529397  24.7799537 103.7912633  59.5670270  25.6832352
  98.1223206  63.6229553  12.7368404  98.2897608  64.4909789  13.1038875
  97.9320375  63.7856835  11.8129693 100.8798539  72.0846532  24.4034234
 100.5799262  72.9871571  24.2950042 100.5349599  71.8178715  25.2555387
  94.3311021  68.5360329  20.4370939  93.4061517  68.4036543  20.6448631
  94.5795434  69.3154548  20.9340881 104.2795683  64.6029072  22.0831672
 103.3712560  64.5344480  21.7890433 104.2283279  65.0801017  22.9113497
  98.1012427  66.0787210  13.7215071  97.9812052  66.5244261  14.5600551
  97.4065015  66.4272528  13.1628609  91.6919832  68.1793602  21.2714728
  91.8212213  68.4328081  22.1854140  91.0117283  68.7721310  20.9519383
  95.8619319  78.8490852  17.3705202  95.7843349  79.7998677  17.4493683
  95.2580963  78.5036725  18.0280128  98.3536549  66.0218718  30.0266569
  97.5769883  66.5812638  30.0169434  98.9927112  66.5075501  30.5481439
 106.1457329  62.8045510  23.8609546 105.5031710  63.0978044  23.2149340
 105.6412258  62.6898431  24.6662742 103.7997493  66.5508684  14.5495405
 104.7115349  66.7836070  14.3743102 103.2907140  67.1345728  13.9870483
  96.6082921  68.8304171  29.5884536  97.3497605  69.3689215  29.3119360
  95.9019907  69.4570460  29.7456088 102.0838261  70.9733311  28.1856697
 102.4921617  70.5315722  27.4411330 101.3615522  70.3985939  28.4390890
  98.4369331  65.9105918  25.5590254  99.2830526  66.3345332  25.7024903
  98.3767968  65.2539542  26.2528817 102.4067075  71.5334502  21.9408986
 101.7775938  71.6980216  21.2385054 102.0192737  71.9476112  22.7119950
 106.2856307  72.4688940  19.2953350 105.6007345  72.8487841  18.7450383
 106.3700157  73.0784266  20.0285298 101.5868776  63.5710286  27.2171428
 101.3429708  64.3252347  26.6805704 101.8628707  63.9495634  28.0518675
 103.5407239  70.1148899  25.8948694 103.7524134  70.7580659  25.2183075
 103.4936987  69.2811215  25.4270624 101.1433468  62.7266720  22.7985266
 100.2817947  63.0247973  23.0902003 101.1695903  62.9437118  21.8666298
  97.9595037  71.2708910  19.2059071  98.4233383  71.5496613  18.4163694
  97.6951835  70.3692355  19.0232162  94.8519118  70.8180392  22.1438835
  95.4220475  71.2467660  21.5056319  95.4427230  70.5362976  22.8423020
  96.8963923  67.3932062  16.0148637  97.5987967  67.8453106  16.4822563
  96.5644552  66.7515881  16.6428530  95.3444285  65.9843819  30.3899846
  94.7142945  66.6660100  30.6235243  95.2380373  65.8726901  29.4452984
  90.6389257  65.6515615  21.3165770  89.8488311  65.9073144  20.8405881
  91.1300505  66.4663953  21.4217811 104.6553067  72.9920854  24.0671051
 105.4770511  72.5901042  23.7853733 104.6515470  72.8889088  25.0187167
  92.5904003  66.0160194  18.2749247  91.7935166  66.1278889  18.7932742
  92.3629595  66.3546847  17.4090137  98.4209670  72.5404898  26.2231761
  98.4854103  73.0025305  27.0589933  97.7120594  71.9102263  26.3514071
  88.9226960  65.9046106  23.7480761  89.1734999  66.7893115  24.0138337
  89.4586509  65.7250707  22.9755853 112.7459060  69.3359603  20.4156022
 111.9922768  68.7667001  20.2600027 112.8806601  69.3022267  21.3626657
  98.1357688  74.2073005  16.0910742  98.0003363  75.0524541  16.5195590
  98.6767500  74.4092283  15.3276676  94.6225028  60.2864585  32.7525097
  94.2291973  59.7330783  33.4272741  95.4391168  60.5975163  33.1431614
  91.5887085  71.7248443  16.6638667  92.1011606  72.5191693  16.8144232
  92.2409798  71.0274734  16.5972268  93.3981970  74.8414199  18.7461420
  93.5748598  75.7632164  18.5582404  94.1938804  74.5272619  19.1755800
  97.5392989  61.7022464  30.3445354  98.2802702  62.3029617  30.2649816
  97.7710911  60.9600102  29.7863396  92.6834327  66.8878831  28.6223583
  92.5687842  65.9864089  28.9230682  91.8278844  67.1342528  28.2708400
  99.7626164  74.8296572  30.2211084  99.3190019  74.0432950  29.9031988
 100.4243378  75.0175722  29.5554975  94.5213285  76.3592373  24.7471762
  95.0720711  76.2309437  23.9748756  93.6824761  76.6587262  24.3966655
 101.8607402  75.1099372  28.2492485 101.8425878  75.9308253  27.7572754
 102.7827322  74.9853447  28.4742626  98.3180457  72.6243501  29.0915993
  98.8508793  71.8631789  28.8615301  97.7894538  72.3317153  29.8340148
 101.4850152  57.7303567  24.6209635 101.1414421  58.6205209  24.5448746
 101.8529114  57.5405225  23.7579220  89.5536002  70.0537097  17.4398237
  90.3911224  70.4634106  17.2231945  89.7314270  69.1136540  17.4098431
 101.4500434  67.7212178  13.1282070 100.9347058  68.4916783  13.3670458
 101.1777743  67.0477314  13.7515132  99.0347545  62.5661879  18.1867309
  98.1789142  62.1768729  18.0072947  99.4474497  62.6453840  17.3267094
 100.5646692  60.1008222  22.5858868 100.0611487  60.0638357  21.7726674
 100.8577299  61.0100965  22.6455525  96.8089578  60.1846952  21.5925050
  97.6742575  59.9889761  21.2330940  96.8767087  59.9557304  22.5194407
 106.4234708  70.4744533  15.0635244 105.6464151  70.1355692  14.6190406
 107.1026189  70.4797156  14.3890209 101.2386737  65.5939270  14.9541851
 100.9336873  65.9085419  15.8051995 102.1917180  65.6720690  14.9969184
  99.6833169  71.7529493  16.6034805  99.1554531  71.0182253  16.2908043
  99.1820672  72.5304170  16.3574774 104.6626015  69.9478514  21.7201852
 104.0049690  70.6377775  21.8081980 105.4666414  70.3374946  22.0635838
  94.4151897  62.4149160  18.9641417  94.9895649  62.1924341  18.2314610
  95.0022879  62.4837854  19.7170018 103.4731474  68.3022887  19.7705794
 103.9863356  68.9352878  20.2727503 104.1232698  67.7024082  19.4049154
  94.7421484  64.4453621  12.9837302  93.9058796  64.7828307  13.3046577
  94.6026254  64.3102601  12.0464439  96.7174565  59.2890409  17.6916486
  96.0638977  58.9739426  17.0673101  96.6755039  58.6666149  18.4176309
  97.8285769  69.5709704   9.6069778  96.9212831  69.3398957   9.8060927
  98.3256801  68.7747323   9.7943760  99.9512305  65.7772342  22.0164134
  99.0334866  65.9987289  21.8585822 100.3672449  65.8518653  21.1575841
 100.7347353  67.1763758  17.1466814 101.4819172  67.6885155  16.8373936
 101.0038942  66.8547811  18.0071208  99.0074003  69.6722299  14.1293769
  98.0985222  69.3881331  14.2266238  99.0369087  70.0921377  13.2697075
 104.2393270  73.2828888  17.8984936 103.7855597  72.4419798  17.9550127
 103.6087237  73.9190286  18.2359716 103.1826190  64.2120874  19.1285604
 102.4448947  63.6998260  19.4595846 103.4352963  63.7721256  18.3168880
 102.6826210  75.1205385  18.8334754 102.9749184  75.6810442  18.1147120
 103.1924830  75.4133946  19.5887913 103.2837817  56.9897126  19.7227373
 103.5896694  56.1294490  19.4353288 104.0090422  57.5814746  19.5226367
  89.5762173  67.3927813  18.1108971  89.3786573  66.7997173  17.3860037
  89.0208837  67.0880023  18.8284910  97.5558897  67.2850919  20.2303564
  97.6107507  66.3324756  20.1546041  96.7450099  67.4410358  20.7144862
  98.7050091  71.2131042  11.4681847  98.2669521  70.4966901  11.0087485
  99.4460532  71.4407157  10.9066939  95.4951257  65.9027979  17.9893943
  94.6819122  66.2022150  18.3959135  95.9910251  65.5083668  18.7068425
  97.6459835  75.8985736  19.9228208  97.6036014  76.1246582  18.9936740
  98.5622534  75.6649110  20.0714009 101.0925469  66.3669803  26.8208837
 101.4474856  66.5941277  27.6803302 101.7397600  66.6988180  26.1986092
 106.8223205  69.4888239  17.5258166 106.6841104  69.6789835  16.5979355
 106.4659424  70.2507622  17.9826217  94.9865332  63.4746334  23.6055178
  95.6264711  63.3335094  22.9078141  94.1542862  63.1880848  23.2293780
 106.8492585  71.5564766  22.5369437 107.2829092  71.4640055  23.3852491
 107.5624166  71.5322267  21.8989453  95.7625635  72.7748765  19.7190170
  96.5566234  72.2799085  19.5172745  95.0517328  72.2466628  19.3557876
 100.5820480  75.1566860  24.0702538 100.6357502  75.7257797  24.8380254
  99.7135261  75.3268745  23.7056575  92.0708399  66.9191847  15.7949923
  91.1405987  66.8576302  16.0119885  92.1665871  66.3967799  14.9986564
  91.9893948  63.4446659  18.3828165  92.2500765  64.3591993  18.2737325
  92.8111120  62.9771102  18.5324777  93.4618873  64.8584417  25.5526989
  94.1341927  64.6501779  24.9039638  92.6348660  64.6606503  25.1132221
 107.7108135  71.5988467  25.0702323 107.9044025  72.5034277  25.3161598
 107.6108753  71.1395886  25.9040908  99.3644445  61.4846358  27.5692650
  98.7172360  62.1836307  27.4757126 100.1345461  61.9182501  27.9368898
 102.7723243  71.7495210  30.6443203 102.6208750  71.5205761  29.7273287
 102.7627923  72.7065811  30.6574548  99.5408580  69.3227122  25.6289470
 100.4700640  69.4738282  25.4558437  99.1199610  69.4111143  24.7738116
  98.3396911  73.3477787  23.3988007  98.2007997  72.9796571  24.2713945
  97.5511508  73.8625426  23.2271965  98.9345063  78.4486883  14.7413544
  99.1096819  77.9774927  15.5559167  98.2477851  79.0752650  14.9694805
  99.8902127  72.7259390  20.7876845  99.5551959  72.6860160  21.6834495
  99.3906072  72.0604105  20.3147255  93.8646371  68.1327020  26.3129426
  93.7266169  67.4007258  26.9140965  94.7751294  68.0435920  26.0313614
 102.8261318  70.0715424  11.0613905 102.2090489  69.3462252  10.9646957
 102.3577807  70.8324784  10.7180979  96.4928671  67.8446979  25.8013106
  97.2028290  67.2040171  25.7599724  96.4497979  68.0959874  26.7239287
 104.4815450  74.7814332  28.7219685 104.4227996  74.0973552  28.0550268
 104.8834968  75.5233322  28.2700311  95.2057605  64.8312197  27.6208745
  94.6694962  64.3802935  28.2730342  94.6174314  64.9658106  26.8779210
  93.5006149  81.5976246  21.5153404  93.7402747  82.2294770  22.1932423
  92.6575345  81.2464286  21.8018763  94.6159864  64.2900848  10.1835209
  93.7389331  64.1689649   9.8197456  95.0917617  63.4986927   9.9314098
 104.4832857  72.7453916  26.9533665 103.5959636  72.4079838  27.0760064
 105.0531408  72.0136947  27.1902430  86.1362004  69.0778008  20.2776716
  86.8233044  68.7639738  19.6897731  85.9810133  69.9819373  20.0043968
  90.9396726  63.9668205  24.7061740  90.8554915  63.3593874  23.9712150
  90.1179433  64.4577223  24.7071236  98.0134011  77.4055369  23.9194908
  97.9404182  78.2110340  24.4314213  97.5711404  77.6047334  23.0942929
  97.8023790  76.6427139  17.4297730  97.0191312  77.1848819  17.5235954
  98.5016535  77.1601118  17.8291971 101.1120440  62.4521768  20.0731935
 101.6089140  61.6991730  19.7533005 100.3407422  62.4886085  19.5075144
 108.9650198  68.1562134  21.7150226 108.9540074  69.0386849  21.3444160
 108.0967577  67.8033684  21.5204763 100.4732694  77.3042203  26.0753067
 101.1860666  77.9389667  26.0028968  99.9822723  77.4006069  25.2593068
 102.1950221  71.2093455  17.6470358 101.2606500  71.3294918  17.4775063
 102.3726889  70.3065922  17.3830368  97.6955409  64.5939151  19.8003620
  97.3253197  64.0410191  20.4884525  98.1914502  63.9897285  19.2478620
 105.5822772  67.0510775  18.1820392 106.0483225  67.8838766  18.1080695
 106.0330273  66.5855756  18.8865651  95.5244608  75.0536646  26.8958637
  96.2254067  75.6873129  27.0488032  95.0539723  75.3951378  26.1354277
 103.6499003  73.3954596  15.1806545 103.9258847  73.2811190  16.0900419
 102.7803502  72.9972081  15.1418718 103.5539435  59.4191362  22.2211294
 102.6402515  59.6495588  22.3893501 103.9832537  59.5029806  23.0725326
 103.3245894  67.6081254  24.7211188 102.6717344  67.8557161  24.0663641
 103.7026274  66.7945392  24.3873665 100.2853068  77.6440947  18.8239358
 100.4675462  76.8262603  19.2867110 101.1086054  77.8608639  18.3864248
 100.6195233  76.5709132  16.0854407 101.1482999  76.0601586  15.4724569
 100.8823453  76.2551662  16.9499940  99.3733467  68.3501065  31.2077225
  98.6974104  68.2495194  31.8779600 100.1961101  68.1940278  31.6713222
  91.1212326  74.5873001  23.8289740  91.7065763  73.8416689  23.9617644
  90.9237164  74.8976958  24.7126404  93.9750981  77.6224248  18.8452183
  93.3061356  78.1070376  18.3616223  93.8363851  77.8693469  19.7595561
  85.7129980  67.1578601  22.5494183  85.7514080  66.6242192  23.3431301
  85.2070273  66.6313807  21.9305160  98.1156250  79.6567992  25.4434841
  98.6674558  79.8199614  26.2083926  98.4562443  80.2472430  24.7714866
  93.0920743  62.0043142  26.0456726  93.1562069  62.8657973  25.6334123
  93.0287863  61.3917143  25.3129084  92.5673015  64.0766274  29.6929760
  93.1945054  63.6943352  30.3067284  91.7100934  63.8580476  30.0585452
 102.9667124  74.4829250  31.2983495 103.5107028  75.0959208  30.8038450
 102.3853969  75.0408828  31.8150508  89.3438558  65.8842703  15.6248115
  89.6391999  64.9753382  15.5715168  88.4426594  65.8630443  15.3029117
 101.2524637  77.6049968  22.4298523 101.1275776  76.8039707  21.9209469
 101.9103728  78.0996161  21.9412493  92.8732805  63.9598700  21.6075663
  92.1519391  64.5734668  21.4683137  93.6626061  64.4956465  21.5292309
 103.3159545  75.4058988  24.0578073 102.3689881  75.2864339  23.9856400
 103.6642318  74.5181486  24.1404335  95.6759119  61.2953127  27.8816315
  96.1993520  61.5415423  28.6442624  95.4571452  62.1273161  27.4619452
  91.0726400  63.5656801  15.7487440  90.7439106  62.6854180  15.5662546
  91.4265770  63.5104470  16.6363829 100.3205978  75.2011704  20.2582425
 100.1730941  74.2728411  20.4389995 101.1459472  75.2231795  19.7739501
  94.1868223  63.8529771  16.1162918  94.5264295  64.3815692  15.3941526
  94.6340343  64.1910177  16.8921484 103.9240100  76.0240263  21.3447298
 104.8486648  75.8183124  21.2071749 103.7555404  75.7756664  22.2536640
  96.8811664  62.2366822  25.5665986  96.5408484  61.4374635  25.9686665
  96.1750670  62.5368532  24.9942819  97.5328135  59.3216134  24.0193309
  98.3554205  58.8476612  23.8972199  97.7766199  60.1006618  24.5191995
  96.1736370  62.3504393  14.3156210  96.8944732  62.7285645  13.8119927
  95.5501674  63.0693269  14.4191188 100.3167493  63.0549541  15.2514543
 100.5331107  63.9374179  14.9503371  99.8361560  62.6635755  14.5220185
  95.0566714  66.0135255  21.8285287  94.9111295  66.3275558  22.7209569
  94.5791918  66.6320155  21.2756186  96.9163097  63.0037803  21.8766177
  96.9024666  62.1078896  21.5398475  97.6335525  63.0108466  22.5104463
  98.7689228  63.4375143  23.9219304  98.5107006  64.3592214  23.9203635
  98.2374268  63.0405577  24.6119768 103.7135417  76.5425930  16.7009390
 103.8872294  75.9772353  15.9483242 104.2064308  77.3426825  16.5188880
  89.5312376  68.5540599  24.7672948  88.9865844  69.3300407  24.8993223
  90.4091726  68.9011404  24.6092070  96.3199993  61.8852183  17.1453747
  96.4415904  60.9568829  17.3444634  96.0302035  61.8990869  16.2332062
  99.1891183  59.5707093  20.2820467  99.2112880  59.6346427  19.3272446
  99.6059242  58.7311602  20.4760973 109.5674808  69.3062353  18.3199689
 110.0105954  68.5569678  17.9218813 108.6901318  69.2972489  17.9373421
 104.7010589  75.8592694  13.8006288 105.3961494  76.4799387  14.0193603
 105.0433739  75.0088046  14.0758666  90.3178398  67.6810495  27.6603105
  89.5760134  67.8293131  28.2467736  89.9971142  67.9418761  26.7969855
 106.6002012  73.3092400  15.3293619 107.1253336  73.6479673  14.6042939
 106.5124365  72.3739415  15.1456753  98.2622061  77.2226474  27.4583495
  98.5709187  76.9775620  28.3306195  99.0597543  77.4273112  26.9702366
  98.2842673  79.3764383  19.6888872  97.8447663  78.8840762  20.3821729
  99.0350790  78.8337351  19.4480947  90.7635012  75.5675924  19.6913500
  91.5893032  75.2679696  19.3112143  90.4129064  74.7983547  20.1403289
  95.7316545  74.9202392  21.7611174  95.1096554  74.2573097  21.4613401
  96.4021412  74.9463524  21.0784821  88.9643617  73.4862251  20.6502434
  88.1275525  73.0584425  20.4686435  88.9367262  73.6794694  21.5873225
  95.8041073  63.3984180  31.3543680  95.8529228  64.2746303  30.9721449
  96.3463587  62.8561573  30.7815323 106.2895918  73.9425304  30.6344817
 105.4991462  73.9249442  30.0949316 106.0529273  74.4813597  31.3893853
 106.4093793  70.7917770  27.9477545 106.4591798  70.6267777  28.8893068
 106.3007717  69.9245029  27.5575426  95.2930052  73.4706316  15.2369634
  95.4418172  74.1541780  14.5836307  96.0996495  73.4511406  15.7519090
 103.6997556  66.7748698  29.2636852 104.6007418  66.6355163  28.9720850
 103.7745530  66.9403153  30.2035029  98.0340361  64.1515553  28.1090038
  97.1643670  64.4449119  27.8372627  98.2699841  64.7355998  28.8297302
 107.9111990  73.2114711  28.1919567 107.6196798  73.5744692  29.0283028
 107.2984121  72.4981720  28.0132899 109.1107672  70.7767591  20.7122137
 109.9454564  71.2157395  20.8759697 109.2466801  70.3006244  19.8930383
 106.1599178  68.3347326  26.6599625 106.6353300  68.5274972  25.8518476
 105.2364744  68.3906512  26.4143008  93.0482685  69.4971493  16.2430703
  92.8028727  68.5933823  16.4410913  93.2178599  69.4988644  15.3010181
 100.7379395  60.3695170  25.6255459 101.2561339  61.1056197  25.3001947
 100.3834528  60.6759163  26.4602218  92.3178332  65.2299851  13.7416864
  91.6247577  65.3044206  13.0856900  92.0730084  64.4660195  14.2638381
 100.9891989  56.7895452  21.1456355 101.2693743  56.1218641  21.7716782
 101.7742596  56.9824548  20.6331019  98.7925457  75.9654446  12.7081381
  98.2199425  76.5844633  12.2551853  99.3658251  76.5153808  13.2421303
 104.8600847  65.2113086  24.8927930 105.8118270  65.3111184  24.9140154
 104.6904298  64.4191355  25.4026015 102.8815227  62.2968669  25.0787331
 102.2865159  62.5773682  24.3833820 102.5964924  62.7862570  25.8504072
 102.0122717  76.2491596  13.8389964 102.9453390  76.1837158  14.0422839
 101.9245930  77.0847863  13.3804496 107.3388925  68.4319206  24.0070230
 107.3065245  67.4935207  24.1929914 107.9489549  68.5103243  23.2736055
  99.1772256  67.3015259  10.0497434 100.1231361  67.1721467  10.1185852
  98.7986501  66.5629921  10.5266862 107.4883414  65.2230249  24.0528513
 106.9722462  64.4388706  23.8658442 108.3723362  64.8948966  24.2175033
 105.1494141  58.9671265  20.0124326 104.9518962  58.6586353  20.8967658
 105.7593846  59.6932904  20.1422256 113.1565475  69.4935213  23.1476267
 113.8868863  69.2320501  23.7083970 112.5472420  68.7563935  23.1878335
 111.2380772  67.6343075  23.7450718 110.5113936  67.4999040  23.1367210
 110.8228059  67.9419904  24.5507436  99.0610949  71.3533005  31.5098091
  99.9813958  71.5311604  31.7038137  99.0260532  70.4089050  31.3577790
  97.3615173  65.2265235   9.9852319  96.4546629  64.9298348  10.0615033
  97.6391154  64.9295053   9.1186605  88.2793114  66.5471599  20.4351366
  87.9595898  65.6936907  20.1425740  87.7326542  66.7620177  21.1909333
  92.0573021  69.2634040  24.1520872  92.2759031  70.1951147  24.1708906
  92.4698795  68.9042014  24.9375676  98.9777239  59.7702125  16.1396560
  98.1677967  59.4249210  16.5151807  99.6661656  59.4609669  16.7284172
 100.9067787  58.8480172  17.7620857 101.4598826  59.2675625  18.4210880
 101.1437874  57.9215920  17.8043813  96.9300886  64.8367245  33.5423621
  96.8297613  65.7861602  33.4735712  96.7122428  64.5085484  32.6699691
  96.1313958  62.0852170  10.1264298  96.9933122  62.4107069  10.3860116
  96.3164302  61.2983666   9.6137364  88.1481374  70.1674510  22.4044487
  87.4544845  69.7528463  21.8914442  88.8954365  70.2095047  21.8077906
 104.2846594  60.9580697  17.2699521 103.7045263  61.6165501  16.8877574
 104.0182527  60.1358042  16.8586939 102.7350161  60.3585755  19.4720842
 103.2349939  60.4702289  18.6635161 103.3785769  60.0546807  20.1121650
  96.7932156  68.2664384  32.3588683  96.3099238  69.0664744  32.5652572
  96.8793095  68.2772329  31.4056127  90.0618116  70.0992764  20.2810502
  90.0388804  70.1980451  19.3292385  90.3718753  70.9457915  20.6027668
  92.7205494  72.1568919  24.3957116  93.6748747  72.1252861  24.3287048
  92.5218018  71.6959543  25.2107342  93.3104876  70.7270035  26.9627914
  94.1297765  71.2214114  26.9862751  93.5841684  69.8102003  26.9345482
 103.0671472  63.1180787  16.3255870 102.1797327  63.4030438  16.1076064
 103.4825461  62.9574551  15.4783147 106.4186008  63.1427308  20.0410209
 107.1946399  63.6323761  20.3134826 105.6934143  63.5685362  20.4982078
 108.8558567  63.8554928  21.0984150 109.4503058  63.6150663  20.3877458
 108.9285151  63.1362058  21.7257686  91.0755723  77.6988538  21.4127314
  90.9410191  76.9388939  20.8465312  90.6587785  78.4229438  20.9456103
 103.0412496  68.6335323  16.5406160 102.9847697  69.0903875  15.7013792
 103.5940838  67.8726008  16.3629003 106.8517302  64.4225055  17.3656279
 106.5954236  64.0221691  18.1964487 106.2270170  65.1368849  17.2406418
 111.1629640  67.1621128  19.8727571 110.6029198  67.2314318  20.6459133
 110.5573143  66.9862113  19.1527067  94.2324849  78.5957855  21.6245757
  94.1157233  79.5403288  21.5224447  93.4117295  78.2931417  22.0131556
 104.1201383  73.3207991  12.4702350 104.9546987  72.8889190  12.2879824
 103.9585726  73.1490005  13.3979244 103.7747275  69.8240104  13.8358689
 103.7196079  69.6584376  12.8947133 103.1493331  70.5316137  13.9920879
  88.5639790  65.0608169  27.6620111  89.2098654  64.5507123  28.1507336
  88.3556941  65.7976851  28.2363536 101.0893182  72.1289016  33.1612252
 101.9584342  72.3029669  32.7998887 100.6099934  72.9483433  33.0387981
  97.0843401  59.3248213  13.4144007  97.0722071  60.2690053  13.5712278
  97.9766823  59.1418359  13.1203469  95.2579363  79.2486117  24.8401685
  96.1606609  79.2809728  25.1568180  95.0316733  78.3186568  24.8548021
  97.0132965  78.0017104  21.5011764  96.0628596  78.0018966  21.3876136
  97.3165451  77.2549838  20.9847799 100.8995520  55.9190990  17.6689944
 100.1327916  55.3649477  17.8146627 101.3106225  55.9912859  18.5304096
  92.9037281  62.2075786  31.7595125  93.7668743  61.8512591  31.9698450
  92.3302692  61.8689681  32.4470530 112.7485658  83.8377642  22.5657526
 113.3864068  83.7184390  21.8620867 112.6306501  84.7858486  22.6245479
 109.5575365  83.7905070  22.5019051 109.2193876  83.6746135  21.6139586
 110.4265133  83.3896235  22.4820057 110.0395147  84.9439922  28.4605257
 110.0283788  84.5492720  27.5885760 110.2015787  84.2105995  29.0539028
 102.9626612  87.1391738  21.3300163 103.7547904  86.7982563  20.9146462
 103.2023262  87.2486713  22.2502316 106.7602409  87.7277034  27.4084441
 106.4692275  88.6322665  27.2931107 107.3959393  87.7693562  28.1228510
 107.6858615  85.1053882  23.9985800 108.2822188  84.8809905  23.2842763
 107.7433587  84.3638628  24.6011248 115.2260774  75.2125903  25.0038322
 114.8944099  76.0821314  24.7799537 114.6306388  74.8962187  25.6832352
 111.7192294  87.4138449  24.4034234 111.4193017  88.3163488  24.2950042
 111.3743353  87.1470633  25.2555387 105.1704775  83.8652246  20.4370939
 104.2455272  83.7328460  20.6448631 105.4189188  84.6446466  20.9340881
 115.1189438  79.9320990  22.0831672 114.2106315  79.8636398  21.7890433
 115.0677033  80.4092935  22.9113497 102.5313586  83.5085520  21.2714728
 102.6605967  83.7619999  22.1854140 101.8511038  84.1013228  20.9519383
 109.1930303  81.3510635  30.0266569 108.4163637  81.9104555  30.0169434
 109.8320866  81.8367418  30.5481439 116.9851084  78.1337428  23.8609546
 116.3425464  78.4269961  23.2149340 116.4806012  78.0190348  24.6662742
 107.4476676  84.1596089  29.5884536 108.1891360  84.6981133  29.3119360
 106.7413661  84.7862377  29.7456088 112.9232015  86.3025229  28.1856697
 113.3315371  85.8607640  27.4411330 112.2009277  85.7277857  28.4390890
 109.2763085  81.2397836  25.5590254 110.1224280  81.6637249  25.7024903
 109.2161723  80.5831460  26.2528817 112.4262531  78.9002204  27.2171428
 112.1823462  79.6544265  26.6805704 112.7022461  79.2787552  28.0518675
 114.3800993  85.4440817  25.8948694 114.5917889  86.0872576  25.2183075
 114.3330742  84.6103133  25.4270624 111.9827222  78.0558637  22.7985266
 111.1211701  78.3539891  23.0902003 112.0089657  78.2729036  21.8666298
 105.6912873  86.1472309  22.1438835 106.2614230  86.5759578  21.5056319
 106.2820985  85.8654894  22.8423020 106.1838039  81.3135737  30.3899846
 105.5536700  81.9952018  30.6235243 106.0774127  81.2018818  29.4452984
 101.4783012  80.9807533  21.3165770 100.6882066  81.2365061  20.8405881
 101.9694259  81.7955871  21.4217811 103.4297757  81.3452112  18.2749247
 102.6328920  81.4570806  18.7932742 103.2023349  81.6838764  17.4090137
 109.2603425  87.8696815  26.2231761 109.3247857  88.3317222  27.0589933
 108.5514349  87.2394180  26.3514071  99.7620715  81.2338023  23.7480761
 100.0128753  82.1185033  24.0138337 100.2980263  81.0542625  22.9755853
 105.4618782  75.6156503  32.7525097 105.0685728  75.0622701  33.4272741
 106.2784922  75.9267081  33.1431614 108.3786743  77.0314382  30.3445354
 109.1196456  77.6321535  30.2649816 108.6104666  76.2892019  29.7863396
 103.5228081  82.2170749  28.6223583 103.4081596  81.3156006  28.9230682
 102.6672599  82.4634446  28.2708400 110.6019919  90.1588489  30.2211084
 110.1583773  89.3724868  29.9031988 111.2637132  90.3467640  29.5554975
 105.3607040  91.6884291  24.7471762 105.9114465  91.5601354  23.9748756
 104.5218516  91.9879180  24.3966655 112.7001157  90.4391289  28.2492485
 112.6819632  91.2600170  27.7572754 113.6221077  90.3145364  28.4742626
 109.1574211  87.9535419  29.0915993 109.6902548  87.1923707  28.8615301
 108.6288292  87.6609070  29.8340148 112.3243906  73.0595485  24.6209635
 111.9808175  73.9497126  24.5448746 112.6922869  72.8697142  23.7579220
 109.8741300  77.8953797  18.1867309 109.0182896  77.5060647  18.0072947
 110.2868252  77.9745757  17.3267094 111.4040446  75.4300140  22.5858868
 110.9005242  75.3930275  21.7726674 111.6971053  76.3392883  22.6455525
 107.6483332  75.5138870  21.5925050 108.5136329  75.3181678  21.2330940
 107.7160841  75.2849221  22.5194407 105.2545651  77.7441077  18.9641417
 105.8289403  77.5216259  18.2314610 105.8416634  77.8129772  19.7170018
 107.5568319  74.6182326  17.6916486 106.9032731  74.3031344  17.0673101
 107.5148793  73.9958067  18.4176309 110.7906059  81.1064260  22.0164134
 109.8728621  81.3279207  21.8585822 111.2066203  81.1810570  21.1575841
 114.1231572  72.3189044  19.7227373 114.4290448  71.4586407  19.4353288
 114.8484176  72.9106664  19.5226367 100.4155928  82.7219730  18.1108971
 100.2180328  82.1289091  17.3860037  99.8602592  82.4171941  18.8284910
 108.3952651  82.6142837  20.2303564 108.4501261  81.6616673  20.1546041
 107.5843853  82.7702276  20.7144862 106.3345011  81.2319897  17.9893943
 105.5212877  81.5314067  18.3959135 106.8304006  80.8375585  18.7068425
 111.9319223  81.6961721  26.8208837 112.2868611  81.9233194  27.6803302
 112.5791354  82.0280098  26.1986092 105.8259086  78.8038252  23.6055178
 106.4658465  78.6627011  22.9078141 104.9936617  78.5172766  23.2293780
 102.8287702  78.7738577  18.3828165 103.0894520  79.6883910  18.2737325
 103.6504875  78.3063020  18.5324777 104.3012628  80.1876334  25.5526989
 104.9735681  79.9793696  24.9039638 103.4742414  79.9898420  25.1132221
 110.2038200  76.8138275  27.5692650 109.5566115  77.5128225  27.4757126
 110.9739215  77.2474419  27.9368898 113.6116998  87.0787127  30.6443203
 113.4602504  86.8497679  29.7273287 113.6021677  88.0357729  30.6574548
 110.3802334  84.6519040  25.6289470 111.3094394  84.8030200  25.4558437
 109.9593364  84.7403061  24.7738116 109.1790666  88.6769705  23.3988007
 109.0401752  88.3088489  24.2713945 108.3905262  89.1917344  23.2271965
 104.7040125  83.4618937  26.3129426 104.5659923  82.7299176  26.9140965
 105.6145049  83.3727837  26.0313614 107.3322426  83.1738897  25.8013106
 108.0422044  82.5332089  25.7599724 107.2891734  83.4251791  26.7239287
 115.3209204  90.1106250  28.7219685 115.2621751  89.4265470  28.0550268
 115.7228723  90.8525240  28.2700311 106.0451360  80.1604114  27.6208745
 105.5088717  79.7094853  28.2730342 105.4568068  80.2950023  26.8779210
 115.3226612  88.0745834  26.9533665 114.4353390  87.7371756  27.0760064
 115.8925163  87.3428865  27.1902430  96.9755759  84.4069926  20.2776716
  97.6626799  84.0931656  19.6897731  96.8203888  85.3111290  20.0043968
 101.7790481  79.2960122  24.7061740 101.6948670  78.6885792  23.9712150
 100.9573187  79.7869141  24.7071236 111.9514195  77.7813686  20.0731935
 112.4482894  77.0283648  19.7533005 111.1801176  77.8178002  19.5075144
 108.5349164  79.9231069  19.8003620 108.1646951  79.3702109  20.4884525
 109.0308256  79.3189202  19.2478620 106.3638362  90.3828564  26.8958637
 107.0647822  91.0165047  27.0488032 105.8933477  90.7243295  26.1354277
 114.3933190  74.7483279  22.2211294 113.4796269  74.9787506  22.3893501
 114.8226291  74.8321723  23.0725326 114.1639648  82.9373171  24.7211188
 113.5111098  83.1849079  24.0663641 114.5420028  82.1237309  24.3873665
 110.2127221  83.6792982  31.2077225 109.5367858  83.5787112  31.8779600
 111.0354855  83.5232196  31.6713222 101.9606080  89.9164919  23.8289740
 102.5459517  89.1708607  23.9617644 101.7630919  90.2268875  24.7126404
  96.5523735  82.4870519  22.5494183  96.5907834  81.9534110  23.3431301
  96.0464028  81.9605724  21.9305160 103.9314497  77.3335059  26.0456726
 103.9955824  78.1949890  25.6334123 103.8681617  76.7209061  25.3129084
 103.4066770  79.4058192  29.6929760 104.0338809  79.0235269  30.3067284
 102.5494689  79.1872394  30.0585452 113.8060878  89.8121167  31.2983495
 114.3500782  90.4251125  30.8038450 113.2247723  90.3700746  31.8150508
 100.1832313  81.2134621  15.6248115 100.4785754  80.3045300  15.5715168
  99.2820348  81.1922361  15.3029117 103.7126560  79.2890618  21.6075663
 102.9913145  79.9026585  21.4683137 104.5019815  79.8248383  21.5292309
 106.5152873  76.6245044  27.8816315 107.0387275  76.8707341  28.6442624
 106.2965206  77.4565079  27.4619452 101.9120154  78.8948719  15.7487440
 101.5832860  78.0146098  15.5662546 102.2659525  78.8396387  16.6363829
 107.7205418  77.5658739  25.5665986 107.3802238  76.7666552  25.9686665
 107.0144424  77.8660450  24.9942819 108.3721890  74.6508052  24.0193309
 109.1947959  74.1768530  23.8972199 108.6159953  75.4298536  24.5191995
 105.8960469  81.3427172  21.8285287 105.7505049  81.6567475  22.7209569
 105.4185672  81.9612073  21.2756186 107.7556852  78.3329720  21.8766177
 107.7418420  77.4370814  21.5398475 108.4729280  78.3400384  22.5104463
 109.6082982  78.7667061  23.9219304 109.3500760  79.6884131  23.9203635
 109.0768023  78.3697495  24.6119768 100.3706131  83.8832517  24.7672948
  99.8259599  84.6592325  24.8993223 101.2485481  84.2303321  24.6092070
 107.1593747  77.2144101  17.1453747 107.2809659  76.2860747  17.3444634
 106.8695790  77.2282787  16.2332062 110.0284938  74.8999011  20.2820467
 110.0506635  74.9638344  19.3272446 110.4452997  74.0603520  20.4760973
 101.1572153  83.0102413  27.6603105 100.4153889  83.1585048  28.2467736
 100.8364897  83.2710679  26.7969855 109.1015815  92.5518391  27.4583495
 109.4102942  92.3067538  28.3306195 109.8991297  92.7565030  26.9702366
  99.8037371  88.8154168  20.6502434  98.9669280  88.3876343  20.4686435
  99.7761017  89.0086612  21.5873225 106.6434827  78.7276098  31.3543680
 106.6922982  79.6038221  30.9721449 107.1857341  78.1853491  30.7815323
 117.1289673  89.2717221  30.6344817 116.3385216  89.2541360  30.0949316
 116.8923027  89.8105515  31.3893853 117.2487548  86.1209688  27.9477545
 117.2985553  85.9559695  28.8893068 117.1401471  85.2536947  27.5575426
 114.5391310  82.1040616  29.2636852 115.4401173  81.9647081  28.9720850
 114.6139285  82.2695071  30.2035029 108.8734115  79.4807470  28.1090038
 108.0037425  79.7741036  27.8372627 109.1093596  80.0647915  28.8297302
 118.7505745  88.5406629  28.1919567 118.4590553  88.9036610  29.0283028
 118.1377876  87.8273637  28.0132899 116.9992933  83.6639244  26.6599625
 117.4747054  83.8566890  25.8518476 116.0758498  83.7198430  26.4143008
 111.5773149  75.6987087  25.6255459 112.0955093  76.4348114  25.3001947
 111.2228282  76.0051081  26.4602218 111.8285743  72.1187370  21.1456355
 112.1087497  71.4510559  21.7716782 112.6136350  72.3116465  20.6331019
 115.6994602  80.5405004  24.8927930 116.6512025  80.6403102  24.9140154
 115.5298052  79.7483272  25.4026015 113.7208981  77.6260587  25.0787331
 113.1258913  77.9065600  24.3833820 113.4358678  78.1154488  25.8504072
 118.3277168  80.5522167  24.0528513 117.8116217  79.7680624  23.8658442
 119.2117117  80.2240884  24.2175033 115.9887895  74.2963183  20.0124326
 115.7912716  73.9878271  20.8967658 116.5987601  75.0224821  20.1422256
 109.9004703  86.6824923  31.5098091 110.8207712  86.8603522  31.7038137
 109.8654286  85.7380968  31.3577790  99.1186868  81.8763516  20.4351366
  98.7989652  81.0228825  20.1425740  98.5720296  82.0912094  21.1909333
 102.8966776  84.5925957  24.1520872 103.1152785  85.5243065  24.1708906
 103.3092549  84.2333932  24.9375676 109.8170993  75.0994043  16.1396560
 109.0071722  74.7541128  16.5151807 110.5055410  74.7901586  16.7284172
 111.7461542  74.1772089  17.7620857 112.2992580  74.5967543  18.4210880
 111.9831628  73.2507838  17.8043813 107.7694641  80.1659163  33.5423621
 107.6691368  81.1153520  33.4735712 107.5516183  79.8377402  32.6699691
  98.9875128  85.4966428  22.4044487  98.2938599  85.0820381  21.8914442
  99.7348119  85.5386964  21.8077906 113.5743915  75.6877672  19.4720842
 114.0743693  75.7994207  18.6635161 114.2179523  75.3838725  20.1121650
 107.6325911  83.5956302  32.3588683 107.1492993  84.3956662  32.5652572
 107.7186850  83.6064247  31.4056127 100.9011871  85.4284682  20.2810502
 100.8782559  85.5272369  19.3292385 101.2112507  86.2749832  20.6027668
 103.5599248  87.4860837  24.3957116 104.5142502  87.4544779  24.3287048
 103.3611772  87.0251460  25.2107342 104.1498631  86.0561953  26.9627914
 104.9691520  86.5506031  26.9862751 104.4235438  85.1393921  26.9345482
  99.4033545  80.3900087  27.6620111 100.0492408  79.8799041  28.1507336
  99.1950696  81.1268768  28.2363536 111.9286937  87.4580934  33.1612252
 112.7978097  87.6321586  32.7998887 111.4493688  88.2775351  33.0387981
 106.0973117  94.5778035  24.8401685 107.0000364  94.6101645  25.1568180
 105.8710487  93.6478486  24.8548021 111.7389275  71.2482908  17.6689944
 110.9721671  70.6941395  17.8146627 112.1499980  71.3204777  18.5304096
 103.7431036  77.5367704  31.7595125 104.6062497  77.1804508  31.9698450
 103.1696446  77.1981598  32.4470530 116.3012537  90.9448420  32.7525097
 115.9079482  90.3914619  33.4272741 117.1178677  91.2558999  33.1431614
 119.2180498  92.3606299  30.3445354 119.9590211  92.9613453  30.2649816
 119.4498420  91.6183937  29.7863396 114.2460524  94.7350110  29.6929760
 114.8732563  94.3527187  30.3067284 113.3888443  94.5164312  30.0585452
 117.4828582  94.0568016  31.3543680 117.5316737  94.9330138  30.9721449
 118.0251096  93.5145409  30.7815323 118.6088395  95.4951081  33.5423621
 118.5085122  96.4445438  33.4735712 118.3909937  95.1669320  32.6699691
 110.2427299  95.7192004  27.6620111 110.8886163  95.2090958  28.1507336
 110.0344450  96.4560686  28.2363536 114.5824790  92.8659621  31.7595125
 115.4456252  92.5096426  31.9698450 114.0090201  92.5273516  32.4470530
  71.9634188   5.8000702  15.4464992  71.9046734   5.1159922  14.7795575
  72.3653706   6.5419692  14.9945618  70.4485862   5.5015619  18.0228802
  70.9925766   6.1145577  17.5283757  69.8672706   6.0595197  18.5395815
  73.7714656   4.9611673  17.3590123  72.9810200   4.9435812  16.8194623
  73.5348011   5.4999967  18.1139160  75.3930728   4.2301081  14.9164873
  75.1015536   4.5931062  15.7528334  74.7802859   3.5168089  14.7378205
  68.5711920   3.1475386  19.8857558  69.4403080   3.3216038  19.5244193
  68.0918672   3.9669803  19.7633288  80.2304396  14.8564012   9.2902833
  80.8682806  14.7370759   8.5866173  80.1125239  15.8044856   9.3490785
  77.0394102  14.8091440   9.2264358  76.7012614  14.6932505   8.3384893
  77.9083870  14.4082605   9.2065364  77.5213885  15.9626292  15.1850563
  77.5102526  15.5679090  14.3131067  77.6834525  15.2292364  15.7784335
  70.4445350  18.1578108   8.0545469  71.2366642  17.8168933   7.6391768
  70.6842000  18.2673083   8.9747622  74.2421146  18.7463403  14.1329747
  73.9511012  19.6509034  14.0176414  74.8778131  18.7879931  14.8473817
  75.1677353  16.1240252  10.7231107  75.7640926  15.8996274  10.0088070
  75.2252325  15.3824997  11.3256555  82.7079512   6.2312273  11.7283628
  82.3762837   7.1007684  11.5044843  82.1125125   5.9148557  12.4077659
  79.2011031  18.4324819  11.1279541  78.9011755  19.3349858  11.0195348
  78.8562091  18.1657002  11.9800694  82.6008175  10.9507359   8.8076978
  81.6925053  10.8822768   8.5135739  82.5495771  11.4279304   9.6358804
  74.1831811  25.1969139   4.0950509  74.1055841  26.1476964   4.1738989
  73.5793455  24.8515012   4.7525435  76.6749041  12.3697005  16.7511876
  75.8982375  12.9290925  16.7414740  77.3139604  12.8553788  17.2726746
  74.9295413  15.1782458  16.3129843  75.6710098  15.7167502  16.0364666
  74.2232399  15.8048747  16.4701394  80.4050753  17.3211599  14.9102004
  80.8134109  16.8794009  14.1656636  79.6828015  16.7464226  15.1636197
  76.7581823  12.2584205  12.2835561  77.6043018  12.6823619  12.4270210
  76.6980461  11.6017830  12.9774124  80.7279568  17.8812789   8.6654293
  80.0988430  18.0458503   7.9630361  80.3405230  18.2954399   9.4365257
  84.6068800  18.8167227   6.0198657  83.9219838  19.1966128   5.4695690
  84.6912649  19.4262554   6.7530604  79.9081268   9.9188574  13.9416735
  79.6642200  10.6730634  13.4051010  80.1841199  10.2973921  14.7763982
  81.8619731  16.4627186  12.6194000  82.0736626  17.1058946  11.9428381
  81.8149479  15.6289503  12.1515930  73.1731611  17.1658679   8.8684141
  73.7432968  17.5945947   8.2301626  73.7639722  16.8841264   9.5668327
  73.6656777  12.3322106  17.1145153  73.0355438  13.0138387  17.3480549
  73.5592865  12.2205188  16.1698291  82.9765559  19.3399142  10.7916358
  83.7983003  18.9379329  10.5099039  82.9727962  19.2367376  11.7432473
  76.7422163  18.8883185  12.9477068  76.8066595  19.3503592  13.7835240
  76.0333086  18.2580550  13.0759378  72.9437520   6.6342872  19.4770404
  72.5504465   6.0809071  20.1518048  73.7603660   6.9453451  19.8676921
  71.7194462  21.1892487   5.4706727  71.8961091  22.1110451   5.2827711
  72.5151296  20.8750906   5.9001106  75.8605481   8.0500751  17.0690660
  76.6015194   8.6507904  16.9895123  76.0923404   7.3078389  16.5108703
  71.0046819  13.2357119  15.3468890  70.8900334  12.3342376  15.6475989
  70.1491337  13.4820815  14.9953706  78.0838657  21.1774859  16.9456390
  77.6402511  20.3911237  16.6277295  78.7455870  21.3654009  16.2800281
  72.8425778  22.7070660  11.4717069  73.3933203  22.5787724  10.6994063
  72.0037254  23.0065549  11.1211962  80.1819895  21.4577659  14.9737792
  80.1638370  22.2786540  14.4818061  81.1039815  21.3331734  15.1987933
  76.6392949  18.9721788  15.8161300  77.1721286  18.2110076  15.5860608
  76.1107030  18.6795440  16.5585455  82.9838508  16.2956801   8.4447158
  82.3262182  16.9856063   8.5327287  83.7878907  16.6853233   8.7881145
  78.2724797  12.1250629   8.7409441  77.3547359  12.3465576   8.5831129
  78.6884941  12.1996940   7.8821148  82.5605763  19.6307175   4.6230243
  82.1068090  18.7898085   4.6795433  81.9299729  20.2668574   4.9605023
  81.0038702  21.4683672   5.5580061  81.2961676  22.0288729   4.8392427
  81.5137322  21.7612233   6.3133220  75.9672327  22.2464023   6.6473514
  75.9248506  22.4724869   5.7182046  76.8835026  22.0127398   6.7959315
  79.4137961  12.7148091  13.5454143  79.7687349  12.9419564  14.4048609
  80.0610092  13.0466467  12.9231399  85.1705077  17.9043054   9.2614744
  85.6041584  17.8118343  10.1097798  85.8836658  17.8800554   8.6234760
  78.9032972  21.5045148  10.7947844  78.9569995  22.0736084  11.5625560
  78.0347754  21.6747033  10.4301882  71.7831366  11.2062704  12.2772296
  72.4554419  10.9980066  11.6284945  70.9561152  11.0084790  11.8377528
  86.0320627  17.9466754  11.7947629  86.2256517  18.8512565  12.0406904
  85.9321245  17.4874173  12.6286214  77.6856938   7.8324645  14.2937957
  77.0384853   8.5314594  14.2002433  78.4557953   8.2660789  14.6614205
  81.0935736  18.0973497  17.3688510  80.9421242  17.8684049  16.4518594
  81.0840415  19.0544098  17.3819855  77.8621072  15.6705410  12.3534776
  78.7913132  15.8216569  12.1803744  77.4412102  15.7589430  11.4983423
  76.6609404  19.6956074  10.1233314  76.5220489  19.3274859  10.9959252
  75.8724000  20.2103714   9.9517272  77.2557556  24.7965171   1.4658850
  77.4309311  24.3253214   2.2804473  76.5690344  25.4230937   1.6940111
  78.2114619  19.0737677   7.5122152  77.8764452  19.0338447   8.4079802
  77.7118565  18.4082393   7.0392562  72.1858863  14.4805307  13.0374733
  72.0478661  13.7485546  13.6386272  73.0963786  14.3914207  12.7558921
  74.8141164  14.1925266  12.5258413  75.5240782  13.5518458  12.4845031
  74.7710472  14.4438161  13.4484593  82.8027942  21.1292620  15.4464992
  82.7440488  20.4451840  14.7795575  83.2047461  21.8711610  14.9945618
  73.5270098  11.1790484  14.3454052  72.9907455  10.7281223  14.9975648
  72.9386806  11.3136393  13.6024516  71.8218641  27.9454533   8.2398711
  72.0615239  28.5773058   8.9177729  70.9787837  27.5942573   8.5264070
  82.8045349  19.0932203  13.6778971  81.9172128  18.7558125  13.8005370
  83.3743901  18.3615235  13.9147737  76.3346503  23.7533656  10.6440215
  76.2616674  24.5588627  11.1559519  75.8923896  23.9525622   9.8188236
  76.1236282  22.9905426   4.1543036  75.3403804  23.5327106   4.2481261
  76.8229028  23.5079405   4.5537277  78.7945186  23.6520490  12.7998373
  79.5073159  24.2867955  12.7274275  78.3035215  23.7484356  11.9838375
  73.8457100  21.4014933  13.6203944  74.5466559  22.0351416  13.7733338
  73.3752215  21.7429665  12.8599583  81.6458386  13.9559541  11.4456494
  80.9929836  14.2035448  10.7908947  82.0238766  13.1423679  11.1118972
  78.6065560  23.9919234   5.5484665  78.7887954  23.1740890   6.0112417
  79.4298546  24.2086926   5.1109555  78.9407725  22.9187419   2.8099713
  79.4695492  22.4079874   2.1969875  79.2035945  22.6029949   3.6745246
  77.6945959  14.6979352  17.9322532  77.0186596  14.5973481  18.6024907
  78.5173593  14.5418566  18.3958529  69.4424818  20.9351288  10.5535047
  70.0278255  20.1894976  10.6862951  69.2449656  21.2455245  11.4371711
  72.2963473  23.9702536   5.5697489  71.6273848  24.4548663   5.0861529
  72.1576343  24.2171756   6.4840868  76.4368742  26.0046279  12.1680148
  76.9887050  26.1677901  12.9329233  76.7774935  26.5950717  11.4960172
  70.8885508  10.4244562  16.4175067  71.5157546  10.0421639  17.0312591
  70.0313426  10.2058764  16.7830759  81.2879616  20.8307537  18.0228802
  81.8319520  21.4437495  17.5283757  80.7066461  21.3887115  18.5395815
  79.5737129  23.9528255   9.1543830  79.4488269  23.1517995   8.6454775
  80.2316220  24.4474448   8.6657800  81.6372037  21.7537275  10.7823380
  80.6902373  21.6342626  10.7101707  81.9854811  20.8659773  10.8649641
  73.9971611   7.6431414  14.6061622  74.5206013   7.8893710  15.3687931
  73.7783944   8.4751449  14.1864759  78.6418471  21.5489991   6.9827732
  78.4943433  20.6206698   7.1635302  79.4671964  21.5710082   6.4984807
  82.2452593  22.3718550   8.0692605  83.1699140  22.1661411   7.9317056
  82.0767896  22.1234951   8.9781946  75.2024156   8.5845109  12.2911292
  74.8620976   7.7852922  12.6931972  74.4963162   8.8846820  11.7188125
  77.0901720   9.7853430  10.6464611  76.8319498  10.7070501  10.6448941
  76.5586760   9.3883865  11.3365075  82.0347909  22.8904217   3.4254696
  82.2084786  22.3250640   2.6728549  82.5276800  23.6905112   3.2434186
  67.8524869  14.9018886  11.4918255  67.3078337  15.6778694  11.6238529
  68.7304218  15.2489691  11.3337376  68.6390890  14.0288783  14.3848412
  67.8972627  14.1771418  14.9713042  68.3183635  14.2897048  13.5215161
  76.5834553  23.5704761  14.1828802  76.8921680  23.3253908  15.0551502
  77.3810035  23.7751399  13.6947672  76.6055165  25.7242670   6.4134178
  76.1660155  25.2319049   7.1067035  77.3563282  25.1815638   6.1726254
  69.0847504  21.9154211   6.4158807  69.9105524  21.6157983   6.0357450
  68.7341556  21.1461834   6.8648595  74.0529037  21.2680680   8.4856480
  73.4309047  20.6051385   8.1858708  74.7233904  21.2941811   7.8030128
  74.1253565   9.7462468  18.0788986  74.1741720  10.6224590  17.6966756
  74.6676079   9.2039861  17.5060629  84.6108410  20.2903591  17.3590123
  83.8203954  20.2727730  16.8194623  84.3741765  20.8291885  18.1139160
  84.7306286  17.1396057  14.6722852  84.7804290  16.9746065  15.6138375
  84.6220209  16.2723316  14.2820733  82.0210048  13.1226985  15.9882158
  82.9219911  12.9833450  15.6966156  82.0958022  13.2881440  16.9280336
  76.3552853  10.4993840  14.8335345  75.4856163  10.7927406  14.5617933
  76.5912334  11.0834285  15.5542608  86.2324482  19.5592999  14.9164873
  85.9409291  19.9222979  15.7528334  85.6196614  18.8460007  14.7378205
  84.4811671  14.6825613  13.3844931  84.9565792  14.8753260  12.5763783
  83.5577236  14.7384799  13.1388315  79.0591887   6.7173457  12.3500765
  79.5773831   7.4534484  12.0247254  78.7047020   7.0237450  13.1847524
  83.1813340  11.5591373  11.6173237  84.1330762  11.6589471  11.6385461
  83.0116790  10.7669642  12.1271321  81.2027719   8.6446957  11.8032638
  80.6077651   8.9251969  11.1079126  80.9177416   9.1340858  12.5749379
  85.6601417  14.7797493  10.7315537  85.6277737  13.8413494  10.9175220
  86.2702041  14.8581530   9.9981361  77.3823441  17.7011292  18.2343398
  78.3026450  17.8789891  18.4283444  77.3473024  16.7567338  18.0823097
  70.3785513  15.6112327  10.8766179  70.5971523  16.5429435  10.8954213
  70.7911287  15.2520301  11.6620983  75.2513379  11.1845533  20.2668928
  75.1510106  12.1339890  20.1981019  75.0334921  10.8563772  19.3944998
  75.1144649  14.6142671  19.0833989  74.6311730  15.4143032  19.2897878
  75.2005588  14.6250616  18.1301433  71.0417986  18.5047206  11.1202423
  71.9961240  18.4731149  11.0532355  70.8430510  18.0437830  11.9352649
  71.6317368  17.0748322  13.6873221  72.4510257  17.5692401  13.7108058
  71.9054176  16.1580290  13.6590788  69.3968215  24.0466826   8.1372621
  69.2622683  23.2867227   7.5710619  68.9800277  24.7707726   7.6701410
  72.5537341  24.9436143   8.3491064  72.4369725  25.8881575   8.2469754
  71.7329787  24.6409704   8.7376863  66.8852283  11.4086456  14.3865418
  67.5311146  10.8985410  14.8752643  66.6769434  12.1455138  14.9608843
  79.4105675  18.4767304  19.8857558  80.2796834  18.6507956  19.5244193
  78.9312426  19.2961720  19.7633288  73.5791855  25.5964405  11.5646992
  74.4819102  25.6288015  11.8813487  73.3529225  24.6664856  11.5793328
  75.3345457  24.3495391   8.2257071  74.3841088  24.3497253   8.1121443
  75.6377943  23.6028126   7.7093105  71.2249774   8.5554073  18.4840432
  72.0881235   8.1990878  18.6943757  70.6515184   8.2167968  19.1715836
  91.0698150  30.1855930   9.2902833  91.7076560  30.0662677   8.5866173
  90.9518993  31.1336773   9.3490785  87.8787857  30.1383358   9.2264358
  87.5406368  30.0224422   8.3384893  88.7477625  29.7374523   9.2065364
  83.7374672  31.9918834   5.2161249  83.1739538  31.9008771   4.4477536
  83.6227068  31.1718739   5.6963741  88.3607640  31.2918209  15.1850563
  88.3496281  30.8971008  14.3131067  88.5228279  30.5584282  15.7784335
  81.2839104  33.4870026   8.0545469  82.0760396  33.1460850   7.6391768
  81.5235755  33.5965001   8.9747622  89.3174231  35.6589802   0.5275714
  88.6662211  36.2443882   0.1409727  90.1118594  36.1895997   0.5870751
  83.2429858  32.7478939   0.9262848  84.0160734  32.2007926   0.7875724
  83.5955257  33.6123188   1.1377309  85.0814901  34.0755321  14.1329747
  84.7904767  34.9800952  14.0176414  85.7171885  34.1171849  14.8473817
  86.0071108  31.4532170  10.7231107  86.6034680  31.2288192  10.0088070
  86.0646079  30.7116915  11.3256555  85.2992425  30.8099711   0.7605673
  85.1828683  30.1344614   1.4286757  85.4094685  30.3232085  -0.0562174
  87.6423966  30.2709858   4.4652362  87.2782173  29.7440479   5.1765284
  88.4991082  29.8808327   4.2918847  93.5473266  21.5604191  11.7283628
  93.2156591  22.4299602  11.5044843  92.9518880  21.2440475  12.4077659
  90.0404786  33.7616737  11.1279541  89.7405509  34.6641775  11.0195348
  89.6955846  33.4948920  11.9800694  83.4917267  30.2130534   7.1616245
  82.5667764  30.0806748   7.3693937  83.7401681  30.9924753   7.6586188
  93.4401930  26.2799277   8.8076978  92.5318807  26.2114685   8.5135739
  93.3889526  26.7571222   9.6358804  80.8526079  29.8563807   7.9960034
  80.9818460  30.1098286   8.9099446  80.1723530  30.4491515   7.6764690
  85.0225566  40.5261057   4.0950509  84.9449595  41.4768882   4.1738989
  84.4187209  40.1806930   4.7525435  87.5142796  27.6988922  16.7511876
  86.7376130  28.2582843  16.7414740  88.1533359  28.1845705  17.2726746
  85.7689168  30.5074376  16.3129843  86.5103852  31.0459420  16.0364666
  85.0626153  31.1340665  16.4701394  91.2444508  32.6503516  14.9102004
  91.6527864  32.2085927  14.1656636  90.5221769  32.0756144  15.1636197
  87.5975578  27.5876123  12.2835561  88.4436773  28.0115537  12.4270210
  87.5374215  26.9309747  12.9774124  91.5673322  33.2104707   8.6654293
  90.9382185  33.3750421   7.9630361  91.1798984  33.6246316   9.4365257
  95.4462554  34.1459145   6.0198657  94.7613592  34.5258046   5.4695690
  95.5306403  34.7554471   6.7530604  90.7475023  25.2480491  13.9416735
  90.5035955  26.0022552  13.4051010  91.0234953  25.6265839  14.7763982
  92.7013486  31.7919104  12.6194000  92.9130381  32.4350864  11.9428381
  92.6543234  30.9581420  12.1515930  90.3039715  24.4036924   9.5230572
  89.4424194  24.7018178   9.8147310  90.3302149  24.6207323   8.5911605
  87.1201284  32.9479115   5.9304378  87.5839630  33.2266818   5.1409001
  86.8558082  32.0462560   5.7477469  84.0125365  32.4950597   8.8684141
  84.5826722  32.9237865   8.2301626  84.6033477  32.2133181   9.5668327
  86.0570170  29.0702267   2.7393943  86.7594213  29.5223311   3.2067870
  85.7250799  28.4286086   3.3673836  84.5050532  27.6614024  17.1145153
  83.8749192  28.3430305  17.3480549  84.3986619  27.5497106  16.1698291
  79.7995504  27.3285820   8.0411077  79.0094558  27.5843349   7.5651187
  80.2906751  28.1434158   8.1463117  93.8159314  34.6691059  10.7916358
  94.6376757  34.2671246  10.5099039  93.8121716  34.5659293  11.7432473
  81.7510249  27.6930399   4.9994553  80.9541413  27.8049094   5.5178049
  81.5235842  28.0317051   4.1335444  87.5815917  34.2175103  12.9477068
  87.6460350  34.6795510  13.7835240  86.8726841  33.5872467  13.0759378
  78.0833207  27.5816310  10.4726068  78.3341245  28.4663320  10.7383643
  78.6192755  27.4020912   9.7001159  87.2963935  35.8843210   2.8156048
  87.1609609  36.7294746   3.2440896  87.8373747  36.0862488   2.0521982
  83.7831274  21.9634790  19.4770404  83.3898220  21.4100988  20.1518048
  84.5997415  22.2745368  19.8676921  80.7493332  33.4018648   3.3883973
  81.2617853  34.1961898   3.5389538  81.4016045  32.7044938   3.3217575
  82.5588217  36.5184404   5.4706727  82.7354845  37.4402369   5.2827711
  83.3545050  36.2042824   5.9001106  86.6999235  23.3792669  17.0690660
  87.4408949  23.9799822  16.9895123  86.9317158  22.6370307  16.5108703
  81.8440573  28.5649036  15.3468890  81.7294088  27.6634293  15.6475989
  80.9885091  28.8112733  14.9953706  88.9232411  36.5066777  16.9456390
  88.4796265  35.7203155  16.6277295  89.5849625  36.6945927  16.2800281
  83.6819532  38.0362578  11.4717069  84.2326957  37.9079641  10.6994063
  82.8431008  38.3357467  11.1211962  91.0213649  36.7869576  14.9737792
  91.0032125  37.6078457  14.4818061  91.9433569  36.6623652  15.1987933
  87.4786703  34.3013706  15.8161300  88.0115040  33.5401994  15.5860608
  86.9500784  34.0087358  16.5585455  78.7142249  31.7307302   4.1643544
  79.5517471  32.1404311   3.9477252  78.8920517  30.7906744   4.1343738
  89.7252939  21.7778427   9.3104175  89.2217734  21.7408562   8.4971980
  90.0183546  22.6871170   9.3700832  85.9695825  21.8617157   8.3170357
  86.8348821  21.6659965   7.9576246  86.0373333  21.6327509   9.2439714
  88.8439416  33.4299698   3.3280112  88.3160778  32.6952458   3.0153350
  88.3426919  34.2074375   3.0820080  93.8232262  31.6248719   8.4447158
  93.1655936  32.3147980   8.5327287  94.6272661  32.0145151   8.7881145
  83.5758144  24.0919365   5.6886724  84.1501896  23.8694546   4.9559917
  84.1629126  24.1608059   6.4415325  89.8960095  39.9577416  -0.7488229
  89.2221794  40.2609113  -0.1403271  90.2825917  40.7606496  -1.0982772
  89.1118552  27.4542547   8.7409441  88.1941113  27.6757494   8.5831129
  89.5278695  27.5288858   7.8821148  93.3999517  34.9599093   4.6230243
  92.9461844  34.1190003   4.6795433  92.7693484  35.5960491   4.9605023
  91.8432456  36.7975590   5.5580061  92.1355431  37.3580647   4.8392427
  92.3531077  37.0904151   6.3133220  78.7368420  29.0698018   4.8354277
  78.5392820  28.4767378   4.1105344  78.1815084  28.7650228   5.5530216
  86.7165144  28.9621124   6.9548871  86.7713753  28.0094961   6.8791347
  85.9056346  29.1180563   7.4390169  84.6557504  27.5798184   4.7139249
  83.8425369  27.8792354   5.1204442  85.1516498  27.1853873   5.4313732
  86.8066081  37.5755941   6.6473514  86.7642260  37.8016787   5.7182046
  87.7228780  37.3419315   6.7959315  90.2531715  28.0440008  13.5454143
  90.6081103  28.2711481  14.4048609  90.9003846  28.3758385  12.9231399
  84.1471578  25.1516539  10.3300484  84.7870958  25.0105298   9.6323448
  83.3149109  24.8651053   9.9539086  96.0098832  33.2334971   9.2614744
  96.4435338  33.1410260  10.1097798  96.7230413  33.2092472   8.6234760
  84.9231882  34.4518970   6.4435477  85.7172481  33.9569290   6.2418052
  84.2123575  33.9236833   6.0803182  89.7426727  36.8337065  10.7947844
  89.7963749  37.4028002  11.5625560  88.8741508  37.0038950  10.4301882
  81.2314646  28.5962052   2.5195230  80.3012234  28.5346507   2.7365192
  81.3272118  28.0738004   1.7231871  81.1500195  25.1216864   5.1073471
  81.4107012  26.0362198   4.9982632  81.9717367  24.6541307   5.2570084
  82.6225120  26.5354622  12.2772296  83.2948174  26.3271984  11.6284945
  81.7954907  26.3376708  11.8377528  96.8714381  33.2758672  11.7947629
  97.0650271  34.1804482  12.0406904  96.7715000  32.8166091  12.6286214
  88.5250692  23.1616562  14.2937957  87.8778607  23.8606512  14.2002433
  89.2951708  23.5952706  14.6614205  91.9329490  33.4265415  17.3688510
  91.7814996  33.1975966  16.4518594  91.9234170  34.3836016  17.3819855
  88.7014826  30.9997327  12.3534776  89.6306886  31.1508487  12.1803744
  88.2805856  31.0881348  11.4983423  87.5003158  35.0247992  10.1233314
  87.3614244  34.6566776  10.9959252  86.7117754  35.5395631   9.9517272
  88.0951310  40.1257088   1.4658850  88.2703066  39.6545131   2.2804473
  87.4084098  40.7522854   1.6940111  89.0508373  34.4029594   7.5122152
  88.7158206  34.3630364   8.4079802  88.5512319  33.7374310   7.0392562
  83.0252617  29.8097225  13.0374733  82.8872415  29.0777463  13.6386272
  83.9357541  29.7206125  12.7558921  85.6534918  29.5217184  12.5258413
  86.3634537  28.8810376  12.4845031  85.6104226  29.7730079  13.4484593
  93.6421697  36.4584537  15.4464992  93.5834243  35.7743757  14.7795575
  94.0441215  37.2003527  14.9945618  84.3663852  26.5082402  14.3454052
  83.8301209  26.0573140  14.9975648  83.7780560  26.6428311  13.6024516
  82.6612396  43.2746451   8.2398711  82.9008994  43.9064975   8.9177729
  81.8181592  42.9234491   8.5264070  93.6439104  34.4224121  13.6778971
  92.7565883  34.0850043  13.8005370  94.2137655  33.6907152  13.9147737
  75.2968251  30.7548213   7.0022023  75.9839291  30.4409943   6.4143038
  75.1416380  31.6589578   6.7289274  80.1002973  25.6438409  11.4307047
  80.0161162  25.0364079  10.6957456  79.2785680  26.1347428  11.4316543
  87.1740257  39.0825573  10.6440215  87.1010429  39.8880545  11.1559519
  86.7317650  39.2817539   9.8188236  86.9630037  38.3197344   4.1543036
  86.1797559  38.8619024   4.2481261  87.6622782  38.8371323   4.5537277
  89.6338941  38.9812408  12.7998373  90.3466913  39.6159872  12.7274275
  89.1428970  39.0776273  11.9838375  91.3556468  32.8863660   4.3715665
  90.4212747  33.0065123   4.2020369  91.5333136  31.9836127   4.1075675
  86.8561656  26.2709356   6.5248926  86.4859443  25.7180396   7.2129832
  87.3520748  25.6667489   5.9723926  84.6850854  36.7306851  13.6203944
  85.3860314  37.3643334  13.7733338  84.2145969  37.0721583  12.8599583
  92.4852140  29.2851458  11.4456494  91.8323591  29.5327366  10.7908947
  92.8632520  28.4715597  11.1118972  89.4459314  39.3211152   5.5484665
  89.6281709  38.5032808   6.0112417  90.2692300  39.5378844   5.1109555
  89.7801480  38.2479337   2.8099713  90.3089246  37.7371791   2.1969875
  90.0429699  37.9321867   3.6745246  88.5339713  30.0271269  17.9322532
  87.8580350  29.9265399  18.6024907  89.3567347  29.8710483  18.3958529
  80.2818572  36.2643206  10.5535047  80.8672009  35.5186894  10.6862951
  80.0843411  36.5747163  11.4371711  83.1357228  39.2994453   5.5697489
  82.4667603  39.7840581   5.0861529  82.9970097  39.5463674   6.4840868
  74.8736227  28.8348806   9.2739490  74.9120327  28.3012397  10.0676608
  74.3676520  28.3084012   8.6550467  87.2762496  41.3338197  12.1680148
  87.8280804  41.4969818  12.9329233  87.6168690  41.9242635  11.4960172
  82.2526990  23.6813347  12.7702032  82.3168316  24.5428178  12.3579430
  82.1894110  23.0687348  12.0374391  81.7279262  25.7536479  16.4175067
  82.3551301  25.3713557  17.0312591  80.8707181  25.5350681  16.7830759
  92.1273371  36.1599454  18.0228802  92.6713275  36.7729413  17.5283757
  91.5460215  36.7179033  18.5395815  78.5044805  27.5612908   2.3493421
  78.7998246  26.6523587   2.2960475  77.6032841  27.5400648   2.0274424
  90.4130884  39.2820172   9.1543830  90.2882023  38.4809912   8.6454775
  91.0709975  39.7766366   8.6657800  82.0339052  25.6368905   8.3320970
  81.3125638  26.2504873   8.1928443  82.8232308  26.1726670   8.2537616
  92.4765792  37.0829193  10.7823380  91.5296127  36.9634544  10.7101707
  92.8248565  36.1951691  10.8649641  84.8365365  22.9723331  14.6061622
  85.3599767  23.2185628  15.3687931  84.6177699  23.8043366  14.1864759
  80.2332646  25.2427006   2.4732746  79.9045353  24.3624385   2.2907852
  80.5872017  25.1874675   3.3609136  89.4812225  36.8781909   6.9827732
  89.3337188  35.9498616   7.1635302  90.3065719  36.9001999   6.4984807
  83.3474470  25.5299976   2.8408224  83.6870542  26.0585897   2.1186833
  83.7946590  25.8680382   3.6166791  93.0846347  37.7010467   8.0692605
  94.0092895  37.4953329   7.9317056  92.9161650  37.4526869   8.9781946
  86.0417910  23.9137027  12.2911292  85.7014731  23.1144840  12.6931972
  85.3356917  24.2138737  11.7188125  86.6934382  20.9986339  10.7438615
  87.5160452  20.5246817  10.6217506  86.9372446  21.7776823  11.2437302
  84.2172961  27.6905460   8.5530594  84.0717542  28.0045763   9.4454875
  83.7398165  28.3090360   8.0001493  86.0769344  24.6808008   8.6011483
  86.0630913  23.7849101   8.2643781  86.7941772  24.6878671   9.2349769
  87.9295475  25.1145348  10.6464611  87.6713252  26.0362418  10.6448941
  87.3980515  24.7175782  11.3365075  92.8741663  38.2196135   3.4254696
  93.0478541  37.6542557   2.6728549  93.3670555  39.0197030   3.2434186
  78.6918623  30.2310804  11.4918255  78.1472091  31.0070612  11.6238529
  79.5697973  30.5781608  11.3337376  79.4784645  29.3580700  14.3848412
  78.7366381  29.5063336  14.9713042  79.1577389  29.6188966  13.5215161
  87.4228308  38.8996679  14.1828802  87.7315434  38.6545825  15.0551502
  88.2203790  39.1043317  13.6947672  87.4448920  41.0534588   6.4134178
  87.0053910  40.5610967   7.1067035  88.1957037  40.5107556   6.1726254
  79.9241259  37.2446129   6.4158807  80.7499279  36.9449901   6.0357450
  79.5735311  36.4753751   6.8648595  84.8922792  36.5972597   8.4856480
  84.2702801  35.9343302   8.1858708  85.5627659  36.6233729   7.8030128
  78.1249864  35.1632455   7.3747740  77.2881772  34.7354630   7.1931741
  78.0973509  35.3564899   8.3118531  84.9647319  25.0754385  18.0788986
  85.0135475  25.9516508  17.6966756  85.5069834  24.5331778  17.5060629
  95.4502165  35.6195509  17.3590123  94.6597709  35.6019647  16.8194623
  95.2135520  36.1583802  18.1139160  95.5700040  32.4687975  14.6722852
  95.6198045  32.3037982  15.6138375  95.4613963  31.6015234  14.2820733
  84.4536299  35.1476521   1.9614941  84.6024419  35.8311985   1.3081613
  85.2602742  35.1281611   2.4764396  92.8603802  28.4518903  15.9882158
  93.7613665  28.3125368  15.6966156  92.9351777  28.6173358  16.9280336
  87.1946608  25.8285758  14.8335345  86.3249917  26.1219324  14.5617933
  87.4306088  26.4126203  15.5542608  97.0718237  34.8884916  14.9164873
  96.7803045  35.2514897  15.7528334  96.4590368  34.1751925  14.7378205
  95.3205425  30.0117531  13.3844931  95.7959547  30.2045177  12.5763783
  94.3970990  30.0676717  13.1388315  82.2088932  31.1741698   2.9676010
  81.9634974  30.2704028   3.1656220  82.3784846  31.1758849   2.0255488
  89.8985642  22.0465375  12.3500765  90.4167585  22.7826402  12.0247254
  89.5440774  22.3529368  13.1847524  81.4784579  26.9070056   0.4662171
  80.7853824  26.9814411  -0.1897793  81.2336331  26.1430399   0.9883688
  87.9531704  37.6424651  -0.5673312  87.3805671  38.2614838  -1.0202840
  88.5264498  38.1924013  -0.0333390  94.0207094  26.8883291  11.6173237
  94.9724517  26.9881389  11.6385461  93.8510545  26.0961560  12.1271321
  92.0421474  23.9738874  11.8032638  91.4471406  24.2543887  11.1079126
  91.7571170  24.4632775  12.5749379  96.4995172  30.1089411  10.7315537
  96.4671492  29.1705412  10.9175220  97.1095796  30.1873448   9.9981361
  88.2217195  33.0303210  18.2343398  89.1420205  33.2081809  18.4283444
  88.1866778  32.0859255  18.0823097  77.4399360  28.2241804   7.1596672
  77.1202145  27.3707112   6.8671046  76.8932788  28.4390382   7.9154640
  81.2179268  30.9404245  10.8766179  81.4365278  31.8721352  10.8954213
  81.6305042  30.5812219  11.6620983  86.0907133  26.5137450  20.2668928
  85.9903860  27.4631807  20.1981019  85.8728675  26.1855689  19.3944998
  77.3087620  31.8444715   9.1289794  76.6151092  31.4298668   8.6159748
  78.0560611  31.8865252   8.5323213  85.9538403  29.9434589  19.0833989
  85.4705485  30.7434949  19.2897878  86.0399342  29.9542534  18.1301433
  79.2224363  31.7762969   7.0055809  79.1995051  31.8750656   6.0537692
  79.5324999  32.6228120   7.3272975  81.8811741  33.8339124  11.1202423
  82.8354994  33.8023066  11.0532355  81.6824264  33.3729748  11.9352649
  82.4711123  32.4040240  13.6873221  83.2904012  32.8984319  13.7108058
  82.7447931  31.4872208  13.6590788  80.2361969  39.3758743   8.1372621
  80.1016437  38.6159144   7.5710619  79.8194032  40.0999643   7.6701410
  83.3931095  40.2728060   8.3491064  83.2763479  41.2173493   8.2469754
  82.5723542  39.9701622   8.7376863  77.7246037  26.7378374  14.3865418
  78.3704901  26.2277328  14.8752643  77.5163188  27.4747055  14.9608843
  90.2499429  33.8059221  19.8857558  91.1190589  33.9799874  19.5244193
  89.7706181  34.6253638  19.7633288  84.4185609  40.9256322  11.5646992
  85.3212856  40.9579933  11.8813487  84.1922980  39.9956773  11.5793328
  86.1739211  39.6787309   8.2257071  85.2234843  39.6789170   8.1121443
  86.4771698  38.9320043   7.7093105  82.0643528  23.8845991  18.4840432
  82.9274990  23.5282796  18.6943757  81.4908939  23.5459886  19.1715836
 101.9091905  45.5147847   9.2902833 102.5470315  45.3954595   8.5866173
 101.7912748  46.4628691   9.3490785  98.7181611  45.4675275   9.2264358
  98.3800123  45.3516340   8.3384893  99.5871379  45.0666440   9.2065364
  94.5768427  47.3210752   5.2161249  94.0133292  47.2300689   4.4477536
  94.4620822  46.5010656   5.6963741  99.2001394  46.6210127  15.1850563
  99.1890035  46.2262925  14.3131067  99.3622034  45.8876200  15.7784335
  92.1232859  48.8161943   8.0545469  92.9154151  48.4752768   7.6391768
  92.3629509  48.9256918   8.9747622 100.1567986  50.9881719   0.5275714
  99.5055965  51.5735800   0.1409727 100.9512348  51.5187914   0.5870751
  94.0823613  48.0770857   0.9262848  94.8554489  47.5299844   0.7875724
  94.4349012  48.9415106   1.1377309  95.9208655  49.4047239  14.1329747
  95.6298521  50.3092870  14.0176414  96.5565640  49.4463766  14.8473817
  96.8464862  46.7824087  10.7231107  97.4428434  46.5580110  10.0088070
  96.9039834  46.0408833  11.3256555  96.1386179  46.1391629   0.7605673
  96.0222437  45.4636532   1.4286757  96.2488439  45.6524003  -0.0562174
  98.4817720  45.6001776   4.4652362  98.1175928  45.0732397   5.1765284
  99.3384836  45.2100245   4.2918847 104.3867021  36.8896108  11.7283628
 104.0550346  37.7591519  11.5044843 103.7912634  36.5732392  12.4077659
 100.8798540  49.0908654  11.1279541 100.5799264  49.9933693  11.0195348
 100.5349600  48.8240838  11.9800694  94.3311022  45.5422451   7.1616245
  93.4061518  45.4098665   7.3693937  94.5795435  46.3216670   7.6586188
 104.2795684  41.6091195   8.8076978 103.3712562  41.5406603   8.5135739
 104.2283280  42.0863139   9.6358804  91.6919833  45.1855725   7.9960034
  91.8212214  45.4390204   8.9099446  91.0117284  45.7783433   7.6764690
  95.8619320  55.8552975   4.0950509  95.7843350  56.8060800   4.1738989
  95.2580964  55.5098847   4.7525435  98.3536550  43.0280840  16.7511876
  97.5769884  43.5874760  16.7414740  98.9927113  43.5137623  17.2726746
  96.6082922  45.8366293  16.3129843  97.3497607  46.3751337  16.0364666
  95.9019908  46.4632582  16.4701394 102.0838262  47.9795434  14.9102004
 102.4921618  47.5377844  14.1656636 101.3615523  47.4048061  15.1636197
  98.4369332  42.9168041  12.2835561  99.2830527  43.3407454  12.4270210
  98.3767970  42.2601665  12.9774124 102.4067077  48.5396625   8.6654293
 101.7775939  48.7042339   7.9630361 102.0192739  48.9538234   9.4365257
 106.2856309  49.4751062   6.0198657 105.6007347  49.8549964   5.4695690
 106.3700158  50.0846389   6.7530604 101.5868777  40.5772409  13.9416735
 101.3429709  41.3314470  13.4051010 101.8628708  40.9557757  14.7763982
 103.5407240  47.1211021  12.6194000 103.7524135  47.7642781  11.9428381
 103.4936988  46.2873338  12.1515930 101.1433469  39.7328842   9.5230572
 100.2817948  40.0310096   9.8147310 101.1695904  39.9499241   8.5911605
  97.9595039  48.2771033   5.9304378  98.4233384  48.5558736   5.1409001
  97.6951837  47.3754477   5.7477469  94.8519120  47.8242514   8.8684141
  95.4220477  48.2529783   8.2301626  95.4427231  47.5425099   9.5668327
  96.8963925  44.3994185   2.7393943  97.5987968  44.8515229   3.2067870
  96.5644553  43.7578004   3.3673836  95.3444286  42.9905942  17.1145153
  94.7142947  43.6722223  17.3480549  95.2380374  42.8789023  16.1698291
  90.6389259  42.6577738   8.0411077  89.8488313  42.9135266   7.5651187
  91.1300506  43.4726076   8.1463117 104.6553068  49.9982977  10.7916358
 105.4770512  49.5963164  10.5099039 104.6515471  49.8951211  11.7432473
  92.5904004  43.0222317   4.9994553  91.7935167  43.1341011   5.5178049
  92.3629596  43.3608969   4.1335444  98.4209672  49.5467020  12.9477068
  98.4854104  50.0087427  13.7835240  97.7120595  48.9164385  13.0759378
  88.9226962  42.9108228  10.4726068  89.1735000  43.7955238  10.7383643
  89.4586510  42.7312830   9.7001159  98.1357689  51.2135128   2.8156048
  98.0003364  52.0586663   3.2440896  98.6767502  51.4154405   2.0521982
  94.6225029  37.2926708  19.4770404  94.2291974  36.7392906  20.1518048
  95.4391169  37.6037286  19.8676921  91.5887087  48.7310566   3.3883973
  92.1011607  49.5253816   3.5389538  92.2409799  48.0336856   3.3217575
  93.3981971  51.8476322   5.4706727  93.5748600  52.7694287   5.2827711
  94.1938805  51.5334741   5.9001106  97.5392990  38.7084587  17.0690660
  98.2802703  39.3091740  16.9895123  97.7710913  37.9662224  16.5108703
  92.6834328  43.8940954  15.3468890  92.5687843  42.9926211  15.6475989
  91.8278846  44.1404651  14.9953706  99.7626166  51.8358694  16.9456390
  99.3190020  51.0495073  16.6277295 100.4243379  52.0237845  16.2800281
  94.5213287  53.3654496  11.4717069  95.0720712  53.2371559  10.6994063
  93.6824763  53.6649385  11.1211962 101.8607404  52.1161494  14.9737792
 101.8425879  52.9370375  14.4818061 102.7827324  51.9915569  15.1987933
  98.3180458  49.6305624  15.8161300  98.8508795  48.8693912  15.5860608
  97.7894539  49.3379275  16.5585455  89.5536003  47.0599220   4.1643544
  90.3911225  47.4696228   3.9477252  89.7314271  46.1198662   4.1343738
 100.5646693  37.1070345   9.3104175 100.0611489  37.0700480   8.4971980
 100.8577300  38.0163087   9.3700832  96.8089579  37.1909074   8.3170357
  97.6742576  36.9951883   7.9576246  96.8767088  36.9619426   9.2439714
  99.6833171  48.7591616   3.3280112  99.1554532  48.0244376   3.0153350
  99.1820673  49.5366292   3.0820080 104.6626017  46.9540637   8.4447158
 104.0049691  47.6439898   8.5327287 105.4666416  47.3437068   8.7881145
  94.4151898  39.4211282   5.6886724  94.9895650  39.1986464   4.9559917
  95.0022881  39.4899977   6.4415325  99.9512306  42.7834465   8.7409441
  99.0334868  43.0049412   8.5831129 100.3672450  42.8580775   7.8821148
 104.2393272  50.2891011   4.6230243 103.7855599  49.4481921   4.6795433
 103.6087238  50.9252409   4.9605023 102.6826211  52.1267507   5.5580061
 102.9749185  52.6872564   4.8392427 103.1924831  52.4196068   6.3133220
  89.5762175  44.3989935   4.8354277  89.3786574  43.8059296   4.1105344
  89.0208838  44.0942146   5.5530216  97.5558898  44.2913042   6.9548871
  97.6107508  43.3386878   6.8791347  96.7450100  44.4472481   7.4390169
  95.4951258  42.9090102   4.7139249  94.6819124  43.2084272   5.1204442
  95.9910252  42.5145790   5.4313732  97.6459836  52.9047858   6.6473514
  97.6036015  53.1308705   5.7182046  98.5622535  52.6711233   6.7959315
 101.0925470  43.3731926  13.5454143 101.4474857  43.6003399  14.4048609
 101.7397601  43.7050303  12.9231399  94.9865333  40.4808457  10.3300484
  95.6264712  40.3397216   9.6323448  94.1542863  40.1942970   9.9539086
 106.8492586  48.5626889   9.2614744 107.2829093  48.4702178  10.1097798
 107.5624167  48.5384389   8.6234760  95.7625637  49.7810887   6.4435477
  96.5566235  49.2861208   6.2418052  95.0517329  49.2528751   6.0803182
 100.5820481  52.1628983  10.7947844 100.6357503  52.7319919  11.5625560
  99.7135263  52.3330868  10.4301882  92.0708400  43.9253969   2.5195230
  91.1405988  43.8638425   2.7365192  92.1665872  43.4029922   1.7231871
  91.9893949  40.4508782   5.1073471  92.2500767  41.3654115   4.9982632
  92.8111122  39.9833225   5.2570084  93.4618875  41.8646539  12.2772296
  94.1341928  41.6563901  11.6284945  92.6348661  41.6668625  11.8377528
 107.7108136  48.6050590  11.7947629 107.9044026  49.5096400  12.0406904
 107.6108754  48.1458009  12.6286214  99.3644447  38.4908480  14.2937957
  98.7172362  39.1898430  14.2002433 100.1345462  38.9244624  14.6614205
 102.7723245  48.7557332  17.3688510 102.6208751  48.5267884  16.4518594
 102.7627924  49.7127934  17.3819855  99.5408581  46.3289245  12.3534776
 100.4700641  46.4800405  12.1803744  99.1199611  46.4173266  11.4983423
  98.3396913  50.3539909  10.1233314  98.2007998  49.9858694  10.9959252
  97.5511509  50.8687549   9.9517272  98.9345065  55.4549006   1.4658850
  99.1096820  54.9837049   2.2804473  98.2477853  56.0814772   1.6940111
  99.8902128  49.7321512   7.5122152  99.5551960  49.6922282   8.4079802
  99.3906074  49.0666228   7.0392562  93.8646372  45.1389142  13.0374733
  93.7266170  44.4069381  13.6386272  94.7751295  45.0498042  12.7558921
  96.4928673  44.8509102  12.5258413  97.2028291  44.2102294  12.4845031
  96.4497981  45.1021996  13.4484593 104.4815451  51.7876455  15.4464992
 104.4227997  51.1035675  14.7795575 104.8834970  52.5295445  14.9945618
  95.2057606  41.8374319  14.3454052  94.6694964  41.3865058  14.9975648
  94.6174315  41.9720228  13.6024516  93.5006150  58.6038369   8.2398711
  93.7402748  59.2356893   8.9177729  92.6575346  58.2526409   8.5264070
 104.4832858  49.7516039  13.6778971 103.5959637  49.4141961  13.8005370
 105.0531410  49.0199070  13.9147737  86.1362006  46.0840131   7.0022023
  86.8233045  45.7701861   6.4143038  85.9810134  46.9881495   6.7289274
  90.9396728  40.9730327  11.4307047  90.8554916  40.3655997  10.6957456
  90.1179434  41.4639345  11.4316543  98.0134012  54.4117491  10.6440215
  97.9404183  55.2172463  11.1559519  97.5711405  54.6109457   9.8188236
  97.8023791  53.6489261   4.1543036  97.0191313  54.1910941   4.2481261
  98.5016537  54.1663241   4.5537277 100.4732695  54.3104325  12.7998373
 101.1860668  54.9451790  12.7274275  99.9822724  54.4068191  11.9838375
 102.1950222  48.2155578   4.3715665 101.2606501  48.3357040   4.2020369
 102.3726891  47.3128045   4.1075675  97.6955410  41.6001274   6.5248926
  97.3253198  41.0472314   7.2129832  98.1914503  40.9959407   5.9723926
  95.5244609  52.0598769  13.6203944  96.2254068  52.6935252  13.7733338
  95.0539724  52.4013500  12.8599583 103.3245895  44.6143376  11.4456494
 102.6717345  44.8619284  10.7908947 103.7026275  43.8007514  11.1118972
 100.2853069  54.6503069   5.5484665 100.4675463  53.8324725   6.0112417
 101.1086055  54.8670762   5.1109555 100.6195234  53.5771254   2.8099713
 101.1483001  53.0663709   2.1969875 100.8823454  53.2613785   3.6745246
  99.3733468  45.3563187  17.9322532  98.6974105  45.2557316  18.6024907
 100.1961102  45.2002401  18.3958529  91.1212327  51.5935124  10.5535047
  91.7065764  50.8478812  10.6862951  90.9237165  51.9039080  11.4371711
  93.9750982  54.6286371   5.5697489  93.3061357  55.1132499   5.0861529
  93.8363852  54.8755592   6.4840868  85.7129982  44.1640724   9.2739490
  85.7514081  43.6304315  10.0676608  85.2070275  43.6375929   8.6550467
  98.1156251  56.6630115  12.1680148  98.6674559  56.8261736  12.9329233
  98.4562444  57.2534552  11.4960172  93.0920744  39.0105264  12.7702032
  93.1562070  39.8720095  12.3579430  93.0287864  38.3979266  12.0374391
  92.5673017  41.0828397  16.4175067  93.1945055  40.7005474  17.0312591
  91.7100935  40.8642599  16.7830759 102.9667125  51.4891372  18.0228802
 103.5107029  52.1021330  17.5283757 102.3853970  52.0470951  18.5395815
  89.3438559  42.8904826   2.3493421  89.6392000  41.9815504   2.2960475
  88.4426595  42.8692566   2.0274424 101.2524638  54.6112090   9.1543830
 101.1275778  53.8101830   8.6454775 101.9103729  55.1058284   8.6657800
  92.8732806  40.9660823   8.3320970  92.1519392  41.5796790   8.1928443
  93.6626062  41.5018587   8.2537616 103.3159546  52.4121110  10.7823380
 102.3689882  52.2926461  10.7101707 103.6642320  51.5243608  10.8649641
  95.6759120  38.3015249  14.6061622  96.1993522  38.5477546  15.3687931
  95.4571453  39.1335284  14.1864759  91.0726401  40.5718924   2.4732746
  90.7439107  39.6916303   2.2907852  91.4265772  40.5166592   3.3609136
 100.3205980  52.2073826   6.9827732 100.1730942  51.2790534   7.1635302
 101.1459473  52.2293917   6.4984807  94.1868224  40.8591894   2.8408224
  94.5264297  41.3877815   2.1186833  94.6340345  41.1972300   3.6166791
 103.9240102  53.0302385   8.0692605 104.8486649  52.8245247   7.9317056
 103.7555405  52.7818786   8.9781946  96.8811665  39.2428944  12.2911292
  96.5408485  38.4436757  12.6931972  96.1750671  39.5430655  11.7188125
  97.5328137  36.3278257  10.7438615  98.3554206  35.8538735  10.6217506
  97.7766200  37.1068740  11.2437302  95.0566715  43.0197377   8.5530594
  94.9111296  43.3337680   9.4454875  94.5791919  43.6382278   8.0001493
  96.9163098  40.0099925   8.6011483  96.9024667  39.1141019   8.2643781
  97.6335526  40.0170589   9.2349769  98.7689229  40.4437265  10.6464611
  98.5107007  41.3654336  10.6448941  98.2374269  40.0467700  11.3365075
 103.7135418  53.5488053   3.4254696 103.8872295  52.9834475   2.6728549
 104.2064309  54.3488948   3.2434186  89.5312378  45.5602722  11.4918255
  88.9865846  46.3362530  11.6238529  90.4091727  45.9073526  11.3337376
  90.3178399  44.6872618  14.3848412  89.5760135  44.8355253  14.9713042
  89.9971144  44.9480884  13.5215161  98.2622062  54.2288596  14.1828802
  98.5709189  53.9837743  15.0551502  99.0597544  54.4335235  13.6947672
  98.2842674  56.3826506   6.4134178  97.8447664  55.8902885   7.1067035
  99.0350791  55.8399473   6.1726254  90.7635013  52.5738047   6.4158807
  91.5893033  52.2741819   6.0357450  90.4129065  51.8045669   6.8648595
  95.7316546  51.9264515   8.4856480  95.1096556  51.2635220   8.1858708
  96.4021413  51.9525647   7.8030128  88.9643618  50.4924373   7.3747740
  88.1275526  50.0646548   7.1931741  88.9367264  50.6856816   8.3118531
  95.8041074  40.4046303  18.0788986  95.8529229  41.2808426  17.6966756
  96.3463588  39.8623696  17.5060629 106.2895919  50.9487426  17.3590123
 105.4991463  50.9311565  16.8194623 106.0529274  51.4875720  18.1139160
 106.4093795  47.7979893  14.6722852 106.4591799  47.6329900  15.6138375
 106.3007718  46.9307152  14.2820733  95.2930053  50.4768438   1.9614941
  95.4418174  51.1603903   1.3081613  96.0996497  50.4573528   2.4764396
 103.6997557  43.7810821  15.9882158 104.6007420  43.6417285  15.6966156
 103.7745531  43.9465275  16.9280336  98.0340362  41.1577675  14.8335345
  97.1643672  41.4511241  14.5617933  98.2699843  41.7418120  15.5542608
 107.9111991  50.2176834  14.9164873 107.6196800  50.5806815  15.7528334
 107.2984123  49.5043842  14.7378205 106.1599180  45.3409449  13.3844931
 106.6353301  45.5337095  12.5763783 105.2364745  45.3968635  13.1388315
  93.0482686  46.5033616   2.9676010  92.8028728  45.5995946   3.1656220
  93.2178601  46.5050766   2.0255488 100.7379396  37.3757292  12.3500765
 101.2561340  38.1118319  12.0247254 100.3834529  37.6821286  13.1847524
  92.3178334  42.2361973   0.4662171  91.6247579  42.3106328  -0.1897793
  92.0730086  41.4722317   0.9883688  98.7925459  52.9716569  -0.5673312
  98.2199426  53.5906756  -1.0202840  99.3658252  53.5215930  -0.0333390
 104.8600849  42.2175209  11.6173237 105.8118271  42.3173306  11.6385461
 104.6904299  41.4253477  12.1271321 102.8815228  39.3030792  11.8032638
 102.2865160  39.5835805  11.1079126 102.5964925  39.7924693  12.5749379
 107.3388926  45.4381328  10.7315537 107.3065246  44.4997329  10.9175220
 107.9489550  45.5165365   9.9981361  99.0610950  48.3595128  18.2343398
  99.9813959  48.5373727  18.4283444  99.0260533  47.4151173  18.0823097
  88.2793115  43.5533721   7.1596672  87.9595899  42.6999029   6.8671046
  87.7326543  43.7682299   7.9154640  92.0573022  46.2696162  10.8766179
  92.2759032  47.2013270  10.8954213  92.4698796  45.9104137  11.6620983
  96.9300888  41.8429368  20.2668928  96.8297615  42.7923725  20.1981019
  96.7122430  41.5147607  19.3944998  88.1481375  47.1736633   9.1289794
  87.4544846  46.7590586   8.6159748  88.8954366  47.2157169   8.5323213
  96.7932158  45.2726507  19.0833989  96.3099239  46.0726867  19.2897878
  96.8793097  45.2834452  18.1301433  90.0618117  47.1054887   7.0055809
  90.0388805  47.2042574   6.0537692  90.3718754  47.9520037   7.3272975
  92.7205495  49.1631042  11.1202423  93.6748749  49.1314984  11.0532355
  92.5218019  48.7021665  11.9352649  93.3104877  47.7332158  13.6873221
  94.1297766  48.2276236  13.7108058  93.5841685  46.8164126  13.6590788
  91.0755724  54.7050661   8.1372621  90.9410192  53.9451062   7.5710619
  90.6587786  55.4291561   7.6701410  94.2324850  55.6019978   8.3491064
  94.1157234  56.5465411   8.2469754  93.4117296  55.2993540   8.7376863
  88.5639792  42.0670291  14.3865418  89.2098655  41.5569245  14.8752643
  88.3556943  42.8038973  14.9608843 101.0893184  49.1351139  19.8857558
 101.9584343  49.3091791  19.5244193 100.6099935  49.9545556  19.7633288
  95.2579364  56.2548240  11.5646992  96.1606611  56.2871850  11.8813487
  95.0316734  55.3248691  11.5793328  97.0132966  55.0079227   8.2257071
  96.0628597  55.0081088   8.1121443  97.3165452  54.2611961   7.7093105
  92.9037283  39.2137909  18.4840432  93.7668744  38.8574713  18.6943757
  92.3302693  38.8751803  19.1715836 112.7485659  60.8439765   9.2902833
 113.3864069  60.7246512   8.5866173 112.6306502  61.7920609   9.3490785
 109.5575366  60.7967193   9.2264358 109.2193877  60.6808258   8.3384893
 110.4265134  60.3958358   9.2065364 110.0395149  61.9502045  15.1850563
 110.0283790  61.5554843  14.3131067 110.2015788  61.2168117  15.7784335
 102.9626613  64.1453861   8.0545469 103.7547905  63.8044686   7.6391768
 103.2023264  64.2548836   8.9747622 106.7602410  64.7339157  14.1329747
 106.4692276  65.6384787  14.0176414 107.3959394  64.7755684  14.8473817
 107.6858617  62.1116005  10.7231107 108.2822189  61.8872027  10.0088070
 107.7433588  61.3700751  11.3256555 115.2260775  52.2188026  11.7283628
 114.8944100  53.0883437  11.5044843 114.6306389  51.9024310  12.4077659
 111.7192295  64.4200572  11.1279541 111.4193018  65.3225611  11.0195348
 111.3743354  64.1532755  11.9800694 105.1704776  60.8714369   7.1616245
 104.2455273  60.7390583   7.3693937 105.4189190  61.6508588   7.6586188
 115.1189439  56.9383112   8.8076978 114.2106316  56.8698521   8.5135739
 115.0677035  57.4155057   9.6358804 102.5313587  60.5147642   7.9960034
 102.6605969  60.7682121   8.9099446 101.8511039  61.1075350   7.6764690
 109.1930305  58.3572758  16.7511876 108.4163639  58.9166678  16.7414740
 109.8320868  58.8429541  17.2726746 107.4476677  61.1658211  16.3129843
 108.1891361  61.7043255  16.0364666 106.7413662  61.7924500  16.4701394
 112.9232016  63.3087352  14.9102004 113.3315373  62.8669762  14.1656636
 112.2009278  62.7339979  15.1636197 109.2763087  58.2459958  12.2835561
 110.1224282  58.6699372  12.4270210 109.2161724  57.5893583  12.9774124
 112.4262532  55.9064327  13.9416735 112.1823464  56.6606387  13.4051010
 112.7022462  56.2849674  14.7763982 114.3800995  62.4502939  12.6194000
 114.5917890  63.0934699  11.9428381 114.3330743  61.6165256  12.1515930
 111.9827224  55.0620760   9.5230572 111.1211703  55.3602013   9.8147310
 112.0089658  55.2791159   8.5911605 105.6912874  63.1534432   8.8684141
 106.2614231  63.5821700   8.2301626 106.2820986  62.8717017   9.5668327
 106.1838041  58.3197859  17.1145153 105.5536701  59.0014140  17.3480549
 106.0774128  58.2080941  16.1698291 101.4783013  57.9869655   8.0411077
 100.6882067  58.2427184   7.5651187 101.9694260  58.8017993   8.1463117
 103.4297758  58.3514235   4.9994553 102.6328922  58.4632929   5.5178049
 103.2023351  58.6900887   4.1335444 109.2603426  64.8758938  12.9477068
 109.3247859  65.3379345  13.7835240 108.5514350  64.2456303  13.0759378
  99.7620716  58.2400146  10.4726068 100.0128754  59.1247156  10.7383643
 100.2980264  58.0604747   9.7001159 105.4618783  52.6218625  19.4770404
 105.0685729  52.0684824  20.1518048 106.2784924  52.9329204  19.8676921
 108.3786744  54.0376504  17.0690660 109.1196458  54.6383657  16.9895123
 108.6104667  53.2954142  16.5108703 103.5228082  59.2232872  15.3468890
 103.4081597  58.3218129  15.6475989 102.6672600  59.4696568  14.9953706
 110.6019920  67.1650612  16.9456390 110.1583774  66.3786990  16.6277295
 111.2637134  67.3529762  16.2800281 105.3607041  68.6946413  11.4717069
 105.9114466  68.5663477  10.6994063 104.5218517  68.9941302  11.1211962
 112.7001158  67.4453412  14.9737792 112.6819633  68.2662293  14.4818061
 113.6221078  67.3207487  15.1987933 109.1574212  64.9597541  15.8161300
 109.6902549  64.1985829  15.5860608 108.6288293  64.6671193  16.5585455
 111.4040448  52.4362262   9.3104175 110.9005243  52.3992398   8.4971980
 111.6971055  53.3455005   9.3700832 107.6483334  52.5200992   8.3170357
 108.5136330  52.3243801   7.9576246 107.7160842  52.2911344   9.2439714
 105.2545653  54.7503200   5.6886724 105.8289405  54.5278382   4.9559917
 105.8416635  54.8191895   6.4415325 110.7906061  58.1126382   8.7409441
 109.8728622  58.3341329   8.5831129 111.2066204  58.1872693   7.8821148
 100.4155929  59.7281853   4.8354277 100.2180329  59.1351214   4.1105344
  99.8602593  59.4234063   5.5530216 108.3952653  59.6204959   6.9548871
 108.4501262  58.6678796   6.8791347 107.5843855  59.7764399   7.4390169
 106.3345013  58.2382019   4.7139249 105.5212878  58.5376190   5.1204442
 106.8304007  57.8437708   5.4313732 111.9319224  58.7023844  13.5454143
 112.2868612  58.9295317  14.4048609 112.5791355  59.0342220  12.9231399
 105.8259087  55.8100375  10.3300484 106.4658467  55.6689134   9.6323448
 104.9936618  55.5234888   9.9539086 102.8287704  55.7800700   5.1073471
 103.0894521  56.6946033   4.9982632 103.6504876  55.3125142   5.2570084
 104.3012629  57.1938457  12.2772296 104.9735683  56.9855819  11.6284945
 103.4742416  56.9960543  11.8377528 110.2038201  53.8200398  14.2937957
 109.5566116  54.5190347  14.2002433 110.9739216  54.2536542  14.6614205
 113.6116999  64.0849250  17.3688510 113.4602505  63.8559802  16.4518594
 113.6021679  65.0419851  17.3819855 110.3802335  61.6581163  12.3534776
 111.3094395  61.8092322  12.1803744 109.9593365  61.7465184  11.4983423
 109.1790667  65.6831827  10.1233314 109.0401753  65.3150612  10.9959252
 108.3905263  66.1979467   9.9517272 104.7040126  60.4681060  13.0374733
 104.5659924  59.7361299  13.6386272 105.6145050  60.3789960  12.7558921
 107.3322427  60.1801019  12.5258413 108.0422046  59.5394211  12.4845031
 107.2891735  60.4313914  13.4484593 115.3209206  67.1168373  15.4464992
 115.2621752  66.4327593  14.7795575 115.7228724  67.8587363  14.9945618
 106.0451361  57.1666237  14.3454052 105.5088718  56.7156976  14.9975648
 105.4568069  57.3012146  13.6024516 115.3226613  65.0807956  13.6778971
 114.4353392  64.7433878  13.8005370 115.8925164  64.3490988  13.9147737
  96.9755760  61.4132048   7.0022023  97.6626800  61.0993778   6.4143038
  96.8203889  62.3173413   6.7289274 101.7790482  56.3022245  11.4307047
 101.6948671  55.6947914  10.6957456 100.9573189  56.7931263  11.4316543
 108.5349165  56.9293191   6.5248926 108.1646952  56.3764232   7.2129832
 109.0308257  56.3251325   5.9723926 106.3638363  67.3890686  13.6203944
 107.0647823  68.0227169  13.7733338 105.8933478  67.7305418  12.8599583
 114.1639649  59.9435294  11.4456494 113.5111100  60.1911201  10.7908947
 114.5420029  59.1299432  11.1118972 110.2127222  60.6855105  17.9322532
 109.5367859  60.5849234  18.6024907 111.0354856  60.5294319  18.3958529
 101.9606081  66.9227041  10.5535047 102.5459518  66.1770729  10.6862951
 101.7630920  67.2330998  11.4371711  96.5523736  59.4932642   9.2739490
  96.5907836  58.9596232  10.0676608  96.0464029  58.9667847   8.6550467
 103.9314498  54.3397182  12.7702032 103.9955825  55.2012013  12.3579430
 103.8681619  53.7271184  12.0374391 103.4066771  56.4120315  16.4175067
 104.0338810  56.0297392  17.0312591 102.5494690  56.1934517  16.7830759
 113.8060880  66.8183290  18.0228802 114.3500784  67.4313248  17.5283757
 113.2247724  67.3762868  18.5395815 100.1832314  58.2196744   2.3493421
 100.4785755  57.3107422   2.2960475  99.2820350  58.1984483   2.0274424
 103.7126561  56.2952740   8.3320970 102.9913147  56.9088708   8.1928443
 104.5019817  56.8310505   8.2537616 106.5152874  53.6307167  14.6061622
 107.0387276  53.8769463  15.3687931 106.2965208  54.4627202  14.1864759
 101.9120155  55.9010841   2.4732746 101.5832862  55.0208220   2.2907852
 102.2659526  55.8458510   3.3609136 107.7205419  54.5720862  12.2911292
 107.3802240  53.7728675  12.6931972 107.0144426  54.8722573  11.7188125
 108.3721891  51.6570174  10.7438615 109.1947960  51.1830653  10.6217506
 108.6159955  52.4360658  11.2437302 105.8960470  58.3489295   8.5530594
 105.7505051  58.6629598   9.4454875 105.4185674  58.9674195   8.0001493
 107.7556853  55.3391843   8.6011483 107.7418422  54.4432936   8.2643781
 108.4729281  55.3462507   9.2349769 109.6082984  55.7729183  10.6464611
 109.3500761  56.6946254  10.6448941 109.0768024  55.3759618  11.3365075
 100.3706132  60.8894639  11.4918255  99.8259600  61.6654447  11.6238529
 101.2485482  61.2365444  11.3337376 101.1572154  60.0164536  14.3848412
 100.4153890  60.1647171  14.9713042 100.8364898  60.2772801  13.5215161
 109.1015817  69.5580514  14.1828802 109.4102943  69.3129661  15.0551502
 109.8991299  69.7627152  13.6947672  99.8037373  65.8216291   7.3747740
  98.9669281  65.3938465   7.1931741  99.7761018  66.0148734   8.3118531
 106.6434828  55.7338221  18.0788986 106.6922984  56.6100343  17.6966756
 107.1857342  55.1915614  17.5060629 117.1289674  66.2779344  17.3590123
 116.3385218  66.2603483  16.8194623 116.8923029  66.8167638  18.1139160
 117.2487549  63.1271810  14.6722852 117.2985554  62.9621818  15.6138375
 117.1401472  62.2599069  14.2820733 114.5391311  59.1102738  15.9882158
 115.4401174  58.9709203  15.6966156 114.6139286  59.2757193  16.9280336
 108.8734117  56.4869593  14.8335345 108.0037426  56.7803159  14.5617933
 109.1093597  57.0710038  15.5542608 118.7505746  65.5468752  14.9164873
 118.4590554  65.9098732  15.7528334 118.1377877  64.8335760  14.7378205
 116.9992934  60.6701366  13.3844931 117.4747056  60.8629013  12.5763783
 116.0758499  60.7260552  13.1388315 111.5773151  52.7049210  12.3500765
 112.0955094  53.4410237  12.0247254 111.2228283  53.0113203  13.1847524
 115.6994603  57.5467126  11.6173237 116.6512026  57.6465224  11.6385461
 115.5298053  56.7545395  12.1271321 113.7208983  54.6322710  11.8032638
 113.1258915  54.9127722  11.1079126 113.4358679  55.1216611  12.5749379
 109.9004704  63.6887045  18.2343398 110.8207714  63.8665644  18.4283444
 109.8654287  62.7443091  18.0823097  99.1186869  58.8825639   7.1596672
  98.7989654  58.0290947   6.8671046  98.5720297  59.0974217   7.9154640
 102.8966777  61.5988080  10.8766179 103.1152787  62.5305188  10.8954213
 103.3092551  61.2396054  11.6620983 107.7694642  57.1721286  20.2668928
 107.6691369  58.1215643  20.1981019 107.5516184  56.8439525  19.3944998
  98.9875129  62.5028550   9.1289794  98.2938601  62.0882503   8.6159748
  99.7348120  62.5449087   8.5323213 107.6325912  60.6018425  19.0833989
 107.1492994  61.4018785  19.2897878 107.7186851  60.6126369  18.1301433
 100.9011872  62.4346804   7.0055809 100.8782560  62.5334491   6.0537692
 101.2112508  63.2811955   7.3272975 103.5599250  64.4922959  11.1202423
 104.5142503  64.4606902  11.0532355 103.3611773  64.0313583  11.9352649
 104.1498632  63.0624075  13.6873221 104.9691521  63.5568154  13.7108058
 104.4235440  62.1456043  13.6590788  99.4033546  57.3962209  14.3865418
 100.0492410  56.8861163  14.8752643  99.1950697  58.1330891  14.9608843
 111.9286938  64.4643057  19.8857558 112.7978098  64.6383709  19.5244193
 111.4493690  65.2837473  19.7633288 106.0973118  71.5840158  11.5646992
 107.0000365  71.6163768  11.8813487 105.8710489  70.6540609  11.5793328
 103.7431037  54.5429826  18.4840432 104.6062499  54.1866631  18.6943757
 103.1696448  54.2043721  19.1715836 116.3012538  67.9510543  19.4770404
 115.9079483  67.3976741  20.1518048 117.1178678  68.2621121  19.8676921
 119.2180499  69.3668422  17.0690660 119.9590212  69.9675575  16.9895123
 119.4498422  68.6246060  16.5108703 114.2460526  71.7412232  16.4175067
 114.8732564  71.3589310  17.0312591 113.3888444  71.5226434  16.7830759
 117.4828583  71.0630138  18.0788986 117.5316738  71.9392261  17.6966756
 118.0251097  70.5207531  17.5060629 118.6088397  72.5013203  20.2668928
 118.5085124  73.4507560  20.1981019 118.3909939  72.1731442  19.3944998
 110.2427301  72.7254127  14.3865418 110.8886164  72.2153081  14.8752643
 110.0344452  73.4622808  14.9608843 114.5824792  69.8721744  18.4840432
 115.4456253  69.5158549  18.6943757 114.0090202  69.5335639  19.1715836
   4.3521509  77.0005566  86.7929486   3.5985217  76.4312964  86.6373491
   4.4869050  76.9668231  87.7400121   0.7170121  78.4413555  87.0895601
   1.5517013  78.8803359  87.2533161   0.8529250  77.9652208  86.2703846
   4.7627924  77.1581176  89.5249730   5.4931312  76.8966464  90.0857434
   4.1534869  76.4209898  89.5651798   2.8443221  75.2989039  90.1224182
   2.1176384  75.1645004  89.5140673   2.4290508  75.6065867  90.9280900
   0.4621016  71.5200891  87.4757613   1.0565507  71.2796627  86.7650921
   0.5347600  70.8008021  88.1031150   2.7692089  74.8267092  86.2501034
   2.2091647  74.8960281  87.0232596   2.1635592  74.6508076  85.5300531
   4.3548107  91.5023606  88.9430990   4.9926517  91.3830353  88.2394330
   4.2368950  92.4504450  89.0018942   1.1637813  91.4551034  88.8792515
   0.8256325  91.3392098  87.9913050   2.0327581  91.0542199  88.8593521
   2.6024188  96.9757478  80.1803871   1.9512167  97.5611558  79.7937884
   3.3968551  97.5063673  80.2398908   3.9089376  89.2275059  86.0184198
   4.6952465  88.8094483  85.6674615   4.1728080  90.1321152  86.1865847
   4.0799453  94.6647910  80.7172855   3.4445286  94.7382536  81.4293760
   3.7496859  95.2541509  80.0391934   9.3097803  89.1650293  86.9217177
  10.0422975  88.5949509  87.1555006   8.5537158  88.7771893  87.3623682
   0.9273922  91.5877534  84.1180519   0.5632130  91.0608155  84.8293441
   1.7841038  91.1976003  83.9447005   6.8323223  82.8771867  91.3811785
   6.5006548  83.7467278  91.1573000   6.2368836  82.5608151  92.0605816
   3.3254743  95.0784413  90.7807698   3.0255466  95.9809452  90.6723505
   2.9805802  94.8116596  91.6328851   6.7251886  87.5966953  88.4605135
   5.8168764  87.5282361  88.1663896   6.6739482  88.0738898  89.2886961
   8.5913533  85.7983391  90.2383009   7.9487913  86.0915924  89.5922804
   8.0868461  85.6836312  91.0436206   6.2453696  89.5446565  80.9268869
   7.1571552  89.7773951  80.7516566   5.7363343  90.1283609  80.3643947
   0.8825534  88.9043799  91.9363718   1.7286729  89.3283213  92.0798367
   0.8224172  88.2477423  92.6302281   4.8523279  94.5272383  88.3182450
   4.2232141  94.6918097  87.6158518   4.4648941  94.9413993  89.0893414
   8.7312511  95.4626821  85.6726814   8.0463549  95.8425722  85.1223847
   8.8156360  96.0722147  86.4058762   4.0324979  86.5648167  93.5944892
   3.7885911  87.3190228  93.0579167   4.3084910  86.9433515  94.4292139
   5.9863442  93.1086780  92.2722157   6.1980337  93.7518540  91.5956538
   5.9393190  92.2749096  91.8044087   3.5889671  85.7204600  89.1758729
   2.7274150  86.0185854  89.4675467   3.6152106  85.9374999  88.2439762
   7.1009270  95.9858735  90.4444515   7.9226714  95.5838923  90.1627196
   7.0971673  95.8826969  91.3960630  15.1915263  92.3297484  86.7929486
  14.4378972  91.7604882  86.6373491  15.3262804  92.2960148  87.7400121
   0.5813891  97.2010886  82.4684205   0.4459566  98.0462422  82.8969053
   1.1223704  97.4030164  81.7050139   3.9306355  80.7241448  90.9983099
   3.5870624  81.6143090  90.9222210   4.2985317  80.5343106  90.1352684
   3.8956638  90.7150059  79.5055534   3.3803261  91.4854664  79.7443921
   3.6233946  90.0415195  80.1288595   1.4803749  85.5599760  84.5640772
   0.6245345  85.1706610  84.3846411   1.8930700  85.6391721  83.7040558
   3.0102895  83.0946103  88.9632332   2.5067691  83.0576238  88.1500137
   3.3033502  84.0038846  89.0228989   8.8690912  93.4682414  81.4408708
   8.0920354  93.1293573  80.9963870   9.5482393  93.4735037  80.7663673
   3.6842941  88.5877151  81.3315315   3.3793076  88.9023300  82.1825458
   4.6373383  88.6658571  81.3742648   2.1289373  94.7467374  82.9808269
   1.6010734  94.0120134  82.6681507   1.6276875  95.5242051  82.7348238
   7.1082219  92.9416395  88.0975316   6.4505893  93.6315656  88.1855444
   7.9122618  93.3312827  88.4409302   5.9187677  91.2960768  86.1479257
   6.4319559  91.9290759  86.6500967   6.5688901  90.6961963  85.7822617
   3.1810052 101.2745092  78.9039928   2.5071750 101.5776789  79.5124886
   3.5675874 102.0774172  78.5545385   2.3968508  88.7710223  88.3937598
   1.4791070  88.9925170  88.2359286   2.8128652  88.8456534  87.5349305
   3.1803556  90.1701639  83.5240278   3.9275375  90.6823036  83.2147400
   3.4495146  89.8485692  84.3844672   1.4530206  92.6660180  80.5067232
   0.5441425  92.3819212  80.6039702   1.4825290  93.0859258  79.6470539
   6.6849474  96.2766769  84.2758400   6.2311801  95.4357679  84.3323590
   6.0543440  96.9128167  84.6133180   5.6282393  87.2058755  85.5059067
   4.8905150  86.6936141  85.8369310   5.8809167  86.7659137  84.6942344
   5.1282413  98.1143266  85.2108218   5.4205387  98.6748323  84.4920584
   5.6381033  98.4071827  85.9661377   5.7294020  79.9835007  86.1000837
   6.0352897  79.1232371  85.8126752   6.4546625  80.5752627  85.8999831
   1.1506294  94.2068923  77.8455311   0.7125724  93.4904782  77.3860948
   1.8916735  94.4345038  77.2840402   3.5381672  89.3607684  93.1982300
   3.8931060  89.5879158  94.0576766   4.1853803  89.6926061  92.5759556
   9.2679409  92.4826120  83.9031629   9.1297307  92.6727716  82.9752819
   8.9115628  93.2445503  84.3599681   9.2948788  94.5502647  88.9142901
   9.7285295  94.4577936  89.7625955  10.0080369  94.5260148  88.2762917
  10.1564338  94.5926348  91.4475786  10.3500228  95.4972158  91.6935061
  10.0564956  94.1333767  92.2814371   1.8100649  84.4784239  93.9466114
   1.1628564  85.1774188  93.8530590   2.5801664  84.9120382  94.3142362
   1.9864783  92.3165003  92.0062933   2.9156843  92.4676163  91.8331901
   1.5655813  92.4049024  91.1511580   1.3801267 101.4424764  81.1187008
   1.5553022 100.9712808  81.9332630   0.6934055 102.0690531  81.3468268
   2.3358330  95.7197271  87.1650309   2.0008163  95.6798041  88.0607959
   1.8362276  95.0541986  86.6920719   5.2717522  93.0653305  77.4387368
   4.6546692  92.3400133  77.3420421   4.8034010  93.8262665  77.0954443
   6.9289061  95.7391797  93.3307129   6.0415839  95.4017719  93.4533527
   7.4987612  95.0074828  93.5675894   3.5576644  85.4459649  86.4505399
   4.0545343  84.6929611  86.1306469   2.7863625  85.4823966  85.8848608
  11.4106401  91.1500015  88.0923690  11.3996277  92.0324730  87.7217623
  10.5423780  90.7971565  87.8978227   4.6406424  94.2031336  84.0243822
   3.7062703  94.3232799  83.8548526   4.8183093  93.3003803  83.7603832
   8.0278976  90.0448656  84.5593856   8.4939428  90.8776647  84.4854159
   8.4786476  89.5793637  85.2639115   6.0955207  96.3892477  81.5580008
   6.3715051  96.2749071  82.4673882   5.2259706  95.9909962  81.5192181
   5.9995638  82.4129242  88.5984758   5.0858718  82.6433469  88.7666964
   6.4288740  82.4967687  89.4498790   5.7702097  90.6019134  91.0984652
   5.1173547  90.8495042  90.4437104   6.1482477  89.7883273  90.7647129
   2.7309271 100.6378828  85.2012822   2.9131665  99.8200484  85.6640574
   3.5542257 100.8546520  84.7637712   3.0651436  99.5647013  82.4627870
   3.5939203  99.0539467  81.8498032   3.3279656  99.2489543  83.3273403
   3.6980840 100.5987848  88.8071987   3.5731980  99.7977588  88.2982932
   4.3559931 101.0934042  88.3185957   5.7615748  98.3996869  90.4351537
   4.8146084  98.2802220  90.3629864   6.1098522  97.5119367  90.5177798
   2.7662182  98.1949585  86.6355889   2.6187144  97.2666292  86.8163459
   3.5915675  98.2169676  86.1512964   6.3696304  99.0178144  87.7220762
   7.2942851  98.8121005  87.5845213   6.2011607  98.7694545  88.6310103
   2.7623696  86.0487422  81.6288006   2.9787310  86.9312060  81.3276835
   2.2817763  85.6573636  80.8993648   1.2145431  86.4313024  90.2992768
   0.9563209  87.3530095  90.2977098   0.6830471  86.0343458  90.9893232
   6.1591620  99.5363811  83.0782853   6.3328497  98.9710233  82.3256706
   6.6520511 100.3364706  82.8962343   1.6347387  82.5644974  86.6593930
   1.6569084  82.6284307  85.7045910   2.0515446  81.7249483  86.8534437
  12.0131011  92.3000234  84.6973153  12.4562157  91.5507559  84.2992276
  11.1357521  92.2910370  84.3146885   7.1466792  98.8530575  80.1779752
   7.8417697  99.4737268  80.3967066   7.4889942  98.0025927  80.4532129
   9.0458215  96.3030281  81.7067082   9.5709540  96.6417554  80.9816402
   8.9580568  95.3677296  81.5230217   8.8549997  93.7855651  94.3251009
   8.9048001  93.6205658  95.2666532   8.7463920  92.9182910  93.9348890
   6.1453759  89.7686579  95.6410316   7.0463622  89.6293044  95.3494313
   6.2201733  89.9341034  96.5808493  10.3568193  96.2052592  94.5693030
  10.0653002  96.5682573  95.4056491   9.7440325  95.4919601  94.3906362
  11.5563876  93.7705472  87.0895601  12.3910767  94.2095276  87.2533161
  11.6923005  93.2944125  86.2703846   8.6055382  91.3285207  93.0373088
   9.0809503  91.5212853  92.2291940   7.6820947  91.3844393  92.7916472
   3.1835598  83.3633051  92.0028922   3.7017542  84.0994078  91.6775411
   2.8290731  83.6697044  92.8375681   3.4348192  79.7833333  87.5229819
   3.7149946  79.1156522  88.1490245   4.2198799  79.9762429  87.0104483
   1.2381661  98.9592327  79.0854845   0.6655628  99.5782514  78.6325317
   1.8114454  99.5091689  79.6194767   7.3057051  88.2050967  91.2701394
   8.2574474  88.3049065  91.2913618   7.1360501  87.4129236  91.7799478
   5.3271430  85.2906550  91.4560795   4.7321362  85.5711563  90.7607284
   5.0421127  85.7800451  92.2277536   4.4578921  99.2429477  80.2163427
   5.3909594  99.1775039  80.4196303   4.3702133 100.0785744  79.7577960
   7.0866937  98.5595348  77.1767375   7.0080569  98.2255211  78.0703133
   7.9076604  99.0517115  77.1758847   9.7845128  91.4257087  90.3843694
   9.7521449  90.4873088  90.5703377  10.3945752  91.5041124  89.6509519
   1.6228459  90.2953140  76.4270898   2.5687564  90.1659348  76.4959316
   1.2442704  89.5567802  76.9040326   9.9339617  88.2168130  90.4301977
   9.4178666  87.4326587  90.2431906  10.8179565  87.8886847  90.5948496
   7.5950344  81.9609146  86.3897790   7.3975165  81.6524234  87.2741121
   8.2050049  82.6870785  86.5195719  15.6021678  92.4873094  89.5249730
  16.3325067  92.2258382  90.0857434  14.9928624  91.7501816  89.5651798
  13.6836975  90.6280956  90.1224182  12.9570139  90.4936921  89.5140673
  13.2684262  90.9357785  90.9280900   1.4233442  82.7640006  82.5170024
   0.6134170  82.4187091  82.8925270   2.1117859  82.4547550  83.1057636
   3.3523990  81.8418053  84.1394321   3.9055029  82.2613506  84.7984344
   3.5894077  80.9153801  84.1817277   6.7302798  83.9518578  83.6472985
   6.1501467  84.6103382  83.2651038   6.4638730  83.1295922  83.2360403
   5.1806364  83.3523636  85.8494305   5.6806142  83.4640170  85.0408624
   5.8241972  83.0484688  86.4895114   5.5127676  86.1118668  82.7029333
   4.6253531  86.3968319  82.4849528   5.9281665  85.9512432  81.8556610
   8.8642212  86.1365189  86.4183673   9.6402602  86.6261642  86.6908289
   8.1390346  86.5623243  86.8755542  11.3014770  86.8492808  87.4757613
  11.8959261  86.6088544  86.7650921  11.3741354  86.1299939  88.1031150
   4.6570889  95.8763343  76.7977353   5.3606739  96.0813345  77.4135009
   3.9333538  96.4440105  77.0626437   5.4868699  91.6273204  82.9179624
   5.4303901  92.0841756  82.0787256   6.0397042  90.8663889  82.7402466
   9.2973505  87.4162936  83.7429743   9.0410439  87.0159572  84.5737951
   8.6726373  88.1306730  83.6179882  13.6085843  90.1559009  86.2501034
  13.0485401  90.2252199  87.0232596  13.0029346  89.9799994  85.5300531
   6.5657586  96.3145872  78.8475813   7.4003190  95.8827071  78.6653288
   6.4041929  96.1427886  79.7752708   6.2203479  92.8177985  80.2132153
   6.1652282  92.6522257  79.2720597   5.5949534  93.5254018  80.3694342
   3.3451724  78.9128871  84.0463408   2.5784119  78.3587358  84.1920090
   3.7562428  78.9850740  84.9077560  15.1941862 106.8315523  88.9430990
  15.8320271 106.7122271  88.2394330  15.0762704 107.7796367  89.0018942
  12.0031568 106.7842951  88.8792515  11.6650079 106.6684016  87.9913050
  12.8721336 106.3834116  88.8593521   9.7039847 105.5531199  78.2109455
   9.9565368 105.0312720  77.4492918   8.7664406 105.3897344  78.3136139
  14.7483130 104.5566977  86.0184198  15.5346219 104.1386400  85.6674615
  15.0121834 105.4613069  86.1865847  20.1491557 104.4942210  86.9217177
  20.8816729 103.9241427  87.1555006  19.3930913 104.1063811  87.3623682
  11.7667677 106.9169452  84.1180519  11.4025884 106.3900073  84.8293441
  12.6234793 106.5267921  83.9447005  17.6716977  98.2063784  91.3811785
  17.3400302  99.0759195  91.1573000  17.0762591  97.8900068  92.0605816
  11.4073164 101.9459351  79.1141868  11.5747566 102.8139588  79.4812339
  11.2170333 102.1086633  78.1903157  17.5645641 102.9258871  88.4605135
  16.6562518 102.8574279  88.1663896  17.5133237 103.4030816  89.2886961
  11.3862385 104.4017009  80.0988535  11.2662010 104.8474060  80.9374015
  10.6914973 104.7502327  79.5402073  19.4307287 101.1275309  90.2383009
  18.7881667 101.4207842  89.5922804  18.9262216 101.0128229  91.0436206
  17.0847451 104.8738482  80.9268869  17.9965307 105.1065869  80.7516566
  16.5757098 105.4575526  80.3643947  11.7219289 104.2335717  91.9363718
  12.5680484 104.6575130  92.0798367  11.6617926 103.5769341  92.6302281
  14.8718734 101.8940085  93.5944892  14.6279666 102.6482146  93.0579167
  15.1478664 102.2725433  94.4292139  16.8257197 108.4378698  92.2722157
  17.0374092 109.0810457  91.5956538  16.7786945 107.6041014  91.8044087
  14.4283426 101.0496518  89.1758729  13.5667905 101.3477772  89.4675467
  14.4545860 101.2666917  88.2439762  10.1813881 105.7161861  82.3922100
  10.8837924 106.1682905  82.8596027   9.8494510 105.0745680  83.0201993
   3.9239215 103.9745414  87.6939234   3.1338269 104.2302942  87.2179344
   4.4150462 104.7893752  87.7991274   5.8753960 104.3389993  84.6522711
   5.0785124 104.4508687  85.1706206   5.6479553 104.6776645  83.7863601
  26.0309018 107.6589401  86.7929486  25.2772726 107.0896799  86.6373491
  26.1656559 107.6252066  87.7400121  14.7700109  96.0533366  90.9983099
  14.4264379  96.9435007  90.9222210  15.1379072  95.8635023  90.1352684
  14.7350392 106.0441977  79.5055534  14.2197015 106.8146581  79.7443921
  14.4627700 105.3707113  80.1288595  12.3197503 100.8891677  84.5640772
  11.4639099 100.4998528  84.3846411  12.7324455 100.9683638  83.7040558
  13.8496650  98.4238021  88.9632332  13.3461445  98.3868156  88.1500137
  14.1427257  99.3330763  89.0228989  10.0939536  98.5076750  87.9698514
  10.9592532  98.3119559  87.6104403  10.1617044  98.2787102  88.8967871
  19.7084666 108.7974331  81.4408708  18.9314109 108.4585491  80.9963870
  20.3876147 108.8026955  80.7663673  14.5236695 103.9169069  81.3315315
  14.2186831 104.2315218  82.1825458  15.4767137 103.9950489  81.3742648
  17.9475973 108.2708313  88.0975316  17.2899647 108.9607574  88.1855444
  18.7516372 108.6604745  88.4409302   7.7001855 100.7378958  85.3414881
   8.2745607 100.5154140  84.6088074   8.2872837 100.8067653  86.0943482
  16.7581432 106.6252685  86.1479257  17.2713314 107.2582677  86.6500967
  17.4082656 106.0253881  85.7822617   8.0271442 102.7683419  79.3610766
   7.1908754 103.1058106  79.6820041   7.8876211 102.6332399  78.4237903
  10.0024522  97.6120207  84.0689950   9.3488935  97.2969224  83.4446565
   9.9604996  96.9895948  84.7949773  13.2362263 104.1002141  88.3937598
  12.3184824 104.3217088  88.2359286  13.6522406 104.1748451  87.5349305
  14.0197310 105.4993557  83.5240278  14.7669129 106.0114954  83.2147400
  14.2888900 105.1777609  84.3844672  16.4676148 102.5350673  85.5059067
  15.7298904 102.0228059  85.8369310  16.7202921 102.0951054  84.6942344
  16.5687775  95.3126925  86.1000837  16.8746652  94.4524288  85.8126752
  17.2940380  95.9044545  85.8999831  10.8408855 105.6080718  86.6077028
  10.8957464 104.6554554  86.5319504  10.0300057 105.7640157  87.0918326
   8.7801215 104.2257778  84.3667407   7.9669080 104.5251948  84.7732599
   9.2760209 103.8313466  85.0841889  14.3775426 104.6899602  93.1982300
  14.7324814 104.9171075  94.0576766  15.0247558 105.0217979  92.5759556
  20.1073163 107.8118038  83.9031629  19.9691062 108.0019634  82.9752819
  19.7509382 108.5737421  84.3599681   8.2715289 101.7976133  89.9828642
   8.9114669 101.6564892  89.2851605   7.4392820 101.5110646  89.6067243
  20.1342543 109.8794565  88.9142901  20.5679050 109.7869854  89.7625955
  20.8474124 109.8552065  88.2762917   5.3558357 105.2421645  82.1723387
   4.4255945 105.1806101  82.3893349   5.4515829 104.7197598  81.3760028
   5.2743906 101.7676458  84.7601628   5.5350723 102.6821791  84.6510789
   6.0961078 101.3000901  84.9098241  20.9958092 109.9218266  91.4475786
  21.1893982 110.8264076  91.6935061  20.8958711 109.4625685  92.2814371
  12.6494403  99.8076156  93.9466114  12.0022318 100.5066106  93.8530590
  13.4195419 100.2412300  94.3142362  12.8258537 107.6456921  92.0062933
  13.7550597 107.7968081  91.8331901  12.4049568 107.7340942  91.1511580
  16.1111276 108.3945223  77.4387368  15.4940447 107.6692051  77.3420421
  15.6427765 109.1554583  77.0954443   7.9009822 102.6130647  76.5608673
   7.0239288 102.4919448  76.1970919   8.3767575 101.8216725  76.3087561
  14.3970398 100.7751567  86.4505399  14.8939098 100.0221529  86.1306469
  13.6257380 100.8115883  85.8848608  22.2500156 106.4791932  88.0923690
  22.2390032 107.3616648  87.7217623  21.3817535 106.1263483  87.8978227
  10.9805367 102.9168950  86.1777083  10.6103154 102.3639990  86.8657989
  11.4764459 102.3127083  85.6252083  18.8672730 105.3740573  84.5593856
  19.3333182 106.2068565  84.4854159  19.3180231 104.9085555  85.2639115
  16.8389393  97.7421160  88.5984758  15.9252473  97.9725387  88.7666964
  17.2682494  97.8259604  89.4498790  16.6095851 105.9311052  91.0984652
  15.9567302 106.1786960  90.4437104  16.9876231 105.1175190  90.7647129
   6.3770701 100.3272940  92.4230189   6.4412027 101.1887771  92.0107587
   6.3137821  99.7146942  91.6902548   2.6288516 104.2072502  82.0021578
   2.9241957 103.2983181  81.9488632   1.7276552 104.1860242  81.6802581
   6.1582763 102.2828499  87.9849127   5.4369349 102.8964466  87.8456600
   6.9476019 102.8186263  87.9065773   8.9609076  99.6182925  94.2589779
   9.4843478  99.8645222  95.0216088   8.7421410 100.4502960  93.8392916
   4.3576357 101.8886600  82.1260904   4.0289064 101.0083979  81.9436010
   4.7115728 101.8334268  83.0137293   7.4718181 102.1759570  82.4936381
   7.8114253 102.7045491  81.7714990   7.9190301 102.5139976  83.2694948
  10.1661621 100.5596620  91.9439449   9.8258442  99.7604433  92.3460129
   9.4600628 100.8598331  91.3716283  10.8178093  97.6445933  90.3966772
  11.6404163  97.1706411  90.2745663  11.0616157  98.4236416  90.8965459
   9.4586328 100.6734191  80.6929674  10.1794690 101.0515444  80.1893391
   8.8351632 101.3923068  80.7964652  13.6017451 101.3779340  81.6288006
  13.8181065 102.2603978  81.3276835  13.1211518 100.9865554  80.8993648
   8.3416672 104.3365053  88.2058751   8.1961253 104.6505356  89.0983032
   7.8641876 104.9549954  87.6529650  10.2013055 101.3267601  88.2539641
  10.1874624 100.4308695  87.9171938  10.9185483 101.3338265  88.8877927
  12.0539186 101.7604942  90.2992768  11.7956963 102.6822012  90.2977098
  11.5224226 101.3635376  90.9893232   9.6049951 100.2081982  83.5227211
   9.7265862  99.2798628  83.7218098   9.3151993 100.2220668  82.6105526
  12.4741141  97.8936892  86.6593930  12.4962838  97.9576225  85.7045910
  12.8909200  97.0541401  86.8534437  22.8524765 107.6292152  84.6973153
  23.2955912 106.8799477  84.2992276  21.9751276 107.6202288  84.3146885
  19.6943751 109.1147569  94.3251009  19.7441756 108.9497576  95.2666532
  19.5857674 108.2474828  93.9348890  16.9847513 105.0978497  95.6410316
  17.8857376 104.9584961  95.3494313  17.0595488 105.2632951  96.5808493
  11.3190319 102.4745351  94.4863502  10.4493628 102.7678917  94.2146090
  11.5549799 103.0585796  95.2070766  22.3957630 109.0997390  87.0895601
  23.2304522 109.5387194  87.2533161  22.5316759 108.6236043  86.2703846
  19.4449136 106.6577125  93.0373088  19.9203258 106.8504771  92.2291940
  18.5214701 106.7136311  92.7916472  14.0229353  98.6924968  92.0028922
  14.5411296  99.4285995  91.6775411  13.6684485  98.9988962  92.8375681
   5.6028290 103.5529650  80.1190328   4.9097535 103.6274004  79.4630364
   5.3580042 102.7889993  80.6411845  14.2741947  95.1125251  87.5229819
  14.5543701  94.4448440  88.1490245  15.0592554  95.3054346  87.0104483
  18.1450805 103.5342885  91.2701394  19.0968228 103.6340983  91.2913618
  17.9754256 102.7421153  91.7799478  16.1665185 100.6198468  91.4560795
  15.5715117 100.9003481  90.7607284  15.8814881 101.1092369  92.2277536
  20.6238883 106.7549005  90.3843694  20.5915203 105.8165005  90.5703377
  21.2339507 106.8333041  89.6509519  12.4622214 105.6245058  76.4270898
  13.4081318 105.4951266  76.4959316  12.0836459 104.8859719  76.9040326
  20.7733371 103.5460048  90.4301977  20.2572420 102.7618505  90.2431906
  21.6573320 103.2178765  90.5948496  18.4344098  97.2901064  86.3897790
  18.2368919  96.9816152  87.2741121  19.0443804  98.0162702  86.5195719
  26.4415433 107.8165011  89.5249730  27.1718821 107.5550299  90.0857434
  25.8322378 107.0793733  89.5651798  24.5230730 105.9572874  90.1224182
  23.7963893 105.8228839  89.5140673  24.1078017 106.2649703  90.9280900
  10.6465131 103.5495034  76.3625783   9.7396586 103.2528147  76.4388497
  10.9241112 103.2524852  75.4960069  12.2627197  98.0931924  82.5170024
  11.4527925  97.7479009  82.8925270  12.9511614  97.7839467  83.1057636
  14.1917745  97.1709970  84.1394321  14.7448784  97.5905424  84.7984344
  14.4287831  96.2445719  84.1817277   9.4163916 100.4081969  76.5037762
  10.2783080 100.7336867  76.7633579   9.6014260  99.6213465  75.9910828
  17.5696552  99.2810496  83.6472985  16.9895221  99.9395300  83.2651038
  17.3032485  98.4587840  83.2360403  16.0200118  98.6815553  85.8494305
  16.5199897  98.7932088  85.0408624  16.6635726  98.3776606  86.4895114
  16.3521430 101.4410586  82.7029333  15.4647285 101.7260237  82.4849528
  16.7675419 101.2804349  81.8556610  19.7035966 101.4657107  86.4183673
  20.4796356 101.9553559  86.6908289  18.9784100 101.8915161  86.8755542
  22.1408525 102.1784726  87.4757613  22.7353016 101.9380462  86.7650921
  22.2135109 101.4591857  88.1031150  16.3262454 106.9565122  82.9179624
  16.2697655 107.4133673  82.0787256  16.8790796 106.1955806  82.7402466
  20.1367260 102.7454854  83.7429743  19.8804194 102.3451489  84.5737951
  19.5120128 103.4598648  83.6179882  24.4479598 105.4850927  86.2501034
  23.8879156 105.5544116  87.0232596  23.8423101 105.3091912  85.5300531
  17.0597233 108.1469903  80.2132153  17.0046037 107.9814175  79.2720597
  16.4343288 108.8545936  80.3694342  10.3693359  97.6478012  79.7917471
  10.3572028  98.5919852  79.9485742  11.2616780  97.4648158  79.4976932
  14.1845478  94.2420789  84.0463408  13.4177874  93.6879275  84.1920090
  14.5956183  94.3142658  84.9077560  25.6093864 111.3825283  90.9983099
  25.2658133 112.2726925  90.9222210  25.9772826 111.1926941  90.1352684
  27.4081529 110.6418842  86.1000837  27.7140406 109.7816206  85.8126752
  28.1334134 111.2336463  85.8999831  25.1135701 110.4417169  87.5229819
  25.3937455 109.7740358  88.1490245  25.8986308 110.6346264  87.0104483
  29.2737853 112.6192981  86.3897790  29.0762674 112.3108069  87.2741121
  29.8837558 113.3454620  86.5195719  25.0239233 109.5712706  84.0463408
  24.2571628 109.0171193  84.1920090  25.4349937 109.6434575  84.9077560
   4.3521510  54.0067689  73.5174793   3.5985218  53.4375087  73.3618797
   4.4869051  53.9730353  74.4645427   0.7170122  55.4475677  73.8140907
   1.5517014  55.8865481  73.9778468   0.8529251  54.9714330  72.9949153
   4.7627925  54.1643299  76.2495037   5.4931314  53.9028587  76.8102740
   4.1534871  53.4272021  76.2897105   2.8443222  52.3051161  76.8469488
   2.1176386  52.1707126  76.2385980   2.4290509  52.6127990  77.6526206
   0.4621017  48.5263013  74.2002920   1.0565508  48.2858749  73.4896228
   0.5347601  47.8070144  74.8276456   2.7692090  51.8329214  72.9746341
   2.2091648  51.9022404  73.7477903   2.1635593  51.6570199  72.2545837
   4.3548108  68.5085728  75.6676297   4.9926518  68.3892476  74.9639637
   4.2368951  69.4566572  75.7264249   1.1637815  68.4613156  75.6037822
   0.8256326  68.3454221  74.7158356   2.0327583  68.0604321  75.5838828
   1.6457598  69.6148008  81.5624027   1.6346238  69.2200806  80.6904531
   1.8078237  68.8814081  82.1557798   2.6024189  73.9819600  66.9049177
   1.9512169  74.5673681  66.5183191   3.3968552  74.5125795  66.9644215
   3.9089377  66.2337182  72.7429505   4.6952466  65.8156605  72.3919922
   4.1728081  67.1383274  72.9111153   4.0799454  71.6710032  67.4418162
   3.4445287  71.7444659  68.1539066   3.7496861  72.2603631  66.7637241
   9.3097804  66.1712415  73.6462483  10.0422976  65.6011632  73.8800313
   8.5537160  65.7834016  74.0868989   0.9273924  68.5939657  70.8425826
   0.5632131  68.0670278  71.5538747   1.7841040  68.2038126  70.6692311
   6.8323224  59.8833989  78.1057092   6.5006549  60.7529400  77.8818307
   6.2368838  59.5670273  78.7851122   3.3254744  72.0846535  77.5053005
   3.0255467  72.9871574  77.3968812   2.9805803  71.8178719  78.3574158
   6.7251888  64.6029076  75.1850442   5.8168765  64.5344484  74.8909203
   6.6739483  65.0801020  76.0132268   8.5913534  62.8045514  76.9628316
   7.9487914  63.0978047  76.3168111   8.0868462  62.6898434  77.7681513
   6.2453698  66.5508687  67.6514175   7.1571554  66.7836074  67.4761873
   5.7363345  67.1345731  67.0889254   4.5294465  70.9733315  81.2875468
   4.9377821  70.5315725  80.5430100   3.8071727  70.3985942  81.5409661
   0.8825535  65.9105922  78.6609025   1.7286731  66.3345335  78.8043674
   0.8224173  65.2539546  79.3547588   4.8523280  71.5334506  75.0427757
   4.2232142  71.6980220  74.3403825   4.4648942  71.9476115  75.8138721
   8.7312512  72.4688943  72.3972120   8.0463550  72.8487845  71.8469154
   8.8156361  73.0784270  73.1304068   4.0324981  63.5710290  80.3190198
   3.7885913  64.3252351  79.7824474   4.3084911  63.9495638  81.1537445
   5.9863443  70.1148902  78.9967464   6.1980339  70.7580662  78.3201845
   5.9393192  69.2811219  78.5289394   3.5889672  62.7266723  75.9004036
   2.7274151  63.0247977  76.1920774   3.6152107  62.9437122  74.9685069
   7.1009271  72.9920858  77.1689821   7.9226715  72.5901045  76.8872503
   7.0971674  72.8889092  78.1205937  15.1915264  69.3359606  73.5174793
  14.4378973  68.7667004  73.3618797  15.3262806  69.3022271  74.4645427
   0.5813892  74.2073009  69.1929512   0.4459567  75.0524544  69.6214360
   1.1223705  74.4092286  68.4295446   2.2082369  74.8296575  83.3229854
   1.7646223  74.0432954  83.0050759   2.8699582  75.0175726  82.6573745
   4.3063607  75.1099375  81.3511255   4.2882082  75.9308256  80.8591525
   5.2283527  74.9853450  81.5761397   3.9306356  57.7303571  77.7228406
   3.5870625  58.6205212  77.6467516   4.2985319  57.5405228  76.8597991
   3.8956639  67.7212182  66.2300841   3.3803262  68.4916786  66.4689228
   3.6233947  67.0477318  66.8533902   1.4803750  62.5661882  71.2886079
   0.6245346  62.1768733  71.1091718   1.8930702  62.6453843  70.4285865
   3.0102896  60.1008226  75.6877639   2.5067692  60.0638361  74.8745444
   3.3033503  61.0100968  75.7474295   8.8690913  70.4744536  68.1654014
   8.0920356  70.1355696  67.7209176   9.5482394  70.4797159  67.4908979
   3.6842942  65.5939274  68.0560622   3.3793078  65.9085423  68.9070765
   4.6373384  65.6720694  68.0987955   2.1289374  71.7529497  69.7053576
   1.6010735  71.0182257  69.3926813   1.6276877  72.5304173  69.4593544
   7.1082220  69.9478518  74.8220622   6.4505894  70.6377779  74.9100751
   7.9122619  70.3374949  75.1654609   5.9187679  68.3022890  72.8724564
   6.4319560  68.9352882  73.3746274   6.5688903  67.7024086  72.5067924
   3.1810053  78.2807214  65.6285235   2.5071752  78.5838911  66.2370193
   3.5675875  79.0836295  65.2790692   2.3968509  65.7772346  75.1182904
   1.4791071  65.9987293  74.9604592   2.8128653  65.8518656  74.2594612
   3.1803557  67.1763761  70.2485585   3.9275376  67.6885159  69.9392707
   3.4495147  66.8547814  71.1089978   1.4530207  69.6722302  67.2312539
   0.5441427  69.3881335  67.3285009   1.4825291  70.0921381  66.3715846
   6.6849475  73.2828892  71.0003707   6.2311802  72.4419802  71.0568897
   6.0543442  73.9190290  71.3378487   5.6282394  64.2120878  72.2304374
   4.8905151  63.6998264  72.5614617   5.8809168  63.7721259  71.4187651
   5.1282414  75.1205388  71.9353525   5.4205388  75.6810445  71.2165890
   5.6381035  75.4133949  72.6906684   5.7294022  56.9897130  72.8246143
   6.0352899  56.1294493  72.5372058   6.4546627  57.5814750  72.6245137
   1.1506295  71.2131046  64.5700618   0.7125725  70.4966905  64.1106255
   1.8916736  71.4407161  64.0085709   3.5381673  66.3669807  79.9227607
   3.8931061  66.5941280  80.7822073   4.1853804  66.6988184  79.3004862
   9.2679410  69.4888243  70.6276936   9.1297309  69.6789839  69.6998125
   8.9115629  70.2507626  71.0844987   9.2948790  71.5564770  75.6388208
   9.7285296  71.4640059  76.4871262  10.0080370  71.5322270  75.0008224
   3.0276685  75.1566864  77.1721308   3.0813707  75.7257800  77.9399024
   2.1591466  75.3268749  76.8075345  10.1564339  71.5988471  78.1721093
  10.3500229  72.5034281  78.4180368  10.0564957  71.1395890  79.0059678
   1.8100650  61.4846361  80.6711420   1.1628565  62.1836311  80.5775897
   2.5801665  61.9182505  81.0387669   5.2179448  71.7495213  83.7461974
   5.0664954  71.5205765  82.8292057   5.2084127  72.7065815  83.7593319
   1.9864784  69.3227126  78.7308240   2.9156844  69.4738286  78.5577207
   1.5655814  69.4111147  77.8756887   1.3801268  78.4486887  67.8432314
   1.5553024  77.9774930  68.6577937   0.6934056  79.0752653  68.0713575
   2.3358331  72.7259393  73.8895615   2.0008164  72.6860163  74.7853265
   1.8362277  72.0604109  73.4166026   5.2717523  70.0715427  64.1632675
   4.6546693  69.3462256  64.0665728   4.8034011  70.8324788  63.8199749
   6.9271654  74.7814336  81.8238455   6.8684201  74.0973556  81.1569039
   7.3291173  75.5233326  81.3719081   6.9289062  72.7453920  80.0552435
   6.0415841  72.4079842  80.1778834   7.4987613  72.0136951  80.2921201
   3.5576645  62.4521772  73.1750705   4.0545344  61.6991734  72.8551776
   2.7863626  62.4886088  72.6093915  11.4106402  68.1562137  74.8168997
  11.3996279  69.0386853  74.4462930  10.5423782  67.8033688  74.6223534
   2.9188899  77.3042206  79.1771837   3.6316871  77.9389671  79.1047739
   2.4278927  77.4006072  78.3611839   4.6406426  71.2093459  70.7489129
   3.7062704  71.3294921  70.5793833   4.8183094  70.3065926  70.4849139
   8.0278977  67.0510778  71.2839163   8.4939429  67.8838770  71.2099466
   8.4786477  66.5855760  71.9884421   6.0955208  73.3954599  68.2825315
   6.3715052  73.2811194  69.1919189   5.2259707  72.9972084  68.2437488
   5.9995640  59.4191365  75.3230064   5.0858719  59.6495592  75.4912271
   6.4288741  59.5029809  76.1744097   5.7702098  67.6081257  77.8229958
   5.1173548  67.8557165  77.1682411   6.1482478  66.7945395  77.4892436
   2.7309272  77.6440950  71.9258129   2.9131667  76.8262606  72.3885881
   3.5542258  77.8608642  71.4883018   3.0651438  76.5709135  69.1873177
   3.5939204  76.0601590  68.5743339   3.3279657  76.2551666  70.0518710
   1.8189671  68.3501068  84.3095995   1.1430308  68.2495197  84.9798371
   2.6417305  68.1940282  84.7731993   0.5612454  79.6567996  78.5453611
   1.1130762  79.8199617  79.3102697   0.9018648  80.2472433  77.8733636
   5.4123328  74.4829253  84.4002266   5.9563232  75.0959211  83.9057221
   4.8310173  75.0408831  84.9169279   3.6980841  77.6049971  75.5317293
   3.5731981  76.8039711  75.0228239   4.3559932  78.0996164  75.0431263
   5.7615750  75.4058991  77.1596844   4.8146085  75.2864342  77.0875170
   6.1098523  74.5181489  77.2423105   2.7662183  75.2011707  73.3601196
   2.6187145  74.2728415  73.5408766   3.5915677  75.2231798  72.8758271
   6.3696305  76.0240266  74.4466069   7.2942852  75.8183127  74.3090520
   6.2011608  75.7756667  75.3555410   2.7623697  63.0549545  68.3533313
   2.9787312  63.9374183  68.0522141   2.2817765  62.6635758  67.6238955
   1.2145432  63.4375146  77.0238075   0.9563210  64.3592217  77.0222405
   0.6830473  63.0405581  77.7138539   6.1591621  76.5425934  69.8028160
   6.3328499  75.9772356  69.0502012   6.6520512  77.3426828  69.6207650
   1.6347388  59.5707097  73.3839237   1.6569085  59.6346430  72.4291217
   2.0515447  58.7311606  73.5779743  12.0131012  69.3062357  71.4218460
  12.4562158  68.5569682  71.0237583  11.1357523  69.2972493  71.0392192
   7.1466794  75.8592698  66.9025058   7.8417698  76.4799391  67.1212373
   7.4889944  75.0088049  67.1777436   9.0458217  73.3092404  68.4312389
   9.5709541  73.6479676  67.7061709   8.9580569  72.3739419  68.2475524
   0.7078265  77.2226477  80.5602266   1.0165392  76.9775624  81.4324965
   1.5053747  77.4273116  80.0721136   8.7352123  73.9425307  83.7363587
   7.9447666  73.9249446  83.1968086   8.4985477  74.4813601  84.4912624
   8.8549998  70.7917774  81.0496316   8.9048003  70.6267781  81.9911838
   8.7463921  69.9245033  80.6594196   6.1453760  66.7748702  82.3655622
   7.0463623  66.6355166  82.0739620   6.2201735  66.9403156  83.3053800
  10.3568195  73.2114715  81.2938337  10.0653003  73.5744696  82.1301798
   9.7440326  72.4981723  81.1151669  11.5563877  70.7767595  73.8140907
  12.3910768  71.2157399  73.9778468  11.6923006  70.3006248  72.9949153
   8.6055383  68.3347330  79.7618395   9.0809504  68.5274976  78.9537246
   7.6820948  68.3906515  79.5161779   3.1835599  60.3695173  78.7274229
   3.7017543  61.1056200  78.4020718   2.8290732  60.6759167  79.5620988
   3.4348194  56.7895456  74.2475126   3.7149947  56.1218645  74.8735552
   4.2198800  56.9824551  73.7349789   1.2381662  75.9654450  65.8100152
   0.6655629  76.5844637  65.3570624   1.8114456  76.5153811  66.3440074
   7.3057052  65.2113090  77.9946701   8.2574475  65.3111187  78.0158925
   7.1360502  64.4191358  78.5044785   5.3271431  62.2968673  78.1806102
   4.7321363  62.5773686  77.4852590   5.0421128  62.7862574  78.9522843
   4.4578922  76.2491600  66.9408734   5.3909595  76.1837161  67.1441610
   4.3702135  77.0847867  66.4823267   7.0866938  75.5657470  63.9012682
   7.0080570  75.2317334  64.7948440   7.9076605  76.0579238  63.9004154
   9.7845130  68.4319209  77.1089000   9.7521450  67.4935210  77.2948684
  10.3945753  68.5103246  76.3754825   1.6228461  67.3015262  63.1516204
   2.5687565  67.1721471  63.2204622   1.2442705  66.5629924  63.6285633
   9.9339618  65.2230253  77.1547283   9.4178667  64.4388710  76.9677212
  10.8179567  64.8948969  77.3193803   7.5950345  58.9671268  73.1143096
   7.3975166  58.6586357  73.9986428   8.2050051  59.6932907  73.2441026
  15.6021680  69.4935216  76.2495037  16.3325068  69.2320504  76.8102740
  14.9928625  68.7563938  76.2897105  13.6836977  67.6343079  76.8469488
  12.9570140  67.4999044  76.2385980  13.2684264  67.9419907  77.6526206
   1.5067153  71.3533009  84.6116861   2.4270163  71.5311608  84.8056908
   1.4716736  70.4089054  84.4596561   1.4233443  59.7702129  69.2415331
   0.6134172  59.4249213  69.6170577   2.1117860  59.4609672  69.8302942
   3.3523992  58.8480175  70.8639627   3.9055030  59.2675629  71.5229651
   3.5894078  57.9215923  70.9062584   6.7302799  60.9580700  70.3718292
   6.1501468  61.6165505  69.9896344   6.4638731  60.1358045  69.9605709
   5.1806365  60.3585758  72.5739612   5.6806144  60.4702293  71.7653931
   5.8241973  60.0546811  73.2140421   5.5127677  63.1180791  69.4274640
   4.6253532  63.4030441  69.2094835   5.9281666  62.9574554  68.5801917
   8.8642213  63.1427312  73.1428979   9.6402603  63.6323764  73.4153596
   8.1390347  63.5685366  73.6000849  11.3014772  63.8554931  74.2002920
  11.8959262  63.6150667  73.4896228  11.3741355  63.1362062  74.8276456
   4.6570890  72.8825466  63.5222660   5.3606740  73.0875468  64.1380316
   3.9333539  73.4502227  63.7871744   5.4868701  68.6335327  69.6424930
   5.4303902  69.0903878  68.8032563   6.0397043  67.8726011  69.4647773
   9.2973506  64.4225059  70.4675050   9.0410441  64.0221694  71.2983257
   8.6726374  65.1368853  70.3425189  13.6085844  67.1621132  72.9746341
  13.0485402  67.2314321  73.7477903  13.0029348  66.9862117  72.2545837
   6.5657588  73.3207995  65.5721120   7.4003192  72.8889193  65.3898595
   6.4041931  73.1490008  66.4998015   6.2203480  69.8240108  66.9377459
   6.1652284  69.6584379  65.9965903   5.5949535  70.5316141  67.0939649
   3.5349387  72.1289020  86.2631022   4.4040547  72.3029672  85.9017657
   3.0556139  72.9483437  86.1406751   3.3451725  55.9190994  70.7708715
   2.5784121  55.3649480  70.9165397   3.7562430  55.9912862  71.6322866
  15.1941863  83.8377646  75.6676297  15.8320273  83.7184393  74.9639637
  15.0762706  84.7858490  75.7264249  12.0031569  83.7905074  75.6037822
  11.6650081  83.6746139  74.7158356  12.8721337  83.3896239  75.5838828
   7.8618385  85.6440550  71.5934712   7.2983250  85.5530487  70.8251000
   7.7470780  84.8240455  72.0737205  12.4851352  84.9439926  81.5624027
  12.4739993  84.5492724  80.6904531  12.6471992  84.2105998  82.1557798
   5.4082817  87.1391742  74.4318933   6.2004109  86.7982567  74.0165232
   5.6479467  87.2486717  75.3521086  13.4417943  89.3111518  66.9049177
  12.7905923  89.8965598  66.5183191  14.2362306  89.8417713  66.9644215
   7.3673571  86.4000655  67.3036312   8.1404447  85.8529642  67.1649188
   7.7198969  87.2644905  67.5150773   9.2058613  87.7277037  80.5103211
   8.9148479  88.6322668  80.3949877   9.8415598  87.7693565  81.2247281
  10.1314820  85.1053886  77.1004571  10.7278392  84.8809908  76.3861534
  10.1889792  84.3638631  77.7030019   9.7039848  82.5593321  64.9354762
   9.9565369  82.0374843  64.1738225   8.7664408  82.3959467  65.0381445
  14.7483131  81.5629100  72.7429505  15.5346220  81.1448523  72.3919922
  15.0121836  82.4675192  72.9111153  14.9193209  87.0001950  67.4418162
  14.2839042  87.0736577  68.1539066  14.5890615  87.5895549  66.7637241
  20.1491558  81.5004333  73.6462483  20.8816730  80.9303550  73.8800313
  19.3930914  81.1125933  74.0868989   9.4236137  84.4621427  67.1379137
   9.3072395  83.7866331  67.8060221   9.5338397  83.9753801  66.3211290
  11.7667678  83.9231574  70.8425826  11.4025885  83.3962195  71.5538747
  12.6234794  83.5330043  70.6692311  17.6716979  75.2125907  78.1057092
  17.3400304  76.0821318  77.8818307  17.0762592  74.8962191  78.7851122
  11.4073165  78.9521474  65.8387174  11.5747567  79.8201711  66.2057645
  11.2170334  79.1148756  64.9148464  14.1648498  87.4138453  77.5053005
  13.8649221  88.3163492  77.3968812  13.8199558  87.1470636  78.3574158
   7.6160980  83.8652250  73.5389709   6.6911476  83.7328464  73.7467401
   7.8645393  84.6446469  74.0359652  17.5645642  79.9320993  75.1850442
  16.6562519  79.8636402  74.8909203  17.5133238  80.4092938  76.0132268
  11.3862386  81.4079132  66.8233841  11.2662011  81.8536182  67.6619321
  10.6914974  81.7564449  66.2647379   4.9769791  83.5085523  74.3733498
   5.1062172  83.7620002  75.2872910   4.2967242  84.1013231  74.0538153
   9.1469278  94.1782773  70.4723972   9.0693308  95.1290598  70.5512453
   8.5430922  93.8328646  71.1298899  11.6386508  81.3510639  83.1285339
  10.8619842  81.9104559  83.1188204  12.2777071  81.8367422  83.6500209
  19.4307288  78.1337432  76.9628316  18.7881669  78.4269965  76.3168111
  18.9262217  78.0190352  77.7681513  17.0847452  81.8800605  67.6514175
  17.9965308  82.1127992  67.4761873  16.5757099  82.4637649  67.0889254
   9.8932880  84.1596092  82.6903306  10.6347565  84.6981136  82.4138130
   9.1869866  84.7862381  82.8474858  15.3688220  86.3025233  81.2875468
  15.7771576  85.8607643  80.5430100  14.6465481  85.7277860  81.5409661
  11.7219290  81.2397839  78.6609025  12.5680485  81.6637253  78.8043674
  11.6617928  80.5831464  79.3547588  15.6917034  86.8626423  75.0427757
  15.0625897  87.0272137  74.3403825  15.3042697  87.2768033  75.8138721
  19.5706266  87.7980861  72.3972120  18.8857304  88.1779762  71.8469154
  19.6550116  88.4076188  73.1304068  14.8718735  78.9002208  80.3190198
  14.6279667  79.6544268  79.7824474  15.1478666  79.2787555  81.1537445
  16.8257198  85.4440820  78.9967464  17.0374093  86.0872580  78.3201845
  16.7786946  84.6103137  78.5289394  14.4283427  78.0558641  75.9004036
  13.5667906  78.3539894  76.1920774  14.4545862  78.2729040  74.9685069
  11.2444996  86.6000831  72.3077842  11.7083342  86.8788534  71.5182464
  10.9801794  85.6984276  72.1250932   8.1369077  86.1472313  75.2457605
   8.7070434  86.5759581  74.6075090   8.7277189  85.8654898  75.9441791
  10.1813882  82.7223984  69.1167407  10.8837926  83.1745027  69.5841333
   9.8494511  82.0807803  69.7447300   8.6294244  81.3135740  83.4918616
   7.9992904  81.9952021  83.7254013   8.5230332  81.2018822  82.5471755
   3.9239216  80.9807536  74.4184540   3.1338270  81.2365065  73.9424651
   4.4150464  81.7955874  74.5236581  17.9403026  88.3212776  77.1689821
  18.7620470  87.9192963  76.8872503  17.9365429  88.2181010  78.1205937
   5.8753962  81.3452116  71.3768017   5.0785125  81.4570810  71.8951513
   5.6479554  81.6838768  70.5108908  11.7059629  87.8696819  79.3250532
  11.7704062  88.3317226  80.1608704  10.9970553  87.2394184  79.4532842
   2.2076919  81.2338027  76.8499531   2.4584958  82.1185037  77.1157107
   2.7436468  81.0542628  76.0774623  26.0309019  84.6651524  73.5174793
  25.2772727  84.0958922  73.3618797  26.1656560  84.6314189  74.4645427
  11.4207647  89.5364926  69.1929512  11.2853322  90.3816462  69.6214360
  11.9617459  89.7384204  68.4295446   7.9074987  75.6156506  85.8543867
   7.5141932  75.0622705  86.5291512   8.7241127  75.9267085  86.2450385
   4.8737044  87.0540364  69.7657437   5.3861565  87.8483615  69.9163002
   5.5259757  86.3566655  69.6991039   6.6831929  90.1706121  71.8480190
   6.8598557  91.0924085  71.6601174   7.4788763  89.8564540  72.2774570
  10.8242948  77.0314385  83.4464124  11.5652661  77.6321538  83.3668586
  11.0560870  76.2892023  82.8882166   5.9684286  82.2170753  81.7242354
   5.8537801  81.3156010  82.0249452   5.1128803  82.4634449  81.3727170
  13.0476123  90.1588493  83.3229854  12.6039978  89.3724871  83.0050759
  13.7093337  90.3467643  82.6573745   7.8063245  91.6884294  77.8490533
   8.3570670  91.5601358  77.0767527   6.9674720  91.9879183  77.4985426
  15.1457361  90.4391293  81.3511255  15.1275837  91.2600174  80.8591525
  16.0677281  90.3145368  81.5761397  11.6030416  87.9535422  82.1934764
  12.1358752  87.1923710  81.9634072  11.0744497  87.6609074  82.9358918
  14.7700111  73.0595488  77.7228406  14.4264380  73.9497130  77.6467516
  15.1379073  72.8697146  76.8597991   2.8385961  85.3829019  70.5417008
   3.6761183  85.7926027  70.3250715   3.0164229  84.4428461  70.5117202
  14.7350393  83.0504099  66.2300841  14.2197017  83.8208704  66.4689228
  14.4627702  82.3769235  66.8533902  12.3197504  77.8953800  71.2886079
  11.4639101  77.5060650  71.1091718  12.7324456  77.9745761  70.4285865
  13.8496651  75.4300143  75.6877639  13.3461447  75.3930279  74.8745444
  14.1427258  76.3392886  75.7474295  10.0939537  75.5138873  74.6943821
  10.9592534  75.3181682  74.3349710  10.1617046  75.2849225  75.6213177
  19.7084667  85.8036454  68.1654014  18.9314110  85.4647613  67.7209176
  20.3876148  85.8089077  67.4908979  14.5236696  80.9231191  68.0560622
  14.2186832  81.2377341  68.9070765  15.4767139  81.0012611  68.0987955
  12.9683128  87.0821415  69.7053576  12.4404490  86.3474174  69.3926813
  12.4670631  87.8596091  69.4593544  17.9475974  85.2770435  74.8220622
  17.2899649  85.9669697  74.9100751  18.7516374  85.6666867  75.1654609
   7.7001856  77.7441081  72.0660187   8.2745608  77.5216262  71.3333380
   8.2872838  77.8129775  72.8188789  16.7581433  83.6314808  72.8724564
  17.2713315  84.2644800  73.3746274  17.4082657  83.0316003  72.5067924
   8.0271443  79.7745542  66.0856073   7.1908755  80.1120229  66.4065347
   7.8876213  79.6394522  65.1483210  10.0024524  74.6182330  70.7935257
   9.3488936  74.3031347  70.1691872   9.9604998  73.9958070  71.5195080
  11.1135728  84.9001625  62.7088549  10.2062790  84.6690878  62.9079698
  11.6106760  84.1039244  62.8962530  14.0203807  93.6099132  65.6285235
  13.3465506  93.9130829  66.2370193  14.4069629  94.4128213  65.2790692
  13.2362264  81.1064263  75.1182904  12.3184825  81.3279210  74.9604592
  13.6522408  81.1810574  74.2594612  14.0197312  82.5055679  70.2485585
  14.7669131  83.0177076  69.9392707  14.2888901  82.1839732  71.1089978
  12.2923962  85.0014220  67.2312539  11.3835181  84.7173253  67.3285009
  12.3219046  85.4213298  66.3715846  17.5243229  88.6120809  71.0003707
  17.0705556  87.7711719  71.0568897  16.8937196  89.2482208  71.3378487
  16.4676149  79.5412795  72.2304374  15.7298906  79.0290182  72.5614617
  16.7202922  79.1013177  71.4187651  15.9676169  90.4497306  71.9353525
  16.2599143  91.0102363  71.2165890  16.4774789  90.7425867  72.6906684
  16.5687776  72.3189047  72.8246143  16.8746653  71.4586411  72.5372058
  17.2940381  72.9106668  72.6245137   2.8612132  82.7219734  71.2127741
   2.6636532  82.1289095  70.4878808   2.3058796  82.4171944  71.9303680
  10.8408856  82.6142840  73.3322334  10.8957466  81.6616677  73.2564811
  10.0300058  82.7702280  73.8163633  11.9900050  86.5422964  64.5700618
  11.5519480  85.8258822  64.1106255  12.7310491  86.7699078  64.0085709
   8.7801216  81.2319900  71.0912713   7.9669081  81.5314071  71.4977905
   9.2760210  80.8375589  71.8087195  10.9309794  91.2277657  73.0246978
  10.8885973  91.4538503  72.0955510  11.8472493  90.9941032  73.1732779
  14.3775428  81.6961725  79.9227607  14.7324815  81.9233198  80.7822073
  15.0247559  82.0280101  79.3004862  20.1073164  84.8180161  70.6276936
  19.9691063  85.0081757  69.6998125  19.7509383  85.5799543  71.0844987
   8.2715291  78.8038256  76.7073948   8.9114670  78.6627015  76.0096911
   7.4392821  78.5172769  76.3312550  20.1342544  86.8856688  75.6388208
  20.5679051  86.7931977  76.4871262  20.8474125  86.8614188  75.0008224
   9.0475595  88.1040686  72.8208941   9.8416193  87.6091006  72.6191516
   8.3367287  87.5758549  72.4576646  13.8670439  90.4858782  77.1721308
  13.9207461  91.0549718  77.9399024  12.9985220  90.6560667  76.8075345
   5.3558358  82.2483768  68.8968693   4.4255946  82.1868223  69.1138655
   5.4515830  81.7259721  68.1005335   5.2743907  78.7738581  71.4846935
   5.5350724  79.6883914  71.3756095   6.0961079  78.3063023  71.6343548
   6.7468832  80.1876338  78.6545759   7.4191886  79.9793700  78.0058408
   5.9198619  79.9898424  78.2150992  20.9958094  86.9280388  78.1721093
  21.1893984  87.8326199  78.4180368  20.8958712  86.4687807  79.0059678
  12.6494404  76.8138279  80.6711420  12.0022319  77.5128228  80.5775897
  13.4195420  77.2474423  81.0387669  16.0573202  87.0787131  83.7461974
  15.9058709  86.8497683  82.8292057  16.0477882  88.0357732  83.7593319
  12.8258539  84.6519044  78.7308240  13.7550599  84.8030203  78.5577207
  12.4049569  84.7403064  77.8756887  11.6246871  88.6769708  76.5006778
  11.4857956  88.3088493  77.3732716  10.8361467  89.1917348  76.3290735
  12.2195022  93.7778805  67.8432314  12.3946778  93.3066848  68.6577937
  11.5327811  94.4044571  68.0713575  13.1752086  88.0551311  73.8895615
  12.8401918  88.0152081  74.7853265  12.6756031  87.3896027  73.4166026
   7.1496330  83.4618941  79.4148197   7.0116128  82.7299180  80.0159736
   8.0601253  83.3727841  79.1332384  16.1111277  85.4007345  64.1632675
  15.4940448  84.6754173  64.0665728  15.6427766  86.1616705  63.8199749
   9.7778630  83.1738900  78.9031876  10.4878249  82.5332092  78.8618495
   9.7347938  83.4251795  79.8258057  17.7665409  90.1106254  81.8238455
  17.7077955  89.4265474  81.1569039  18.1684927  90.8525244  81.3719081
   8.4907564  80.1604118  80.7227516   7.9544921  79.7094857  81.3749112
   7.9024273  80.2950027  79.9797980   6.7856108  96.9268167  74.6172174
   7.0252706  97.5586692  75.2951193   5.9425304  96.5756207  74.9037534
   7.9009823  79.6192769  63.2853979   7.0239290  79.4981570  62.9216226
   8.3767576  78.8278848  63.0332868  17.7682816  88.0745837  80.0552435
  16.8809595  87.7371759  80.1778834  18.3381367  87.3428869  80.2921201
   4.2246686  79.2960126  77.8080510   4.1404874  78.6885795  77.0730920
   3.4029392  79.7869144  77.8090007  11.2983970  92.7347290  77.0213678
  11.2254141  93.5402261  77.5332983  10.8561363  92.9339256  76.1961700
  11.0873749  91.9719060  70.5316500  10.3041271  92.5140740  70.6254724
  11.7866494  92.4893039  70.9310741  14.3970399  77.7813689  73.1750705
  14.8939099  77.0283652  72.8551776  13.6257381  77.8178006  72.6093915
  22.2500157  83.4854055  74.8168997  22.2390033  84.3678770  74.4462930
  21.3817536  83.1325606  74.6223534  13.7582653  92.6334124  79.1771837
  14.4710625  93.2681589  79.1047739  13.2672682  92.7297990  78.3611839
  15.4800180  86.5385377  70.7489129  14.5456459  86.6586839  70.5793833
  15.6576849  85.6357843  70.4849139  10.9805368  79.9231072  72.9022390
  10.6103156  79.3702113  73.5903295  11.4764461  79.3189206  72.3497390
  18.8672731  82.3802696  71.2839163  19.3333184  83.2130687  71.2099466
  19.3180232  81.9147677  71.9884421   8.8094567  90.3828567  79.9977408
   9.5104026  91.0165050  80.1506802   8.3389682  90.7243299  79.2373047
  16.9348963  88.7246517  68.2825315  17.2108806  88.6103112  69.1919189
  16.0653461  88.3264002  68.2437488  16.8389394  74.7483283  75.3230064
  15.9252474  74.9787510  75.4912271  17.2682496  74.8321727  76.1744097
  16.6095853  82.9373175  77.8229958  15.9567303  83.1849082  77.1682411
  16.9876233  82.1237313  77.4892436  13.5703027  92.9732868  71.9258129
  13.7525421  92.1554524  72.3885881  14.3936013  93.1900560  71.4883018
  13.9045192  91.9001053  69.1873177  14.4332958  91.3893508  68.5743339
  14.1673412  91.5843583  70.0518710  12.6583426  83.6792986  84.3095995
  11.9824063  83.5787115  84.9798371  13.4811060  83.5232200  84.7731993
   4.4062285  89.9164922  76.9308511   4.9915722  89.1708610  77.0636415
   4.2087123  90.2268879  77.8145174   7.2600940  92.9516170  71.9470953
   6.5911315  93.4362297  71.4634993   7.1213810  93.1985390  72.8614331
  11.4006209  94.9859913  78.5453611  11.9524517  95.1491535  79.3102697
  11.7412402  95.5764351  77.8733636   6.3770702  77.3335063  79.1475496
   6.4412028  78.1949894  78.7352894   6.3137822  76.7209065  78.4147855
   5.8522974  79.4058196  82.7948530   6.4795013  79.0235273  83.4086055
   4.9950893  79.1872398  83.1604223  16.2517083  89.8121171  84.4002266
  16.7956987  90.4251129  83.9057221  15.6703928  90.3700749  84.9169279
   2.6288517  81.2134625  68.7266885   2.9241958  80.3045303  68.6733939
   1.7276553  81.1922364  68.4047887  14.5374596  92.9341889  75.5317293
  14.4125735  92.1331629  75.0228239  15.1953687  93.4288082  75.0431263
   6.1582764  79.2890621  74.7094434   5.4369350  79.9026589  74.5701907
   6.9476020  79.8248386  74.6311080  16.6009504  90.7350909  77.1596844
  15.6539840  90.6156260  77.0875170  16.9492277  89.8473407  77.2423105
   8.9609078  76.6245048  80.9835085   9.4843479  76.8707344  81.7461395
   8.7421411  77.4565083  80.5638223   4.3576359  78.8948722  68.8506210
   4.0289065  78.0146101  68.6681316   4.7115729  78.8396391  69.7382599
  13.6055938  90.5303625  73.3601196  13.4580900  89.6020332  73.5408766
  14.4309431  90.5523716  72.8758271   7.4718182  79.1821692  69.2181688
   7.8114254  79.7107613  68.4960296   7.9190302  79.5202098  69.9940254
  17.2090059  91.3532184  74.4466069  18.1336607  91.1475045  74.3090520
  17.0405363  91.1048585  75.3555410  10.1661623  77.5658743  78.6684756
   9.8258443  76.7666556  79.0705436   9.4600629  77.8660454  78.0961589
  10.8178094  74.6508055  77.1212079  11.6404164  74.1768533  76.9990969
  11.0616158  75.4298539  77.6210765   9.4586329  77.6796314  67.4174981
  10.1794691  78.0577567  66.9138698   8.8351633  78.3985191  67.5209959
  13.6017452  78.3841463  68.3533313  13.8181066  79.2666101  68.0522141
  13.1211519  77.9927676  67.6238955   8.3416673  81.3427176  74.9304058
   8.1961254  81.6567479  75.8228339   7.8641877  81.9612076  74.3774956
  10.2013056  78.3329724  74.9784947  10.1874625  77.4370817  74.6417245
  10.9185484  78.3400388  75.6123233  12.0539187  78.7667064  77.0238075
  11.7956965  79.6884135  77.0222405  11.5224227  78.3697499  77.7138539
  16.9985376  91.8717851  69.8028160  17.1722253  91.3064274  69.0502012
  17.4914267  92.6718746  69.6207650   2.8162335  83.8832520  77.8691719
   2.2715803  84.6592328  78.0011993   3.6941685  84.2303325  77.7110840
   9.6049952  77.2144104  70.2472517   9.7265863  76.2860750  70.4463405
   9.3151994  77.2282790  69.3350833  12.4741142  74.8999015  73.3839237
  12.4962839  74.9638348  72.4291217  12.8909201  74.0603523  73.5779743
  22.8524767  84.6354274  71.4218460  23.2955913  83.8861599  71.0237583
  21.9751277  84.6264411  71.0392192  17.9860548  91.1884616  66.9025058
  18.6811453  91.8091308  67.1212373  18.3283698  90.3379967  67.1777436
   3.6028357  83.0102417  80.7621876   2.8610093  83.1585052  81.3486506
   3.2821102  83.2710682  79.8988625  19.8851971  88.6384321  68.4312389
  20.4103295  88.9771594  67.7061709  19.7974324  87.7031337  68.2475524
  11.5472020  92.5518395  80.5602266  11.8559146  92.3067542  81.4324965
  12.3447502  92.7565033  80.0721136  11.5692632  94.7056304  72.7907642
  11.1297622  94.2132683  73.4840499  12.3200749  94.1629272  72.5499717
   4.0484971  90.8967845  72.7932270   4.8742991  90.5971617  72.4130914
   3.6979023  90.1275468  73.2422059   9.0166504  90.2494314  74.8629944
   8.3946513  89.5865019  74.5632172   9.6871371  90.2755445  74.1803592
   2.2493576  88.8154172  73.7521204   1.4125484  88.3876346  73.5705205
   2.2217221  89.0086615  74.6891995   9.0891032  78.7276102  84.4562450
   9.1379187  79.6038224  84.0740220   9.6313546  78.1853495  83.8834093
  19.5745877  89.2717225  83.7363587  18.7841421  89.2541364  83.1968086
  19.3379232  89.8105519  84.4912624  19.6943752  86.1209691  81.0496316
  19.7441757  85.9559699  81.9911838  19.5857676  85.2536950  80.6594196
   8.5780011  88.7998237  68.3388404   8.7268131  89.4833701  67.6855077
   9.3846454  88.7803327  68.8537860  16.9847515  82.1040619  82.3655622
  17.8857377  81.9647084  82.0739620  17.0595489  82.2695074  83.3053800
  11.3190320  79.4807474  81.2108809  10.4493629  79.7741040  80.9391397
  11.5549800  80.0647919  81.9316072  21.1961949  88.5406633  81.2938337
  20.9046757  88.9036613  82.1301798  20.5834080  87.8273641  81.1151669
  22.3957631  86.1059513  73.8140907  23.2304523  86.5449317  73.9778468
  22.5316760  85.6298166  72.9949153  19.4449137  83.6639247  79.7618395
  19.9203259  83.8566894  78.9537246  18.5214703  83.7198433  79.5161779
   6.3332644  84.8263415  69.3449473   6.0878686  83.9225745  69.5429683
   6.5028559  84.8280565  68.4028951  14.0229354  75.6987091  78.7274229
  14.5411298  76.4348118  78.4020718  13.6684487  76.0051084  79.5620988
   5.6028292  80.5591772  66.8435635   4.9097536  80.6336127  66.1875671
   5.3580043  79.7952116  67.3657152  14.2741948  72.1187373  74.2475126
  14.5543702  71.4510563  74.8735552  15.0592555  72.3116469  73.7349789
  12.0775417  91.2946367  65.8100152  11.5049384  91.9136554  65.3570624
  12.6508210  91.8445729  66.3440074  18.1450806  80.5405007  77.9946701
  19.0968229  80.6403105  78.0158925  17.9754257  79.7483276  78.5044785
  16.1665186  77.6260591  78.1806102  15.5715118  77.9065603  77.4852590
  15.8814883  78.1154492  78.9522843  15.2972676  91.5783517  66.9408734
  16.2303349  91.5129079  67.1441610  15.2095889  92.4139784  66.4823267
  17.9260693  90.8949388  63.9012682  17.8474325  90.5609251  64.7948440
  18.7470360  91.3871156  63.9004154  20.6238884  83.7611127  77.1089000
  20.5915204  82.8227128  77.2948684  21.2339508  83.8395164  76.3754825
  12.4622215  82.6307180  63.1516204  13.4081320  82.5013388  63.2204622
  12.0836460  81.8921842  63.6285633  20.7733373  80.5522171  77.1547283
  20.2572421  79.7680627  76.9677212  21.6573321  80.2240887  77.3193803
  18.4344100  74.2963186  73.1143096  18.2368921  73.9878274  73.9986428
  19.0443805  75.0224825  73.2441026  26.4415434  84.8227134  76.2495037
  27.1718822  84.5612422  76.8102740  25.8322379  84.0855856  76.2897105
  24.5230731  82.9634997  76.8469488  23.7963895  82.8290961  76.2385980
  24.1078018  83.2711825  77.6526206  12.3460908  86.6824926  84.6116861
  13.2663917  86.8603525  84.8056908  12.3110491  85.7380972  84.4596561
  10.6465132  80.5557156  63.0871090   9.7396588  80.2590269  63.1633803
  10.9241113  80.2586975  62.2205376   1.5643073  81.8763520  73.5370136
   1.2445857  81.0228828  73.2444510   1.0176501  82.0912098  74.2928103
   5.3422980  84.5925961  77.2539642   5.5608990  85.5243069  77.2727676
   5.7548754  84.2333935  78.0394446  12.2627198  75.0994046  69.2415331
  11.4527926  74.7541131  69.6170577  12.9511615  74.7901590  69.8302942
  14.1917746  74.1772093  70.8639627  14.7448785  74.5967546  71.5229651
  14.4287833  73.2507841  70.9062584  10.2150845  80.1659167  86.6442391
  10.1147572  81.1153524  86.5754483   9.9972387  79.8377406  85.7718461
   9.4163917  77.4144092  63.2283069  10.2783081  77.7398990  63.4878886
   9.6014261  76.6275588  62.7156135   1.4331333  85.4966431  75.5063258
   0.7394804  85.0820384  74.9933212   2.1804324  85.5386968  74.9096676
  17.5696553  76.2872618  70.3718292  16.9895222  76.9457422  69.9896344
  17.3032486  75.4649963  69.9605709  16.0200120  75.6877676  72.5739612
  16.5199898  75.7994210  71.7653931  16.6635728  75.3838729  73.2140421
  10.0782115  83.5956305  85.4607453   9.5949197  84.3956666  85.6671342
  10.1643055  83.6064250  84.5074897   3.3468075  85.4284685  73.3829272
   3.3238763  85.5272372  72.4311156   3.6568712  86.2749836  73.7046439
   6.0055453  87.4860840  77.4975887   6.9598707  87.4544783  77.4305818
   5.8067977  87.0251464  78.3126113   6.5954835  86.0561956  80.0646685
   7.4147724  86.5506035  80.0881522   6.8691643  85.1393924  80.0364252
  16.3521431  78.4472709  69.4274640  15.4647286  78.7322359  69.2094835
  16.7675420  78.2866472  68.5801917  19.7035967  78.4719230  73.1428979
  20.4796358  78.9615682  73.4153596  18.9784102  78.8977284  73.6000849
  22.1408526  79.1846849  74.2002920  22.7353017  78.9442585  73.4896228
  22.2135110  78.4653979  74.8276456   4.3605682  93.0280460  74.5146085
   4.2260150  92.2680861  73.9484083   3.9437744  93.7521360  74.0474874
  15.4964645  88.2117383  63.5222660  16.2000495  88.4167386  64.1380316
  14.7727294  88.7794145  63.7871744  16.3262455  83.9627244  69.6424930
  16.2697656  84.4195796  68.8032563  16.8790798  83.2017929  69.4647773
  20.1367261  79.7516976  70.4675050  19.8804195  79.3513612  71.2983257
  19.5120129  80.4660770  70.3425189  24.4479599  82.4913050  72.9746341
  23.8879157  82.5606239  73.7477903  23.8423102  82.3154034  72.2545837
   7.5174808  93.9249777  74.7264527   7.4007192  94.8695209  74.6243218
   6.6967254  93.6223338  75.1150327  17.4051342  88.6499912  65.5721120
  18.2396946  88.2181111  65.3898595  17.2435685  88.4781926  66.4998015
  17.0597234  85.1532026  66.9377459  17.0046038  84.9876297  65.9965903
  16.4343290  85.8608059  67.0939649   1.8489749  80.3900090  80.7638882
   2.4948613  79.8799044  81.2526107   1.6406900  81.1268772  81.3382307
  14.3743142  87.4580938  86.2631022  15.2434301  87.6321590  85.9017657
  13.8949893  88.2775354  86.1406751  10.3693360  74.6540135  66.5162778
  10.3572030  75.5981975  66.6731049  11.2616782  74.4710280  66.2222239
   8.5429322  94.5778039  77.9420456   9.4456568  94.6101649  78.2586951
   8.3166692  93.6478490  77.9566792  10.2982924  93.3309025  74.6030534
   9.3478555  93.3310887  74.4894907  10.6015410  92.5841760  74.0866569
  14.1845479  71.2482911  70.7708715  13.4177875  70.6941398  70.9165397
  14.5956184  71.3204780  71.6322866   6.1887240  77.5367707  84.8613896
   7.0518702  77.1804512  85.0717220   5.6152651  77.1981602  85.5489300
  26.0335617  99.1669564  75.6676297  26.6714027  99.0476311  74.9639637
  25.9156460 100.1150407  75.7264249  22.8425324  99.1196992  75.6037822
  22.5043835  99.0038056  74.7158356  23.7115092  98.7188157  75.5838828
  18.7012139 100.9732468  71.5934712  18.1377004 100.8822405  70.8251000
  18.5864534 100.1532373  72.0737205  23.3245107 100.2731843  81.5624027
  23.3133747  99.8784642  80.6904531  23.4865746  99.5397916  82.1557798
  16.2476571 102.4683660  74.4318933  17.0397863 102.1274484  74.0165232
  16.4873221 102.5778635  75.3521086  24.2811698 104.6403436  66.9049177
  23.6299678 105.2257516  66.5183191  25.0756061 105.1709631  66.9644215
  18.2067325 101.7292573  67.3036312  18.9798201 101.1821560  67.1649188
  18.5592724 102.5936822  67.5150773  20.0452368 103.0568955  80.5103211
  19.7542234 103.9614586  80.3949877  20.6809352 103.0985483  81.2247281
  20.9708575 100.4345804  77.1004571  21.5672147 100.2101826  76.3861534
  21.0283546  99.6930549  77.7030019  20.5433603  97.8885239  64.9354762
  20.7959124  97.3666760  64.1738225  19.6058162  97.7251384  65.0381445
  25.5876886  96.8921017  72.7429505  26.3739975  96.4740441  72.3919922
  25.8515590  97.7967110  72.9111153  25.7586963 102.3293868  67.4418162
  25.1232796 102.4028494  68.1539066  25.4284370 102.9187467  66.7637241
  30.9885313  96.8296251  73.6462483  31.7210485  96.2595467  73.8800313
  30.2324669  96.4417851  74.0868989  20.2629892  99.7913345  67.1379137
  20.1466150  99.1158248  67.8060221  20.3732152  99.3045719  66.3211290
  22.6061433  99.2523492  70.8425826  22.2419640  98.7254113  71.5538747
  23.4628549  98.8621961  70.6692311  28.5110733  90.5417825  78.1057092
  28.1794058  91.4113236  77.8818307  27.9156347  90.2254109  78.7851122
  22.2466920  94.2813392  65.8387174  22.4141322  95.1493628  66.2057645
  22.0564089  94.4440673  64.9148464  25.0042253 102.7430371  77.5053005
  24.7042976 103.6455409  77.3968812  24.6593312 102.4762554  78.3574158
  18.4554734  99.1944168  73.5389709  17.5305231  99.0620382  73.7467401
  18.7039147  99.9738387  74.0359652  28.4039397  95.2612911  75.1850442
  27.4956274  95.1928319  74.8909203  28.3526992  95.7384856  76.0132268
  22.2256140  96.7371049  66.8233841  22.1055766  97.1828100  67.6619321
  21.5308729  97.0856367  66.2647379  15.8163545  98.8377441  74.3733498
  15.9455926  99.0911920  75.2872910  15.1360997  99.4305149  74.0538153
  19.9863033 109.5074691  70.4723972  19.9087062 110.4582516  70.5512453
  19.3824676 109.1620564  71.1298899  22.4780262  96.6802556  83.1285339
  21.7013596  97.2396477  83.1188204  23.1170825  97.1659339  83.6500209
  30.2701043  93.4629349  76.9628316  29.6275423  93.7561882  76.3168111
  29.7655971  93.3482270  77.7681513  27.9241207  97.2092522  67.6514175
  28.8359063  97.4419909  67.4761873  27.4150854  97.7929567  67.0889254
  20.7326635  99.4888010  82.6903306  21.4741319 100.0273054  82.4138130
  20.0263620 100.1154299  82.8474858  26.2081974 101.6317150  81.2875468
  26.6165330 101.1899561  80.5430100  25.4859236 101.0569778  81.5409661
  22.5613044  96.5689757  78.6609025  23.4074240  96.9929171  78.8043674
  22.5011682  95.9123381  79.3547588  26.5310789 102.1918341  75.0427757
  25.9019651 102.3564055  74.3403825  26.1436451 102.6059950  75.8138721
  30.4100021 103.1272779  72.3972120  29.7251059 103.5071680  71.8469154
  30.4943870 103.7368105  73.1304068  25.7112490  94.2294125  80.3190198
  25.4673422  94.9836186  79.7824474  25.9872420  94.6079473  81.1537445
  27.6650952 100.7732738  78.9967464  27.8767848 101.4164498  78.3201845
  27.6180701  99.9395054  78.5289394  25.2677181  93.3850558  75.9004036
  24.4061660  93.6831812  76.1920774  25.2939616  93.6020957  74.9685069
  22.0838751 101.9292749  72.3077842  22.5477096 102.2080452  71.5182464
  21.8195549 101.0276194  72.1250932  18.9762832 101.4764231  75.2457605
  19.5464189 101.9051499  74.6075090  19.5670944 101.1946815  75.9441791
  21.0207637  98.0515901  69.1167407  21.7231680  98.5036945  69.5841333
  20.6888265  97.4099720  69.7447300  19.4687998  96.6427658  83.4918616
  18.8386659  97.3243939  83.7254013  19.3624086  96.5310740  82.5471755
  14.7632971  96.3099454  74.4184540  13.9732025  96.5656983  73.9424651
  15.2544218  97.1247792  74.5236581  28.7796780 103.6504693  77.1689821
  29.6014224 103.2484880  76.8872503  28.7759183 103.5472927  78.1205937
  16.7147716  96.6744033  71.3768017  15.9178879  96.7862728  71.8951513
  16.4873308  97.0130685  70.5108908  22.5453384 103.1988736  79.3250532
  22.6097816 103.6609144  80.1608704  21.8364308 102.5686101  79.4532842
  13.0470674  96.5629944  76.8499531  13.2978712  97.4476954  77.1157107
  13.5830222  96.3834546  76.0774623  36.8702773  99.9943442  73.5174793
  36.1166482  99.4250840  73.3618797  37.0050315  99.9606106  74.4645427
  22.2601401 104.8656844  69.1929512  22.1247076 105.7108380  69.6214360
  22.8011214 105.0676122  68.4295446  18.7468741  90.9448424  85.8543867
  18.3535687  90.3914622  86.5291512  19.5634881  91.2559002  86.2450385
  15.7130799 102.3832282  69.7657437  16.2255319 103.1775532  69.9163002
  16.3653512 101.6858572  69.6991039  17.5225684 105.4998038  71.8480190
  17.6992312 106.4216003  71.6601174  18.3182517 105.1856458  72.2774570
  21.6636702  92.3606303  83.4464124  22.4046415  92.9613456  83.3668586
  21.8954625  91.6183941  82.8882166  16.8078040  97.5462670  81.7242354
  16.6931555  96.6447927  82.0249452  15.9522558  97.7926367  81.3727170
  23.8869878 105.4880410  83.3229854  23.4433732 104.7016789  83.0050759
  24.5487091 105.6759561  82.6573745  18.6456999 107.0176212  77.8490533
  19.1964424 106.8893275  77.0767527  17.8068475 107.3171101  77.4985426
  25.9851116 105.7683210  81.3511255  25.9669591 106.5892091  80.8591525
  26.9071036 105.6437286  81.5761397  22.4424170 103.2827340  82.1934764
  22.9752507 102.5215628  81.9634072  21.9138251 102.9900992  82.9358918
  25.6093865  88.3887406  77.7228406  25.2658134  89.2789048  77.6467516
  25.9772828  88.1989064  76.8597991  13.6779716 100.7120936  70.5417008
  14.5154938 101.1217945  70.3250715  13.8557983  99.7720378  70.5117202
  25.5744148  98.3796017  66.2300841  25.0590771  99.1500622  66.4689228
  25.3021456  97.7061153  66.8533902  23.1591259  93.2245718  71.2886079
  22.3032855  92.8352568  71.1091718  23.5718211  93.3037679  70.4285865
  24.6890405  90.7592061  75.6877639  24.1855201  90.7222196  74.8745444
  24.9821012  91.6684804  75.7474295  20.9333291  90.8430791  74.6943821
  21.7986288  90.6473599  74.3349710  21.0010800  90.6141143  75.6213177
  30.5478422 101.1328372  68.1654014  29.7707865 100.7939531  67.7209176
  31.2269903 101.1380995  67.4908979  25.3630451  96.2523109  68.0560622
  25.0580587  96.5669258  68.9070765  26.3160893  96.3304529  68.0987955
  23.8076883 102.4113332  69.7053576  23.2798244 101.6766092  69.3926813
  23.3064386 103.1888009  69.4593544  28.7869729 100.6062353  74.8220622
  28.1293403 101.2961614  74.9100751  29.5910128 100.9958785  75.1654609
  18.5395610  93.0732999  72.0660187  19.1139362  92.8508180  71.3333380
  19.1266593  93.1421693  72.8188789  27.5975188  98.9606726  72.8724564
  28.1107069  99.5936717  73.3746274  28.2476411  98.3607921  72.5067924
  18.8665197  95.1037460  66.0856073  18.0302510  95.4412146  66.4065347
  18.7269967  94.9686439  65.1483210  20.8418278  89.9474248  70.7935257
  20.1882690  89.6323265  70.1691872  20.7998752  89.3249988  71.5195080
  21.9529483 100.2293543  62.7088549  21.0456545  99.9982796  62.9079698
  22.4500515  99.4331162  62.8962530  24.8597562 108.9391050  65.6285235
  24.1859261 109.2422747  66.2370193  25.2463384 109.7420130  65.2790692
  24.0756018  96.4356181  75.1182904  23.1578580  96.6571128  74.9604592
  24.4916162  96.5102492  74.2594612  24.8591066  97.8347597  70.2485585
  25.6062885  98.3468994  69.9392707  25.1282656  97.5131650  71.1089978
  23.1317716 100.3306138  67.2312539  22.2228936 100.0465170  67.3285009
  23.1612800 100.7505216  66.3715846  28.3636984 103.9412727  71.0003707
  27.9099311 103.1003637  71.0568897  27.7330951 104.5774125  71.3378487
  27.3069903  94.8704713  72.2304374  26.5692660  94.3582099  72.5614617
  27.5596677  94.4305095  71.4187651  26.8069923 105.7789224  71.9353525
  27.0992897 106.3394281  71.2165890  27.3168544 106.0717785  72.6906684
  27.4081531  87.6480965  72.8246143  27.7140408  86.7878328  72.5372058
  28.1334136  88.2398585  72.6245137  13.7005887  98.0511652  71.2127741
  13.5030287  97.4581012  70.4878808  13.1452551  97.7463862  71.9303680
  21.6802610  97.9434758  73.3322334  21.7351220  96.9908595  73.2564811
  20.8693812  98.0994197  73.8163633  22.8293804 101.8714881  64.5700618
  22.3913234 101.1550740  64.1106255  23.5704245 102.0990996  64.0085709
  19.6194970  96.5611818  71.0912713  18.8062836  96.8605988  71.4977905
  20.1153965  96.1667507  71.8087195  21.7703548 106.5569575  73.0246978
  21.7279727 106.7830421  72.0955510  22.6866247 106.3232949  73.1732779
  25.2169182  97.0253642  79.9227607  25.5718570  97.2525115  80.7822073
  25.8641313  97.3572019  79.3004862  30.9466919 100.1472078  70.6276936
  30.8084818 100.3373674  69.6998125  30.5903138 100.9091461  71.0844987
  19.1109045  94.1330173  76.7073948  19.7508424  93.9918932  76.0096911
  18.2786576  93.8464687  76.3312550  30.9736299 102.2148605  75.6388208
  31.4072805 102.1223894  76.4871262  31.6867879 102.1906106  75.0008224
  19.8869349 103.4332604  72.8208941  20.6809948 102.9382924  72.6191516
  19.1761041 102.9050467  72.4576646  24.7064193 105.8150699  77.1721308
  24.7601216 106.3841636  77.9399024  23.8378975 105.9852584  76.8075345
  16.1952112  97.5775686  68.8968693  15.2649701  97.5160141  69.1138655
  16.2909584  97.0551638  68.1005335  16.1137662  94.1030498  71.4846935
  16.3744479  95.0175832  71.3756095  16.9354834  93.6354941  71.6343548
  17.5862587  95.5168256  78.6545759  18.2585640  95.3085618  78.0058408
  16.7592373  95.3190342  78.2150992  31.8351848 102.2572306  78.1721093
  32.0287738 103.1618116  78.4180368  31.7352466 101.7979725  79.0059678
  23.4888159  92.1430196  80.6711420  22.8416074  92.8420146  80.5775897
  24.2589174  92.5766340  81.0387669  26.8966957 102.4079049  83.7461974
  26.7452463 102.1789600  82.8292057  26.8871636 103.3649650  83.7593319
  23.6652293  99.9810961  78.7308240  24.5944353 100.1322121  78.5577207
  23.2443323 100.0694982  77.8756887  22.4640625 104.0061626  76.5006778
  22.3251711 103.6380410  77.3732716  21.6755221 104.5209265  76.3290735
  23.0588777 109.1070722  67.8432314  23.2340533 108.6358765  68.6577937
  22.3721565 109.7336488  68.0713575  24.0145840 103.3843228  73.8895615
  23.6795673 103.3443998  74.7853265  23.5149786 102.7187944  73.4166026
  17.9890084  98.7910859  79.4148197  17.8509882  98.0591097  80.0159736
  18.8995008  98.7019759  79.1332384  26.9505032 100.7299263  64.1632675
  26.3334202 100.0046091  64.0665728  26.4821520 101.4908623  63.8199749
  20.6172385  98.5030818  78.9031876  21.3272003  97.8624010  78.8618495
  20.5741693  98.7543713  79.8258057  28.6059163 105.4398171  81.8238455
  28.5471710 104.7557391  81.1569039  29.0078682 106.1817161  81.3719081
  19.3301319  95.4896036  80.7227516  18.7938676  95.0386774  81.3749112
  18.7418027  95.6241945  79.9797980  18.7403578  94.9484687  63.2853979
  17.8633044  94.8273488  62.9216226  19.2161331  94.1570765  63.0332868
  28.6076571 103.4037755  80.0552435  27.7203350 103.0663677  80.1778834
  29.1775122 102.6720786  80.2921201  10.2605718  99.7361847  73.3795487
  10.9476758  99.4223577  72.7916502  10.1053847 100.6403212  73.1062738
  15.0640440  94.6252043  77.8080510  14.9798629  94.0177713  77.0730920
  14.2423146  95.1161062  77.8090007  22.1377724 108.0639207  77.0213678
  22.0647896 108.8694179  77.5332983  21.6955117 108.2631173  76.1961700
  21.9267504 107.3010977  70.5316500  21.1435026 107.8432658  70.6254724
  22.6260249 107.8184957  70.9310741  25.2364154  93.1105607  73.1750705
  25.7332853  92.3575569  72.8551776  24.4651135  93.1469924  72.6093915
  33.0893911  98.8145972  74.8168997  33.0783788  99.6970688  74.4462930
  32.2211291  98.4617523  74.6223534  24.5976408 107.9626041  79.1771837
  25.3104380 108.5973506  79.1047739  24.1066436 108.0589907  78.3611839
  26.3193935 101.8677294  70.7489129  25.3850213 101.9878757  70.5793833
  26.4970603 100.9649761  70.4849139  21.8199123  95.2522990  72.9022390
  21.4496910  94.6994030  73.5903295  22.3158215  94.6481123  72.3497390
  29.7066486  97.7094613  71.2839163  30.1726938  98.5422605  71.2099466
  30.1573986  97.2439595  71.9884421  19.6488321 105.7120485  79.9977408
  20.3497781 106.3456968  80.1506802  19.1783436 106.0535217  79.2373047
  27.7742717 104.0538435  68.2825315  28.0502561 103.9395029  69.1919189
  26.9047216 103.6555920  68.2437488  27.6783149  90.0775200  75.3230064
  26.7646228  90.3079427  75.4912271  28.1076250  90.1613645  76.1744097
  27.4489607  98.2665092  77.8229958  26.7961057  98.5141000  77.1682411
  27.8269987  97.4529231  77.4892436  24.4096781 108.3024786  71.9258129
  24.5919176 107.4846442  72.3885881  25.2329767 108.5192478  71.4883018
  24.7438947 107.2292971  69.1873177  25.2726713 106.7185425  68.5743339
  25.0067166 106.9135501  70.0518710  23.4977180  99.0084903  84.3095995
  22.8217817  98.9079033  84.9798371  24.3204814  98.8524117  84.7731993
  15.2456039 105.2456840  76.9308511  15.8309476 104.5000528  77.0636415
  15.0480878 105.5560797  77.8145174  18.0994694 108.2808087  71.9470953
  17.4305070 108.7654215  71.4634993  17.9607564 108.5277308  72.8614331
   9.8373694  97.8162440  75.6512954   9.8757794  97.2826031  76.4450072
   9.3313987  97.2897646  75.0323931  22.2399963 110.3151831  78.5453611
  22.7918271 110.4783452  79.3102697  22.5806157 110.9056269  77.8733636
  17.2164456  92.6626981  79.1475496  17.2805783  93.5241812  78.7352894
  17.1531577  92.0500982  78.4147855  16.6916729  94.7350113  82.7948530
  17.3188768  94.3527191  83.4086055  15.8344648  94.5164315  83.1604223
  27.0910837 105.1413088  84.4002266  27.6350741 105.7543047  83.9057221
  26.5097682 105.6992667  84.9169279  13.4682272  96.5426542  68.7266885
  13.7635713  95.6337221  68.6733939  12.5670307  96.5214282  68.4047887
  25.3768350 108.2633806  75.5317293  25.2519490 107.4623546  75.0228239
  26.0347441 108.7580000  75.0431263  16.9976519  94.6182539  74.7094434
  16.2763104  95.2318507  74.5701907  17.7869774  95.1540304  74.6311080
  27.4403259 106.0642827  77.1596844  26.4933594 105.9448178  77.0875170
  27.7886032 105.1765325  77.2423105  19.8002832  91.9536965  80.9835085
  20.3237234  92.1999262  81.7461395  19.5815165  92.7857000  80.5638223
  15.1970113  94.2240640  68.8506210  14.8682819  93.3438019  68.6681316
  15.5509484  94.1688309  69.7382599  24.4449692 105.8595543  73.3601196
  24.2974654 104.9312250  73.5408766  25.2703186 105.8815633  72.8758271
  18.3111936  94.5113610  69.2181688  18.6508009  95.0399531  68.4960296
  18.7584057  94.8494016  69.9940254  28.0483814 106.6824101  74.4466069
  28.9730361 106.4766963  74.3090520  27.8799117 106.4340503  75.3555410
  21.0055377  92.8950661  78.6684756  20.6652197  92.0958474  79.0705436
  20.2994383  93.1952371  78.0961589  21.6571849  89.9799973  77.1212079
  22.4797918  89.5060451  76.9990969  21.9009912  90.7590457  77.6210765
  20.2980083  93.0088231  67.4174981  21.0188446  93.3869484  66.9138698
  19.6745388  93.7277108  67.5209959  24.4411206  93.7133380  68.3533313
  24.6574821  94.5958018  68.0522141  23.9605273  93.3219594  67.6238955
  19.1810428  96.6719094  74.9304058  19.0355008  96.9859397  75.8228339
  18.7035631  97.2903994  74.3774956  21.0406811  93.6621642  74.9784947
  21.0268379  92.7662735  74.6417245  21.7579239  93.6692305  75.6123233
  22.8932941  94.0958982  77.0238075  22.6350719  95.0176052  77.0222405
  22.3617982  93.6989416  77.7138539  27.8379130 107.2009769  69.8028160
  28.0116008 106.6356191  69.0502012  28.3308021 108.0010664  69.6207650
  13.6556090  99.2124438  77.8691719  13.1109558  99.9884246  78.0011993
  14.5335440  99.5595242  77.7110840  20.4443707  92.5436022  70.2472517
  20.5659618  91.6152668  70.4463405  20.1545749  92.5574708  69.3350833
  23.3134897  90.2290932  73.3839237  23.3356594  90.2930265  72.4291217
  23.7302956  89.3895441  73.5779743  33.6918521  99.9646192  71.4218460
  34.1349667  99.2153517  71.0237583  32.8145032  99.9556328  71.0392192
  28.8254303 106.5176533  66.9025058  29.5205207 107.1383226  67.1212373
  29.1677453 105.6671885  67.1777436  14.4422112  98.3394334  80.7621876
  13.7003848  98.4876970  81.3486506  14.1214856  98.6002600  79.8988625
  30.7245726 103.9676239  68.4312389  31.2497050 104.3063512  67.7061709
  30.6368078 103.0323254  68.2475524  22.3865774 107.8810313  80.5602266
  22.6952901 107.6359459  81.4324965  23.1841256 108.0856951  80.0721136
  22.4086386 110.0348222  72.7907642  21.9691377 109.5424601  73.4840499
  23.1594503 109.4921190  72.5499717  14.8878725 106.2259763  72.7932270
  15.7136745 105.9263535  72.4130914  14.5372777 105.4567385  73.2422059
  19.8560259 105.5786231  74.8629944  19.2340268 104.9156936  74.5632172
  20.5265125 105.6047363  74.1803592  13.0887330 104.1446089  73.7521204
  12.2519239 103.7168264  73.5705205  13.0610976 104.3378533  74.6891995
  19.9284786  94.0568019  84.4562450  19.9772942  94.9330142  84.0740220
  20.4707300  93.5145412  83.8834093  30.4139632 104.6009143  83.7363587
  29.6235175 104.5833281  83.1968086  30.1772986 105.1397436  84.4912624
  30.5337507 101.4501609  81.0496316  30.5835512 101.2851616  81.9911838
  30.4251430 100.5828868  80.6594196  19.4173765 104.1290155  68.3388404
  19.5661886 104.8125619  67.6855077  20.2240209 104.1095245  68.8537860
  27.8241269  97.4332537  82.3655622  28.7251132  97.2939002  82.0739620
  27.8989244  97.5986992  83.3053800  22.1584075  94.8099392  81.2108809
  21.2887384  95.1032958  80.9391397  22.3943555  95.3939837  81.9316072
  32.0355704 103.8698550  81.2938337  31.7440512 104.2328531  82.1301798
  31.4227835 103.1565559  81.1151669  33.2351386 101.4351430  73.8140907
  34.0698277 101.8741234  73.9778468  33.3710515 100.9590083  72.9949153
  30.2842892  98.9931165  79.7618395  30.7597013  99.1858811  78.9537246
  29.3608457  99.0490351  79.5161779  17.1726398 100.1555332  69.3449473
  16.9272440  99.2517662  69.5429683  17.3422313 100.1572483  68.4028951
  24.8623108  91.0279009  78.7274229  25.3805052  91.7640036  78.4020718
  24.5078241  91.3343002  79.5620988  16.4422046  95.8883690  66.8435635
  15.7491291  95.9628045  66.1875671  16.1973798  95.1244033  67.3657152
  25.1135703  87.4479291  74.2475126  25.3937456  86.7802480  74.8735552
  25.8986309  87.6408387  73.7349789  22.9169171 106.6238285  65.8100152
  22.3443138 107.2428472  65.3570624  23.4901965 107.1737647  66.3440074
  28.9844561  95.8696925  77.9946701  29.9361984  95.9695023  78.0158925
  28.8148011  95.0775194  78.5044785  27.0058940  92.9552508  78.1806102
  26.4108872  93.2357521  77.4852590  26.7208637  93.4446409  78.9522843
  26.1366431 106.9075435  66.9408734  27.0697104 106.8420997  67.1441610
  26.0489644 107.7431702  66.4823267  28.7654447 106.2241305  63.9012682
  28.6868079 105.8901169  64.7948440  29.5864114 106.7163073  63.9004154
  31.4632639  99.0903045  77.1089000  31.4308959  98.1519046  77.2948684
  32.0733262  99.1687082  76.3754825  23.3015970  97.9599098  63.1516204
  24.2475074  97.8305306  63.2204622  22.9230214  97.2213760  63.6285633
  31.6127127  95.8814088  77.1547283  31.0966176  95.0972545  76.9677212
  32.4967076  95.5532805  77.3193803  29.2737854  89.6255104  73.1143096
  29.0762675  89.3170192  73.9986428  29.8837560  90.3516743  73.2441026
  37.2809189 100.1519052  76.2495037  38.0112577  99.8904340  76.8102740
  36.6716134  99.4147774  76.2897105  35.3624486  98.2926914  76.8469488
  34.6357649  98.1582879  76.2385980  34.9471773  98.6003743  77.6526206
  23.1854662 102.0116844  84.6116861  24.1057672 102.1895443  84.8056908
  23.1504245 101.0672889  84.4596561  21.4858887  95.8849074  63.0871090
  20.5790342  95.5882187  63.1633803  21.7634868  95.5878892  62.2205376
  12.4036827  97.2055438  73.5370136  12.0839611  96.3520746  73.2444510
  11.8570255  97.4204016  74.2928103  16.1816735  99.9217879  77.2539642
  16.4002744 100.8534986  77.2727676  16.5942508  99.5625853  78.0394446
  23.1020952  90.4285964  69.2415331  22.2921681  90.0833049  69.6170577
  23.7905369  90.1193508  69.8302942  25.0311501  89.5064011  70.8639627
  25.5842539  89.9259464  71.5229651  25.2681587  88.5799759  70.9062584
  21.0544600  95.4951084  86.6442391  20.9541327  96.4445441  86.5754483
  20.8366142  95.1669323  85.7718461  20.2557671  92.7436009  63.2283069
  21.1176835  93.0690908  63.4878886  20.4408015  91.9567505  62.7156135
  12.2725087 100.8258349  75.5063258  11.5788558 100.4112302  74.9933212
  13.0198078 100.8678886  74.9096676  28.4090308  91.6164536  70.3718292
  27.8288977  92.2749340  69.9896344  28.1426240  90.7941880  69.9605709
  26.8593874  91.0169594  72.5739612  27.3593652  91.1286128  71.7653931
  27.5029482  90.7130646  73.2140421  20.9175870  98.9248223  85.4607453
  20.4342952  99.7248583  85.6671342  21.0036809  98.9356168  84.5074897
  14.1861830 100.7576603  73.3829272  14.1632518 100.8564290  72.4311156
  14.4962466 101.6041754  73.7046439  16.8449207 102.8152758  77.4975887
  17.7992461 102.7836700  77.4305818  16.6461731 102.3543382  78.3126113
  17.4348590 101.3853874  80.0646685  18.2541479 101.8797953  80.0881522
  17.7085397 100.4685842  80.0364252  27.1915186  93.7764626  69.4274640
  26.3041041  94.0614277  69.2094835  27.6069175  93.6158390  68.5801917
  30.5429722  93.8011147  73.1428979  31.3190112  94.2907600  73.4153596
  29.8177856  94.2269201  73.6000849  32.9802281  94.5138766  74.2002920
  33.5746771  94.2734502  73.4896228  33.0528864  93.7945897  74.8276456
  26.3358399 103.5409301  63.5222660  27.0394249 103.7459303  64.1380316
  25.6121048 104.1086063  63.7871744  27.1656210  99.2919162  69.6424930
  27.1091411  99.7487714  68.8032563  27.7184552  98.5309847  69.4647773
  30.9761015  95.0808894  70.4675050  30.7197950  94.6805530  71.2983257
  30.3513883  95.7952688  70.3425189  35.2873353  97.8204967  72.9746341
  34.7272911  97.8898157  73.7477903  34.6816857  97.6445952  72.2545837
  28.2445097 103.9791830  65.5721120  29.0790701 103.5473029  65.3898595
  28.0829440 103.8073844  66.4998015  27.8990989 100.4823943  66.9377459
  27.8439793 100.3168215  65.9965903  27.2737044 101.1899976  67.0939649
  12.6883504  95.7192008  80.7638882  13.3342367  95.2090962  81.2526107
  12.4800655  96.4560689  81.3382307  25.2136896 102.7872855  86.2631022
  26.0828056 102.9613508  85.9017657  24.7343647 103.6067272  86.1406751
  21.2087114  89.9832052  66.5162778  21.1965784  90.9273892  66.6731049
  22.1010536  89.8002198  66.2222239  19.3823076 109.9069956  77.9420456
  20.2850323 109.9393567  78.2586951  19.1560446 108.9770407  77.9566792
  21.1376678 108.6600943  74.6030534  20.1872309 108.6602804  74.4894907
  21.4409164 107.9133677  74.0866569  25.0239234  86.5774829  70.7708715
  24.2571630  86.0233316  70.9165397  25.4349939  86.6496698  71.6322866
  17.0280995  92.8659625  84.8613896  17.8912456  92.5096430  85.0717220
  16.4546405  92.5273520  85.5489300  36.8729372 114.4961481  75.6676297
  37.5107782 114.3768229  74.9639637  36.7550215 115.4442325  75.7264249
  33.6819078 114.4488909  75.6037822  33.3437590 114.3329974  74.7158356
  34.5508846 114.0480074  75.5838828  34.1638861 115.6023761  81.5624027
  34.1527502 115.2076559  80.6904531  34.3259501 114.8689834  82.1557798
  31.3827357 113.2177157  64.9354762  31.6352878 112.6958678  64.1738225
  30.4451917 113.0543302  65.0381445  36.4270640 112.2212935  72.7429505
  37.2133729 111.8032358  72.3919922  36.6909345 113.1259027  72.9111153
  41.8279067 112.1588168  73.6462483  42.5604239 111.5887385  73.8800313
  41.0718423 111.7709769  74.0868989  33.4455187 114.5815410  70.8425826
  33.0813394 114.0546031  71.5538747  34.3022303 114.1913879  70.6692311
  39.3504488 105.8709742  78.1057092  39.0187813 106.7405153  77.8818307
  38.7550101 105.5546026  78.7851122  33.0860674 109.6105309  65.8387174
  33.2535076 110.4785546  66.2057645  32.8957843 109.7732591  64.9148464
  39.2433151 110.5904829  75.1850442  38.3350028 110.5220237  74.8909203
  39.1920747 111.0676773  76.0132268  33.0649895 112.0662967  66.8233841
  32.9449520 112.5120018  67.6619321  32.3702483 112.4148285  66.2647379
  33.3174017 112.0094474  83.1285339  32.5407351 112.5688394  83.1188204
  33.9564580 112.4951257  83.6500209  41.1094797 108.7921267  76.9628316
  40.4669178 109.0853800  76.3168111  40.6049726 108.6774187  77.7681513
  38.7634961 112.5384440  67.6514175  39.6752817 112.7711827  67.4761873
  38.2544608 113.1221484  67.0889254  33.4006799 111.8981675  78.6609025
  34.2467994 112.3221088  78.8043674  33.3405436 111.2415299  79.3547588
  36.5506244 109.5586043  80.3190198  36.3067176 110.3128104  79.7824474
  36.8266175 109.9371391  81.1537445  38.5044707 116.1024655  78.9967464
  38.7161602 116.7456415  78.3201845  38.4574455 115.2686972  78.5289394
  36.1070936 108.7142476  75.9004036  35.2455415 109.0123730  76.1920774
  36.1333371 108.9312875  74.9685069  31.8601391 113.3807819  69.1167407
  32.5625435 113.8328863  69.5841333  31.5282020 112.7391638  69.7447300
  30.3081753 111.9719576  83.4918616  29.6780413 112.6535857  83.7254013
  30.2017841 111.8602657  82.5471755  25.6026725 111.6391372  74.4184540
  24.8125779 111.8948900  73.9424651  26.0937973 112.4539710  74.5236581
  27.5541471 112.0035951  71.3768017  26.7572634 112.1154645  71.8951513
  27.3267063 112.3422603  70.5108908  47.7096528 115.3235359  73.5174793
  46.9560236 114.7542757  73.3618797  47.8444069 115.2898024  74.4645427
  29.5862496 106.2740342  85.8543867  29.1929441 105.7206540  86.5291512
  30.4028636 106.5850920  86.2450385  32.5030457 107.6898221  83.4464124
  33.2440170 108.2905374  83.3668586  32.7348379 106.9475858  82.8882166
  36.4487620 103.7179324  77.7228406  36.1051889 104.6080965  77.6467516
  36.8166582 103.5280981  76.8597991  36.4137902 113.7087935  66.2300841
  35.8984526 114.4792539  66.4689228  36.1415211 113.0353071  66.8533902
  33.9985013 108.5537635  71.2886079  33.1426610 108.1644486  71.1091718
  34.4111965 108.6329596  70.4285865  35.5284160 106.0883979  75.6877639
  35.0248956 106.0514114  74.8745444  35.8214767 106.9976721  75.7474295
  31.7727046 106.1722708  74.6943821  32.6380043 105.9765517  74.3349710
  31.8404555 105.9433060  75.6213177  41.3872176 116.4620289  68.1654014
  40.6101619 116.1231449  67.7209176  42.0663657 116.4672912  67.4908979
  36.2024205 111.5815027  68.0560622  35.8974341 111.8961176  68.9070765
  37.1554648 111.6596447  68.0987955  39.6263483 115.9354271  74.8220622
  38.9687158 116.6253532  74.9100751  40.4303883 116.3250702  75.1654609
  29.3789365 108.4024916  72.0660187  29.9533117 108.1800098  71.3333380
  29.9660347 108.4713611  72.8188789  38.4368942 114.2898643  72.8724564
  38.9500824 114.9228635  73.3746274  39.0870166 113.6899839  72.5067924
  29.7058952 110.4329377  66.0856073  28.8696264 110.7704064  66.4065347
  29.5663722 110.2978357  65.1483210  31.6812033 105.2766165  70.7935257
  31.0276445 104.9615182  70.1691872  31.6392507 104.6541906  71.5195080
  34.9149773 111.7648099  75.1182904  33.9972334 111.9863046  74.9604592
  35.3309917 111.8394409  74.2594612  35.6984821 113.1639514  70.2485585
  36.4456640 113.6760912  69.9392707  35.9676410 112.8423567  71.1089978
  38.1463658 110.1996631  72.2304374  37.4086415 109.6874017  72.5614617
  38.3990431 109.7597012  71.4187651  38.2475285 102.9772883  72.8246143
  38.5534162 102.1170246  72.5372058  38.9727890 103.5690503  72.6245137
  32.5196365 113.2726676  73.3322334  32.5744975 112.3200512  73.2564811
  31.7087567 113.4286115  73.8163633  30.4588725 111.8903736  71.0912713
  29.6456590 112.1897906  71.4977905  30.9547719 111.4959424  71.8087195
  36.0562937 112.3545560  79.9227607  36.4112324 112.5817033  80.7822073
  36.7035068 112.6863937  79.3004862  41.7860673 115.4763996  70.6276936
  41.6478572 115.6665592  69.6998125  41.4296892 116.2383379  71.0844987
  29.9502800 109.4622091  76.7073948  30.5902179 109.3210850  76.0096911
  29.1180330 109.1756604  76.3312550  41.8130053 117.5440523  75.6388208
  42.2466560 117.4515812  76.4871262  42.5261634 117.5198023  75.0008224
  27.0345867 112.9067603  68.8968693  26.1043455 112.8452059  69.1138655
  27.1303339 112.3843556  68.1005335  26.9531416 109.4322416  71.4846935
  27.2138233 110.3467749  71.3756095  27.7748588 108.9646859  71.6343548
  28.4256341 110.8460173  78.6545759  29.0979395 110.6377535  78.0058408
  27.5986128 110.6482259  78.2150992  42.6745603 117.5864224  78.1721093
  42.8681493 118.4910034  78.4180368  42.5746221 117.1271643  79.0059678
  34.3281913 107.4722114  80.6711420  33.6809828 108.1712064  80.5775897
  35.0982929 107.9058258  81.0387669  34.5046048 115.3102879  78.7308240
  35.4338108 115.4614039  78.5577207  34.0837078 115.3986900  77.8756887
  37.7898786 116.0591181  64.1632675  37.1727957 115.3338009  64.0665728
  37.3215275 116.8200541  63.8199749  31.4566139 113.8322736  78.9031876
  32.1665758 113.1915928  78.8618495  31.4135447 114.0835630  79.8258057
  30.1695073 110.8187953  80.7227516  29.6332430 110.3678692  81.3749112
  29.5811782 110.9533862  79.9797980  29.5797332 110.2776605  63.2853979
  28.7026799 110.1565406  62.9216226  30.0555085 109.4862683  63.0332868
  25.9034194 109.9543961  77.8080510  25.8192383 109.3469631  77.0730920
  25.0816901 110.4452979  77.8090007  36.0757908 108.4397525  73.1750705
  36.5726608 107.6867487  72.8551776  35.3044890 108.4761841  72.6093915
  43.9287666 114.1437890  74.8168997  43.9177542 115.0262606  74.4462930
  43.0605045 113.7909441  74.6223534  32.6592877 110.5814908  72.9022390
  32.2890665 110.0285948  73.5903295  33.1551970 109.9773041  72.3497390
  40.5460240 113.0386531  71.2839163  41.0120693 113.8714523  71.2099466
  40.9967741 112.5731513  71.9884421  38.5176903 105.4067118  75.3230064
  37.6039983 105.6371345  75.4912271  38.9470005 105.4905562  76.1744097
  38.2883362 113.5957010  77.8229958  37.6354812 113.8432918  77.1682411
  38.6663742 112.7821148  77.4892436  34.3370935 114.3376821  84.3095995
  33.6611572 114.2370950  84.9798371  35.1598569 114.1816035  84.7731993
  28.0558211 107.9918898  79.1475496  28.1199537 108.8533729  78.7352894
  27.9925331 107.3792900  78.4147855  27.5310483 110.0642031  82.7948530
  28.1582522 109.6819108  83.4086055  26.6738402 109.8456233  83.1604223
  24.3076026 111.8718460  68.7266885  24.6029467 110.9629138  68.6733939
  23.4064062 111.8506199  68.4047887  27.8370273 109.9474457  74.7094434
  27.1156859 110.5610424  74.5701907  28.6263529 110.4832221  74.6311080
  30.6396587 107.2828883  80.9835085  31.1630988 107.5291180  81.7461395
  30.4208920 108.1148918  80.5638223  26.0363868 109.5532558  68.8506210
  25.7076574 108.6729937  68.6681316  26.3903238 109.4980226  69.7382599
  29.1505691 109.8405528  69.2181688  29.4901763 110.3691449  68.4960296
  29.5977811 110.1785934  69.9940254  31.8449132 108.2242578  78.6684756
  31.5045952 107.4250391  79.0705436  31.1388138 108.5244289  78.0961589
  32.4965603 105.3091891  77.1212079  33.3191673 104.8352369  76.9990969
  32.7403667 106.0882374  77.6210765  31.1373838 108.3380149  67.4174981
  31.8582200 108.7161402  66.9138698  30.5139142 109.0569026  67.5209959
  35.2804961 109.0425298  68.3533313  35.4968575 109.9249936  68.0522141
  34.7999028 108.6511511  67.6238955  30.0204182 112.0011011  74.9304058
  29.8748763 112.3151314  75.8228339  29.5429386 112.6195912  74.3774956
  31.8800565 108.9913559  74.9784947  31.8662134 108.0954653  74.6417245
  32.5972993 108.9984223  75.6123233  33.7326696 109.4250899  77.0238075
  33.4744474 110.3467970  77.0222405  33.2011736 109.0281334  77.7138539
  31.2837461 107.8727940  70.2472517  31.4053372 106.9444586  70.4463405
  30.9939503 107.8866626  69.3350833  34.1528651 105.5582850  73.3839237
  34.1750348 105.6222183  72.4291217  34.5696710 104.7187359  73.5779743
  44.5312276 115.2938110  71.4218460  44.9743422 114.5445435  71.0237583
  43.6538786 115.2848246  71.0392192  30.7678541 109.3859937  84.4562450
  30.8166696 110.2622060  84.0740220  31.3101055 108.8437330  83.8834093
  41.3731261 116.7793527  81.0496316  41.4229266 116.6143534  81.9911838
  41.2645185 115.9120786  80.6594196  38.6635024 112.7624455  82.3655622
  39.5644886 112.6230919  82.0739620  38.7382998 112.9278909  83.3053800
  32.9977829 110.1391309  81.2108809  32.1281138 110.4324875  80.9391397
  33.2337309 110.7231754  81.9316072  44.0745140 116.7643348  73.8140907
  44.9092032 117.2033152  73.9778468  44.2104269 116.2882001  72.9949153
  41.1236646 114.3223083  79.7618395  41.5990768 114.5150729  78.9537246
  40.2002212 114.3782269  79.5161779  35.7016863 106.3570926  78.7274229
  36.2198807 107.0931953  78.4020718  35.3471996 106.6634920  79.5620988
  27.2815800 111.2175607  66.8435635  26.5885045 111.2919962  66.1875671
  27.0367552 110.4535951  67.3657152  35.9529457 102.7771209  74.2475126
  36.2331211 102.1094398  74.8735552  36.7380064 102.9700304  73.7349789
  39.8238315 111.1988843  77.9946701  40.7755738 111.2986940  78.0158925
  39.6541766 110.4067111  78.5044785  37.8452695 108.2844426  78.1806102
  37.2502627 108.5649439  77.4852590  37.5602392 108.7738327  78.9522843
  42.3026393 114.4194962  77.1089000  42.2702713 113.4810963  77.2948684
  42.9127017 114.4978999  76.3754825  34.1409724 113.2891015  63.1516204
  35.0868829 113.1597224  63.2204622  33.7623969 112.5505677  63.6285633
  42.4520882 111.2106006  77.1547283  41.9359930 110.4264463  76.9677212
  43.3360830 110.8824723  77.3193803  40.1131609 104.9547021  73.1143096
  39.9156430 104.6462110  73.9986428  40.7231314 105.6808660  73.2441026
  48.1202943 115.4810969  76.2495037  48.8506331 115.2196257  76.8102740
  47.5109888 114.7439691  76.2897105  46.2018240 113.6218832  76.8469488
  45.4751404 113.4874797  76.2385980  45.7865527 113.9295661  77.6526206
  32.3252641 111.2140992  63.0871090  31.4184097 110.9174105  63.1633803
  32.6028622 110.9170810  62.2205376  33.9414707 105.7577882  69.2415331
  33.1315435 105.4124967  69.6170577  34.6299124 105.4485425  69.8302942
  35.8705255 104.8355928  70.8639627  36.4236294 105.2551382  71.5229651
  36.1075342 103.9091676  70.9062584  31.8938354 110.8243002  86.6442391
  31.7935081 111.7737359  86.5754483  31.6759896 110.4961241  85.7718461
  31.0951426 108.0727927  63.2283069  31.9570590 108.3982825  63.4878886
  31.2801770 107.2859423  62.7156135  39.2484062 106.9456454  70.3718292
  38.6682731 107.6041258  69.9896344  38.9819995 106.1233798  69.9605709
  37.6987629 106.3461511  72.5739612  38.1987407 106.4578046  71.7653931
  38.3423237 106.0422564  73.2140421  38.0308940 109.1056544  69.4274640
  37.1434795 109.3906195  69.2094835  38.4462929 108.9450307  68.5801917
  41.3823476 109.1303065  73.1428979  42.1583867 109.6199517  73.4153596
  40.6571611 109.5561119  73.6000849  43.8196035 109.8430684  74.2002920
  44.4140526 109.6026420  73.4896228  43.8922619 109.1237815  74.8276456
  38.0049964 114.6211080  69.6424930  37.9485165 115.0779631  68.8032563
  38.5578306 113.8601764  69.4647773  41.8154770 110.4100812  70.4675050
  41.5591704 110.0097447  71.2983257  41.1907638 111.1244606  70.3425189
  46.1267108 113.1496885  72.9746341  45.5666666 113.2190074  73.7477903
  45.5210611 112.9737870  72.2545837  38.7384743 115.8115861  66.9377459
  38.6833547 115.6460133  65.9965903  38.1130799 116.5191894  67.0939649
  23.5277258 111.0483925  80.7638882  24.1736122 110.5382879  81.2526107
  23.3194409 111.7852607  81.3382307  32.0480869 105.3123970  66.5162778
  32.0359539 106.2565810  66.6731049  32.9404291 105.1294115  66.2222239
  35.8632988 101.9066747  70.7708715  35.0965384 101.3525233  70.9165397
  36.2743693 101.9788615  71.6322866  27.8674749 108.1951543  84.8613896
  28.7306211 107.8388347  85.0717220  27.2940160 107.8565437  85.5489300
  47.2881374 119.0471241  77.7228406  46.9445643 119.9372883  77.6467516
  47.6560337 118.8572899  76.8597991  49.0869040 118.3064800  72.8246143
  49.3927916 117.4462164  72.5372058  49.8121644 118.8982421  72.6245137
  46.7923211 118.1063126  74.2475126  47.0724965 117.4386316  74.8735552
  47.5773818 118.2992222  73.7349789  50.9525363 120.2838939  73.1143096
  50.7550184 119.9754027  73.9986428  51.5625069 121.0100578  73.2441026
  46.7026743 117.2358664  70.7708715  45.9359139 116.6817151  70.9165397
  47.1137448 117.3080533  71.6322866   4.3521511  31.0129811  60.2420099
   3.5985220  30.4437209  60.0864104   4.4869052  30.9792476  61.1890734
   0.7170124  32.4537800  60.5386214   1.5517015  32.8927604  60.7023774
   0.8529253  31.9776453  59.7194460   4.7627926  31.1705421  62.9740344
   5.4931315  30.9090709  63.5348047   4.1534872  30.4334143  63.0142412
   2.8443223  29.3113284  63.5714795   2.1176387  29.1769249  62.9631287
   2.4290510  29.6190112  64.3771513   0.4621018  25.5325136  60.9248227
   1.0565509  25.2920872  60.2141535   0.5347602  24.8132267  61.5521763
   2.7692091  28.8391337  59.6991648   2.2091649  28.9084526  60.4723210
   2.1635594  28.6632321  58.9791144   4.3548110  45.5147851  62.3921603
   4.9926519  45.3954598  61.6884944   4.2368952  46.4628695  62.4509556
   1.1637816  45.4675279  62.3283128   0.8256327  45.3516344  61.4403663
   2.0327584  45.0666444  62.3084134   1.6457599  46.6210131  68.2869334
   1.6346240  46.2262929  67.4149837   1.8078238  45.8876203  68.8803105
   2.6024190  50.9881723  53.6294484   1.9512170  51.5735803  53.2428498
   3.3968553  51.5187918  53.6889521   3.9089378  43.2399305  59.4674811
   4.6952467  42.8218728  59.1165228   4.1728082  44.1445397  59.6356460
   4.0799455  48.6772155  54.1663468   3.4445288  48.7506781  54.8784373
   3.7496862  49.2665754  53.4882548   9.3097805  43.1774538  60.3707790
  10.0422977  42.6073755  60.6045619   8.5537161  42.7896138  60.8114296
   0.9273925  45.6001779  57.5671132   0.5632132  45.0732400  58.2784054
   1.7841041  45.2100248  57.3937618   6.8323225  36.8896112  64.8302399
   6.5006550  37.7591523  64.6063614   6.2368839  36.5732396  65.5096429
   3.3254745  49.0908658  64.2298311   3.0255468  49.9933697  64.1214119
   2.9805805  48.8240841  65.0819464   6.7251889  41.6091198  61.9095749
   5.8168766  41.5406607  61.6154510   6.6739485  42.0863143  62.7377574
   8.5913535  39.8107637  63.6873623   7.9487915  40.1040170  63.0413417
   8.0868464  39.6960557  64.4926819   6.2453699  43.5570810  54.3759482
   7.1571555  43.7898196  54.2007179   5.7363346  44.1407854  53.8134560
   4.5294467  47.9795438  68.0120774   4.9377823  47.5377848  67.2675407
   3.8071728  47.4048065  68.2654967   0.8825537  42.9168044  65.3854331
   1.7286732  43.3407458  65.5288980   0.8224174  42.2601669  66.0792894
   4.8523281  48.5396628  61.7673063   4.2232144  48.7042342  61.0649131
   4.4648943  48.9538238  62.5384027   8.7312513  49.4751066  59.1217427
   8.0463551  49.8549967  58.5714460   8.8156362  50.0846393  59.8549375
   4.0324982  40.5772413  67.0435505   3.7885914  41.3314473  66.5069781
   4.3084912  40.9557760  67.8782752   5.9863445  47.1211025  65.7212771
   6.1980340  47.7642785  65.0447152   5.9393193  46.2873342  65.2534701
   3.5889674  39.7328846  62.6249343   2.7274153  40.0310099  62.9166080
   3.6152108  39.9499245  61.6930375   7.1009273  49.9982980  63.8935128
   7.9226716  49.5963168  63.6117810   7.0971676  49.8951215  64.8451244
  15.1915266  46.3421729  60.2420099  14.4378974  45.7729127  60.0864104
  15.3262807  46.3084393  61.1890734   0.5813894  51.2135131  55.9174819
   0.4459569  52.0586667  56.3459667   1.1223706  51.4154409  55.1540753
   2.2082370  51.8358698  70.0475161   1.7646224  51.0495076  69.7296065
   2.8699584  52.0237848  69.3819052   4.3063608  52.1161498  68.0756562
   4.2882084  52.9370379  67.5836831   5.2283528  51.9915573  68.3006703
   3.9306357  34.7365693  64.4473712   3.5870627  35.6267335  64.3712823
   4.2985320  34.5467351  63.5843297   3.8956640  44.7274304  52.9546147
   3.3803263  45.4978909  53.1934535   3.6233948  44.0539440  53.5779209
   1.4803751  39.5724005  58.0131386   0.6245347  39.1830855  57.8337024
   1.8930703  39.6515966  57.1531171   3.0102898  37.1070348  62.4122945
   2.5067693  37.0700483  61.5990751   3.3033505  38.0163091  62.4719602
   8.8690914  47.4806659  54.8899321   8.0920357  47.1417818  54.4454483
   9.5482395  47.4859282  54.2154286   3.6842943  42.6001396  54.7805928
   3.3793079  42.9147545  55.6316072   4.6373385  42.6782816  54.8233261
   2.1289375  48.7591620  56.4298882   1.6010737  48.0244379  56.1172120
   1.6276878  49.5366296  56.1838851   7.1082221  46.9540640  61.5465929
   6.4505896  47.6439902  61.6346057   7.9122620  47.3437072  61.8899915
   5.9187680  45.3085013  59.5969871   6.4319562  45.9415005  60.0991580
   6.5688904  44.7086208  59.2313231   3.1810054  55.2869337  52.3530542
   2.5071753  55.5901034  52.9615500   3.5675876  56.0898417  52.0035999
   2.3968511  42.7834468  61.8428211   1.4791072  43.0049415  61.6849899
   2.8128654  42.8580779  60.9839918   3.1803558  44.1825884  56.9730891
   3.9275377  44.6947281  56.6638013   3.4495148  43.8609937  57.8335285
   1.4530209  46.6784425  53.9557846   0.5441428  46.3943458  54.0530315
   1.4825292  47.0983503  53.0961152   6.6849476  50.2891014  57.7249013
   6.2311803  49.4481924  57.7814204   6.0543443  50.9252413  58.0623793
   5.6282396  41.2183000  58.9549681   4.8905152  40.7060386  59.2859923
   5.8809169  40.7783382  58.1432957   5.1282415  52.1267511  58.6598831
   5.4205390  52.6872568  57.9411197   5.6381036  52.4196072  59.4151990
   5.7294023  33.9959252  59.5491450   6.0352900  33.1356616  59.2617365
   6.4546628  34.5876872  59.3490444   1.1506296  48.2193168  51.2945924
   0.7125726  47.5029027  50.8351562   1.8916737  48.4469283  50.7331016
   3.5381674  43.3731930  66.6472914   3.8931062  43.6003403  67.5067379
   4.1853806  43.7050306  66.0250169   9.2679411  46.4950365  57.3522243
   9.1297310  46.6851961  56.4243432   8.9115630  47.2569748  57.8090294
   9.2948791  48.5626892  62.3633514   9.7285298  48.4702182  63.2116568
  10.0080372  48.5384393  61.7253530   3.0276686  52.1628987  63.8966615
   3.0813708  52.7319923  64.6644331   2.1591467  52.3330872  63.5320652
  10.1564340  48.6050593  64.8966400  10.3500231  49.5096404  65.1425675
  10.0564959  48.1458012  65.7304985   1.8100651  38.4908484  67.3956727
   1.1628566  39.1898433  67.3021203   2.5801667  38.9244628  67.7632975
   5.2179449  48.7557336  70.4707280   5.0664956  48.5267888  69.5537364
   5.2084129  49.7127937  70.4838625   1.9864786  46.3289249  65.4553547
   2.9156846  46.4800408  65.2822514   1.5655816  46.4173269  64.6002193
   1.3801269  55.4549010  54.5677621   1.5553025  54.9837053  55.3823244
   0.6934057  56.0814776  54.7958882   2.3358332  49.7321516  60.6140922
   2.0008165  49.6922286  61.5098572   1.8362278  49.0666232  60.1411332
   5.2717524  47.0777550  50.8877982   4.6546695  46.3524378  50.7911034
   4.8034013  47.8386910  50.5445056   6.9271656  51.7876458  68.5483762
   6.8684202  51.1035679  67.8814345   7.3291174  52.5295448  68.0964388
   6.9289063  49.7516042  66.7797742   6.0415842  49.4141964  66.9024141
   7.4987614  49.0199074  67.0166507   3.5576646  39.4583894  59.8996012
   4.0545346  38.7053857  59.5797082   2.7863628  39.4948211  59.3339221
  11.4106404  45.1624260  61.5414303  11.3996280  46.0448975  61.1708237
  10.5423783  44.8095811  61.3468841   2.9188900  54.3104329  65.9017144
   3.6316872  54.9451794  65.8293045   2.4278929  54.4068195  65.0857146
   4.6406427  48.2155581  57.4734435   3.7062706  48.3357044  57.3039140
   4.8183095  47.3128048  57.2094445   8.0278978  44.0572901  58.0084469
   8.4939430  44.8900892  57.9344772   8.4786479  43.5917882  58.7129728
   6.0955209  50.4016722  55.0070622   6.3715053  50.2873317  55.9164496
   5.2259708  50.0034207  54.9682795   5.9995641  36.4253488  62.0475371
   5.0858721  36.6557715  62.2157578   6.4288742  36.5091932  62.8989403
   5.7702099  44.6143380  64.5475265   5.1173550  44.8619287  63.8927718
   6.1482479  43.8007518  64.2137742   2.7309273  54.6503073  58.6503435
   2.9131668  53.8324729  59.1131187   3.5542259  54.8670765  58.2128325
   3.0651439  53.5771258  55.9118484   3.5939205  53.0663713  55.2988646
   3.3279658  53.2613788  56.7764017   1.8189672  45.3563191  71.0341302
   1.1430309  45.2557320  71.7043677   2.6417306  45.2002404  71.4977299
   0.5612455  56.6630118  65.2698918   1.1130763  56.8261740  66.0348003
   0.9018649  57.2534556  64.5978943   5.4123330  51.4891376  71.1247572
   5.9563234  52.1021334  70.6302527   4.8310175  52.0470954  71.6414585
   3.6980843  54.6112094  62.2562600   3.5731982  53.8101834  61.7473546
   4.3559934  55.1058287  61.7676570   5.7615751  52.4121114  63.8842150
   4.8146087  52.2926465  63.8120477   6.1098524  51.5243612  63.9668412
   2.7662184  52.2073830  60.0846502   2.6187147  51.2790537  60.2654072
   3.5915678  52.2293921  59.6003578   6.3696306  53.0302389  61.1711375
   7.2942854  52.8245250  61.0335826   6.2011610  52.7818790  62.0800717
   2.7623699  40.0611668  55.0778620   2.9787313  40.9436306  54.7767448
   2.2817766  39.6697881  54.3484262   1.2145434  40.4437269  63.7483381
   0.9563211  41.3654340  63.7467712   0.6830474  40.0467704  64.4383845
   6.1591622  53.5488056  56.5273467   6.3328500  52.9834479  55.7747319
   6.6520514  54.3488951  56.3452957   1.6347389  36.5769220  60.1084544
   1.6569086  36.6408553  59.1536523   2.0515448  35.7373728  60.3025050
  12.0131014  46.3124479  58.1463766  12.4562160  45.5631804  57.7482890
  11.1357524  46.3034615  57.7637498   7.1466795  52.8654821  53.6270365
   7.8417699  53.4861513  53.8457680   7.4889945  52.0150172  53.9022743
   9.0458218  50.3154526  55.1557696   9.5709542  50.6541799  54.4307016
   8.9580571  49.3801541  54.9720830   0.7078267  54.2288600  67.2847572
   1.0165393  53.9837747  68.1570272   1.5053749  54.4335238  66.7966443
   8.7352124  50.9487430  70.4608894   7.9447668  50.9311569  69.9213393
   8.4985479  51.4875723  71.2157930   8.8549999  47.7979896  67.7741622
   8.9048004  47.6329904  68.7157145   8.7463922  46.9307155  67.3839503
   6.1453761  43.7810824  69.0900929   7.0463624  43.6417289  68.7984927
   6.2201736  43.9465279  70.0299106  10.3568196  50.2176838  68.0183644
  10.0653004  50.5806818  68.8547105   9.7440327  49.5043846  67.8396976
  11.5563878  47.7829717  60.5386214  12.3910770  48.2219521  60.7023774
  11.6923007  47.3068371  59.7194460   8.6055384  45.3409452  66.4863702
   9.0809506  45.5337099  65.6782553   7.6820950  45.3968638  66.2407085
   3.1835601  37.3757296  65.4519536   3.7017544  38.1118323  65.1266024
   2.8290733  37.6821289  66.2866295   3.4348195  33.7957578  60.9720432
   3.7149949  33.1280767  61.5980859   4.2198802  33.9886674  60.4595096
   1.2381663  52.9716572  52.5345458   0.6655630  53.5906759  52.0815930
   1.8114457  53.5215934  53.0685380   7.3057053  42.2175212  64.7192007
   8.2574476  42.3173310  64.7404231   7.1360504  41.4253481  65.2290092
   5.3271433  39.3030796  64.9051408   4.7321365  39.5835808  64.2097897
   5.0421129  39.7924696  65.6768149   4.4578923  53.2553722  53.6654041
   5.3909596  53.1899284  53.8686916   4.3702136  54.0909989  53.2068573
   7.0866940  52.5719593  50.6257988   7.0080571  52.2379456  51.5193746
   7.9076607  53.0641361  50.6249461   9.7845131  45.4381332  63.8334307
   9.7521451  44.4997333  64.0193991  10.3945755  45.5165369  63.1000132
   1.6228462  44.3077385  49.8761511   2.5687567  44.1783593  49.9449929
   1.2442707  43.5692047  50.3530939   9.9339619  42.2292375  63.8792590
   9.4178668  41.4450832  63.6922519  10.8179568  41.9011092  64.0439110
   7.5950346  35.9733391  59.8388403   7.3975167  35.6648479  60.7231735
   8.2050052  36.6995030  59.9686333  15.6021681  46.4997339  62.9740344
  16.3325069  46.2382627  63.5348047  14.9928626  45.7626061  63.0142412
  13.6836978  44.6405201  63.5714795  12.9570141  44.5061166  62.9631287
  13.2684265  44.9482030  64.3771513   1.5067154  48.3595131  71.3362168
   2.4270164  48.5373730  71.5302214   1.4716737  47.4151177  71.1841867
   1.4233445  36.7764251  55.9660637   0.6134173  36.4311336  56.3415884
   2.1117862  36.4671795  56.5548249   3.3523993  35.8542298  57.5884934
   3.9055032  36.2737751  58.2474957   3.5894079  34.9278046  57.6307890
   6.7302800  37.9642823  57.0963598   6.1501469  38.6227627  56.7141651
   6.4638733  37.1420168  56.6851016   5.1806366  37.3647881  59.2984919
   5.6806145  37.4764415  58.4899238   5.8241974  37.0608934  59.9385727
   5.5127678  40.1242913  56.1519947   4.6253533  40.4092564  55.9340141
   5.9281667  39.9636677  55.3047224   8.8642214  40.1489434  59.8674286
   9.6402604  40.6385887  60.1398903   8.1390348  40.5747489  60.3246155
  11.3014773  40.8617054  60.9248227  11.8959264  40.6212790  60.2141535
  11.3741357  40.1424184  61.5521763   4.6570892  49.8887588  50.2467967
   5.3606742  50.0937591  50.8625622   3.9333540  50.4564350  50.5117050
   5.4868702  45.6397449  56.3670237   5.4303903  46.0966001  55.5277869
   6.0397044  44.8788134  56.1893080   9.2973508  41.4287181  57.1920356
   9.0410442  41.0283817  58.0228564   8.6726376  42.1430975  57.0670495
  13.6085846  44.1683255  59.6991648  13.0485404  44.2376444  60.4723210
  13.0029349  43.9924239  58.9791144   6.5657589  50.3270117  52.2966427
   7.4003193  49.8951316  52.1143901   6.4041932  50.1552131  53.2243321
   6.2203481  46.8302231  53.6622766   6.1652285  46.6646502  52.7211210
   5.5949536  47.5378264  53.8184956   3.5349388  49.1351143  72.9876329
   4.4040548  49.3091795  72.6262964   3.0556140  49.9545559  72.8652058
   3.3451726  32.9253116  57.4954021   2.5784122  32.3711603  57.6410704
   3.7562431  32.9974985  58.3568173  15.1941864  60.8439768  62.3921603
  15.8320274  60.7246516  61.6884944  15.0762707  61.7920612  62.4509556
  12.0031570  60.7967197  62.3283128  11.6650082  60.6808261  61.4403663
  12.8721339  60.3958362  62.3084134   7.8618386  62.6502673  58.3180019
   7.2983251  62.5592610  57.5496307   7.7470781  61.8302577  58.7982512
  12.4851353  61.9502048  68.2869334  12.4739994  61.5554847  67.4149837
  12.6471993  61.2168121  68.8803105   5.4082818  64.1453865  61.1564240
   6.2004110  63.8044689  60.7410539   5.6479468  64.2548840  62.0766393
  13.4417945  66.3173641  53.6294484  12.7905924  66.9027721  53.2428498
  14.2362308  66.8479836  53.6889521   7.3673572  63.4062778  54.0281618
   8.1404448  62.8591765  53.8894494   7.7198971  64.2707027  54.2396080
   9.2058614  64.7339160  67.2348518   8.9148480  65.6384791  67.1195184
   9.8415599  64.7755688  67.9492587  10.1314821  62.1116009  63.8249877
  10.7278394  61.8872031  63.1106840  10.1889793  61.3700754  64.4275325
   9.7039850  59.5655444  51.6600068   9.9565370  59.0436965  50.8983531
   8.7664409  59.4021589  51.7626752  14.7483133  58.5691222  59.4674811
  15.5346222  58.1510645  59.1165228  15.0121837  59.4737314  59.6356460
  14.9193210  64.0064073  54.1663468  14.2839043  64.0798699  54.8784373
  14.5890616  64.5957671  53.4882548  20.1491560  58.5066455  60.3707790
  20.8816732  57.9365672  60.6045619  19.3930915  58.1188056  60.8114296
   9.4236138  61.4683550  53.8624443   9.3072397  60.7928453  54.5305528
   9.5338398  60.9815924  53.0456596  11.7667679  60.9293697  57.5671132
  11.4025887  60.4024318  58.2784054  12.6234795  60.5392166  57.3937618
  17.6716980  52.2188030  64.8302399  17.3400305  53.0883441  64.6063614
  17.0762593  51.9024314  65.5096429  11.4073166  55.9583597  52.5632481
  11.5747569  56.8263833  52.9302952  11.2170335  56.1210878  51.6393770
  14.1648500  64.4200576  64.2298311  13.8649223  65.3225614  64.1214119
  13.8199559  64.1532759  65.0819464   7.6160981  60.8714372  60.2635016
   6.6911477  60.7390587  60.4712708   7.8645394  61.6508592  60.7604958
  17.5645643  56.9383116  61.9095749  16.6562521  56.8698524  61.6154510
  17.5133239  57.4155061  62.7377574  11.3862387  58.4141254  53.5479148
  11.2662012  58.8598305  54.3864628  10.6914976  58.7626572  52.9892686
   4.9769792  60.5147646  61.0978805   5.1062173  60.7682125  62.0118217
   4.2967243  61.1075354  60.7783460   9.1469279  71.1844896  57.1969279
   9.0693309  72.1352721  57.2757760   8.5430923  70.8390768  57.8544205
  11.6386509  58.3572761  69.8530646  10.8619843  58.9166682  69.8433511
  12.2777072  58.8429544  70.3745516  19.4307290  55.1399554  63.6873623
  18.7881670  55.4332087  63.0413417  18.9262218  55.0252475  64.4926819
  17.0847453  58.8862727  54.3759482  17.9965309  59.1190114  54.2007179
  16.5757100  59.4699772  53.8134560   9.8932881  61.1658215  69.4148613
  10.6347566  61.7043259  69.1383437   9.1869867  61.7924503  69.5720165
  15.3688221  63.3087355  68.0120774  15.7771577  62.8669766  67.2675407
  14.6465483  62.7339983  68.2654967  11.7219291  58.2459962  65.3854331
  12.5680486  58.6699376  65.5288980  11.6617929  57.5893586  66.0792894
  15.6917036  63.8688546  61.7673063  15.0625898  64.0334260  61.0649131
  15.3042698  64.2830155  62.5384027  19.5706268  64.8042984  59.1217427
  18.8857306  65.1841885  58.5714460  19.6550117  65.4138310  59.8549375
  14.8718736  55.9064330  67.0435505  14.6279668  56.6606391  66.5069781
  15.1478667  56.2849678  67.8782752  16.8257199  62.4502943  65.7212771
  17.0374094  63.0934703  65.0447152  16.7786947  61.6165259  65.2534701
  14.4283428  55.0620763  62.6249343  13.5667907  55.3602017  62.9166080
  14.4545863  55.2791162  61.6930375  11.2444998  63.6062954  59.0323148
  11.7083343  63.8850657  58.2427771  10.9801796  62.7046398  58.8496239
   8.1369079  63.1534435  61.9702912   8.7070436  63.5821704  61.3320396
   8.7277190  62.8717020  62.6687097  10.1813884  59.7286106  55.8412714
  10.8837927  60.1807150  56.3086640   9.8494512  59.0869925  56.4692607
   8.6294245  58.3197863  70.2163923   7.9992906  59.0014144  70.4499320
   8.5230333  58.2080945  69.2717061   3.9239218  57.9869659  61.1429847
   3.1338272  58.2427187  60.6669958   4.4150465  58.8017997  61.2481888
  17.9403027  65.3274898  63.8935128  18.7620471  64.9255085  63.6117810
  17.9365430  65.2243132  64.8451244   5.8753963  58.3514238  58.1013324
   5.0785126  58.4632932  58.6196819   5.6479555  58.6900890  57.2354214
  11.7059631  64.8758941  66.0495838  11.7704063  65.3379349  66.8854010
  10.9970554  64.2456306  66.1778148   2.2076921  58.2400149  63.5744838
   2.4584959  59.1247159  63.8402414   2.7436469  58.0604751  62.8019930
  26.0309020  61.6713647  60.2420099  25.2772729  61.1021045  60.0864104
  26.1656561  61.6376311  61.1890734  11.4207648  66.5427049  55.9174819
  11.2853323  67.3878585  56.3459667  11.9617461  66.7446327  55.1540753
   7.9074988  52.6218629  72.5789174   7.5141933  52.0684827  73.2536818
   8.7241128  52.9329207  72.9695691   4.8737046  64.0602487  56.4902744
   5.3861566  64.8545737  56.6408309   5.5259758  63.3628777  56.4236345
   6.6831930  67.1768243  58.5725497   6.8598559  68.0986208  58.3846481
   7.4788764  66.8626662  59.0019877  10.8242949  54.0376508  70.1709431
  11.5652662  54.6383661  70.0913893  11.0560872  53.2954146  69.6127473
   5.9684287  59.2232875  68.4487660   5.8537802  58.3218132  68.7494759
   5.1128805  59.4696572  68.0972477  13.0476125  67.1650615  70.0475161
  12.6039979  66.3786994  69.7296065  13.7093338  67.3529766  69.3819052
   7.8063246  68.6946417  64.5735839   8.3570671  68.5663480  63.8012833
   6.9674722  68.9941306  64.2230732  15.1457363  67.4453415  68.0756562
  15.1275838  68.2662296  67.5836831  16.0677283  67.3207491  68.3006703
  11.6030417  64.9597545  68.9180070  12.1358754  64.1985833  68.6879378
  11.0744498  64.6671197  69.6604225  14.7700112  50.0657611  64.4473712
  14.4264381  50.9559252  64.3712823  15.1379074  49.8759268  63.5843297
   2.8385962  62.3891141  57.2662314   3.6761184  62.7988150  57.0496022
   3.0164230  61.4490583  57.2362508  14.7350395  60.0566222  52.9546147
  14.2197018  60.8270827  53.1934535  14.4627703  59.3831358  53.5779209
  12.3197506  54.9015923  58.0131386  11.4639102  54.5122773  57.8337024
  12.7324457  54.9807883  57.1531171  13.8496652  52.4362266  62.4122945
  13.3461448  52.3992401  61.5990751  14.1427259  53.3455009  62.4719602
  10.0939538  52.5200996  61.4189127  10.9592535  52.3243804  61.0595017
  10.1617047  52.2911347  62.3458484  19.7084669  62.8098577  54.8899321
  18.9314111  62.4709736  54.4454483  20.3876150  62.8151200  54.2154286
  14.5236698  57.9293314  54.7805928  14.2186833  58.2439463  55.6316072
  15.4767140  58.0074734  54.8233261  12.9683130  64.0883537  56.4298882
  12.4404491  63.3536297  56.1172120  12.4670632  64.8658214  56.1838851
  17.9475976  62.2832558  61.5465929  17.2899650  62.9731819  61.6346057
  18.7516375  62.6728990  61.8899915   7.7001857  54.7503204  58.7905494
   8.2745609  54.5278385  58.0578687   8.2872840  54.8191898  59.5434095
  16.7581434  60.6376930  59.5969871  17.2713316  61.2706922  60.0991580
  17.4082658  60.0378126  59.2313231   8.0271444  56.7807665  52.8101379
   7.1908757  57.1182351  53.1310654   7.8876214  56.6456644  51.8728516
  10.0024525  51.6244452  57.5180563   9.3488937  51.3093470  56.8937178
   9.9604999  51.0020193  58.2440386  11.1135730  61.9063748  49.4333856
  10.2062791  61.6753001  49.6325004  11.6106762  61.1101367  49.6207837
  14.0203809  70.6161255  52.3530542  13.3465507  70.9192952  52.9615500
  14.4069631  71.4190335  52.0035999  13.2362265  58.1126386  61.8428211
  12.3184827  58.3341333  61.6849899  13.6522409  58.1872697  60.9839918
  14.0197313  59.5117802  56.9730891  14.7669132  60.0239199  56.6638013
  14.2888903  59.1901854  57.8335285  12.2923963  62.0076342  53.9557846
  11.3835182  61.7235375  54.0530315  12.3219047  62.4275421  53.0961152
  17.5243231  65.6182932  57.7249013  17.0705558  64.7773842  57.7814204
  16.8937197  66.2544330  58.0623793  16.4676150  56.5474918  58.9549681
  15.7298907  56.0352304  59.2859923  16.7202924  56.1075300  58.1432957
  15.9676170  67.4559429  58.6598831  16.2599144  68.0164486  57.9411197
  16.4774790  67.7487990  59.4151990  16.5687777  49.3251170  59.5491450
  16.8746654  48.4648533  59.2617365  17.2940382  49.9168790  59.3490444
   2.8612134  59.7281857  57.9373048   2.6636533  59.1351217  57.2124114
   2.3058798  59.4234067  58.6548987  10.8408857  59.6204963  60.0567641
  10.8957467  58.6678799  59.9810118  10.0300059  59.7764402  60.5408939
  11.9900051  63.5485086  51.2945924  11.5519481  62.8320945  50.8351562
  12.7310492  63.7761201  50.7331016   8.7801217  58.2382023  57.8158020
   7.9669083  58.5376193  58.2223212   9.2760211  57.8437712  58.5332502
  10.9309795  68.2339780  59.7492285  10.8885974  68.4600626  58.8200817
  11.8472494  68.0003154  59.8978086  14.3775429  58.7023847  66.6472914
  14.7324817  58.9295320  67.5067379  15.0247560  59.0342224  66.0250169
  20.1073166  61.8242283  57.3522243  19.9691064  62.0143879  56.4243432
  19.7509385  62.5861666  57.8090294   8.2715292  55.8100378  63.4319255
   8.9114671  55.6689137  62.7342218   7.4392822  55.5234892  63.0557857
  20.1342545  63.8918810  62.3633514  20.5679052  63.7994099  63.2116568
  20.8474126  63.8676311  61.7253530   9.0475596  65.1102809  59.5454247
   9.8416194  64.6153129  59.3436822   8.3367288  64.5820672  59.1821953
  13.8670440  67.4920904  63.8966615  13.9207463  68.0611841  64.6644331
  12.9985222  67.6622789  63.5320652   5.3558359  59.2545890  55.6214000
   4.4255947  59.1930346  55.8383962   5.4515831  58.7321843  54.8250641
   5.2743908  55.7800703  58.2092242   5.5350726  56.6946037  58.1001402
   6.0961081  55.3125146  58.3588854   6.7468834  57.1938460  65.3791066
   7.4191887  56.9855823  64.7303715   5.9198620  56.9960546  64.9396298
  20.9958095  63.9342511  64.8966400  21.1893985  64.8388321  65.1425675
  20.8958713  63.4749930  65.7304985  12.6494406  53.8200401  67.3956727
  12.0022321  54.5190351  67.3021203  13.4195421  54.2536545  67.7632975
  16.0573204  64.0849254  70.4707280  15.9058710  63.8559805  69.5537364
  16.0477883  65.0419855  70.4838625  12.8258540  61.6581166  65.4553547
  13.7550600  61.8092326  65.2822514  12.4049570  61.7465187  64.6002193
  11.6246872  65.6831831  63.2252084  11.4857957  65.3150615  64.0978022
  10.8361468  66.1979470  63.0536042  12.2195024  70.7840927  54.5677621
  12.3946779  70.3128970  55.3823244  11.5327812  71.4106693  54.7958882
  13.1752087  65.0613433  60.6140922  12.8401920  65.0214203  61.5098572
  12.6756033  64.3958149  60.1411332   7.1496331  60.4681063  66.1393503
   7.0116129  59.7361302  66.7405042   8.0601254  60.3789964  65.8577691
  16.1111279  62.4069468  50.8877982  15.4940449  61.6816296  50.7911034
  15.6427767  63.1678828  50.5445056   9.7778632  60.1801023  65.6277183
  10.4878250  59.5394215  65.5863801   9.7347940  60.4313918  66.5503364
  17.7665410  67.1168376  68.5483762  17.7077956  66.4327596  67.8814345
  18.1684929  67.8587366  68.0964388   8.4907566  57.1666241  67.4472822
   7.9544923  56.7156979  68.0994419   7.9024274  57.3012149  66.7043287
   6.7856109  73.9330290  61.3417481   7.0252707  74.5648814  62.0196500
   5.9425306  73.5818330  61.6282840   7.9009824  56.6254892  50.0099286
   7.0239291  56.5043693  49.6461533   8.3767578  55.8340970  49.7578175
  17.7682818  65.0807960  66.7797742  16.8809596  64.7433882  66.9024141
  18.3381369  64.3490991  67.0166507   4.2246687  56.3022248  64.5325817
   4.1404876  55.6947918  63.7976227   3.4029393  56.7931267  64.5335313
  11.2983971  69.7409412  63.7458985  11.2254142  70.5464384  64.2578290
  10.8561364  69.9401378  62.9207006  11.0873751  68.9781182  57.2561807
  10.3041272  69.5202863  57.3500031  11.7866496  69.4955162  57.6556048
  14.3970401  54.7875812  59.8996012  14.8939100  54.0345774  59.5797082
  13.6257382  54.8240129  59.3339221  22.2500158  60.4916177  61.5414303
  22.2390034  61.3740893  61.1708237  21.3817537  60.1387728  61.3468841
  13.7582654  69.6396246  65.9017144  14.4710627  70.2743711  65.8293045
  13.2672683  69.7360112  65.0857146  15.4800181  63.5447499  57.4734435
  14.5456460  63.6648962  57.3039140  15.6576850  62.6419966  57.2094445
  10.9805369  56.9293195  59.6267697  10.6103157  56.3764235  60.3148602
  11.4764462  56.3251328  59.0742697  18.8672733  59.3864818  58.0084469
  19.3333185  60.2192810  57.9344772  19.3180233  58.9209800  58.7129728
   8.8094568  67.3890690  66.7222714   9.5104027  68.0227173  66.8752109
   8.3389683  67.7305421  65.9618354  16.9348964  65.7308640  55.0070622
  17.2108808  65.6165234  55.9164496  16.0653463  65.3326125  54.9682795
  16.8389395  51.7545405  62.0475371  15.9252475  51.9849632  62.2157578
  17.2682497  51.8383849  62.8989403  16.6095854  59.9435297  64.5475265
  15.9567304  60.1911205  63.8927718  16.9876234  59.1299436  64.2137742
  13.5703028  69.9794991  58.6503435  13.7525422  69.1616646  59.1131187
  14.3936014  70.1962683  58.2128325  13.9045193  68.9063176  55.9118484
  14.4332960  68.3955630  55.2988646  14.1673413  68.5905706  56.7764017
  12.6583427  60.6855108  71.0341302  11.9824064  60.5849238  71.7043677
  13.4811061  60.5294322  71.4977299   4.4062286  66.9227045  63.6553817
   4.9915723  66.1770733  63.7881721   4.2087124  67.2331002  64.5390481
   7.2600941  69.9578292  58.6716260   6.5911317  70.4424420  58.1880300
   7.1213811  70.2047513  59.5859638  11.4006210  71.9922036  65.2698918
  11.9524518  72.1553657  66.0348003  11.7412403  72.5826474  64.5978943
   6.3770703  54.3397186  65.8720803   6.4412030  55.2012017  65.4598200
   6.3137823  53.7271187  65.1393161   5.8522976  56.4120318  69.5193837
   6.4795014  56.0297396  70.1331361   4.9950894  56.1934520  69.8849529
  16.2517084  66.8183293  71.1247572  16.7956988  67.4313252  70.6302527
  15.6703929  67.3762872  71.6414585   2.6288518  58.2196747  55.4512192
   2.9241959  57.3107426  55.3979245   1.7276554  58.1984487  55.1293194
  14.5374597  69.9404011  62.2562600  14.4125737  69.1393751  61.7473546
  15.1953688  70.4350205  61.7676570   6.1582765  56.2952744  61.4339740
   5.4369351  56.9088712  61.2947214   6.9476021  56.8310509  61.3556386
  16.6009505  67.7413031  63.8842150  15.6539841  67.6218383  63.8120477
  16.9492279  66.8535529  63.9668412   8.9609079  53.6307170  67.7080392
   9.4843481  53.8769467  68.4706701   8.7421412  54.4627205  67.2883529
   4.3576360  55.9010845  55.5751517   4.0289066  55.0208224  55.3926623
   4.7115731  55.8458514  56.4627906  13.6055939  67.5365748  60.0846502
  13.4580901  66.6082455  60.2654072  14.4309432  67.5585838  59.6003578
   7.4718183  56.1883815  55.9426995   7.8114256  56.7169736  55.2205603
   7.9190304  56.5264221  56.7185561  17.2090061  68.3594306  61.1711375
  18.1336608  68.1537168  61.0335826  17.0405364  68.1110708  62.0800717
  10.1661624  54.5720865  65.3930063   9.8258444  53.7728679  65.7950742
   9.4600630  54.8722576  64.8206896  10.8178096  51.6570178  63.8457386
  11.6404165  51.1830656  63.7236276  11.0616159  52.4360662  64.3456072
   9.4586330  54.6858436  54.1420287  10.1794693  55.0639689  53.6384004
   8.8351634  55.4047313  54.2455265  13.6017453  55.3903585  55.0778620
  13.8181067  56.2728223  54.7767448  13.1211520  54.9989799  54.3484262
   8.3416674  58.3489299  61.6549364   8.1961255  58.6629602  62.5473646
   7.8641878  58.9674199  61.1020263  10.2013057  55.3391847  61.7030254
  10.1874626  54.4432940  61.3662552  10.9185485  55.3462510  62.3368540
  12.0539188  55.7729187  63.7483381  11.7956966  56.6946257  63.7467712
  11.5224228  55.3759621  64.4383845  16.9985377  68.8779974  56.5273467
  17.1722254  68.3126396  55.7747319  17.4914268  69.6780869  56.3452957
   2.8162337  60.8894643  64.5937025   2.2715805  61.6654451  64.7257300
   3.6941687  61.2365447  64.4356147   9.6049953  54.2206227  56.9717824
   9.7265864  53.2922873  57.1708711   9.3151996  54.2344913  56.0596139
  12.4741144  51.9061137  60.1084544  12.4962841  51.9700470  59.1536523
  12.8909203  51.0665646  60.3025050  22.8524768  61.6416397  58.1463766
  23.2955914  60.8923722  57.7482890  21.9751278  61.6326533  57.7637498
  17.9860549  68.1946738  53.6270365  18.6811454  68.8153431  53.8457680
  18.3283699  67.3442089  53.9022743   3.6028359  60.0164539  67.4867182
   2.8610095  60.1647175  68.0731813   3.2821103  60.2772805  66.6233932
  19.8851972  65.6446444  55.1557696  20.4103297  65.9833717  54.4307016
  19.7974325  64.7093459  54.9720830  11.5472021  69.5580517  67.2847572
  11.8559148  69.3129664  68.1570272  12.3447503  69.7627156  66.7966443
  11.5692633  71.7118427  59.5152949  11.1297623  71.2194806  60.2085806
  12.3200750  71.1691395  59.2745024   4.0484972  67.9029968  59.5177577
   4.8742992  67.6033740  59.1376220   3.6979024  67.1337590  59.9667366
   9.0166505  67.2556436  61.5875251   8.3946515  66.5927141  61.2877478
   9.6871372  67.2817568  60.9048898   2.2493577  65.8216294  60.4766511
   1.4125486  65.3938469  60.2950512   2.2217223  66.0148738  61.4137302
   9.0891033  55.7338224  71.1807757   9.1379188  56.6100347  70.7985526
   9.6313547  55.1915617  70.6079400  19.5745879  66.2779347  70.4608894
  18.7841422  66.2603486  69.9213393  19.3379233  66.8167641  71.2157930
  19.6943754  63.1271814  67.7741622  19.7441758  62.9621821  68.7157145
  19.5857677  62.2599073  67.3839503   8.5780012  65.8060359  55.0633711
   8.7268133  66.4895824  54.4100384   9.3846456  65.7865450  55.5783167
  16.9847516  59.1102742  69.0900929  17.8857379  58.9709207  68.7984927
  17.0595490  59.2757197  70.0299106  11.3190321  56.4869597  67.9354115
  10.4493631  56.7803163  67.6636704  11.5549802  57.0710042  68.6561379
  21.1961950  65.5468755  68.0183644  20.9046759  65.9098736  68.8547105
  20.5834082  64.8335764  67.8396976  22.3957633  63.1121635  60.5386214
  23.2304524  63.5511439  60.7023774  22.5316762  62.6360288  59.7194460
  19.4449139  60.6701370  66.4863702  19.9203260  60.8629016  65.6782553
  18.5214704  60.7260556  66.2407085   6.3332645  61.8325537  56.0694780
   6.0878687  60.9287867  56.2674990   6.5028560  61.8342688  55.1274258
  14.0229355  52.7049214  65.4519536  14.5411299  53.4410240  65.1266024
  13.6684488  53.0113207  66.2866295   5.6028293  57.5653895  53.5680941
   4.9097538  57.6398250  52.9120977   5.3580045  56.8014238  54.0902458
  14.2741949  49.1249496  60.9720432  14.5543703  48.4572685  61.5980859
  15.0592556  49.3178592  60.4595096  12.0775418  68.3008490  52.5345458
  11.5049385  68.9198677  52.0815930  12.6508211  68.8507852  53.0685380
  18.1450808  57.5467130  64.7192007  19.0968231  57.6465228  64.7404231
  17.9754258  56.7545399  65.2290092  16.1665187  54.6322713  64.9051408
  15.5715119  54.9127726  64.2097897  15.8814884  55.1216614  65.6768149
  15.2972678  68.5845640  53.6654041  16.2303351  68.5191202  53.8686916
  15.2095890  69.4201907  53.2068573  17.9260694  67.9011510  50.6257988
  17.8474326  67.5671374  51.5193746  18.7470361  68.3933278  50.6249461
  20.6238885  60.7673250  63.8334307  20.5915206  59.8289250  64.0193991
  21.2339509  60.8457286  63.1000132  12.4622216  59.6369303  49.8761511
  13.4081321  59.5075511  49.9449929  12.0836461  58.8983965  50.3530939
  20.7733374  57.5584293  63.8792590  20.2572423  56.7742750  63.6922519
  21.6573322  57.2303010  64.0439110  18.4344101  51.3025309  59.8388403
  18.2368922  50.9940397  60.7231735  19.0443806  52.0286948  59.9686333
  26.4415435  61.8289257  62.9740344  27.1718824  61.5674545  63.5348047
  25.8322381  61.0917979  63.0142412  24.5230732  59.9697119  63.5714795
  23.7963896  59.8353084  62.9631287  24.1078019  60.2773948  64.3771513
  12.3460909  63.6887049  71.3362168  13.2663918  63.8665648  71.5302214
  12.3110492  62.7443094  71.1841867  10.6465133  57.5619279  49.8116396
   9.7396589  57.2652392  49.8879110  10.9241114  57.2649097  48.9450682
   1.5643074  58.8825642  60.2615443   1.2445858  58.0290951  59.9689817
   1.0176502  59.0974221  61.0173410   5.3422981  61.5988083  63.9784949
   5.5608991  62.5305191  63.9972983   5.7548755  61.2396058  64.7639753
  12.2627199  52.1056169  55.9660637  11.4527927  51.7603254  56.3415884
  12.9511616  51.7963713  56.5548249  14.1917747  51.1834216  57.5884934
  14.7448786  51.6029669  58.2474957  14.4287834  50.2569964  57.6307890
  10.2150847  57.1721289  73.3687698  10.1147574  58.1215646  73.2999789
   9.9972389  56.8439528  72.4963768   9.4163918  54.4206214  49.9528375
  10.2783082  54.7461113  50.2124193   9.6014262  53.6337710  49.4401441
   1.4331334  62.5028554  62.2308564   0.7394805  62.0882507  61.7178519
   2.1804325  62.5449090  61.6341983  17.5696555  53.2934741  57.0963598
  16.9895224  53.9519545  56.7141651  17.3032487  52.4712085  56.6851016
  16.0200121  52.6939798  59.2984919  16.5199899  52.8056333  58.4899238
  16.6635729  52.3900851  59.9385727  10.0782117  60.6018428  72.1852760
   9.5949198  61.4018788  72.3916649  10.1643056  60.6126373  71.2320204
   3.3468076  62.4346808  60.1074579   3.3238764  62.5334495  59.1556462
   3.6568713  63.2811959  60.4291745   6.0055454  64.4922963  64.2221193
   6.9598708  64.4606905  64.1551125   5.8067978  64.0313587  65.0371419
   6.5954836  63.0624079  66.7891991   7.4147725  63.5568158  66.8126828
   6.8691644  62.1456047  66.7609559  16.3521433  55.4534831  56.1519947
  15.4647288  55.7384482  55.9340141  16.7675422  55.2928595  55.3047224
  19.7035969  55.4781352  59.8674286  20.4796359  55.9677805  60.1398903
  18.9784103  55.9039406  60.3246155  22.1408527  56.1908971  60.9248227
  22.7353018  55.9504707  60.2141535  22.2135111  55.4716102  61.5521763
   4.3605683  70.0342582  61.2391391   4.2260151  69.2742983  60.6729389
   3.9437745  70.7583482  60.7720180  15.4964646  65.2179506  50.2467967
  16.2000496  65.4229508  50.8625622  14.7727295  65.7856268  50.5117050
  16.3262456  60.9689367  56.3670237  16.2697658  61.4257919  55.5277869
  16.8790799  60.2080052  56.1893080  20.1367262  56.7579099  57.1920356
  19.8804196  56.3575735  58.0228564  19.5120130  57.4722893  57.0670495
  24.4479600  59.4975172  59.6991648  23.8879158  59.5668362  60.4723210
  23.8423103  59.3216157  58.9791144   7.5174809  70.9311899  61.4509834
   7.4007193  71.8757332  61.3488524   6.6967255  70.6285461  61.8395633
  17.4051343  65.6562035  52.2966427  18.2396947  65.2243233  52.1143901
  17.2435686  65.4844049  53.2243321  17.0597236  62.1594148  53.6622766
  17.0046039  61.9938420  52.7211210  16.4343291  62.8670181  53.8184956
   1.8489751  57.3962213  67.4884188   2.4948614  56.8861167  67.9771413
   1.6406902  58.1330894  68.0627613  14.3743143  64.4643060  72.9876329
  15.2434302  64.6383712  72.6262964  13.8949894  65.2837477  72.8652058
  10.3693361  51.6602257  53.2408084  10.3572031  52.6044097  53.3976355
  11.2616783  51.4772403  52.9467546   8.5429323  71.5840161  64.6665762
   9.4456570  71.6163771  64.9832257   8.3166693  70.6540612  64.6812098
  10.2982925  70.3371148  61.3275841   9.3478556  70.3373009  61.2140213
  10.6015411  69.5903882  60.8111876  14.1845481  48.2545034  57.4954021
  13.4177876  47.7003521  57.6410704  14.5956185  48.3266903  58.3568173
   6.1887242  54.5429830  71.5859202   7.0518703  54.1866635  71.7962527
   5.6152652  54.2043725  72.2734607  18.7012140  77.9794591  58.3180019
  18.1377006  77.8884528  57.5496307  18.5864536  77.1594495  58.7982512
  16.2476572  79.4745782  61.1564240  17.0397864  79.1336607  60.7410539
  16.4873223  79.5840757  62.0766393  24.2811699  81.6465558  53.6294484
  23.6299679  82.2319639  53.2428498  25.0756062  82.1771753  53.6889521
  18.2067326  78.7354695  54.0281618  18.9798202  78.1883683  53.8894494
  18.5592725  79.5998945  54.2396080  20.0452369  80.0631078  67.2348518
  19.7542235  80.9676709  67.1195184  20.6809353  80.1047605  67.9492587
  20.9708576  77.4407926  63.8249877  21.5672148  77.2163949  63.1106840
  21.0283547  76.6992672  64.4275325  20.5433604  74.8947362  51.6600068
  20.7959125  74.3728883  50.8983531  19.6058163  74.7313507  51.7626752
  25.7586964  79.3355990  54.1663468  25.1232797  79.4090617  54.8784373
  25.4284371  79.9249589  53.4882548  20.2629893  76.7975468  53.8624443
  20.1466151  76.1220371  54.5305528  20.3732153  76.3107842  53.0456596
  22.6061434  76.2585615  57.5671132  22.2419641  75.7316236  58.2784054
  23.4628550  75.8684084  57.3937618  22.2466921  71.2875514  52.5632481
  22.4141323  72.1555751  52.9302952  22.0564090  71.4502796  51.6393770
  25.0042254  79.7492493  64.2298311  24.7042977  80.6517532  64.1214119
  24.6593314  79.4824676  65.0819464  18.4554735  76.2006290  60.2635016
  17.5305232  76.0682504  60.4712708  18.7039149  76.9800509  60.7604958
  22.2256142  73.7433172  53.5479148  22.1055767  74.1890223  54.3864628
  21.5308730  74.0918490  52.9892686  15.8163547  75.8439564  61.0978805
  15.9455928  76.0974043  62.0118217  15.1360998  76.4367272  60.7783460
  19.9863034  86.5136814  57.1969279  19.9087064  87.4644639  57.2757760
  19.3824677  86.1682686  57.8544205  27.9241208  74.2154645  54.3759482
  28.8359064  74.4482032  54.2007179  27.4150855  74.7991689  53.8134560
  20.7326636  76.4950132  69.4148613  21.4741320  77.0335176  69.1383437
  20.0263621  77.1216421  69.5720165  26.5310790  79.1980463  61.7673063
  25.9019653  79.3626178  61.0649131  26.1436452  79.6122073  62.5384027
  30.4100022  80.1334901  59.1217427  29.7251060  80.5133803  58.5714460
  30.4943871  80.7430228  59.8549375  22.0838752  78.9354872  59.0323148
  22.5477098  79.2142575  58.2427771  21.8195550  78.0338316  58.8496239
  18.9762833  78.4826353  61.9702912  19.5464190  78.9113621  61.3320396
  19.5670945  78.2008938  62.6687097  21.0207638  75.0578024  55.8412714
  21.7231681  75.5099068  56.3086640  20.6888267  74.4161843  56.4692607
  19.4688000  73.6489781  70.2163923  18.8386660  74.3306061  70.4499320
  19.3624088  73.5372862  69.2717061  14.7632972  73.3161577  61.1429847
  13.9732026  73.5719105  60.6669958  15.2544219  74.1309914  61.2481888
  28.7796782  80.6566816  63.8935128  29.6014225  80.2547003  63.6117810
  28.7759184  80.5535050  64.8451244  16.7147717  73.6806156  58.1013324
  15.9178881  73.7924850  58.6196819  16.4873310  74.0192808  57.2354214
  22.5453385  80.2050859  66.0495838  22.6097818  80.6671266  66.8854010
  21.8364309  79.5748224  66.1778148  13.0470675  73.5692067  63.5744838
  13.2978713  74.4539077  63.8402414  13.5830223  73.3896669  62.8019930
  22.2601403  81.8718967  55.9174819  22.1247078  82.7170502  56.3459667
  22.8011215  82.0738244  55.1540753  18.7468742  67.9510546  72.5789174
  18.3535688  67.3976745  73.2536818  19.5634883  68.2621125  72.9695691
  15.7130800  79.3894405  56.4902744  16.2255321  80.1837655  56.6408309
  16.3653513  78.6920695  56.4236345  17.5225685  82.5060161  58.5725497
  17.6992313  83.4278126  58.3846481  18.3182518  82.1918580  59.0019877
  21.6636703  69.3668426  70.1709431  22.4046417  69.9675579  70.0913893
  21.8954626  68.6246063  69.6127473  16.8078041  74.5524793  68.4487660
  16.6931557  73.6510050  68.7494759  15.9522559  74.7988490  68.0972477
  23.8869879  82.4942533  70.0475161  23.4433733  81.7078912  69.7296065
  24.5487093  82.6821684  69.3819052  18.6457000  84.0238335  64.5735839
  19.1964425  83.8955398  63.8012833  17.8068476  84.3233224  64.2230732
  25.9851117  82.7745333  68.0756562  25.9669593  83.5954214  67.5836831
  26.9071037  82.6499408  68.3006703  22.4424171  80.2889463  68.9180070
  22.9752508  79.5277751  68.6879378  21.9138252  79.9963114  69.6604225
  13.6779717  77.7183059  57.2662314  14.5154939  78.1280067  57.0496022
  13.8557985  76.7782501  57.2362508  25.5744149  75.3858140  52.9546147
  25.0590772  76.1562744  53.1934535  25.3021457  74.7123276  53.5779209
  23.1591260  70.2307840  58.0131386  22.3032856  69.8414691  57.8337024
  23.5718212  70.3099801  57.1531171  20.9333293  67.8492913  61.4189127
  21.7986289  67.6535722  61.0595017  21.0010801  67.6203265  62.3458484
  30.5478423  78.1390494  54.8899321  29.7707866  77.8001654  54.4454483
  31.2269904  78.1443117  54.2154286  25.3630452  73.2585232  54.7805928
  25.0580588  73.5731381  55.6316072  26.3160894  73.3366652  54.8233261
  23.8076884  79.4175455  56.4298882  23.2798246  78.6828215  56.1172120
  23.3064387  80.1950131  56.1838851  18.5395612  70.0795121  58.7905494
  19.1139364  69.8570303  58.0578687  19.1266594  70.1483816  59.5434095
  18.8665199  72.1099582  52.8101379  18.0302511  72.4474269  53.1310654
  18.7269968  71.9748562  51.8728516  20.8418279  66.9536370  57.5180563
  20.1882692  66.6385387  56.8937178  20.7998754  66.3312111  58.2440386
  21.9529484  77.2355665  49.4333856  21.0456546  77.0044919  49.6325004
  22.4500516  76.4393284  49.6207837  24.8597563  85.9453172  52.3530542
  24.1859262  86.2484869  52.9615500  25.2463385  86.7482253  52.0035999
  23.1317718  77.3368260  53.9557846  22.2228937  77.0527293  54.0530315
  23.1612801  77.7567339  53.0961152  28.3636985  80.9474850  57.7249013
  27.9099312  80.1065759  57.7814204  27.7330952  81.5836248  58.0623793
  26.8069924  82.7851346  58.6598831  27.0992899  83.3456403  57.9411197
  27.3168545  83.0779907  59.4151990  27.4081532  64.6543088  59.5491450
  27.7140409  63.7940451  59.2617365  28.1334137  65.2460708  59.3490444
  13.7005888  75.0573774  57.9373048  13.5030288  74.4643135  57.2124114
  13.1452552  74.7525984  58.6548987  22.8293805  78.8777004  51.2945924
  22.3913235  78.1612863  50.8351562  23.5704246  79.1053119  50.7331016
  19.6194972  73.5673940  57.8158020  18.8062837  73.8668111  58.2223212
  20.1153966  73.1729629  58.5332502  21.7703550  83.5631697  59.7492285
  21.7279728  83.7892544  58.8200817  22.6866248  83.3295072  59.8978086
  30.9466920  77.1534201  57.3522243  30.8084819  77.3435797  56.4243432
  30.5903139  77.9153584  57.8090294  19.1109046  71.1392296  63.4319255
  19.7508426  70.9981055  62.7342218  18.2786577  70.8526809  63.0557857
  19.8869350  80.4394726  59.5454247  20.6809949  79.9445047  59.3436822
  19.1761043  79.9112590  59.1821953  24.7064195  82.8212822  63.8966615
  24.7601217  83.3903758  64.6644331  23.8378976  82.9914707  63.5320652
  16.1952114  74.5837808  55.6214000  15.2649702  74.5222264  55.8383962
  16.2909586  74.0613761  54.8250641  16.1137663  71.1092621  58.2092242
  16.3744480  72.0237954  58.1001402  16.9354835  70.6417064  58.3588854
  17.5862588  72.5230378  65.3791066  18.2585642  72.3147740  64.7303715
  16.7592375  72.3252464  64.9396298  22.4640626  81.0123748  63.2252084
  22.3251712  80.6442533  64.0978022  21.6755223  81.5271388  63.0536042
  23.0588778  86.1132845  54.5677621  23.2340534  85.6420888  55.3823244
  22.3721566  86.7398611  54.7958882  24.0145841  80.3905351  60.6140922
  23.6795674  80.3506121  61.5098572  23.5149787  79.7250067  60.1411332
  17.9890085  75.7972981  66.1393503  17.8509883  75.0653220  66.7405042
  18.8995009  75.7081881  65.8577691  26.9505033  77.7361385  50.8877982
  26.3334204  77.0108214  50.7911034  26.4821522  78.4970746  50.5445056
  28.6059165  82.4460294  68.5483762  28.5471711  81.7619514  67.8814345
  29.0078683  83.1879284  68.0964388  17.6249864  89.2622208  61.3417481
  17.8646462  89.8940732  62.0196500  16.7819060  88.9110248  61.6282840
  18.7403579  71.9546810  50.0099286  17.8633045  71.8335611  49.6461533
  19.2161332  71.1632888  49.7578175  28.6076572  80.4099878  66.7797742
  27.7203351  80.0725800  66.9024141  29.1775123  79.6782909  67.0166507
  10.2605719  76.7423969  60.1040793  10.9476759  76.4285699  59.5161809
  10.1053848  77.6465334  59.8308045  15.0640441  71.6314166  64.5325817
  14.9798630  71.0239836  63.7976227  14.2423148  72.1223184  64.5335313
  22.1377725  85.0701330  63.7458985  22.0647897  85.8756302  64.2578290
  21.6955119  85.2693296  62.9207006  21.9267505  84.3073100  57.2561807
  21.1435027  84.8494780  57.3500031  22.6260250  84.8247080  57.6556048
  24.5976409  84.9688164  65.9017144  25.3104381  85.6035629  65.8293045
  24.1066438  85.0652030  65.0857146  26.3193936  78.8739417  57.4734435
  25.3850215  78.9940879  57.3039140  26.4970604  77.9711884  57.2094445
  19.6488322  82.7182608  66.7222714  20.3497782  83.3519091  66.8752109
  19.1783437  83.0597339  65.9618354  27.7742718  81.0600557  55.0070622
  28.0502562  80.9457152  55.9164496  26.9047217  80.6618042  54.9682795
  24.4096782  85.3086908  58.6503435  24.5919177  84.4908564  59.1131187
  25.2329768  85.5254600  58.2128325  24.7438948  84.2355093  55.9118484
  25.2726714  83.7247548  55.2988646  25.0067167  83.9197624  56.7764017
  15.2456041  82.2518963  63.6553817  15.8309477  81.5062651  63.7881721
  15.0480879  82.5622919  64.5390481  18.0994696  85.2870210  58.6716260
  17.4305071  85.7716338  58.1880300  17.9607565  85.5339430  59.5859638
   9.8373695  74.8224563  62.3758260   9.8757795  74.2888154  63.1695378
   9.3313988  74.2959768  61.7569238  22.2399964  87.3213954  65.2698918
  22.7918272  87.4845575  66.0348003  22.5806158  87.9118391  64.5978943
  17.2164458  69.6689103  65.8720803  17.2805784  70.5303934  65.4598200
  17.1531578  69.0563105  65.1393161  16.6916730  71.7412236  69.5193837
  17.3188769  71.3589313  70.1331361  15.8344649  71.5226438  69.8849529
  27.0910839  82.1475211  71.1247572  27.6350743  82.7605169  70.6302527
  26.5097683  82.7054789  71.6414585  13.4682273  73.5488665  55.4512192
  13.7635714  72.6399343  55.3979245  12.5670309  73.5276404  55.1293194
  25.3768352  85.2695929  62.2562600  25.2519491  84.4685669  61.7473546
  26.0347443  85.7642122  61.7676570  16.9976520  71.6244662  61.4339740
  16.2763106  72.2380629  61.2947214  17.7869776  72.1602426  61.3556386
  27.4403260  83.0704949  63.8842150  26.4933596  82.9510300  63.8120477
  27.7886033  82.1827447  63.9668412  19.8002833  68.9599088  67.7080392
  20.3237235  69.2061385  68.4706701  19.5815167  69.7919123  67.2883529
  15.1970114  71.2302763  55.5751517  14.8682821  70.3500142  55.3926623
  15.5509485  71.1750431  56.4627906  24.4449693  82.8657665  60.0846502
  24.2974656  81.9374373  60.2654072  25.2703187  82.8877756  59.6003578
  18.3111938  71.5175732  55.9426995  18.6508010  72.0461654  55.2205603
  18.7584058  71.8556139  56.7185561  28.0483815  83.6886224  61.1711375
  28.9730363  83.4829085  61.0335826  27.8799118  83.4402625  62.0800717
  21.6571850  66.9862096  63.8457386  22.4797920  66.5122574  63.7236276
  21.9009914  67.7652579  64.3456072  20.2980085  70.0150354  54.1420287
  21.0188447  70.3931607  53.6384004  19.6745389  70.7339231  54.2455265
  24.4411208  70.7195503  55.0778620  24.6574822  71.6020141  54.7767448
  23.9605275  70.3281716  54.3484262  19.1810429  73.6781216  61.6549364
  19.0355010  73.9921519  62.5473646  18.7035633  74.2966117  61.1020263
  21.0406812  70.6683764  61.7030254  21.0268381  69.7724858  61.3662552
  21.7579240  70.6754428  62.3368540  27.8379131  84.2071892  56.5273467
  28.0116009  83.6418314  55.7747319  28.3308023  85.0072786  56.3452957
  13.6556091  76.2186561  64.5937025  13.1109559  76.9946369  64.7257300
  14.5335441  76.5657365  64.4356147  20.4443708  69.5498144  56.9717824
  20.5659619  68.6214791  57.1708711  20.1545750  69.5636830  56.0596139
  23.3134898  67.2353055  60.1084544  23.3356595  67.2992388  59.1536523
  23.7302957  66.3957564  60.3025050  33.6918523  76.9708314  58.1463766
  34.1349669  76.2215640  57.7482890  32.8145033  76.9618451  57.7637498
  28.8254304  83.5238656  53.6270365  29.5205208  84.1445349  53.8457680
  29.1677454  82.6734007  53.9022743  14.4422113  75.3456457  67.4867182
  13.7003849  75.4939092  68.0731813  14.1214857  75.6064722  66.6233932
  30.7245727  80.9738361  55.1557696  31.2497051  81.3125634  54.4307016
  30.6368079  80.0385377  54.9720830  22.3865776  84.8872435  67.2847572
  22.6952902  84.6421582  68.1570272  23.1841258  85.0919074  66.7966443
  22.4086388  87.0410345  59.5152949  21.9691378  86.5486723  60.2085806
  23.1594505  86.4983312  59.2745024  14.8878727  83.2321886  59.5177577
  15.7136747  82.9325657  59.1376220  14.5372779  82.4629508  59.9667366
  19.8560260  82.5848354  61.5875251  19.2340269  81.9219059  61.2877478
  20.5265127  82.6109486  60.9048898  13.0887332  81.1508212  60.4766511
  12.2519240  80.7230386  60.2950512  13.0610977  81.3440655  61.4137302
  19.9284787  71.0630142  71.1807757  19.9772943  71.9392265  70.7985526
  20.4707302  70.5207535  70.6079400  30.4139633  81.6071265  70.4608894
  29.6235177  81.5895404  69.9213393  30.1772988  82.1459559  71.2157930
  19.4173767  81.1352277  55.0633711  19.5661887  81.8187742  54.4100384
  20.2240210  81.1157367  55.5783167  32.0355705  80.8760673  68.0183644
  31.7440513  81.2390654  68.8547105  31.4227836  80.1627681  67.8396976
  33.2351387  78.4413553  60.5386214  34.0698279  78.8803357  60.7023774
  33.3710516  77.9652206  59.7194460  17.1726400  77.1617455  56.0694780
  16.9272442  76.2579785  56.2674990  17.3422314  77.1634605  55.1274258
  16.4422047  72.8945812  53.5680941  15.7491292  72.9690167  52.9120977
  16.1973799  72.1306156  54.0902458  25.1135704  64.4541414  60.9720432
  25.3937458  63.7864603  61.5980859  25.8986311  64.6470509  60.4595096
  22.9169172  83.6300408  52.5345458  22.3443139  84.2490595  52.0815930
  23.4901966  84.1799769  53.0685380  26.1366432  83.9137558  53.6654041
  27.0697105  83.8483119  53.8686916  26.0489645  84.7493825  53.2068573
  28.7654449  83.2303428  50.6257988  28.6868080  82.8963292  51.5193746
  29.5864116  83.7225196  50.6249461  23.3015971  74.9661220  49.8761511
  24.2475075  74.8367428  49.9449929  22.9230216  74.2275882  50.3530939
  29.2737855  66.6317226  59.8388403  29.0762676  66.3232315  60.7231735
  29.8837561  67.3578865  59.9686333  23.1854663  79.0178966  71.3362168
  24.1057673  79.1957566  71.5302214  23.1504246  78.0735012  71.1841867
  21.4858888  72.8911197  49.8116396  20.5790343  72.5944309  49.8879110
  21.7634869  72.5941015  48.9450682  12.4036828  74.2117560  60.2615443
  12.0839613  73.3582868  59.9689817  11.8570256  74.4266138  61.0173410
  16.1816736  76.9280001  63.9784949  16.4002746  77.8597109  63.9972983
  16.5942510  76.5687976  64.7639753  23.1020954  67.4348086  55.9660637
  22.2921682  67.0895171  56.3415884  23.7905371  67.1255630  56.5548249
  25.0311502  66.5126133  57.5884934  25.5842541  66.9321587  58.2474957
  25.2681588  65.5861881  57.6307890  21.0544601  72.5013207  73.3687698
  20.9541328  73.4507564  73.2999789  20.8366143  72.1731446  72.4963768
  20.2557673  69.7498132  49.9528375  21.1176837  70.0753030  50.2124193
  20.4408017  68.9629628  49.4401441  12.2725088  77.8320472  62.2308564
  11.5788560  77.4174424  61.7178519  13.0198079  77.8741008  61.6341983
  26.8593875  68.0231716  59.2984919  27.3593654  68.1348251  58.4899238
  27.5029483  67.7192769  59.9385727  20.9175871  75.9310346  72.1852760
  20.4342953  76.7310706  72.3916649  21.0036810  75.9418291  71.2320204
  14.1861831  77.7638725  60.1074579  14.1632519  77.8626413  59.1556462
  14.4962467  78.6103876  60.4291745  16.8449209  79.8214880  64.2221193
  17.7992462  79.7898823  64.1551125  16.6461732  79.3605504  65.0371419
  17.4348591  78.3915997  66.7891991  18.2541480  78.8860075  66.8126828
  17.7085399  77.4747965  66.7609559  27.1915187  70.7826749  56.1519947
  26.3041042  71.0676399  55.9340141  27.6069176  70.6220512  55.3047224
  15.1999438  85.3634500  61.2391391  15.0653905  84.6034901  60.6729389
  14.7831500  86.0875400  60.7720180  26.3358401  80.5471423  50.2467967
  27.0394251  80.7521426  50.8625622  25.6121049  81.1148185  50.5117050
  27.1656211  76.2981285  56.3670237  27.1091412  76.7549836  55.5277869
  27.7184553  75.5371969  56.1893080  35.2873355  74.8267090  59.6991648
  34.7272913  74.8960279  60.4723210  34.6816858  74.6508074  58.9791144
  18.3568563  86.2603817  61.4509834  18.2400948  87.2049249  61.3488524
  17.5361010  85.9577379  61.8395633  28.2445098  80.9853953  52.2966427
  29.0790702  80.5535151  52.1143901  28.0829441  80.8135966  53.2243321
  27.8990990  77.4886066  53.6622766  27.8439794  77.3230337  52.7211210
  27.2737045  78.1962099  53.8184956  12.6883505  72.7254130  67.4884188
  13.3342369  72.2153084  67.9771413  12.4800656  73.4622812  68.0627613
  25.2136897  79.7934978  72.9876329  26.0828057  79.9675630  72.6262964
  24.7343649  80.6129395  72.8652058  21.2087116  66.9894175  53.2408084
  21.1965785  67.9336015  53.3976355  22.1010537  66.8064320  52.9467546
  19.3823078  86.9132079  64.6665762  20.2850324  86.9455689  64.9832257
  19.1560448  85.9832530  64.6812098  21.1376680  85.6663065  61.3275841
  20.1872311  85.6664927  61.2140213  21.4409166  84.9195800  60.8111876
  25.0239235  63.5836952  57.4954021  24.2571631  63.0295438  57.6410704
  25.4349940  63.6558820  58.3568173  17.0280996  69.8721747  71.5859202
  17.8912458  69.5158552  71.7962527  16.4546407  69.5335642  72.2734607
  36.8729373  91.5023604  62.3921603  37.5107783  91.3830351  61.6884944
  36.7550216  92.4504448  62.4509556  33.6819079  91.4551032  62.3283128
  33.3437591  91.3392097  61.4403663  34.5508847  91.0542197  62.3084134
  29.5405895  93.3086508  58.3180019  28.9770760  93.2176445  57.5496307
  29.4258290  92.4886413  58.7982512  34.1638862  92.6085884  68.2869334
  34.1527503  92.2138682  67.4149837  34.3259502  91.8751956  68.8803105
  27.0870327  94.8037700  61.1564240  27.8791619  94.4628525  60.7410539
  27.3266977  94.9132675  62.0766393  35.1205454  96.9757476  53.6294484
  34.4693433  97.5611556  53.2428498  35.9149817  97.5063671  53.6889521
  29.0461081  94.0646613  54.0281618  29.8191957  93.5175600  53.8894494
  29.3986480  94.9290862  54.2396080  30.8846123  95.3922995  67.2348518
  30.5935989  96.2968626  67.1195184  31.5203108  95.4339523  67.9492587
  31.8102330  92.7699844  63.8249877  32.4065903  92.5455866  63.1106840
  31.8677302  92.0284589  64.4275325  31.3827359  90.2239279  51.6600068
  31.6352879  89.7020801  50.8983531  30.4451918  90.0605425  51.7626752
  36.4270641  89.2275058  59.4674811  37.2133731  88.8094481  59.1165228
  36.6909346  90.1321150  59.6356460  36.5980719  94.6647908  54.1663468
  35.9626552  94.7382534  54.8784373  36.2678125  95.2541507  53.4882548
  41.8279069  89.1650291  60.3707790  42.5604241  88.5949508  60.6045619
  41.0718424  88.7771891  60.8114296  31.1023647  92.1267385  53.8624443
  30.9859906  91.4512289  54.5305528  31.2125907  91.6399759  53.0456596
  33.4455188  91.5877532  57.5671132  33.0813396  91.0608153  58.2784054
  34.3022304  91.1976001  57.3937618  33.0860675  86.6167432  52.5632481
  33.2535078  87.4847668  52.9302952  32.8957844  86.7794714  51.6393770
  35.8436009  95.0784411  64.2298311  35.5436732  95.9809450  64.1214119
  35.4987068  94.8116594  65.0819464  29.2948490  91.5298208  60.2635016
  28.3698986  91.3974422  60.4712708  29.5432903  92.3092427  60.7604958
  39.2433152  87.5966951  61.9095749  38.3350030  87.5282360  61.6154510
  39.1920748  88.0738896  62.7377574  33.0649896  89.0725090  53.5479148
  32.9449521  89.5182140  54.3864628  32.3702485  89.4210407  52.9892686
  26.6557301  91.1731481  61.0978805  26.7849682  91.4265960  62.0118217
  25.9754752  91.7659189  60.7783460  30.8256788 101.8428731  57.1969279
  30.7480818 102.7936556  57.2757760  30.2218432 101.4974604  57.8544205
  33.3174018  89.0156597  69.8530646  32.5407352  89.5750517  69.8433511
  33.9564581  89.5013380  70.3745516  41.1094799  85.7983390  63.6873623
  40.4669179  86.0915923  63.0413417  40.6049727  85.6836310  64.4926819
  38.7634962  89.5446563  54.3759482  39.6752818  89.7773949  54.2007179
  38.2544609  90.1283607  53.8134560  31.5720390  91.8242050  69.4148613
  32.3135075  92.3627094  69.1383437  30.8657376  92.4508339  69.5720165
  37.0475730  93.9671191  68.0120774  37.4559086  93.5253601  67.2675407
  36.3252992  93.3923818  68.2654967  33.4006800  88.9043797  65.3854331
  34.2467995  89.3283211  65.5288980  33.3405438  88.2477422  66.0792894
  37.3704545  94.5272381  61.7673063  36.7413407  94.6918095  61.0649131
  36.9830207  94.9413991  62.5384027  41.2493777  95.4626819  59.1217427
  40.5644815  95.8425720  58.5714460  41.3337626  96.0722146  59.8549375
  36.5506245  86.5648166  67.0435505  36.3067177  87.3190226  66.5069781
  36.8266176  86.9433513  67.8782752  38.5044708  93.1086778  65.7212771
  38.7161603  93.7518538  65.0447152  38.4574456  92.2749095  65.2534701
  36.1070937  85.7204599  62.6249343  35.2455416  86.0185852  62.9166080
  36.1333372  85.9374998  61.6930375  32.9232507  94.2646789  59.0323148
  33.3870852  94.5434492  58.2427771  32.6589305  93.3630234  58.8496239
  29.8156588  93.8118271  61.9702912  30.3857945  94.2405539  61.3320396
  30.4064699  93.5300856  62.6687097  31.8601393  90.3869942  55.8412714
  32.5625436  90.8390985  56.3086640  31.5282021  89.7453760  56.4692607
  30.3081754  88.9781698  70.2163923  29.6780415  89.6597979  70.4499320
  30.2017842  88.8664780  69.2717061  25.6026727  88.6453494  61.1429847
  24.8125781  88.9011023  60.6669958  26.0937974  89.4601832  61.2481888
  39.6190536  95.9858733  63.8935128  40.4407980  95.5838921  63.6117810
  39.6152939  95.8826968  64.8451244  27.5541472  89.0098074  58.1013324
  26.7572635  89.1216768  58.6196819  27.3267064  89.3484726  57.2354214
  33.3847140  95.5342777  66.0495838  33.4491572  95.9963184  66.8854010
  32.6758063  94.9040142  66.1778148  23.8864430  88.8983985  63.5744838
  24.1372468  89.7830995  63.8402414  24.4223978  88.7188586  62.8019930
  47.7096529  92.3297482  60.2420099  46.9560238  91.7604880  60.0864104
  47.8444070  92.2960146  61.1890734  33.0995157  97.2010884  55.9174819
  32.9640832  98.0462420  56.3459667  33.6404970  97.4030162  55.1540753
  29.5862497  83.2802464  72.5789174  29.1929442  82.7268663  73.2536818
  30.4028637  83.5913043  72.9695691  26.5524555  94.7186322  56.4902744
  27.0649075  95.5129573  56.6408309  27.2047267  94.0212613  56.4236345
  28.3619439  97.8352079  58.5725497  28.5386068  98.7570043  58.3846481
  29.1576273  97.5210498  59.0019877  32.5030458  84.6960343  70.1709431
  33.2440171  85.2967496  70.0913893  32.7348381  83.9537981  69.6127473
  27.6471796  89.8816710  68.4487660  27.5325311  88.9801968  68.7494759
  26.7916314  90.1280407  68.0972477  34.7263634  97.8234451  70.0475161
  34.2827488  97.0370829  69.7296065  35.3880847  98.0113601  69.3819052
  29.4850755  99.3530252  64.5735839  30.0358180  99.2247316  63.8012833
  28.6462231  99.6525141  64.2230732  36.8244872  98.1037251  68.0756562
  36.8063347  98.9246132  67.5836831  37.7464792  97.9791326  68.3006703
  33.2817926  95.6181380  68.9180070  33.8146263  94.8569668  68.6879378
  32.7532007  95.3255032  69.6604225  24.5173471  93.0474977  57.2662314
  25.3548693  93.4571985  57.0496022  24.6951739  92.1074419  57.2362508
  36.4137904  90.7150057  52.9546147  35.8984527  91.4854662  53.1934535
  36.1415212  90.0415193  53.5779209  33.9985015  85.5599758  58.0131386
  33.1426611  85.1706608  57.8337024  34.4111966  85.6391719  57.1531171
  35.5284161  83.0946101  62.4122945  35.0248957  83.0576236  61.5990751
  35.8214768  84.0038844  62.4719602  31.7727047  83.1784831  61.4189127
  32.6380044  82.9827640  61.0595017  31.8404556  82.9495183  62.3458484
  41.3872178  93.4682412  54.8899321  40.6101620  93.1293571  54.4454483
  42.0663659  93.4735035  54.2154286  36.2024207  88.5877149  54.7805928
  35.8974342  88.9023299  55.6316072  37.1554649  88.6658569  54.8233261
  34.6470639  94.7467373  56.4298882  34.1192000  94.0120132  56.1172120
  34.1458141  95.5242049  56.1838851  39.6263485  92.9416393  61.5465929
  38.9687159  93.6315655  61.6346057  40.4303884  93.3312825  61.8899915
  29.3789366  85.4087039  58.7905494  29.9533118  85.1862220  58.0578687
  29.9660349  85.4775733  59.5434095  38.4368943  91.2960766  59.5969871
  38.9500825  91.9290758  60.0991580  39.0870167  90.6961961  59.2313231
  29.7058953  87.4391500  52.8101379  28.8696266  87.7766187  53.1310654
  29.5663723  87.3040480  51.8728516  31.6812034  82.2828288  57.5180563
  31.0276446  81.9677305  56.8937178  31.6392508  81.6604028  58.2440386
  32.7923239  92.5647583  49.4333856  31.8850300  92.3336836  49.6325004
  33.2894271  91.7685202  49.6207837  35.6991318 101.2745090  52.3530542
  35.0253016 101.5776787  52.9615500  36.0857140 102.0774170  52.0035999
  34.9149774  88.7710221  61.8428211  33.9972336  88.9925168  61.6849899
  35.3309918  88.8456532  60.9839918  35.6984822  90.1701637  56.9730891
  36.4456641  90.6823034  56.6638013  35.9676412  89.8485690  57.8335285
  33.9711472  92.6660178  53.9557846  33.0622691  92.3819211  54.0530315
  34.0006556  93.0859256  53.0961152  39.2030740  96.2766767  57.7249013
  38.7493067  95.4357677  57.7814204  38.5724706  96.9128166  58.0623793
  38.1463659  87.2058753  58.9549681  37.4086416  86.6936140  59.2859923
  38.3990433  86.7659135  58.1432957  37.6463679  98.1143264  58.6598831
  37.9386653  98.6748321  57.9411197  38.1562299  98.4071825  59.4151990
  38.2475286  79.9835005  59.5491450  38.5534163  79.1232369  59.2617365
  38.9727891  80.5752626  59.3490444  24.5399643  90.3865692  57.9373048
  24.3424042  89.7935053  57.2124114  23.9846307  90.0817902  58.6548987
  32.5196366  90.2788798  60.0567641  32.5744976  89.3262635  59.9810118
  31.7087568  90.4348237  60.5408939  33.6687560  94.2068921  51.2945924
  33.2306990  93.4904780  50.8351562  34.4098001  94.4345036  50.7331016
  30.4588726  88.8965858  57.8158020  29.6456592  89.1960029  58.2223212
  30.9547720  88.5021547  58.5332502  32.6097304  98.8923615  59.7492285
  32.5673483  99.1184461  58.8200817  33.5260003  98.6586990  59.8978086
  36.0562938  89.3607683  66.6472914  36.4112326  89.5879156  67.5067379
  36.7035069  89.6926059  66.0250169  41.7860675  92.4826118  57.3522243
  41.6478573  92.6727714  56.4243432  41.4296894  93.2445501  57.8090294
  29.9502801  86.4684214  63.4319255  30.5902180  86.3272973  62.7342218
  29.1180331  86.1818727  63.0557857  41.8130054  94.5502645  62.3633514
  42.2466561  94.4577935  63.2116568  42.5261635  94.5260146  61.7253530
  30.7263105  95.7686644  59.5454247  31.5203703  95.2736964  59.3436822
  30.0154797  95.2404507  59.1821953  35.5457949  98.1504740  63.8966615
  35.5994972  98.7195676  64.6644331  34.6772731  98.3206625  63.5320652
  27.0345868  89.9129726  55.6214000  26.1043456  89.8514181  55.8383962
  27.1303340  89.3905679  54.8250641  26.9531417  86.4384539  58.2092242
  27.2138235  87.3529872  58.1001402  27.7748590  85.9708981  58.3588854
  28.4256343  87.8522296  65.3791066  29.0979396  87.6439658  64.7303715
  27.5986129  87.6544382  64.9396298  42.6745604  94.5926346  64.8966400
  42.8681494  95.4972157  65.1425675  42.5746222  94.1333765  65.7304985
  34.3281915  84.4784237  67.3956727  33.6809830  85.1774186  67.3021203
  35.0982930  84.9120381  67.7632975  37.7360713  94.7433089  70.4707280
  37.5846219  94.5143641  69.5537364  37.7265392  95.7003690  70.4838625
  34.5046049  92.3165002  65.4553547  35.4338109  92.4676161  65.2822514
  34.0837079  92.4049022  64.6002193  33.3034381  96.3415666  63.2252084
  33.1645466  95.9734450  64.0978022  32.5148977  96.8563305  63.0536042
  33.8982533 101.4424763  54.5677621  34.0734288 100.9712806  55.3823244
  33.2115321 102.0690529  54.7958882  34.8539596  95.7197269  60.6140922
  34.5189429  95.6798039  61.5098572  34.3543542  95.0541985  60.1411332
  28.8283840  91.1264899  66.1393503  28.6903638  90.3945138  66.7405042
  29.7388763  91.0373799  65.8577691  37.7898788  93.0653303  50.8877982
  37.1727958  92.3400131  50.7911034  37.3215276  93.8262663  50.5445056
  31.4566141  90.8384858  65.6277183  32.1665759  90.1978050  65.5863801
  31.4135449  91.0897753  66.5503364  39.4452919  97.7752211  68.5483762
  39.3865465  97.0911432  67.8814345  39.8472438  98.5171201  68.0964388
  30.1695075  87.8250076  67.4472822  29.6332432  87.3740814  68.0994419
  29.5811783  87.9595985  66.7043287  28.4643618 104.5914125  61.3417481
  28.7040216 105.2232649  62.0196500  27.6212815 104.2402165  61.6282840
  29.5797333  87.2838727  50.0099286  28.7026800  87.1627528  49.6461533
  30.0555087  86.4924806  49.7578175  39.4470326  95.7391795  66.7797742
  38.5597105  95.4017717  66.9024141  40.0168878  95.0074827  67.0166507
  21.0999474  92.0715887  60.1040793  21.7870513  91.7577617  59.5161809
  20.9447602  92.9757252  59.8308045  25.9034196  86.9606084  64.5325817
  25.8192384  86.3531753  63.7976227  25.0816902  87.4515102  64.5335313
  32.9771480 100.3993248  63.7458985  32.9041651 101.2048219  64.2578290
  32.5348873 100.5985214  62.9207006  32.7661260  99.6365018  57.2561807
  31.9828781 100.1786698  57.3500031  33.4654005 100.1538997  57.6556048
  36.0757910  85.4459647  59.8996012  36.5726609  84.6929610  59.5797082
  35.3044891  85.4823964  59.3339221  43.9287667  91.1500013  61.5414303
  43.9177543  92.0324728  61.1708237  43.0605046  90.7971564  61.3468841
  35.4370163 100.2980082  65.9017144  36.1498136 100.9327547  65.8293045
  34.9460192 100.3943948  65.0857146  37.1587690  94.2031334  57.4734435
  36.2243969  94.3232797  57.3039140  37.3364359  93.3003801  57.2094445
  32.6592878  87.5877030  59.6267697  32.2890666  87.0348071  60.3148602
  33.1551971  86.9835164  59.0742697  40.5460242  90.0448654  58.0084469
  41.0120694  90.8776645  57.9344772  40.9967742  89.5793635  58.7129728
  30.4882077  98.0474525  66.7222714  31.1891536  98.6811008  66.8752109
  30.0177192  98.3889257  65.9618354  38.6136473  96.3892475  55.0070622
  38.8896317  96.2749070  55.9164496  37.7440972  95.9909960  54.9682795
  38.2883363  90.6019133  64.5475265  37.6354813  90.8495040  63.8927718
  38.6663743  89.7883271  64.2137742  35.2490537 100.6378826  58.6503435
  35.4312931  99.8200482  59.1131187  36.0723523 100.8546518  58.2128325
  35.5832702  99.5647011  55.9118484  36.1120469  99.0539466  55.2988646
  35.8460922  99.2489541  56.7764017  34.3370936  91.3438944  71.0341302
  33.6611573  91.2433073  71.7043677  35.1598570  91.1878157  71.4977299
  26.0849795  97.5810880  63.6553817  26.6703232  96.8354568  63.7881721
  25.8874633  97.8914837  64.5390481  28.9388450 100.6162128  58.6716260
  28.2698825 101.1008255  58.1880300  28.8001320 100.8631348  59.5859638
  20.6767450  90.1516480  62.3758260  20.7151549  89.6180071  63.1695378
  20.1707743  89.6251686  61.7569238  33.0793719 102.6505871  65.2698918
  33.6312027 102.8137493  66.0348003  33.4199912 103.2410309  64.5978943
  28.0558212  84.9981021  65.8720803  28.1199539  85.8595852  65.4598200
  27.9925332  84.3855023  65.1393161  27.5310485  87.0704154  69.5193837
  28.1582523  86.6881231  70.1331361  26.6738403  86.8518355  69.8849529
  37.9304593  97.4767129  71.1247572  38.4744497  98.0897087  70.6302527
  37.3491438  98.0346707  71.6414585  24.3076027  88.8780583  55.4512192
  24.6029468  87.9691261  55.3979245  23.4064063  88.8568322  55.1293194
  36.2162106 100.5987847  62.2562600  36.0913246  99.7977587  61.7473546
  36.8741197 101.0934040  61.7676570  27.8370274  86.9536579  61.4339740
  27.1156860  87.5672547  61.2947214  28.6263530  87.4894344  61.3556386
  38.2797014  98.3996867  63.8842150  37.3327350  98.2802218  63.8120477
  38.6279788  97.5119365  63.9668412  30.6396588  84.2891006  67.7080392
  31.1630990  84.5353302  68.4706701  30.4208921  85.1211041  67.2883529
  26.0363869  86.5594680  55.5751517  25.7076575  85.6792059  55.3926623
  26.3903240  86.5042349  56.4627906  35.2843448  98.1949583  60.0846502
  35.1368410  97.2666290  60.2654072  36.1096941  98.2169674  59.6003578
  29.1505692  86.8467650  55.9426995  29.4901765  87.3753571  55.2205603
  29.5977813  87.1848056  56.7185561  38.8877570  99.0178142  61.1711375
  39.8124117  98.8121003  61.0335826  38.7192873  98.7694543  62.0800717
  31.8449133  85.2304701  65.3930063  31.5045953  84.4312514  65.7950742
  31.1388139  85.5306412  64.8206896  32.4965605  82.3154013  63.8457386
  33.3191674  81.8414491  63.7236276  32.7403668  83.0944497  64.3456072
  31.1373839  85.3442272  54.1420287  31.8582202  85.7223524  53.6384004
  30.5139143  86.0631149  54.2455265  35.2804962  86.0487421  55.0778620
  35.4968576  86.9312059  54.7767448  34.7999029  85.6573634  54.3484262
  30.0204183  89.0073134  61.6549364  29.8748764  89.3213437  62.5473646
  29.5429387  89.6258034  61.1020263  31.8800566  85.9975682  61.7030254
  31.8662135  85.1016775  61.3662552  32.5972994  86.0046346  62.3368540
  33.7326697  86.4313022  63.7483381  33.4744475  87.3530093  63.7467712
  33.2011737  86.0343457  64.4383845  38.6772886  99.5363809  56.5273467
  38.8509763  98.9710232  55.7747319  39.1701777 100.3364704  56.3452957
  24.4949846  91.5478478  64.5937025  23.9503314  92.3238286  64.7257300
  25.3729195  91.8949283  64.4356147  31.2837462  84.8790062  56.9717824
  31.4053373  83.9506708  57.1708711  30.9939505  84.8928748  56.0596139
  34.1528653  82.5644973  60.1084544  34.1750349  82.6284306  59.1536523
  34.5696712  81.7249481  60.3025050  44.5312277  92.3000232  58.1463766
  44.9743423  91.5507557  57.7482890  43.6538787  92.2910369  57.7637498
  39.6648058  98.8530574  53.6270365  40.3598963  99.4737266  53.8457680
  40.0071208  98.0025925  53.9022743  25.2815867  90.6748375  67.4867182
  24.5397604  90.8231010  68.0731813  24.9608612  90.9356640  66.6233932
  41.5639481  96.3030279  55.1557696  42.0890806  96.6417552  54.4307016
  41.4761834  95.3677294  54.9720830  33.2259530 100.2164353  67.2847572
  33.5346657  99.9713500  68.1570272  34.0235012 100.4210991  66.7966443
  33.2480142 102.3702262  59.5152949  32.8085132 101.8778641  60.2085806
  33.9988259 101.8275230  59.2745024  25.7272481  98.5613803  59.5177577
  26.5530501  98.2617575  59.1376220  25.3766533  97.7921426  59.9667366
  30.6954014  97.9140272  61.5875251  30.0734024  97.2510977  61.2877478
  31.3658881  97.9401403  60.9048898  23.9281086  96.4800130  60.4766511
  23.0912995  96.0522304  60.2950512  23.9004732  96.6732573  61.4137302
  30.7678542  86.3922060  71.1807757  30.8166697  87.2684182  70.7985526
  31.3101056  85.8499453  70.6079400  41.2533388  96.9363183  70.4608894
  40.4628931  96.9187322  69.9213393  41.0166742  97.4751476  71.2157930
  41.3731263  93.7855649  67.7741622  41.4229267  93.6205657  68.7157145
  41.2645186  92.9182908  67.3839503  30.2567521  96.4644195  55.0633711
  30.4055642  97.1479659  54.4100384  31.0633965  96.4449285  55.5783167
  38.6635025  89.7686577  69.0900929  39.5644888  89.6293042  68.7984927
  38.7382999  89.9341032  70.0299106  32.9977830  87.1453432  67.9354115
  32.1281140  87.4386998  67.6636704  33.2337311  87.7293877  68.6561379
  42.8749459  96.2052591  68.0183644  42.5834268  96.5682571  68.8547105
  42.2621591  95.4919599  67.8396976  44.0745142  93.7705470  60.5386214
  44.9092033  94.2095275  60.7023774  44.2104270  93.2944124  59.7194460
  41.1236648  91.3285205  66.4863702  41.5990769  91.5212852  65.6782553
  40.2002213  91.3844391  66.2407085  28.0120154  92.4909372  56.0694780
  27.7666196  91.5871702  56.2674990  28.1816069  92.4926523  55.1274258
  27.2815802  88.2237730  53.5680941  26.5885047  88.2982085  52.9120977
  27.0367554  87.4598074  54.0902458  33.7562927  98.9592325  52.5345458
  33.1836894  99.5782512  52.0815930  34.3295720  99.5091687  53.0685380
  39.8238317  88.2050965  64.7192007  40.7755740  88.3049063  64.7404231
  39.6541767  87.4129234  65.2290092  37.8452696  85.2906549  64.9051408
  37.2502628  85.5711561  64.2097897  37.5602393  85.7800450  65.6768149
  36.9760187  99.2429475  53.6654041  37.9090860  99.1775037  53.8686916
  36.8883399 100.0785742  53.2068573  39.6048203  98.5595346  50.6257988
  39.5261835  98.2255209  51.5193746  40.4257870  99.0517114  50.6249461
  42.3026394  91.4257085  63.8334307  42.2702715  90.4873086  64.0193991
  42.9127018  91.5041122  63.1000132  34.1409725  90.2953138  49.8761511
  35.0868830  90.1659346  49.9449929  33.7623970  89.5567800  50.3530939
  42.4520883  88.2168128  63.8792590  41.9359932  87.4326585  63.6922519
  43.3360831  87.8886845  64.0439110  40.1131610  81.9609144  59.8388403
  39.9156431  81.6524232  60.7231735  40.7231315  82.6870783  59.9686333
  48.1202944  92.4873092  62.9740344  48.8506333  92.2258380  63.5348047
  47.5109890  91.7501814  63.0142412  46.2018241  90.6280954  63.5714795
  45.4751405  90.4936919  62.9631287  45.7865528  90.9357783  64.3771513
  34.0248418  94.3470884  71.3362168  34.9451427  94.5249483  71.5302214
  33.9898001  93.4026930  71.1841867  32.3252642  88.2203114  49.8116396
  31.4184098  87.9236227  49.8879110  32.6028623  87.9232933  48.9450682
  23.2430583  89.5409478  60.2615443  22.9233367  88.6874786  59.9689817
  22.6964011  89.7558056  61.0173410  27.0210490  92.2571919  63.9784949
  27.2396500  93.1889027  63.9972983  27.4336264  91.8979893  64.7639753
  33.9414708  82.7640004  55.9660637  33.1315436  82.4187089  56.3415884
  34.6299125  82.4547548  56.5548249  35.8705256  81.8418051  57.5884934
  36.4236295  82.2613504  58.2474957  36.1075343  80.9153799  57.6307890
  31.8938356  87.8305125  73.3687698  31.7935083  88.7799482  73.2999789
  31.6759898  87.5023363  72.4963768  31.0951427  85.0790050  49.9528375
  31.9570591  85.4044948  50.2124193  31.2801771  84.2921546  49.4401441
  23.1118843  93.1612389  62.2308564  22.4182314  92.7466342  61.7178519
  23.8591834  93.2032926  61.6341983  39.2484064  83.9518576  57.0963598
  38.6682733  84.6103380  56.7141651  38.9819996  83.1295921  56.6851016
  37.6987630  83.3523634  59.2984919  38.1987408  83.4640168  58.4899238
  38.3423238  83.0484687  59.9385727  31.7569626  91.2602263  72.1852760
  31.2736707  92.0602624  72.3916649  31.8430565  91.2710208  71.2320204
  25.0255585  93.0930643  60.1074579  25.0026273  93.1918330  59.1556462
  25.3356222  93.9395794  60.4291745  27.6842963  95.1506798  64.2221193
  28.6386217  95.1190740  64.1551125  27.4855487  94.6897422  65.0371419
  28.2742345  93.7207914  66.7891991  29.0935234  94.2151993  66.8126828
  28.5479153  92.8039882  66.7609559  38.0308942  86.1118666  56.1519947
  37.1434797  86.3968317  55.9340141  38.4462931  85.9512430  55.3047224
  41.3823478  86.1365187  59.8674286  42.1583868  86.6261640  60.1398903
  40.6571612  86.5623242  60.3246155  43.8196036  86.8492807  60.9248227
  44.4140527  86.6088543  60.2141535  43.8922620  86.1299937  61.5521763
  26.0393192 100.6926418  61.2391391  25.9047660  99.9326819  60.6729389
  25.6225254 101.4167317  60.7720180  37.1752155  95.8763341  50.2467967
  37.8788005  96.0813344  50.8625622  36.4514804  96.4440103  50.5117050
  38.0049965  91.6273202  56.3670237  37.9485167  92.0841754  55.5277869
  38.5578308  90.8663887  56.1893080  41.8154771  87.4162934  57.1920356
  41.5591705  87.0159570  58.0228564  41.1907639  88.1306728  57.0670495
  46.1267109  90.1559008  59.6991648  45.5666667  90.2252197  60.4723210
  45.5210612  89.9799992  58.9791144  29.1962318 101.5895735  61.4509834
  29.0794702 102.5341167  61.3488524  28.3754764 101.2869296  61.8395633
  39.0838852  96.3145870  52.2966427  39.9184456  95.8827069  52.1143901
  38.9223195  96.1427884  53.2243321  38.7384745  92.8177984  53.6622766
  38.6833548  92.6522255  52.7211210  38.1130800  93.5254017  53.8184956
  23.5277260  88.0546048  67.4884188  24.1736123  87.5445002  67.9771413
  23.3194411  88.7914730  68.0627613  36.0530652  95.1226896  72.9876329
  36.9221811  95.2967548  72.6262964  35.5737403  95.9421312  72.8652058
  32.0480870  82.3186093  53.2408084  32.0359540  83.2627933  53.3976355
  32.9404292  82.1356238  52.9467546  30.2216832 102.2423997  64.6665762
  31.1244079 102.2747607  64.9832257  29.9954202 101.3124447  64.6812098
  31.9770434 100.9954983  61.3275841  31.0266065 100.9956845  61.2140213
  32.2802920 100.2487718  60.8111876  35.8632990  78.9128869  57.4954021
  35.0965385  78.3587356  57.6410704  36.2743694  78.9850738  58.3568173
  27.8674751  85.2013665  71.5859202  28.7306212  84.8450470  71.7962527
  27.2940161  84.8627560  72.2734607  47.7123127 106.8315521  62.3921603
  48.3501537 106.7122269  61.6884944  47.5943970 107.7796365  62.4509556
  44.5212834 106.7842950  62.3283128  44.1831345 106.6684014  61.4403663
  45.3902602 106.3834115  62.3084134  40.3799649 108.6378426  58.3180019
  39.8164515 108.5468363  57.5496307  40.2652045 107.8178330  58.7982512
  45.0032617 107.9377801  68.2869334  44.9921258 107.5430600  67.4149837
  45.1653256 107.2043874  68.8803105  37.9264081 110.1329618  61.1564240
  38.7185373 109.7920442  60.7410539  38.1660732 110.2424593  62.0766393
  45.9599208 112.3049394  53.6294484  45.3087188 112.8903474  53.2428498
  46.7543571 112.8355589  53.6889521  39.8854835 109.3938531  54.0281618
  40.6585711 108.8467518  53.8894494  40.2380234 110.2582780  54.2396080
  41.7239878 110.7214913  67.2348518  41.4329744 111.6260544  67.1195184
  42.3596862 110.7631441  67.9492587  42.6496085 108.0991762  63.8249877
  43.2459657 107.8747784  63.1106840  42.7071056 107.3576507  64.4275325
  42.2221113 105.5531197  51.6600068  42.4746634 105.0312718  50.8983531
  41.2845672 105.3897342  51.7626752  47.2664396 104.5566975  59.4674811
  48.0527485 104.1386398  59.1165228  47.5303100 105.4613068  59.6356460
  47.4374473 109.9939826  54.1663468  46.8020306 110.0674452  54.8784373
  47.1071880 110.5833424  53.4882548  52.6672823 104.4942209  60.3707790
  53.3997995 103.9241425  60.6045619  51.9112179 104.1063809  60.8114296
  41.9417402 107.4559303  53.8624443  41.8253660 106.7804206  54.5305528
  42.0519662 106.9691677  53.0456596  44.2848943 106.9169450  57.5671132
  43.9207150 106.3900071  58.2784054  45.1416059 106.5267919  57.3937618
  50.1898243  98.2063783  64.8302399  49.8581568  99.0759194  64.6063614
  49.5943857  97.8900067  65.5096429  43.9254430 101.9459350  52.5632481
  44.0928832 102.8139586  52.9302952  43.7351599 102.1086631  51.6393770
  46.6829763 110.4076329  64.2298311  46.3830486 111.3101367  64.1214119
  46.3380823 110.1408512  65.0819464  40.1342244 106.8590125  60.2635016
  39.2092741 106.7266340  60.4712708  40.3826658 107.6384345  60.7604958
  50.0826907 102.9258869  61.9095749  49.1743784 102.8574277  61.6154510
  50.0314503 103.4030814  62.7377574  43.9043651 104.4017007  53.5479148
  43.7843276 104.8474058  54.3864628  43.2096239 104.7502325  52.9892686
  37.4951056 106.5023399  61.0978805  37.6243437 106.7557878  62.0118217
  36.8148507 107.0951107  60.7783460  41.6650543 117.1720649  57.1969279
  41.5874572 118.1228474  57.2757760  41.0612186 116.8266521  57.8544205
  44.1567773 104.3448514  69.8530646  43.3801107 104.9042435  69.8433511
  44.7958336 104.8305297  70.3745516  51.9488553 101.1275307  63.6873623
  51.3062933 101.4207840  63.0413417  51.4443482 101.0128228  64.4926819
  49.6028717 104.8738480  54.3759482  50.5146573 105.1065867  54.2007179
  49.0938364 105.4575525  53.8134560  42.4114145 107.1533968  69.4148613
  43.1528829 107.6919012  69.1383437  41.7051130 107.7800257  69.5720165
  47.8869485 109.2963108  68.0120774  48.2952841 108.8545519  67.2675407
  47.1646746 108.7215736  68.2654967  44.2400555 104.2335715  65.3854331
  45.0861750 104.6575129  65.5288980  44.1799192 103.5769339  66.0792894
  48.2098299 109.8564299  61.7673063  47.5807162 110.0210013  61.0649131
  47.8223961 110.2705908  62.5384027  52.0887531 110.7918737  59.1217427
  51.4038569 111.1717638  58.5714460  52.1731380 111.4014063  59.8549375
  47.3900000 101.8940083  67.0435505  47.1460932 102.6482144  66.5069781
  47.6659930 102.2725431  67.8782752  49.3438463 108.4378696  65.7212771
  49.5555358 109.0810456  65.0447152  49.2968211 107.6041012  65.2534701
  46.9464692 101.0496516  62.6249343  46.0849171 101.3477770  62.9166080
  46.9727126 101.2666915  61.6930375  43.7626261 109.5938707  59.0323148
  44.2264607 109.8726410  58.2427771  43.4983059 108.6922152  58.8496239
  40.6550342 109.1410188  61.9702912  41.2251699 109.5697457  61.3320396
  41.2458454 108.8592773  62.6687097  42.6995147 105.7161859  55.8412714
  43.4019190 106.1682903  56.3086640  42.3675776 105.0745678  56.4692607
  41.1475509 104.3073616  70.2163923  40.5174169 104.9889897  70.4499320
  41.0411597 104.1956698  69.2717061  36.4420481 103.9745412  61.1429847
  35.6519535 104.2302941  60.6669958  36.9331728 104.7893750  61.2481888
  50.4584291 111.3150651  63.8935128  51.2801734 110.9130838  63.6117810
  50.4546693 111.2118885  64.8451244  38.3935226 104.3389991  58.1013324
  37.5966390 104.4508685  58.6196819  38.1660819 104.6776643  57.2354214
  44.2240894 110.8634694  66.0495838  44.2885327 111.3255102  66.8854010
  43.5151818 110.2332059  66.1778148  34.7258184 104.2275902  63.5744838
  34.9766222 105.1122912  63.8402414  35.2617732 104.0480504  62.8019930
  58.5490284 107.6589400  60.2420099  57.7953992 107.0896798  60.0864104
  58.6837825 107.6252064  61.1890734  43.9388912 112.5302802  55.9174819
  43.8034586 113.3754338  56.3459667  44.4798724 112.7322080  55.1540753
  40.4256251  98.6094382  72.5789174  40.0323197  98.0560580  73.2536818
  41.2422392  98.9204960  72.9695691  37.3918309 110.0478240  56.4902744
  37.9042830 110.8421490  56.6408309  38.0441022 109.3504530  56.4236345
  39.2013194 113.1643996  58.5725497  39.3779822 114.0861961  58.3846481
  39.9970027 112.8502415  59.0019877  43.3424212 100.0252261  70.1709431
  44.0833926 100.6259414  70.0913893  43.5742135  99.2829899  69.6127473
  38.4865550 105.2108628  68.4487660  38.3719065 104.3093885  68.7494759
  37.6310068 105.4572325  68.0972477  45.5657388 113.1526368  70.0475161
  45.1221242 112.3662747  69.7296065  46.2274602 113.3405519  69.3819052
  40.3244509 114.6822170  64.5735839  40.8751934 114.5539233  63.8012833
  39.4855985 114.9817059  64.2230732  47.6638626 113.4329168  68.0756562
  47.6457102 114.2538049  67.5836831  48.5858546 113.3083244  68.3006703
  44.1211680 110.9473298  68.9180070  44.6540017 110.1861586  68.6879378
  43.5925761 110.6546950  69.6604225  47.2881375  96.0533364  64.4473712
  46.9445645  96.9435005  64.3712823  47.6560338  95.8635021  63.5843297
  35.3567226 108.3766894  57.2662314  36.1942448 108.7863903  57.0496022
  35.5345494 107.4366336  57.2362508  47.2531658 106.0441975  52.9546147
  46.7378281 106.8146580  53.1934535  46.9808966 105.3707111  53.5779209
  44.8378769 100.8891676  58.0131386  43.9820365 100.4998526  57.8337024
  45.2505721 100.9683637  57.1531171  46.3677916  98.4238019  62.4122945
  45.8642711  98.3868154  61.5990751  46.6608523  99.3330762  62.4719602
  42.6120802  98.5076749  61.4189127  43.4773798  98.3119557  61.0595017
  42.6798310  98.2787100  62.3458484  52.2265932 108.7974330  54.8899321
  51.4495375 108.4585489  54.4454483  52.9057413 108.8026953  54.2154286
  47.0417961 103.9169067  54.7805928  46.7368097 104.2315216  55.6316072
  47.9948403 103.9950487  54.8233261  45.4864393 110.0759290  56.4298882
  44.9585755 109.3412050  56.1172120  44.9851896 110.8533967  56.1838851
  50.4657239 108.2708311  61.5465929  49.8080913 108.9607572  61.6346057
  51.2697638 108.6604743  61.8899915  40.2183121 100.7378957  58.7905494
  40.7926873 100.5154138  58.0578687  40.8054103 100.8067651  59.5434095
  49.2762698 106.6252684  59.5969871  49.7894580 107.2582675  60.0991580
  49.9263922 106.0253879  59.2313231  40.5452708 102.7683418  52.8101379
  39.7090020 103.1058104  53.1310654  40.4057477 102.6332397  51.8728516
  42.5205788  97.6120206  57.5180563  41.8670201  97.2969223  56.8937178
  42.4786262  96.9895946  58.2440386  43.6316993 107.8939501  49.4333856
  42.7244055 107.6628754  49.6325004  44.1288025 107.0977120  49.6207837
  46.5385072 116.6037008  52.3530542  45.8646771 116.9068705  52.9615500
  46.9250894 117.4066088  52.0035999  45.7543529 104.1002139  61.8428211
  44.8366090 104.3217086  61.6849899  46.1703672 104.1748450  60.9839918
  46.5378576 105.4993555  56.9730891  47.2850395 106.0114952  56.6638013
  46.8070166 105.1777607  57.8335285  44.8105227 107.9952095  53.9557846
  43.9016446 107.7111128  54.0530315  44.8400310 108.4151174  53.0961152
  50.0424494 111.6058685  57.7249013  49.5886821 110.7649595  57.7814204
  49.4118461 112.2420083  58.0623793  48.9857414 102.5350671  58.9549681
  48.2480170 102.0228057  59.2859923  49.2384187 102.0951053  58.1432957
  48.4857433 113.4435182  58.6598831  48.7780408 114.0040239  57.9411197
  48.9956054 113.7363743  59.4151990  49.0869041  95.3126923  59.5491450
  49.3927918  94.4524286  59.2617365  49.8121646  95.9044543  59.3490444
  35.3793397 105.7157610  57.9373048  35.1817797 105.1226970  57.2124114
  34.8240061 105.4109820  58.6548987  43.3590121 105.6080716  60.0567641
  43.4138730 104.6554552  59.9810118  42.5481323 105.7640155  60.5408939
  44.5081314 109.5360839  51.2945924  44.0700744 108.8196698  50.8351562
  45.2491755 109.7636954  50.7331016  41.2982481 104.2257776  57.8158020
  40.4850346 104.5251946  58.2223212  41.7941475 103.8313465  58.5332502
  43.4491058 114.2215533  59.7492285  43.4067237 114.4476379  58.8200817
  44.3653757 113.9878907  59.8978086  46.8956692 104.6899600  66.6472914
  47.2506080 104.9171073  67.5067379  47.5428824 105.0217977  66.0250169
  52.6254429 107.8118036  57.3522243  52.4872328 108.0019632  56.4243432
  52.2690648 108.5737419  57.8090294  40.7896555 101.7976131  63.4319255
  41.4295935 101.6564890  62.7342218  39.9574086 101.5110645  63.0557857
  52.6523809 109.8794563  62.3633514  53.0860315 109.7869852  63.2116568
  53.3655390 109.8552064  61.7253530  41.5656859 111.0978562  59.5454247
  42.3597458 110.6028882  59.3436822  40.8548552 110.5696425  59.1821953
  46.3851704 113.4796657  63.8966615  46.4388726 114.0487594  64.6644331
  45.5166485 113.6498542  63.5320652  37.8739623 105.2421643  55.6214000
  36.9437211 105.1806099  55.8383962  37.9697095 104.7197596  54.8250641
  37.7925172 101.7676456  58.2092242  38.0531989 102.6821790  58.1001402
  38.6142344 101.3000899  58.3588854  39.2650097 103.1814213  65.3791066
  39.9373151 102.9731576  64.7303715  38.4379884 102.9836299  64.9396298
  53.5139358 109.9218264  64.8966400  53.7075248 110.8264074  65.1425675
  53.4139977 109.4625683  65.7304985  45.1675669  99.8076154  67.3956727
  44.5203584 100.5066104  67.3021203  45.9376685 100.2412298  67.7632975
  48.5754467 110.0725007  70.4707280  48.4239973 109.8435558  69.5537364
  48.5659147 111.0295608  70.4838625  45.3439803 107.6456919  65.4553547
  46.2731863 107.7968079  65.2822514  44.9230833 107.7340940  64.6002193
  44.1428135 111.6707584  63.2252084  44.0039221 111.3026368  64.0978022
  43.3542731 112.1855223  63.0536042  44.7376287 116.7716680  54.5677621
  44.9128043 116.3004723  55.3823244  44.0509075 117.3982446  54.7958882
  45.6933350 111.0489186  60.6140922  45.3583183 111.0089956  61.5098572
  45.1937296 110.3833902  60.1411332  39.6677594 106.4556816  66.1393503
  39.5297392 105.7237055  66.7405042  40.5782518 106.3665717  65.8577691
  48.6292542 108.3945221  50.8877982  48.0121713 107.6692049  50.7911034
  48.1609031 109.1554581  50.5445056  42.2959895 106.1676776  65.6277183
  43.0059514 105.5269968  65.5863801  42.2529203 106.4189671  66.5503364
  50.2846674 113.1044129  68.5483762  50.2259220 112.4203349  67.8814345
  50.6866192 113.8463119  68.0964388  41.0088829 103.1541994  67.4472822
  40.4726186 102.7032732  68.0994419  40.4205537 103.2887903  66.7043287
  40.4191088 102.6130645  50.0099286  39.5420554 102.4919446  49.6461533
  40.8948841 101.8216723  49.7578175  50.2864081 111.0683713  66.7797742
  49.3990860 110.7309635  66.9024141  50.8562632 110.3366744  67.0166507
  31.9393228 107.4007805  60.1040793  32.6264268 107.0869535  59.5161809
  31.7841357 108.3049169  59.8308045  36.7427950 102.2898001  64.5325817
  36.6586139 101.6823671  63.7976227  35.9210657 102.7807020  64.5335313
  43.8165234 115.7285165  63.7458985  43.7435406 116.5340137  64.2578290
  43.3742627 115.9277131  62.9207006  43.6055014 114.9656935  57.2561807
  42.8222536 115.5078616  57.3500031  44.3047759 115.4830915  57.6556048
  46.9151664 100.7751565  59.8996012  47.4120364 100.0221527  59.5797082
  46.1438646 100.8115882  59.3339221  54.7681422 106.4791930  61.5414303
  54.7571298 107.3616646  61.1708237  53.8998801 106.1263481  61.3468841
  46.2763918 115.6271999  65.9017144  46.9891890 116.2619464  65.8293045
  45.7853947 115.7235865  65.0857146  47.9981445 109.5323252  57.4734435
  47.0637724 109.6524715  57.3039140  48.1758113 108.6295719  57.2094445
  43.4986633 102.9168948  59.6267697  43.1284420 102.3639988  60.3148602
  43.9945725 102.3127081  59.0742697  51.3853996 105.3740571  58.0084469
  51.8514448 106.2068563  57.9344772  51.8361497 104.9085553  58.7129728
  41.3275831 113.3766443  66.7222714  42.0285291 114.0102926  66.8752109
  40.8570946 113.7181174  65.9618354  49.4530227 111.7184393  55.0070622
  49.7290071 111.6040987  55.9164496  48.5834726 111.3201878  54.9682795
  49.3570659  97.7421158  62.0475371  48.4433739  97.9725385  62.2157578
  49.7863760  97.8259602  62.8989403  49.1277117 105.9311050  64.5475265
  48.4748568 106.1786958  63.8927718  49.5057497 105.1175189  64.2137742
  46.0884291 115.9670744  58.6503435  46.2706686 115.1492399  59.1131187
  46.9117277 116.1838436  58.2128325  46.4226457 114.8938929  55.9118484
  46.9514223 114.3831383  55.2988646  46.6854676 114.5781459  56.7764017
  45.1764690 106.6730861  71.0341302  44.5005327 106.5724991  71.7043677
  45.9992324 106.5170075  71.4977299  36.9243549 112.9102798  63.6553817
  37.5096986 112.1646486  63.7881721  36.7268388 113.2206755  64.5390481
  39.7782205 115.9454045  58.6716260  39.1092580 116.4300173  58.1880300
  39.6395074 116.1923266  59.5859638  31.5161204 105.4808398  62.3758260
  31.5545304 104.9471989  63.1695378  31.0101497 104.9543604  61.7569238
  43.9187473 117.9797789  65.2698918  44.4705781 118.1429410  66.0348003
  44.2593667 118.5702227  64.5978943  38.8951967 100.3272939  65.8720803
  38.9593293 101.1887770  65.4598200  38.8319087  99.7146940  65.1393161
  38.3704239 102.3996071  69.5193837  38.9976278 102.0173149  70.1331361
  37.5132158 102.1810273  69.8849529  48.7698348 112.8059046  71.1247572
  49.3138252 113.4189005  70.6302527  48.1885192 113.3638625  71.6414585
  35.1469782 104.2072500  55.4512192  35.4423223 103.2983179  55.3979245
  34.2457818 104.1860240  55.1293194  47.0555861 115.9279764  62.2562600
  46.9307000 115.1269504  61.7473546  47.7134952 116.4225958  61.7676570
  38.6764029 102.2828497  61.4339740  37.9550615 102.8964465  61.2947214
  39.4657285 102.8186262  61.3556386  49.1190769 113.7288784  63.8842150
  48.1721104 113.6094136  63.8120477  49.4673542 112.8411283  63.9668412
  41.4790342  99.6182923  67.7080392  42.0024744  99.8645220  68.4706701
  41.2602676 100.4502958  67.2883529  36.8757623 101.8886598  55.5751517
  36.5470330 101.0083977  55.3926623  37.2296994 101.8334267  56.4627906
  46.1237202 113.5241501  60.0846502  45.9762165 112.5958208  60.2654072
  46.9490696 113.5461591  59.6003578  39.9899447 102.1759568  55.9426995
  40.3295519 102.7045489  55.2205603  40.4371567 102.5139974  56.7185561
  49.7271324 114.3470059  61.1711375  50.6517872 114.1412921  61.0335826
  49.5586627 114.0986461  62.0800717  42.6842887 100.5596619  65.3930063
  42.3439708  99.7604432  65.7950742  41.9781894 100.8598329  64.8206896
  43.3359359  97.6445931  63.8457386  44.1585429  97.1706409  63.7236276
  43.5797423  98.4236415  64.3456072  41.9767594 100.6734189  54.1420287
  42.6975956 101.0515442  53.6384004  41.3532898 101.3923066  54.2455265
  46.1198717 101.3779338  55.0778620  46.3362331 102.2603976  54.7767448
  45.6392784 100.9865552  54.3484262  40.8597938 104.3365052  61.6549364
  40.7142519 104.6505355  62.5473646  40.3823142 104.9549952  61.1020263
  42.7194321 101.3267600  61.7030254  42.7055890 100.4308693  61.3662552
  43.4366749 101.3338263  62.3368540  44.5720452 101.7604940  63.7483381
  44.3138229 102.6822010  63.7467712  44.0405492 101.3635374  64.4383845
  49.5166640 114.8655727  56.5273467  49.6903518 114.3002149  55.7747319
  50.0095532 115.6656622  56.3452957  35.3343600 106.8770396  64.5937025
  34.7897068 107.6530204  64.7257300  36.2122950 107.2241200  64.4356147
  42.1231217 100.2081980  56.9717824  42.2447128  99.2798626  57.1708711
  41.8333259 100.2220666  56.0596139  44.9922407  97.8936890  60.1084544
  45.0144104  97.9576223  59.1536523  45.4090466  97.0541399  60.3025050
  55.3706031 107.6292150  58.1463766  55.8137178 106.8799475  57.7482890
  54.4932542 107.6202286  57.7637498  50.5041813 114.1822491  53.6270365
  51.1992717 114.8029184  53.8457680  50.8464963 113.3317843  53.9022743
  36.1209622 106.0040292  67.4867182  35.3791358 106.1522928  68.0731813
  35.8002366 106.2648558  66.6233932  52.4033236 111.6322197  55.1557696
  52.9284560 111.9709470  54.4307016  52.3155588 110.6969212  54.9720830
  44.0653285 115.5456270  67.2847572  44.3740411 115.3005417  68.1570272
  44.8628767 115.7502909  66.7966443  44.0873897 117.6994180  59.5152949
  43.6478887 117.2070559  60.2085806  44.8382014 117.1567148  59.2745024
  36.5666236 113.8905721  59.5177577  37.3924256 113.5909493  59.1376220
  36.2160288 113.1213343  59.9667366  41.5347769 113.2432189  61.5875251
  40.9127778 112.5802894  61.2877478  42.2052636 113.2693321  60.9048898
  34.7674841 111.8092047  60.4766511  33.9306749 111.3814222  60.2950512
  34.7398486 112.0024491  61.4137302  41.6072296 101.7213977  71.1807757
  41.6560452 102.5976100  70.7985526  42.1494811 101.1791370  70.6079400
  52.0927142 112.2655100  70.4608894  51.3022686 112.2479239  69.9213393
  51.8560497 112.8043394  71.2157930  52.2125017 109.1147567  67.7741622
  52.2623022 108.9497574  68.7157145  52.1038940 108.2474826  67.3839503
  41.0961276 111.7936113  55.0633711  41.2449396 112.4771577  54.4100384
  41.9027719 111.7741203  55.5783167  49.5028779 105.0978495  69.0900929
  50.4038642 104.9584960  68.7984927  49.5776754 105.2632950  70.0299106
  43.8371585 102.4745350  67.9354115  42.9674894 102.7678916  67.6636704
  44.0731065 103.0585795  68.6561379  53.7143214 111.5344508  68.0183644
  53.4228022 111.8974489  68.8547105  53.1015345 110.8211517  67.8396976
  54.9138896 109.0997388  60.5386214  55.7485788 109.5387192  60.7023774
  55.0498025 108.6236041  59.7194460  51.9630402 106.6577123  66.4863702
  52.4384524 106.8504769  65.6782553  51.0395967 106.7136309  66.2407085
  38.8513909 107.8201290  56.0694780  38.6059951 106.9163620  56.2674990
  39.0209823 107.8218441  55.1274258  46.5410619  98.6924967  65.4519536
  47.0592562  99.4285993  65.1266024  46.1865751  98.9988960  66.2866295
  38.1209556 103.5529648  53.5680941  37.4278801 103.6274003  52.9120977
  37.8761308 102.7889991  54.0902458  46.7923213  95.1125249  60.9720432
  47.0724967  94.4448438  61.5980859  47.5773820  95.3054345  60.4595096
  44.5956681 114.2884243  52.5345458  44.0230648 114.9074430  52.0815930
  45.1689475 114.8383605  53.0685380  50.6632071 103.5342883  64.7192007
  51.6149494 103.6340981  64.7404231  50.4935522 102.7421152  65.2290092
  48.6846451 100.6198466  64.9051408  48.0896383 100.9003479  64.2097897
  48.3996147 101.1092367  65.6768149  47.8153941 114.5721393  53.6654041
  48.7484614 114.5066955  53.8686916  47.7277154 115.4077660  53.2068573
  50.4441958 113.8887263  50.6257988  50.3655589 113.5547127  51.5193746
  51.2651625 114.3809031  50.6249461  53.1420149 106.7549003  63.8334307
  53.1096469 105.8165003  64.0193991  53.7520773 106.8333039  63.1000132
  44.9803480 105.6245056  49.8761511  45.9262584 105.4951264  49.9449929
  44.6017725 104.8859718  50.3530939  53.2914637 103.5460046  63.8792590
  52.7753686 102.7618503  63.6922519  54.1754586 103.2178763  64.0439110
  50.9525364  97.2901062  59.8388403  50.7550185  96.9816150  60.7231735
  51.5625070  98.0162701  59.9686333  58.9596699 107.8165010  62.9740344
  59.6900087 107.5550298  63.5348047  58.3503644 107.0793732  63.0142412
  57.0411996 105.9572872  63.5714795  56.3145159 105.8228837  62.9631287
  56.6259283 106.2649701  64.3771513  44.8642172 109.6762802  71.3362168
  45.7845182 109.8541401  71.5302214  44.8291755 108.7318847  71.1841867
  43.1646397 103.5495032  49.8116396  42.2577852 103.2528145  49.8879110
  43.4422378 103.2524850  48.9450682  34.0824337 104.8701396  60.2615443
  33.7627122 104.0166704  59.9689817  33.5357765 105.0849974  61.0173410
  37.8604245 107.5863837  63.9784949  38.0790255 108.5180944  63.9972983
  38.2730019 107.2271811  64.7639753  44.7808463  98.0931922  55.9660637
  43.9709191  97.7479007  56.3415884  45.4692880  97.7839466  56.5548249
  46.7099011  97.1709969  57.5884934  47.2630050  97.5905422  58.2474957
  46.9469097  96.2445717  57.6307890  42.7332110 103.1597042  73.3687698
  42.6328837 104.1091399  73.2999789  42.5153652 102.8315281  72.4963768
  41.9345182 100.4081967  49.9528375  42.7964346 100.7336866  50.2124193
  42.1195526  99.6213463  49.4401441  33.9512597 108.4904307  62.2308564
  33.2576069 108.0758260  61.7178519  34.6985588 108.5324844  61.6341983
  50.0877818  99.2810494  57.0963598  49.5076487  99.9395298  56.7141651
  49.8213751  98.4587838  56.6851016  48.5381384  98.6815551  59.2984919
  49.0381163  98.7932086  58.4899238  49.1816992  98.3776604  59.9385727
  42.5963380 106.5894181  72.1852760  42.1130462 107.3894541  72.3916649
  42.6824319 106.6002126  71.2320204  35.8649340 108.4222561  60.1074579
  35.8420028 108.5210248  59.1556462  36.1749976 109.2687712  60.4291745
  38.5236718 110.4798716  64.2221193  39.4779971 110.4482658  64.1551125
  38.3249241 110.0189340  65.0371419  39.1136100 109.0499832  66.7891991
  39.9328989 109.5443911  66.8126828  39.3872908 108.1331800  66.7609559
  48.8702696 101.4410584  56.1519947  47.9828551 101.7260235  55.9340141
  49.2856685 101.2804348  55.3047224  52.2217232 101.4657105  59.8674286
  52.9977622 101.9553558  60.1398903  51.4965366 101.8915159  60.3246155
  54.6589791 102.1784724  60.9248227  55.2534282 101.9380460  60.2141535
  54.7316374 101.4591855  61.5521763  48.0145909 111.2055259  50.2467967
  48.7181760 111.4105261  50.8625622  47.2908558 111.7732021  50.5117050
  48.8443720 106.9565120  56.3670237  48.7878921 107.4133672  55.5277869
  49.3972062 106.1955805  56.1893080  52.6548526 102.7454852  57.1920356
  52.3985460 102.3451488  58.0228564  52.0301394 103.4598646  57.0670495
  56.9660864 105.4850925  59.6991648  56.4060422 105.5544115  60.4723210
  56.3604367 105.3091910  58.9791144  49.9232607 111.6437788  52.2966427
  50.7578211 111.2118987  52.1143901  49.7616950 111.4719802  53.2243321
  49.5778499 108.1469901  53.6622766  49.5227303 107.9814173  52.7211210
  48.9524554 108.8545934  53.8184956  34.3671014 103.3837966  67.4884188
  35.0129878 102.8736920  67.9771413  34.1588165 104.1206647  68.0627613
  46.8924406 110.4518813  72.9876329  47.7615566 110.6259466  72.6262964
  46.4131158 111.2713230  72.8652058  42.8874625  97.6478010  53.2408084
  42.8753294  98.5919850  53.3976355  43.7798046  97.4648156  52.9467546
  41.0610586 117.5715914  64.6665762  41.9637833 117.6039524  64.9832257
  40.8347957 116.6416365  64.6812098  42.8164189 116.3246901  61.3275841
  41.8659820 116.3248762  61.2140213  43.1196675 115.5779635  60.8111876
  46.7026744  94.2420787  57.4954021  45.9359140  93.6879274  57.6410704
  47.1137449  94.3142656  58.3568173  38.7068505 100.5305583  71.5859202
  39.5699967 100.1742388  71.7962527  38.1333916 100.1919478  72.2734607
  58.5516882 122.1607439  62.3921603  59.1895292 122.0414187  61.6884944
  58.4337725 123.1088283  62.4509556  55.3606588 122.1134867  62.3283128
  55.0225100 121.9975932  61.4403663  56.2296356 121.7126032  62.3084134
  55.8426371 123.2669719  68.2869334  55.8315012 122.8722517  67.4149837
  56.0047011 122.5335792  68.8803105  53.0614868 120.8823115  51.6600068
  53.3140388 120.3604636  50.8983531  52.1239427 120.7189260  51.7626752
  58.1058150 119.8858893  59.4674811  58.8921240 119.4678316  59.1165228
  58.3696855 120.7904985  59.6356460  63.5066578 119.8234126  60.3707790
  64.2391750 119.2533343  60.6045619  62.7505933 119.4355727  60.8114296
  55.1242697 122.2461368  57.5671132  54.7600905 121.7191989  58.2784054
  55.9809813 121.8559837  57.3937618  61.0291998 113.5355700  64.8302399
  60.6975323 114.4051111  64.6063614  60.4337611 113.2191984  65.5096429
  54.7648184 117.2751267  52.5632481  54.9322587 118.1431504  52.9302952
  54.5745353 117.4378549  51.6393770  60.9220661 118.2550786  61.9095749
  60.0137539 118.1866195  61.6154510  60.8708257 118.7322731  62.7377574
  54.7437405 119.7308925  53.5479148  54.6237030 120.1765976  54.3864628
  54.0489994 120.0794243  52.9892686  54.9961527 119.6740432  69.8530646
  54.2194861 120.2334352  69.8433511  55.6352090 120.1597215  70.3745516
  62.7882308 116.4567225  63.6873623  62.1456688 116.7499758  63.0413417
  62.2837236 116.3420145  64.4926819  60.4422471 120.2030398  54.3759482
  61.3540327 120.4357785  54.2007179  59.9332118 120.7867442  53.8134560
  55.0794309 119.5627633  65.3854331  55.9255504 119.9867046  65.5288980
  55.0192947 118.9061257  66.0792894  58.2293754 117.2232001  67.0435505
  57.9854686 117.9774062  66.5069781  58.5053685 117.6017349  67.8782752
  60.1832217 123.7670613  65.7212771  60.3949112 124.4102373  65.0447152
  60.1361965 122.9332930  65.2534701  57.7858446 116.3788434  62.6249343
  56.9242925 116.6769688  62.9166080  57.8120881 116.5958833  61.6930375
  53.5388902 121.0453777  55.8412714  54.2412945 121.4974821  56.3086640
  53.2069530 120.4037596  56.4692607  51.9869263 119.6365534  70.2163923
  51.3567924 120.3181814  70.4499320  51.8805351 119.5248615  69.2717061
  47.2814236 119.3037330  61.1429847  46.4913290 119.5594858  60.6669958
  47.7725483 120.1185668  61.2481888  49.2328981 119.6681909  58.1013324
  48.4360144 119.7800603  58.6196819  49.0054573 120.0068561  57.2354214
  69.3884038 122.9881317  60.2420099  68.6347747 122.4188715  60.0864104
  69.5231579 122.9543982  61.1890734  51.2650006 113.9386299  72.5789174
  50.8716951 113.3852498  73.2536818  52.0816146 114.2496878  72.9695691
  54.1817967 115.3544179  70.1709431  54.9227680 115.9551332  70.0913893
  54.4135890 114.6121816  69.6127473  58.1275130 111.3825281  64.4473712
  57.7839399 112.2726923  64.3712823  58.4954092 111.1926939  63.5843297
  58.0925412 121.3733893  52.9546147  57.5772036 122.1438497  53.1934535
  57.8202721 120.6999029  53.5779209  55.6772524 116.2183593  58.0131386
  54.8214120 115.8290444  57.8337024  56.0899475 116.2975554  57.1531171
  57.2071670 113.7529937  62.4122945  56.7036466 113.7160072  61.5990751
  57.5002277 114.6622679  62.4719602  53.4514556 113.8368666  61.4189127
  54.3167553 113.6411475  61.0595017  53.5192065 113.6079018  62.3458484
  63.0659687 124.1266247  54.8899321  62.2889129 123.7877407  54.4454483
  63.7451168 124.1318870  54.2154286  57.8811716 119.2460985  54.7805928
  57.5761851 119.5607134  55.6316072  58.8342158 119.3242405  54.8233261
  61.3050994 123.6000228  61.5465929  60.6474668 124.2899490  61.6346057
  62.1091393 123.9896660  61.8899915  51.0576875 116.0670874  58.7905494
  51.6320627 115.8446056  58.0578687  51.6447858 116.1359569  59.5434095
  60.1156452 121.9544601  59.5969871  60.6288334 122.5874593  60.0991580
  60.7657676 121.3545797  59.2313231  51.3846462 118.0975335  52.8101379
  50.5483774 118.4350022  53.1310654  51.2451232 117.9624315  51.8728516
  53.3599543 112.9412123  57.5180563  52.7063955 112.6261140  56.8937178
  53.3180017 112.3187864  58.2440386  56.5937283 119.4294057  61.8428211
  55.6759845 119.6509004  61.6849899  57.0097427 119.5040367  60.9839918
  57.3772331 120.8285472  56.9730891  58.1244150 121.3406870  56.6638013
  57.6463921 120.5069525  57.8335285  59.8251168 117.8642589  58.9549681
  59.0873925 117.3519975  59.2859923  60.0777942 117.4242970  58.1432957
  59.9262795 110.6418841  59.5491450  60.2321672 109.7816204  59.2617365
  60.6515400 111.2336461  59.3490444  54.1983875 120.9372634  60.0567641
  54.2532485 119.9846470  59.9810118  53.3875077 121.0932073  60.5408939
  52.1376235 119.5549693  57.8158020  51.3244101 119.8543864  58.2223212
  52.6335229 119.1605382  58.5332502  57.7350447 120.0191518  66.6472914
  58.0899834 120.2462991  67.5067379  58.3822578 120.3509895  66.0250169
  63.4648184 123.1409954  57.3522243  63.3266082 123.3311550  56.4243432
  63.1084403 123.9029337  57.8090294  51.6290310 117.1268049  63.4319255
  52.2689689 116.9856808  62.7342218  50.7967840 116.8402562  63.0557857
  63.4917563 125.2086481  62.3633514  63.9254070 125.1161770  63.2116568
  64.2049144 125.1843981  61.7253530  48.7133377 120.5713561  55.6214000
  47.7830965 120.5098017  55.8383962  48.8090849 120.0489514  54.8250641
  48.6318926 117.0968374  58.2092242  48.8925744 118.0113707  58.1001402
  49.4536099 116.6292817  58.3588854  50.1043852 118.5106131  65.3791066
  50.7766905 118.3023493  64.7303715  49.2773638 118.3128217  64.9396298
  64.3533113 125.2510182  64.8966400  64.5469003 126.1555992  65.1425675
  64.2533731 124.7917601  65.7304985  56.0069424 115.1368072  67.3956727
  55.3597339 115.8358022  67.3021203  56.7770439 115.5704216  67.7632975
  56.1833558 122.9748837  65.4553547  57.1125618 123.1259997  65.2822514
  55.7624588 123.0632858  64.6002193  59.4686297 123.7237138  50.8877982
  58.8515467 122.9983967  50.7911034  59.0002785 124.4846499  50.5445056
  53.1353650 121.4968693  65.6277183  53.8453268 120.8561886  65.5863801
  53.0922958 121.7481588  66.5503364  51.8482584 118.4833911  67.4472822
  51.3119941 118.0324650  68.0994419  51.2599292 118.6179820  66.7043287
  51.2584842 117.9422563  50.0099286  50.3814309 117.8211364  49.6461533
  51.7342596 117.1508641  49.7578175  47.5821705 117.6189919  64.5325817
  47.4979893 117.0115589  63.7976227  46.7604411 118.1098937  64.5335313
  57.7545419 116.1043483  59.8996012  58.2514118 115.3513445  59.5797082
  56.9832400 116.1407799  59.3339221  65.6075176 121.8083848  61.5414303
  65.5965052 122.6908564  61.1708237  64.7392555 121.4555399  61.3468841
  54.3380387 118.2460866  59.6267697  53.9678175 117.6931906  60.3148602
  54.8339480 117.6418999  59.0742697  62.2247751 120.7032489  58.0084469
  62.6908203 121.5360481  57.9344772  62.6755251 120.2377471  58.7129728
  60.1964413 113.0713076  62.0475371  59.2827493 113.3017303  62.2157578
  60.6257515 113.1551520  62.8989403  59.9670872 121.2602968  64.5475265
  59.3142322 121.5078875  63.8927718  60.3451252 120.4467106  64.2137742
  56.0158445 122.0022779  71.0341302  55.3399082 121.9016908  71.7043677
  56.8386079 121.8461993  71.4977299  49.7345721 115.6564856  65.8720803
  49.7987048 116.5179687  65.4598200  49.6712841 115.0438858  65.1393161
  49.2097994 117.7287989  69.5193837  49.8370032 117.3465066  70.1331361
  48.3525912 117.5102191  69.8849529  45.9863536 119.5364418  55.4512192
  46.2816977 118.6275096  55.3979245  45.0851572 119.5152157  55.1293194
  49.5157783 117.6120415  61.4339740  48.7944369 118.2256382  61.2947214
  50.3051039 118.1478179  61.3556386  52.3184097 114.9474841  67.7080392
  52.8418499 115.1937138  68.4706701  52.0996430 115.7794876  67.2883529
  47.7151378 117.2178516  55.5751517  47.3864084 116.3375895  55.3926623
  48.0690749 117.1626184  56.4627906  50.8293201 117.5051485  55.9426995
  51.1689274 118.0337407  55.2205603  51.2765322 117.8431892  56.7185561
  53.5236642 115.8888536  65.3930063  53.1833462 115.0896349  65.7950742
  52.8175648 116.1890247  64.8206896  54.1753114 112.9737849  63.8457386
  54.9979183 112.4998327  63.7236276  54.4191177 113.7528332  64.3456072
  52.8161348 116.0026107  54.1420287  53.5369711 116.3807360  53.6384004
  52.1926652 116.7214984  54.2455265  56.9592471 116.7071256  55.0778620
  57.1756085 117.5895894  54.7767448  56.4786538 116.3157469  54.3484262
  51.6991692 119.6656969  61.6549364  51.5536273 119.9797272  62.5473646
  51.2216896 120.2841870  61.1020263  53.5588075 116.6559517  61.7030254
  53.5449644 115.7600611  61.3662552  54.2760503 116.6630181  62.3368540
  55.4114206 117.0896857  63.7483381  55.1531984 118.0113928  63.7467712
  54.8799246 116.6927292  64.4383845  52.9624971 115.5373898  56.9717824
  53.0840882 114.6090544  57.1708711  52.6727014 115.5512583  56.0596139
  55.8316162 113.2228808  60.1084544  55.8537858 113.2868141  59.1536523
  56.2484221 112.3833317  60.3025050  66.2099786 122.9584067  58.1463766
  66.6530932 122.2091393  57.7482890  65.3326296 122.9494204  57.7637498
  52.4466051 117.0505895  71.1807757  52.4954206 117.9268018  70.7985526
  52.9888565 116.5083288  70.6079400  63.0518772 124.4439485  67.7741622
  63.1016776 124.2789492  68.7157145  62.9432695 123.5766744  67.3839503
  60.3422534 120.4270413  69.0900929  61.2432397 120.2876877  68.7984927
  60.4170508 120.5924867  70.0299106  54.6765339 117.8037267  67.9354115
  53.8068649 118.0970833  67.6636704  54.9124820 118.3877712  68.6561379
  65.7532651 124.4289306  60.5386214  66.5879542 124.8679110  60.7023774
  65.8891779 123.9527959  59.7194460  62.8024157 121.9869041  66.4863702
  63.2778278 122.1796687  65.6782553  61.8789722 122.0428226  66.2407085
  57.3804373 114.0216884  65.4519536  57.8986317 114.7577911  65.1266024
  57.0259506 114.3280878  66.2866295  48.9603311 118.8821565  53.5680941
  48.2672556 118.9565920  52.9120977  48.7155063 118.1181909  54.0902458
  57.6316967 110.4417167  60.9720432  57.9118721 109.7740356  61.5980859
  58.4167574 110.6346262  60.4595096  61.5025826 118.8634801  64.7192007
  62.4543248 118.9632898  64.7404231  61.3329276 118.0713069  65.2290092
  59.5240205 115.9490384  64.9051408  58.9290137 116.2295397  64.2097897
  59.2389902 116.4384285  65.6768149  63.9813903 122.0840920  63.8334307
  63.9490223 121.1456921  64.0193991  64.5914527 122.1624957  63.1000132
  55.8197234 120.9536973  49.8761511  56.7656339 120.8243182  49.9449929
  55.4411479 120.2151635  50.3530939  64.1308392 118.8751964  63.8792590
  63.6147441 118.0910420  63.6922519  65.0148340 118.5470680  64.0439110
  61.7919119 112.6192979  59.8388403  61.5943940 112.3108068  60.7231735
  62.4018824 113.3454618  59.9686333  69.7990453 123.1456927  62.9740344
  70.5293842 122.8842215  63.5348047  69.1897399 122.4085649  63.0142412
  67.8805750 121.2864790  63.5714795  67.1538914 121.1520755  62.9631287
  67.4653037 121.5941618  64.3771513  54.0040151 118.8786950  49.8116396
  53.0971607 118.5820062  49.8879110  54.2816132 118.5816768  48.9450682
  55.6202217 113.4223839  55.9660637  54.8102945 113.0770924  56.3415884
  56.3086634 113.1131383  56.5548249  57.5492765 112.5001886  57.5884934
  58.1023804 112.9197340  58.2474957  57.7862852 111.5737634  57.6307890
  53.5725865 118.4888960  73.3687698  53.4722592 119.4383317  73.2999789
  53.3547407 118.1607199  72.4963768  52.7738936 115.7373885  49.9528375
  53.6358100 116.0628783  50.2124193  52.9589280 114.9505381  49.4401441
  60.9271572 114.6102411  57.0963598  60.3470242 115.2687215  56.7141651
  60.6607505 113.7879756  56.6851016  59.3775139 114.0107469  59.2984919
  59.8774917 114.1224004  58.4899238  60.0210747 113.7068522  59.9385727
  59.7096451 116.7702502  56.1519947  58.8222306 117.0552152  55.9340141
  60.1250440 116.6096265  55.3047224  63.0610987 116.7949023  59.8674286
  63.8371377 117.2845475  60.1398903  62.3359121 117.2207077  60.3246155
  65.4983545 117.5076642  60.9248227  66.0928036 117.2672378  60.2141535
  65.5710129 116.7883773  61.5521763  59.6837474 122.2857038  56.3670237
  59.6272676 122.7425589  55.5277869  60.2365817 121.5247722  56.1893080
  63.4942280 118.0746770  57.1920356  63.2379214 117.6743405  58.0228564
  62.8695148 118.7890564  57.0670495  67.8054618 120.8142843  59.6991648
  67.2454176 120.8836032  60.4723210  67.1998121 120.6383828  58.9791144
  60.4172254 123.4761819  53.6622766  60.3621057 123.3106090  52.7211210
  59.7918309 124.1837852  53.8184956  45.2064769 118.7129883  67.4884188
  45.8523632 118.2028837  67.9771413  44.9981920 119.4498565  68.0627613
  53.7268379 112.9769928  53.2408084  53.7147049 113.9211768  53.3976355
  54.6191801 112.7940073  52.9467546  57.5420498 109.5712705  57.4954021
  56.7752894 109.0171191  57.6410704  57.9531203 109.6434573  58.3568173
  49.5462260 115.8597500  71.5859202  50.4093721 115.5034305  71.7962527
  48.9727670 115.5211395  72.2734607  68.9668884 126.7117199  64.4473712
  68.6233154 127.6018841  64.3712823  69.3347847 126.5218857  63.5843297
  70.7656550 125.9710758  59.5491450  71.0715427 125.1108122  59.2617365
  71.4909155 126.5628379  59.3490444  68.4710722 125.7709084  60.9720432
  68.7512476 125.1032273  61.5980859  69.2561329 125.9638180  60.4595096
  72.6312873 127.9484897  59.8388403  72.4337694 127.6399985  60.7231735
  73.2412579 128.6746536  59.9686333  68.3814253 124.9004622  57.4954021
  67.6146649 124.3463109  57.6410704  68.7924958 124.9726491  58.3568173
   4.3548111  22.5209973  49.1166910   4.9926521  22.4016721  48.4130250
   4.2368954  23.4690817  49.1754862   1.1637817  22.4737401  49.0528435
   0.8256329  22.3578466  48.1648970   2.0327585  22.0728567  49.0329441
   1.6457600  23.6272253  55.0114640   1.6346241  23.2325051  54.1395144
   1.8078240  22.8938326  55.6048412   2.6024192  27.9943846  40.3539791
   1.9512171  28.5797926  39.9673804   3.3968554  28.5250040  40.4134828
   3.9089379  20.2461427  46.1920118   4.6952469  19.8280850  45.8410535
   4.1728084  21.1507519  46.3601767   4.0799457  25.6834278  40.8908775
   3.4445290  25.7568904  41.6029680   3.7496863  26.2727876  40.2127854
   9.3097806  20.1836660  47.0953097  10.0422978  19.6135877  47.3290926
   8.5537162  19.7958261  47.5359602   0.9273926  22.6063902  44.2916439
   0.5632133  22.0794523  45.0029361   1.7841042  22.2162371  44.1182924
   3.3254746  26.0970781  50.9543618   3.0255469  26.9995819  50.8459425
   2.9805806  25.8302964  51.8064771   6.7251890  18.6153321  48.6341055
   5.8168767  18.5468729  48.3399816   6.6739486  19.0925266  49.4622881
   8.5913536  16.8169759  50.4118929   7.9487917  17.1102292  49.7658724
   8.0868465  16.7022679  51.2172126   6.2453700  20.5632932  41.1004788
   7.1571556  20.7960319  40.9252486   5.7363347  21.1469976  40.5379867
   4.5294468  24.9857560  54.7366081   4.9377824  24.5439971  53.9920713
   3.8071729  24.4110188  54.9900274   0.8825538  19.9230167  52.1099638
   1.7286733  20.3469580  52.2534287   0.8224176  19.2663791  52.8038201
   4.8523282  25.5458751  48.4918370   4.2232145  25.7104465  47.7894438
   4.4648945  25.9600360  49.2629334   8.7312514  26.4813189  45.8462734
   8.0463553  26.8612090  45.2959767   8.8156364  27.0908515  46.5794681
   4.0324983  17.5834535  53.7680812   3.7885915  18.3376596  53.2315087
   4.3084914  17.9619883  54.6028059   5.9863446  24.1273148  52.4458077
   6.1980341  24.7704908  51.7692458   5.9393194  23.2935464  51.9780007
   3.5889675  16.7390968  49.3494649   2.7274154  17.0372222  49.6411387
   3.6152110  16.9561367  48.4175682   7.1009274  27.0045103  50.6180435
   7.9226718  26.6025290  50.3363116   7.0971677  26.9013337  51.5696550
  15.1915267  23.3483852  46.9665406  14.4378975  22.7791250  46.8109410
  15.3262808  23.3146516  47.9136041   0.5813895  28.2197254  42.6420125
   0.4459570  29.0648790  43.0704973   1.1223708  28.4216531  41.8786059
   2.2082371  28.8420820  56.7720467   1.7646226  28.0557199  56.4541372
   2.8699585  29.0299971  56.1064358   4.3063609  29.1223620  54.8001869
   4.2882085  29.9432501  54.3082138   5.2283530  28.9977695  55.0252010
   3.8956641  21.7336427  39.6791454   3.3803265  22.5041031  39.9179841
   3.6233950  21.0601563  40.3024515   8.8690915  24.4868781  41.6144627
   8.0920358  24.1479941  41.1699790   9.5482396  24.4921405  40.9399592
   3.6842944  19.6063519  41.5051235   3.3793080  19.9209668  42.3561378
   4.6373387  19.6844939  41.5478568   2.1289376  25.7653742  43.1544189
   1.6010738  25.0306502  42.8417427   1.6276879  26.5428419  42.9084157
   7.1082222  23.9602763  48.2711235   6.4505897  24.6502024  48.3591364
   7.9122622  24.3499195  48.6145222   5.9187681  22.3147135  46.3215177
   6.4319563  22.9477127  46.8236887   6.5688905  21.7148331  45.9558537
   3.1810055  32.2931460  39.0775848   2.5071754  32.5963156  39.6860806
   3.5675877  33.0960540  38.7281305   2.3968512  19.7896591  48.5673518
   1.4791073  20.0111538  48.4095206   2.8128656  19.8642901  47.7085225
   3.1803560  21.1888007  43.6976198   3.9275379  21.7009404  43.3883320
   3.4495149  20.8672059  44.5580592   1.4530210  23.6846547  40.6803152
   0.5441429  23.4005580  40.7775622   1.4825294  24.1045626  39.8206459
   6.6849477  27.2953137  44.4494320   6.2311804  26.4544047  44.5059510
   6.0543444  27.9314535  44.7869100   5.6282397  18.2245123  45.6794987
   4.8905154  17.7122509  46.0105230   5.8809170  17.7845504  44.8678264
   5.1282417  29.1329634  45.3844138   5.4205391  29.6934691  44.6656504
   5.6381037  29.4258195  46.1397297   1.1506298  25.2255291  38.0191231
   0.7125728  24.5091150  37.5596868   1.8916739  25.4531406  37.4576322
   3.5381676  20.3794052  53.3718220   3.8931063  20.6065525  54.2312686
   4.1853807  20.7112429  52.7495476   9.2679413  23.5012488  44.0767549
   9.1297311  23.6914084  43.1488739   8.9115631  24.2631871  44.5335601
   9.2948792  25.5689015  49.0878821   9.7285299  25.4764304  49.9361875
  10.0080373  25.5446516  48.4498837   3.0276687  29.1691109  50.6211921
   3.0813709  29.7382045  51.3889637   2.1591468  29.3392994  50.2565959
  10.1564342  25.6112716  51.6211706  10.3500232  26.5158526  51.8670981
  10.0564960  25.1520135  52.4550291   5.2179450  25.7619458  57.1952587
   5.0664957  25.5330010  56.2782671   5.2084130  26.7190060  57.2083932
   1.9864787  23.3351371  52.1798853   2.9156847  23.4862531  52.0067821
   1.5655817  23.4235392  51.3247500   1.3801271  32.4611132  41.2922927
   1.5553026  31.9899175  42.1068550   0.6934059  33.0876898  41.5204188
   2.3358334  26.7383638  47.3386229   2.0008166  26.6984408  48.2343879
   1.8362279  26.0728354  46.8656639   5.2717525  24.0839673  37.6123288
   4.6546696  23.3586501  37.5156341   4.8034014  24.8449033  37.2690363
   6.9271657  28.7938581  55.2729069   6.8684203  28.1097801  54.6059652
   7.3291175  29.5357571  54.8209695   6.9289064  26.7578165  53.5043048
   6.0415843  26.4204087  53.6269447   7.4987615  26.0261196  53.7411814
   3.5576647  16.4646017  46.6241319   4.0545347  15.7115979  46.3042389
   2.7863629  16.5010333  46.0584528  11.4106405  22.1686382  48.2659610
  11.3996281  23.0511098  47.8953543  10.5423784  21.8157933  48.0714147
   2.9188901  31.3166451  52.6262450   3.6316873  31.9513916  52.5538352
   2.4278930  31.4130317  51.8102452   4.6406428  25.2217704  44.1979742
   3.7062707  25.3419166  44.0284446   4.8183097  24.3190171  43.9339752
   8.0278979  21.0635023  44.7329776   8.4939432  21.8963015  44.6590079
   8.4786480  20.5980005  45.4375035   6.0955211  27.4078845  41.7315928
   6.3715054  27.2935439  42.6409802   5.2259709  27.0096329  41.6928101
   5.7702101  21.6205502  51.2720571   5.1173551  21.8681410  50.6173024
   6.1482481  20.8069640  50.9383049   2.7309275  31.6565195  45.3748742
   2.9131669  30.8386851  45.8376494   3.5542261  31.8732888  44.9373632
   3.0651440  30.5833381  42.6363790   3.5939206  30.0725835  42.0233952
   3.3279660  30.2675911  43.5009323   1.8189674  22.3625313  57.7586609
   1.1430311  22.2619443  58.4288984   2.6417308  22.2064527  58.2222606
   0.5612457  33.6692241  51.9944225   1.1130765  33.8323862  52.7593310
   0.9018650  34.2596679  51.3224249   5.4123331  28.4953498  57.8492879
   5.9563235  29.1083457  57.3547834   4.8310176  29.0533077  58.3659892
   3.6980844  31.6174216  48.9807907   3.5731983  30.8163956  48.4718852
   4.3559935  32.1120410  48.4921877   5.7615752  29.4183236  50.6087457
   4.8146088  29.2988588  50.5365784   6.1098525  28.5305734  50.6913718
   2.7662186  29.2135953  46.8091809   2.6187148  28.2852660  46.9899379
   3.5915679  29.2356043  46.3248884   6.3696307  30.0364511  47.8956682
   7.2942855  29.8307373  47.7581133   6.2011611  29.7880912  48.8046023
   6.1591624  30.5550179  43.2518773   6.3328501  29.9896601  42.4992626
   6.6520515  31.3551074  43.0698263  12.0131015  23.3186602  44.8709073
  12.4562161  22.5693927  44.4728196  11.1357525  23.3096738  44.4882805
   7.1466796  29.8716943  40.3515672   7.8417701  30.4923636  40.5702986
   7.4889946  29.0212294  40.6268049   9.0458219  27.3216649  41.8803002
   9.5709543  27.6603921  41.1552322   8.9580572  26.3863664  41.6966137
   0.7078268  31.2350722  54.0092879   1.0165394  30.9899869  54.8815579
   1.5053750  31.4397361  53.5211749   8.7352125  27.9549552  57.1854200
   7.9447669  27.9373691  56.6458700   8.4985480  28.4937846  57.9403237
   8.8550000  24.8042019  54.4986929   8.9048005  24.6392026  55.4402452
   8.7463924  23.9369278  54.1084810   6.1453763  20.7872947  55.8146235
   7.0463625  20.6479412  55.5230233   6.2201737  20.9527402  56.7544413
  10.3568197  27.2238960  54.7428950  10.0653005  27.5868941  55.5792411
   9.7440328  26.5105969  54.5642282  11.5563879  24.7891840  47.2631521
  12.3910771  25.2281644  47.4269081  11.6923008  24.3130493  46.4439766
   8.6055385  22.3471575  53.2109008   9.0809507  22.5399221  52.4027860
   7.6820951  22.4030761  52.9652392   1.2381665  29.9778695  39.2590765
   0.6655632  30.5968882  38.8061237   1.8114458  30.5278057  39.7930687
   7.3057054  19.2237335  51.4437314   8.2574477  19.3235433  51.4649538
   7.1360505  18.4315604  51.9535398   5.3271434  16.3092918  51.6296715
   4.7321366  16.5897931  50.9343203   5.0421131  16.7986819  52.4013456
   4.4578924  30.2615845  40.3899347   5.3909597  30.1961407  40.5932223
   4.3702137  31.0972112  39.9313880   7.0866941  29.5781715  37.3503295
   7.0080573  29.2441579  38.2439053   7.9076608  30.0703483  37.3494767
   9.7845132  22.4443455  50.5579614   9.7521452  21.5059455  50.7439297
  10.3945756  22.5227491  49.8245438   1.6228463  21.3139508  36.6006818
   2.5687568  21.1845716  36.6695236   1.2442708  20.5754170  37.0776246
   9.9339621  19.2354498  50.6037897   9.4178669  18.4512955  50.4167826
  10.8179569  18.9073215  50.7684416  15.6021682  23.5059461  49.6985650
  16.3325071  23.2444750  50.2593354  14.9928628  22.7688183  49.7387718
  13.6836979  21.6467324  50.2960102  12.9570143  21.5123289  49.6876593
  13.2684266  21.9544153  51.1016820   1.5067156  25.3657254  58.0607475
   2.4270165  25.5435853  58.2547521   1.4716739  24.4213299  57.9087174
   6.7302801  14.9704946  43.8208905   6.1501470  15.6289750  43.4386957
   6.4638734  14.1482290  43.4096323   5.5127679  17.1305036  42.8765253
   4.6253534  17.4154687  42.6585448   5.9281668  16.9698799  42.0292530
   8.8642215  17.1551557  46.5919593   9.6402606  17.6448009  46.8644209
   8.1390350  17.5809611  47.0491462  11.3014774  17.8679176  47.6493533
  11.8959265  17.6274912  46.9386841  11.3741358  17.1486307  48.2767069
   4.6570893  26.8949711  36.9713273   5.3606743  27.0999713  37.5870929
   3.9333542  27.4626473  37.2362357   5.4868703  22.6459572  43.0915543
   5.4303904  23.1028123  42.2523176   6.0397046  21.8850257  42.9138386
   9.2973509  18.4349304  43.9165663   9.0410443  18.0345940  44.7473871
   8.6726377  19.1493098  43.7915802  13.6085847  21.1745377  46.4236954
  13.0485405  21.2438566  47.1968516  13.0029350  20.9986362  45.7036451
   6.5657590  27.3332240  39.0211733   7.4003194  26.9013438  38.8389208
   6.4041933  27.1614254  39.9488628   6.2203482  23.8364353  40.3868073
   6.1652286  23.6708625  39.4456517   5.5949538  24.5440386  40.5430262
   3.5349390  26.1413265  59.7121635   4.4040549  26.3153917  59.3508270
   3.0556141  26.9607682  59.5897365  15.1941865  37.8501891  49.1166910
  15.8320275  37.7308638  48.4130250  15.0762708  38.7982735  49.1754862
  12.0031572  37.8029319  49.0528435  11.6650083  37.6870384  48.1648970
  12.8721340  37.4020484  49.0329441   7.8618387  39.6564796  45.0425326
   7.2983252  39.5654733  44.2741613   7.7470782  38.8364700  45.5227818
  12.4851355  38.9564171  55.0114640  12.4739995  38.5616969  54.1395144
  12.6471994  38.2230243  55.6048412   5.4082819  41.1515987  47.8809546
   6.2004111  40.8106812  47.4655845   5.6479469  41.2610962  48.8011699
  13.4417946  43.3235763  40.3539791  12.7905926  43.9089844  39.9673804
  14.2362309  43.8541958  40.4134828   7.3673573  40.4124900  40.7526925
   8.1404449  39.8653887  40.6139801   7.7198972  41.2769150  40.9641386
   9.2058616  41.7401283  53.9593824   8.9148482  42.6446914  53.8440491
   9.8415600  41.7817810  54.6737894  10.1314823  39.1178131  50.5495184
  10.7278395  38.8934154  49.8352147  10.1889794  38.3762877  51.1520632
   9.7039851  36.5717567  38.3845375   9.9565372  36.0499088  37.6228838
   8.7664410  36.4083712  38.4872058  14.7483134  35.5753345  46.1920118
  15.5346223  35.1572768  45.8410535  15.0121838  36.4799437  46.3601767
  14.9193211  41.0126195  40.8908775  14.2839044  41.0860822  41.6029680
  14.5890618  41.6019794  40.2127854  20.1491561  35.5128578  47.0953097
  20.8816733  34.9427795  47.3290926  19.3930917  35.1250179  47.5359602
   9.4236140  38.4745672  40.5869750   9.3072398  37.7990576  41.2550834
   9.5338400  37.9878046  39.7701903  11.7667681  37.9355820  44.2916439
  11.4025888  37.4086441  45.0029361  12.6234797  37.5454289  44.1182924
  17.6716981  29.2250152  51.5547705  17.3400306  30.0945563  51.3308920
  17.0762595  28.9086436  52.2341736  11.4073168  32.9645719  39.2877788
  11.5747570  33.8325956  39.6548259  11.2170337  33.1273001  38.3639077
  14.1648501  41.4262698  50.9543618  13.8649224  42.3287737  50.8459425
  13.8199560  41.1594881  51.8064771   7.6160982  37.8776495  46.9880322
   6.6911479  37.7452709  47.1958014   7.8645395  38.6570714  47.4850265
  17.5645645  33.9445238  48.6341055  16.6562522  33.8760647  48.3399816
  17.5133240  34.4217183  49.4622881  11.3862388  35.4203377  40.2724454
  11.2662014  35.8660428  41.1109935  10.6914977  35.7688694  39.7137993
   4.9769793  37.5209769  47.8224111   5.1062174  37.7744248  48.7363523
   4.2967245  38.1137477  47.5028767   9.1469281  48.1907019  43.9214586
   9.0693310  49.1414844  44.0003066   8.5430924  47.8452891  44.5789512
  11.6386510  35.3634884  56.5775953  10.8619844  35.9228804  56.5678817
  12.2777073  35.8491667  57.0990823  19.4307291  32.1461677  50.4118929
  18.7881671  32.4394210  49.7658724  18.9262219  32.0314597  51.2172126
  17.0847455  35.8924850  41.1004788  17.9965311  36.1252237  40.9252486
  16.5757102  36.4761894  40.5379867   9.8932883  38.1720337  56.1393920
  10.6347567  38.7105381  55.8628743   9.1869868  38.7986626  56.2965471
  15.3688222  40.3149478  54.7366081  15.7771578  39.8731888  53.9920713
  14.6465484  39.7402105  54.9900274  11.7219292  35.2522085  52.1099638
  12.5680488  35.6761498  52.2534287  11.6617930  34.5955709  52.8038201
  15.6917037  40.8750668  48.4918370  15.0625899  41.0396383  47.7894438
  15.3042699  41.2892278  49.2629334  19.5706269  41.8105106  45.8462734
  18.8857307  42.1904008  45.2959767  19.6550118  42.4200433  46.5794681
  14.8718738  32.9126453  53.7680812  14.6279670  33.6668513  53.2315087
  15.1478668  33.2911801  54.6028059  16.8257200  39.4565065  52.4458077
  17.0374096  40.0996825  51.7692458  16.7786949  38.6227382  51.9780007
  14.4283429  32.0682886  49.3494649  13.5667908  32.3664140  49.6411387
  14.4545864  32.2853285  48.4175682  11.2444999  40.6125077  45.7568455
  11.7083344  40.8912779  44.9673078  10.9801797  39.7108521  45.5741546
   8.1369080  40.1596558  48.6948218   8.7070437  40.5883826  48.0565703
   8.7277192  39.8779143  49.3932404  10.1813885  36.7348229  42.5658020
  10.8837928  37.1869273  43.0331947   9.8494513  36.0932048  43.1937913
   8.6294246  35.3259986  56.9409230   7.9992907  36.0076266  57.1744626
   8.5230334  35.2143067  55.9962368   3.9239219  34.9931782  47.8675154
   3.1338273  35.2489310  47.3915264   4.4150466  35.8080119  47.9727194
  17.9403028  42.3337021  50.6180435  18.7620472  41.9317208  50.3363116
  17.9365431  42.2305255  51.5696550   5.8753964  35.3576361  44.8258630
   5.0785127  35.4695055  45.3442126   5.6479556  35.6963013  43.9599521
  11.7059632  41.8821064  52.7741145  11.7704064  42.3441471  53.6099317
  10.9970556  41.2518429  52.9023455   2.2076922  35.2462272  50.2990145
   2.4584960  36.1309282  50.5647720   2.7436470  35.0666874  49.5265236
  26.0309021  38.6775769  46.9665406  25.2772730  38.1083167  46.8109410
  26.1656563  38.6438434  47.9136041  11.4207649  43.5489172  42.6420125
  11.2853324  44.3940707  43.0704973  11.9617462  43.7508449  41.8786059
   7.9074989  29.6280751  59.3034481   7.5141935  29.0746950  59.9782125
   8.7241129  29.9391330  59.6940998   4.8737047  41.0664610  43.2148050
   5.3861567  41.8607860  43.3653615   5.5259760  40.3690900  43.1481652
   6.6831932  44.1830366  45.2970804   6.8598560  45.1048331  45.1091788
   7.4788765  43.8688785  45.7265183  10.8242950  31.0438630  56.8954737
  11.5652663  31.6445784  56.8159200  11.0560873  30.3016268  56.3372780
   5.9684288  36.2294998  55.1732967   5.8537803  35.3280255  55.4740066
   5.1128806  36.4758694  54.8217783  13.0476126  44.1712738  56.7720467
  12.6039980  43.3849117  56.4541372  13.7093339  44.3591889  56.1064358
   7.8063247  45.7008540  51.2981146   8.3570672  45.5725603  50.5258140
   6.9674723  46.0003429  50.9476039  15.1457364  44.4515538  54.8001869
  15.1275839  45.2724419  54.3082138  16.0677284  44.3269613  55.0252010
  11.6030418  41.9659667  55.6425377  12.1358755  41.2047956  55.4124685
  11.0744499  41.6733319  56.3849532  14.7700113  27.0719733  51.1719019
  14.4264382  27.9621375  51.0958129  15.1379076  26.8821391  50.3088604
   2.8385964  39.3953264  43.9907621   3.6761186  39.8050272  43.7741329
   3.0164231  38.4552706  43.9607815  14.7350396  37.0628344  39.6791454
  14.2197019  37.8332949  39.9179841  14.4627704  36.3893481  40.3024515
  12.3197507  31.9078045  44.7376692  11.4639103  31.5184896  44.5582331
  12.7324459  31.9870006  43.8776478  13.8496653  29.4424389  49.1368252
  13.3461449  29.4054524  48.3236057  14.1427260  30.3517131  49.1964909
  10.0939539  29.5263118  48.1434434  10.9592536  29.3305927  47.7840323
  10.1617048  29.2973470  49.0703791  19.7084670  39.8160699  41.6144627
  18.9314113  39.4771859  41.1699790  20.3876151  39.8213322  40.9399592
  14.5236699  34.9355437  41.5051235  14.2186835  35.2501586  42.3561378
  15.4767141  35.0136856  41.5478568  12.9683131  41.0945660  43.1544189
  12.4404492  40.3598419  42.8417427  12.4670634  41.8720336  42.9084157
  17.9475977  39.2894680  48.2711235  17.2899651  39.9793942  48.3591364
  18.7516376  39.6791112  48.6145222   7.7001858  31.7565326  45.5150801
   8.2745610  31.5340508  44.7823994   8.2872841  31.8254021  46.2679402
  16.7581436  37.6439053  46.3215177  17.2713317  38.2769045  46.8236887
  17.4082660  37.0440249  45.9558537   8.0271446  33.7869787  39.5346686
   7.1908758  34.1244474  39.8555961   7.8876215  33.6518767  38.5973823
  10.0024526  28.6306575  44.2425870   9.3488938  28.3155592  43.6182485
   9.9605000  28.0082316  44.9685693  11.1135731  38.9125870  36.1579162
  10.2062793  38.6815124  36.3570311  11.6106763  38.1163489  36.3453144
  14.0203810  47.6223377  39.0775848  13.3465509  47.9255074  39.6860806
  14.4069632  48.4252458  38.7281305  13.2362266  35.1188509  48.5673518
  12.3184828  35.3403456  48.4095206  13.6522410  35.1934819  47.7085225
  14.0197314  36.5179924  43.6976198  14.7669133  37.0301322  43.3883320
  14.2888904  36.1963977  44.5580592  12.2923964  39.0138465  40.6803152
  11.3835184  38.7297498  40.7775622  12.3219048  39.4337544  39.8206459
  17.5243232  42.6245055  44.4494320  17.0705559  41.7835964  44.5059510
  16.8937199  43.2606453  44.7869100  16.4676151  33.5537041  45.6794987
  15.7298908  33.0414427  46.0105230  16.7202925  33.1137422  44.8678264
  15.9676171  44.4621551  45.3844138  16.2599145  45.0226608  44.6656504
  16.4774792  44.7550112  46.1397297  16.5687779  26.3313293  46.2736757
  16.8746656  25.4710656  45.9862672  17.2940384  26.9230913  46.0735750
   2.8612135  36.7343979  44.6618354   2.6636535  36.1413340  43.9369421
   2.3058799  36.4296189  45.3794293  10.8408858  36.6267086  46.7812948
  10.8957468  35.6740922  46.7055424  10.0300060  36.7826525  47.2654246
  11.9900052  40.5547209  38.0191231  11.5519482  39.8383068  37.5596868
  12.7310493  40.7823324  37.4576322   8.7801218  35.2444145  44.5403326
   7.9669084  35.5438316  44.9468519   9.2760213  34.8499834  45.2577809
  10.9309796  45.2401902  46.4737591  10.8885975  45.4662749  45.5446123
  11.8472495  45.0065277  46.6223392  14.3775430  35.7085970  53.3718220
  14.7324818  35.9357443  54.2312686  15.0247561  36.0404347  52.7495476
  20.1073167  38.8304406  44.0767549  19.9691066  39.0206002  43.1488739
  19.7509386  39.5923789  44.5335601   8.2715293  32.8162501  50.1564561
   8.9114672  32.6751260  49.4587525   7.4392824  32.5297014  49.7803163
  20.1342547  40.8980933  49.0878821  20.5679053  40.8056222  49.9361875
  20.8474127  40.8738433  48.4498837   9.0475597  42.1164931  46.2699554
   9.8416196  41.6215251  46.0682129   8.3367289  41.5882794  45.9067259
  13.8670442  44.4983027  50.6211921  13.9207464  45.0673963  51.3889637
  12.9985223  44.6684912  50.2565959   5.3558361  36.2608013  42.3459307
   4.4255949  36.1992469  42.5629269   5.4515833  35.7383966  41.5495948
   5.2743910  32.7862826  44.9337548   5.5350727  33.7008159  44.8246709
   6.0961082  32.3187268  45.0834161   6.7468835  34.2000583  52.1036373
   7.4191888  33.9917945  51.4549022   5.9198621  34.0022669  51.6641605
  20.9958096  40.9404633  51.6211706  21.1893986  41.8450444  51.8670981
  20.8958714  40.4812052  52.4550291  12.6494407  30.8262524  54.1202034
  12.0022322  31.5252474  54.0266510  13.4195422  31.2598668  54.4878282
  16.0573205  41.0911376  57.1952587  15.9058711  40.8621928  56.2782671
  16.0477884  42.0481978  57.2083932  12.8258541  38.6643289  52.1798853
  13.7550601  38.8154449  52.0067821  12.4049571  38.7527310  51.3247500
  11.6246873  42.6893953  49.9497391  11.4857959  42.3212738  50.8223329
  10.8361469  43.2041593  49.7781349  12.2195025  47.7903050  41.2922927
  12.3946781  47.3191093  42.1068550  11.5327813  48.4168816  41.5204188
  13.1752088  42.0675556  47.3386229  12.8401921  42.0276326  48.2343879
  12.6756034  41.4020272  46.8656639   7.1496332  37.4743186  52.8638810
   7.0116130  36.7423425  53.4650349   8.0601256  37.3852086  52.5822998
  16.1111280  39.4131590  37.6123288  15.4940450  38.6878419  37.5156341
  15.6427768  40.1740951  37.2690363   9.7778633  37.1863145  52.3522490
  10.4878251  36.5456338  52.3109108   9.7347941  37.4376040  53.2748670
  17.7665411  44.1230499  55.2729069  17.7077958  43.4389719  54.6059652
  18.1684930  44.8649489  54.8209695   8.4907567  34.1728363  54.1718129
   7.9544924  33.7219102  54.8239725   7.9024275  34.3074272  53.4288593
   6.7856110  50.9392413  48.0662788   7.0252709  51.5710937  48.7441806
   5.9425307  50.5880453  48.3528147   7.9009826  33.6317015  36.7344593
   7.0239292  33.5105815  36.3706839   8.3767579  32.8403093  36.4823481
  17.7682819  42.0870083  53.5043048  16.8809598  41.7496004  53.6269447
  18.3381370  41.3553114  53.7411814   4.2246688  33.3084371  51.2571124
   4.1404877  32.7010040  50.5221533   3.4029394  33.7993389  51.2580620
  11.2983972  46.7471535  50.4704292  11.2254144  47.5526506  50.9823596
  10.8561365  46.9463501  49.6452313  11.0873752  45.9843305  43.9807113
  10.3041274  46.5264985  44.0745338  11.7866497  46.5017285  44.3801354
  14.3970402  31.7937934  46.6241319  14.8939101  31.0407897  46.3042389
  13.6257383  31.8302251  46.0584528  22.2500159  37.4978300  48.2659610
  22.2390036  38.3803015  47.8953543  21.3817539  37.1449851  48.0714147
  13.7582656  46.6458369  52.6262450  14.4710628  47.2805834  52.5538352
  13.2672684  46.7422235  51.8102452  15.4800183  40.5509622  44.1979742
  14.5456461  40.6711084  44.0284446  15.6576851  39.6482088  43.9339752
  10.9805371  33.9355317  46.3513003  10.6103158  33.3826358  47.0393909
  11.4764463  33.3313451  45.7988003  18.8672734  36.3926941  44.7329776
  19.3333186  37.2254933  44.6590079  19.3180234  35.9271923  45.4375035
   8.8094569  44.3952812  53.4468021   9.5104029  45.0289295  53.5997415
   8.3389684  44.7367544  52.6863660  16.9348965  42.7370762  41.7315928
  17.2108809  42.6227357  42.6409802  16.0653464  42.3388247  41.6928101
  16.8389397  28.7607528  48.7720677  15.9252476  28.9911755  48.9402884
  17.2682498  28.8445972  49.6234710  16.6095855  36.9497420  51.2720571
  15.9567305  37.1973327  50.6173024  16.9876235  36.1361558  50.9383049
  13.5703029  46.9857113  45.3748742  13.7525424  46.1678769  45.8376494
  14.3936015  47.2024805  44.9373632  13.9045195  45.9125298  42.6363790
  14.4332961  45.4017753  42.0233952  14.1673414  45.5967828  43.5009323
  12.6583428  37.6917231  57.7586609  11.9824065  37.5911360  58.4288984
  13.4811062  37.5356445  58.2222606   4.4062287  43.9289168  50.3799124
   4.9915724  43.1832855  50.5127028   4.2087126  44.2393124  51.2635788
   7.2600942  46.9640415  45.3961566   6.5911318  47.4486543  44.9125606
   7.1213812  47.2109635  46.3104945  11.4006211  48.9984158  51.9944225
  11.9524519  49.1615780  52.7593310  11.7412405  49.5888596  51.3224249
   6.3770704  31.3459308  52.5966109   6.4412031  32.2074139  52.1843507
   6.3137825  30.7333310  51.8638468   5.8522977  33.4182441  56.2439144
   6.4795016  33.0359518  56.8576668   4.9950896  33.1996643  56.6094836
  16.2517085  43.8245416  57.8492879  16.7956989  44.4375374  57.3547834
  15.6703930  44.3824994  58.3659892   2.6288520  35.2258870  42.1757498
   2.9241961  34.3169548  42.1224552   1.7276555  35.2046609  41.8538501
  14.5374598  46.9466134  48.9807907  14.4125738  46.1455874  48.4718852
  15.1953689  47.4412327  48.4921877   6.1582767  33.3014866  48.1585047
   5.4369352  33.9150834  48.0192520   6.9476022  33.8372631  48.0801693
  16.6009507  44.7475154  50.6087457  15.6539842  44.6280505  50.5365784
  16.9492280  43.8597652  50.6913718   8.9609080  30.6369293  54.4325699
   9.4843482  30.8831590  55.1952008   8.7421413  31.4689328  54.0128836
   4.3576361  32.9072968  42.2996824   4.0289067  32.0270346  42.1171929
   4.7115732  32.8520636  43.1873213  13.6055940  44.5427870  46.8091809
  13.4580902  43.6144578  46.9899379  14.4309434  44.5647961  46.3248884
   7.4718184  33.1945937  42.6672301   7.8114257  33.7231859  41.9450910
   7.9190305  33.5326343  43.4430868  17.2090062  45.3656429  47.8956682
  18.1336609  45.1599290  47.7581133  17.0405365  45.1172830  48.8046023
  10.1661625  31.5782988  52.1175369   9.8258446  30.7790801  52.5196049
   9.4600631  31.8784699  51.5452202  10.8178097  28.6632300  50.5702692
  11.6404166  28.1892779  50.4481583  11.0616161  29.4422784  51.0701379
   9.4586331  31.6920559  40.8665594  10.1794694  32.0701812  40.3629311
   8.8351636  32.4109436  40.9700572  13.6017454  32.3965708  41.8023926
  13.8181069  33.2790346  41.5012754  13.1211522  32.0051921  41.0729568
   8.3416676  35.3551421  48.3794671   8.1961256  35.6691724  49.2718952
   7.8641879  35.9736321  47.8265570  10.2013059  32.3453969  48.4275560
  10.1874627  31.4495062  48.0907858  10.9185487  32.3524633  49.0613846
  12.0539189  32.7791309  50.4728688  11.7956967  33.7008380  50.4713018
  11.5224230  32.3821744  51.1629152  16.9985378  45.8842096  43.2518773
  17.1722256  45.3188519  42.4992626  17.4914269  46.6842991  43.0698263
   2.8162338  37.8956766  51.3182332   2.2715806  38.6716573  51.4502606
   3.6941688  38.2427570  51.1601453   9.6049955  31.2268349  43.6963131
   9.7265866  30.2984996  43.8954018   9.3151997  31.2407035  42.7841446
  12.4741145  28.9123260  46.8329850  12.4962842  28.9762593  45.8781830
  12.8909204  28.0727768  47.0270357  22.8524769  38.6478519  44.8709073
  23.2955915  37.8985845  44.4728196  21.9751280  38.6388656  44.4882805
  17.9860551  45.2008861  40.3515672  18.6811455  45.8215554  40.5702986
  18.3283701  44.3504212  40.6268049   3.6028360  37.0226662  54.2112489
   2.8610096  37.1709297  54.7977119   3.2821104  37.2834927  53.3479238
  19.8851974  42.6508566  41.8803002  20.4103298  42.9895839  41.1552322
  19.7974326  41.7155582  41.6966137  11.5472022  46.5642640  54.0092879
  11.8559149  46.3191787  54.8815579  12.3447504  46.7689278  53.5211749
  11.5692634  48.7180550  46.2398255  11.1297625  48.2256928  46.9331112
  12.3200751  48.1753517  45.9990331   4.0484973  44.9092091  46.2422884
   4.8742993  44.6095862  45.8621527   3.6979025  44.1399713  46.6912672
   9.0166507  44.2618559  48.3120557   8.3946516  43.5989264  48.0122785
   9.6871374  44.2879691  47.6294205   2.2493578  42.8278417  47.2011817
   1.4125487  42.4000591  47.0195818   2.2217224  43.0210860  48.1382608
   9.0891034  32.7400347  57.9053063   9.1379190  33.6162470  57.5230833
   9.6313548  32.1977740  57.3324706  19.5745880  43.2841470  57.1854200
  18.7841423  43.2665609  56.6458700  19.3379234  43.8229764  57.9403237
  19.6943755  40.1333936  54.4986929  19.7441760  39.9683944  55.4402452
  19.5857678  39.2661195  54.1084810   8.5780014  42.8122482  41.7879018
   8.7268134  43.4957946  41.1345690   9.3846457  42.7927572  42.3028473
  16.9847517  36.1164864  55.8146235  17.8857380  35.9771329  55.5230233
  17.0595492  36.2819319  56.7544413  11.3190323  33.4931719  54.6599422
  10.4493632  33.7865285  54.3882010  11.5549803  34.0772164  55.3806685
  21.1961952  42.5530878  54.7428950  20.9046760  42.9160858  55.5792411
  20.5834083  41.8397886  54.5642282  22.3957634  40.1183758  47.2631521
  23.2304525  40.5573562  47.4269081  22.5316763  39.6422411  46.4439766
  19.4449140  37.6763493  53.2109008  19.9203261  37.8691139  52.4027860
  18.5214705  37.7322678  52.9652392   6.3332646  38.8387660  42.7940087
   6.0878688  37.9349990  42.9920297   6.5028561  38.8404810  41.8519565
  14.0229356  29.7111336  52.1764842  14.5411300  30.4472363  51.8511331
  13.6684489  30.0175329  53.0111601   5.6028294  34.5716017  40.2926248
   4.9097539  34.6460372  39.6366284   5.3580046  33.8076361  40.8147765
  14.2741951  26.1311619  47.6965739  14.5543704  25.4634808  48.3226165
  15.0592557  26.3240714  47.1840403  12.0775419  45.3070613  39.2590765
  11.5049386  45.9260800  38.8061237  12.6508213  45.8569974  39.7930687
  18.1450809  34.5529253  51.4437314  19.0968232  34.6527350  51.4649538
  17.9754259  33.7607521  51.9535398  16.1665188  31.6384836  51.6296715
  15.5715120  31.9189849  50.9343203  15.8814885  32.1278737  52.4013456
  15.2972679  45.5907763  40.3899347  16.2303352  45.5253324  40.5932223
  15.2095892  46.4264030  39.9313880  17.9260695  44.9073633  37.3503295
  17.8474327  44.5733497  38.2439053  18.7470362  45.3995401  37.3494767
  20.6238887  37.7735372  50.5579614  20.5915207  36.8351373  50.7439297
  21.2339510  37.8519409  49.8245438  12.4622218  36.6431425  36.6006818
  13.4081322  36.5137633  36.6695236  12.0836462  35.9046087  37.0776246
  20.7733375  34.5646416  50.6037897  20.2572424  33.7804872  50.4167826
  21.6573324  34.2365132  50.7684416  18.4344102  28.3087431  46.5633709
  18.2368923  28.0002520  47.4477041  19.0443808  29.0349070  46.6931639
  26.4415437  38.8351379  49.6985650  27.1718825  38.5736667  50.2593354
  25.8322382  38.0980101  49.7387718  24.5230734  36.9759242  50.2960102
  23.7963897  36.8415207  49.6876593  24.1078021  37.2836070  51.1016820
  12.3460910  40.6949171  58.0607475  13.2663920  40.8727770  58.2547521
  12.3110493  39.7505217  57.9087174  10.6465135  34.5681402  36.5361703
   9.7396590  34.2714514  36.6124416  10.9241116  34.2711220  35.6695989
   1.5643075  35.8887765  46.9860749   1.2445859  35.0353073  46.6935123
   1.0176503  36.1036343  47.7418717   5.3422983  38.6050206  50.7030256
   5.5608992  39.5367314  50.7218290   5.7548756  38.2458180  51.4885060
  12.2627200  29.1118291  42.6905944  11.4527929  28.7665376  43.0661190
  12.9511617  28.8025835  43.2793556  14.1917749  28.1896338  44.3130241
  14.7448787  28.6091792  44.9720264  14.4287835  27.2632086  44.3553197
  10.2150848  34.1783412  60.0933005  10.1147575  35.1277769  60.0245096
   9.9972390  33.8501651  59.2209075   9.4163919  31.4268337  36.6773682
  10.2783083  31.7523235  36.9369499   9.6014263  30.6399833  36.1646748
   1.4331335  39.5090677  48.9553871   0.7394807  39.0944629  48.4423825
   2.1804326  39.5511213  48.3587290  17.5696556  30.2996863  43.8208905
  16.9895225  30.9581667  43.4386957  17.3032488  29.4774208  43.4096323
  16.0200122  29.7001921  46.0230225  16.5199901  29.8118456  45.2144544
  16.6635730  29.3962974  46.6631034  10.0782118  37.6080551  58.9098066
   9.5949200  38.4080911  59.1161955  10.1643057  37.6188496  57.9565510
   3.3468078  39.4408930  46.8319886   3.3238766  39.5396618  45.8801769
   3.6568714  40.2874081  47.1537052   6.0055455  41.4985085  50.9466500
   6.9598709  41.4669028  50.8796432   5.8067979  41.0375709  51.7616726
   6.5954838  40.0686201  53.5137298   7.4147727  40.5630280  53.5372135
   6.8691645  39.1518170  53.4854865  16.3521434  32.4596954  42.8765253
  15.4647289  32.7446604  42.6585448  16.7675423  32.2990717  42.0292530
  19.7035970  32.4843475  46.5919593  20.4796360  32.9739927  46.8644209
  18.9784104  32.9101529  47.0491462  22.1408529  33.1971094  47.6493533
  22.7353019  32.9566830  46.9386841  22.2135112  32.4778225  48.2767069
   4.3605684  47.0404705  47.9636698   4.2260152  46.2805106  47.3974696
   3.9437747  47.7645605  47.4965487  15.4964647  42.2241628  36.9713273
  16.2000497  42.4291631  37.5870929  14.7727296  42.7918390  37.2362357
  16.3262458  37.9751490  43.0915543  16.2697659  38.4320041  42.2523176
  16.8790800  37.2142174  42.9138386  20.1367263  33.7641222  43.9165663
  19.8804198  33.3637857  44.7473871  19.5120132  34.4785015  43.7915802
  24.4479601  36.5037295  46.4236954  23.8879159  36.5730484  47.1968516
  23.8423105  36.3278279  45.7036451   7.5174810  47.9374022  48.1755141
   7.4007194  48.8819454  48.0733831   6.6967256  47.6347583  48.5640940
  17.4051345  42.6624158  39.0211733  18.2396949  42.2305356  38.8389208
  17.2435688  42.4906171  39.9488628  17.0597237  39.1656271  40.3868073
  17.0046041  39.0000542  39.4456517  16.4343292  39.8732304  40.5430262
   1.8489752  34.4024335  54.2129495   2.4948615  33.8923289  54.7016720
   1.6406903  35.1393017  54.7872920  14.3743144  41.4705183  59.7121635
  15.2434304  41.6445835  59.3508270  13.8949896  42.2899600  59.5897365
  10.3693362  28.6664380  39.9653391  10.3572032  29.6106220  40.1221662
  11.2616784  28.4834525  39.6712852   8.5429324  48.5902284  51.3911069
   9.4456571  48.6225894  51.7077564   8.3166694  47.6602735  51.4057405
  10.2982926  47.3433270  48.0521148   9.3478557  47.3435132  47.9385520
  10.6015412  46.5966005  47.5357182  14.1845482  25.2607157  44.2199328
  13.4177878  24.7065643  44.3656010  14.5956187  25.3329025  45.0813479
   6.1887243  31.5491952  58.3104509   7.0518704  31.1928757  58.5207834
   5.6152654  31.2105847  58.9979913  26.0335620  53.1793809  49.1166910
  26.6714030  53.0600556  48.4130250  25.9156463  54.1274653  49.1754862
  22.8425326  53.1321237  49.0528435  22.5043838  53.0162302  48.1648970
  23.7115094  52.7312402  49.0329441  18.7012142  54.9856713  45.0425326
  18.1377007  54.8946650  44.2741613  18.5864537  54.1656618  45.5227818
  23.3245109  54.2856089  55.0114640  23.3133750  53.8908887  54.1395144
  23.4865749  53.5522161  55.6048412  16.2476574  56.4807905  47.8809546
  17.0397866  56.1398729  47.4655845  16.4873224  56.5902880  48.8011699
  24.2811700  58.6527681  40.3539791  23.6299680  59.2381761  39.9673804
  25.0756063  59.1833876  40.4134828  18.2067328  55.7416818  40.7526925
  18.9798204  55.1945805  40.6139801  18.5592726  56.6061067  40.9641386
  20.0452370  57.0693200  53.9593824  19.7542236  57.9738831  53.8440491
  20.6809355  57.1109728  54.6737894  20.9708577  54.4470049  50.5495184
  21.5672149  54.2226071  49.8352147  21.0283549  53.7054794  51.1520632
  20.5433605  51.9009484  38.3845375  20.7959126  51.3791005  37.6228838
  19.6058165  51.7375630  38.4872058  25.5876888  50.9045263  46.1920118
  26.3739977  50.4864686  45.8410535  25.8515593  51.8091355  46.3601767
  25.7586966  56.3418113  40.8908775  25.1232799  56.4152739  41.6029680
  25.4284372  56.9311712  40.2127854  30.9885315  50.8420496  47.0953097
  31.7210487  50.2719713  47.3290926  30.2324671  50.4542096  47.5359602
  20.2629894  53.8037590  40.5869750  20.1466152  53.1282494  41.2550834
  20.3732154  53.3169964  39.7701903  22.6061435  53.2647737  44.2916439
  22.2419642  52.7378358  45.0029361  23.4628551  52.8746206  44.1182924
  28.5110736  44.5542070  51.5547705  28.1794061  45.4237481  51.3308920
  27.9156349  44.2378354  52.2341736  22.2466922  48.2937637  39.2877788
  22.4141324  49.1617873  39.6548259  22.0564091  48.4564919  38.3639077
  25.0042255  56.7554616  50.9543618  24.7042978  57.6579655  50.8459425
  24.6593315  56.4886799  51.8064771  18.4554737  53.2068413  46.9880322
  17.5305233  53.0744627  47.1958014  18.7039150  53.9862632  47.4850265
  28.4039399  49.2737156  48.6341055  27.4956276  49.2052564  48.3399816
  28.3526995  49.7509101  49.4622881  22.2256143  50.7495294  40.2724454
  22.1055768  51.1952345  41.1109935  21.5308731  51.0980612  39.7137993
  15.8163548  52.8501686  47.8224111  15.9455929  53.1036165  48.7363523
  15.1360999  53.4429394  47.5028767  19.9863035  63.5198936  43.9214586
  19.9087065  64.4706761  44.0003066  19.3824679  63.1744809  44.5789512
  22.4780265  50.6926802  56.5775953  21.7013599  51.2520722  56.5678817
  23.1170828  51.1783585  57.0990823  30.2701045  47.4753594  50.4118929
  29.6275426  47.7686128  49.7658724  29.7655974  47.3606515  51.2172126
  27.9241209  51.2216768  41.1004788  28.8359065  51.4544154  40.9252486
  27.4150856  51.8053812  40.5379867  20.7326637  53.5012255  56.1393920
  21.4741322  54.0397299  55.8628743  20.0263623  54.1278544  56.2965471
  26.2081977  55.6441395  54.7366081  26.6165333  55.2023806  53.9920713
  25.4859238  55.0694023  54.9900274  22.5613047  50.5814002  52.1099638
  23.4074242  51.0053416  52.2534287  22.5011685  49.9247627  52.8038201
  26.5310791  56.2042586  48.4918370  25.9019654  56.3688300  47.7894438
  26.1436454  56.6184196  49.2629334  25.7112492  48.2418371  53.7680812
  25.4673424  48.9960431  53.2315087  25.9872423  48.6203718  54.6028059
  27.6650955  54.7856983  52.4458077  27.8767850  55.4288743  51.7692458
  27.6180703  53.9519300  51.9780007  25.2677184  47.3974804  49.3494649
  24.4061663  47.6956057  49.6411387  25.2939619  47.6145203  48.4175682
  22.0838753  55.9416994  45.7568455  22.5477099  56.2204697  44.9673078
  21.8195551  55.0400439  45.5741546  18.9762834  55.4888476  48.6948218
  19.5464191  55.9175744  48.0565703  19.5670946  55.2071060  49.3932404
  21.0207639  52.0640147  42.5658020  21.7231683  52.5161190  43.0331947
  20.6888268  51.4223965  43.1937913  19.4688001  50.6551903  56.9409230
  18.8386661  51.3368184  57.1744626  19.3624089  50.5434985  55.9962368
  14.7632973  50.3223699  47.8675154  13.9732027  50.5781228  47.3915264
  15.2544221  51.1372037  47.9727194  28.7796783  57.6628938  50.6180435
  29.6014227  57.2609126  50.3363116  28.7759186  57.5597173  51.5696550
  16.7147719  50.6868278  44.8258630  15.9178882  50.7986973  45.3442126
  16.4873311  51.0254931  43.9599521  22.5453386  57.2112982  52.7741145
  22.6097819  57.6733389  53.6099317  21.8364310  56.5810347  52.9023455
  13.0470676  50.5754190  50.2990145  13.2978715  51.4601200  50.5647720
  13.5830225  50.3958791  49.5265236  22.2601404  58.8781089  42.6420125
  22.1247079  59.7232625  43.0704973  22.8011216  59.0800367  41.8786059
  18.7468744  44.9572669  59.3034481  18.3535689  44.4038868  59.9782125
  19.5634884  45.2683248  59.6940998  15.7130801  56.3956527  43.2148050
  16.2255322  57.1899777  43.3653615  16.3653514  55.6982818  43.1481652
  17.5225686  59.5122283  45.2970804  17.6992314  60.4340248  45.1091788
  18.3182520  59.1980703  45.7265183  21.6636705  46.3730548  56.8954737
  22.4046418  46.9737701  56.8159200  21.8954627  45.6308186  56.3372780
  16.8078043  51.5586915  55.1732967  16.6931558  50.6572173  55.4740066
  15.9522560  51.8050612  54.8217783  23.8869880  59.5004656  56.7720467
  23.4433735  58.7141034  56.4541372  24.5487094  59.6883806  56.1064358
  18.6457002  61.0300457  51.2981146  19.1964427  60.9017521  50.5258140
  17.8068477  61.3295346  50.9476039  25.9851118  59.7807456  54.8001869
  25.9669594  60.6016337  54.3082138  26.9071038  59.6561531  55.0252010
  22.4424173  57.2951585  55.6425377  22.9752509  56.5339873  55.4124685
  21.9138254  57.0025237  56.3849532  25.6093868  42.4011651  51.1719019
  25.2658137  43.2913293  51.0958129  25.9772830  42.2113309  50.3088604
  13.6779718  54.7245182  43.9907621  14.5154940  55.1342190  43.7741329
  13.8557986  53.7844624  43.9607815  25.5744150  52.3920262  39.6791454
  25.0590774  53.1624867  39.9179841  25.3021459  51.7185398  40.3024515
  23.1591261  47.2369963  44.7376692  22.3032858  46.8476813  44.5582331
  23.5718213  47.3161924  43.8776478  24.6890408  44.7716306  49.1368252
  24.1855204  44.7346441  48.3236057  24.9821015  45.6809049  49.1964909
  20.9333294  44.8555036  48.1434434  21.7986291  44.6597845  47.7840323
  21.0010803  44.6265388  49.0703791  30.5478424  55.1452617  41.6144627
  29.7707867  54.8063776  41.1699790  31.2269905  55.1505240  40.9399592
  25.3630453  50.2647354  41.5051235  25.0580589  50.5793503  42.3561378
  26.3160896  50.3428774  41.5478568  23.8076885  56.4237578  43.1544189
  23.2798247  55.6890337  42.8417427  23.3064388  57.2012254  42.9084157
  28.7869731  54.6186598  48.2711235  28.1293406  55.3085859  48.3591364
  29.5910131  55.0083030  48.6145222  18.5395613  47.0857244  45.5150801
  19.1139365  46.8632425  44.7823994  19.1266595  47.1545938  46.2679402
  27.5975190  52.9730971  46.3215177  28.1107072  53.6060963  46.8236887
  28.2476414  52.3732166  45.9558537  18.8665200  49.1161705  39.5346686
  18.0302512  49.4536391  39.8555961  18.7269970  48.9810685  38.5973823
  20.8418281  43.9598493  44.2425870  20.1882693  43.6447510  43.6182485
  20.7998755  43.3374233  44.9685693  21.9529485  54.2417788  36.1579162
  21.0456547  54.0107041  36.3570311  22.4500517  53.4455407  36.3453144
  24.8597564  62.9515295  39.0775848  24.1859263  63.2546992  39.6860806
  25.2463386  63.7544375  38.7281305  24.0756021  50.4480426  48.5673518
  23.1578582  50.6695373  48.4095206  24.4916165  50.5226737  47.7085225
  24.8591069  51.8471842  43.6976198  25.6062888  52.3593239  43.3883320
  25.1282658  51.5255895  44.5580592  23.1317719  54.3430383  40.6803152
  22.2228938  54.0589416  40.7775622  23.1612803  54.7629461  39.8206459
  28.3636986  57.9536972  44.4494320  27.9099313  57.1127882  44.5059510
  27.7330953  58.5898371  44.7869100  27.3069906  48.8828958  45.6794987
  26.5692663  48.3706344  46.0105230  27.5596679  48.4429340  44.8678264
  26.8069926  59.7913469  45.3844138  27.0992900  60.3518526  44.6656504
  27.3168546  60.0842030  46.1397297  27.4081533  41.6605210  46.2736757
  27.7140410  40.8002574  45.9862672  28.1334138  42.2522830  46.0735750
  13.7005889  52.0635897  44.6618354  13.5030289  51.4705258  43.9369421
  13.1452553  51.7588107  45.3794293  21.6802613  51.9559003  46.7812948
  21.7351223  51.0032840  46.7055424  20.8693815  52.1118442  47.2654246
  22.8293807  55.8839126  38.0191231  22.3913237  55.1674985  37.5596868
  23.5704248  56.1115241  37.4576322  19.6194973  50.5736063  44.5403326
  18.8062838  50.8730234  44.9468519  20.1153967  50.1791752  45.2577809
  21.7703551  60.5693820  46.4737591  21.7279730  60.7954666  45.5446123
  22.6866250  60.3357195  46.6223392  25.2169185  51.0377888  53.3718220
  25.5718572  51.2649361  54.2312686  25.8641316  51.3696264  52.7495476
  30.9466921  54.1596323  44.0767549  30.8084820  54.3497919  43.1488739
  30.5903140  54.9215706  44.5335601  19.1109048  48.1454419  50.1564561
  19.7508427  48.0043178  49.4587525  18.2786578  47.8588932  49.7803163
  30.9736301  56.2272850  49.0878821  31.4072808  56.1348140  49.9361875
  31.6867882  56.2030351  48.4498837  19.8869352  57.4456849  46.2699554
  20.6809950  56.9507169  46.0682129  19.1761044  56.9174712  45.9067259
  24.7064196  59.8274945  50.6211921  24.7601218  60.3965881  51.3889637
  23.8378977  59.9976830  50.2565959  16.1952115  51.5899931  42.3459307
  15.2649703  51.5284386  42.5629269  16.2909587  51.0675883  41.5495948
  16.1137664  48.1154744  44.9337548  16.3744481  49.0300077  44.8246709
  16.9354836  47.6479186  45.0834161  17.5862589  49.5292501  52.1036373
  18.2585643  49.3209863  51.4549022  16.7592376  49.3314587  51.6641605
  23.4888161  46.1554442  54.1202034  22.8416076  46.8544391  54.0266510
  24.2589177  46.5890586  54.4878282  26.8966959  56.4203294  57.1952587
  26.7452466  56.1913846  56.2782671  26.8871639  57.3773895  57.2083932
  23.6652296  53.9935207  52.1798853  24.5944356  54.1446366  52.0067821
  23.2443326  54.0819227  51.3247500  22.4640628  58.0185871  49.9497391
  22.3251713  57.6504655  50.8223329  21.6755224  58.5333510  49.7781349
  23.0588780  63.1194967  41.2922927  23.2340535  62.6483011  42.1068550
  22.3721568  63.7460734  41.5204188  24.0145843  57.3967474  47.3386229
  23.6795675  57.3568244  48.2343879  23.5149788  56.7312190  46.8656639
  17.9890087  52.8035104  52.8638810  17.8509885  52.0715343  53.4650349
  18.8995010  52.7144004  52.5822998  26.9505034  54.7423508  37.6123288
  26.3334205  54.0170336  37.5156341  26.4821523  55.5032868  37.2690363
  20.6172387  52.5155063  52.3522490  21.3272006  51.8748255  52.3109108
  20.5741695  52.7667958  53.2748670  28.6059166  59.4522416  55.2729069
  28.5471712  58.7681637  54.6059652  29.0078684  60.1941406  54.8209695
  19.3301321  49.5020281  54.1718129  18.7938678  49.0511019  54.8239725
  18.7418030  49.6366190  53.4288593  17.6249865  66.2684330  48.0662788
  17.8646463  66.9002854  48.7441806  16.7819061  65.9172370  48.3528147
  18.7403580  48.9608932  36.7344593  17.8633047  48.8397733  36.3706839
  19.2161333  48.1695011  36.4823481  28.6076573  57.4162000  53.5043048
  27.7203352  57.0787922  53.6269447  29.1775124  56.6845032  53.7411814
  10.2605720  53.7486092  46.8286100  10.9476760  53.4347822  46.2407115
  10.1053849  54.6527457  46.5553351  15.0640443  48.6376289  51.2571124
  14.9798631  48.0301958  50.5221533  14.2423149  49.1285307  51.2580620
  22.1377727  62.0763453  50.4704292  22.0647898  62.8818424  50.9823596
  21.6955120  62.2755418  49.6452313  21.9267506  61.3135223  43.9807113
  21.1435028  61.8556903  44.0745338  22.6260251  61.8309202  44.3801354
  25.2364156  47.1229852  46.6241319  25.7332856  46.3699814  46.3042389
  24.4651138  47.1594169  46.0584528  33.0893914  52.8270218  48.2659610
  33.0783790  53.7094933  47.8953543  32.2211293  52.4741769  48.0714147
  24.5976410  61.9750287  52.6262450  25.3104382  62.6097752  52.5538352
  24.1066439  62.0714153  51.8102452  26.3193937  55.8801539  44.1979742
  25.3850216  56.0003002  44.0284446  26.4970606  54.9774006  43.9339752
  21.8199125  49.2647235  46.3513003  21.4496913  48.7118276  47.0393909
  22.3158218  48.6605369  45.7988003  29.7066488  51.7218859  44.7329776
  30.1726941  52.5546850  44.6590079  30.1573989  51.2563840  45.4375035
  19.6488324  59.7244730  53.4468021  20.3497783  60.3581213  53.5997415
  19.1783439  60.0659462  52.6863660  27.7742720  58.0662680  41.7315928
  28.0502563  57.9519275  42.6409802  26.9047218  57.6680165  41.6928101
  27.6783151  44.0899446  48.7720677  26.7646231  44.3203672  48.9402884
  28.1076253  44.1737890  49.6234710  27.4489610  52.2789338  51.2720571
  26.7961060  52.5265245  50.6173024  27.8269990  51.4653476  50.9383049
  24.4096784  62.3149031  45.3748742  24.5919178  61.4970687  45.8376494
  25.2329770  62.5316723  44.9373632  24.7438949  61.2417216  42.6363790
  25.2726715  60.7309671  42.0233952  25.0067169  60.9259746  43.5009323
  23.4977183  53.0209149  57.7586609  22.8217820  52.9203278  58.4288984
  24.3204817  52.8648362  58.2222606  15.2456042  59.2581085  50.3799124
  15.8309479  58.5124773  50.5127028  15.0480880  59.5685042  51.2635788
  18.0994697  62.2932333  45.3961566  17.4305072  62.7778460  44.9125606
  17.9607567  62.5401553  46.3104945   9.8373697  51.8286685  49.1003567
   9.8757796  51.2950276  49.8940685   9.3313989  51.3021891  48.4814544
  22.2399966  64.3276076  51.9944225  22.7918274  64.4907698  52.7593310
  22.5806159  64.9180514  51.3224249  17.2164459  46.6751226  52.5966109
  17.2805785  47.5366057  52.1843507  17.1531579  46.0625228  51.8638468
  16.6916731  48.7474358  56.2439144  17.3188770  48.3651436  56.8576668
  15.8344650  48.5288560  56.6094836  27.0910840  59.1537334  57.8492879
  27.6350744  59.7667292  57.3547834  26.5097685  59.7116912  58.3659892
  13.4682274  50.5550788  42.1757498  13.7635715  49.6461466  42.1224552
  12.5670310  50.5338527  41.8538501  25.3768353  62.2758052  48.9807907
  25.2519492  61.4747791  48.4718852  26.0347444  62.7704245  48.4921877
  16.9976521  48.6306784  48.1585047  16.2763107  49.2442752  48.0192520
  17.7869777  49.1664549  48.0801693  27.4403261  60.0767072  50.6087457
  26.4933597  59.9572423  50.5365784  27.7886034  59.1889570  50.6913718
  19.8002835  45.9661211  54.4325699  20.3237236  46.2123507  55.1952008
  19.5815168  46.7981245  54.0128836  15.1970116  48.2364885  42.2996824
  14.8682822  47.3562264  42.1171929  15.5509486  48.1812554  43.1873213
  24.4449695  59.8719788  46.8091809  24.2974657  58.9436495  46.9899379
  25.2703188  59.8939879  46.3248884  18.3111939  48.5237855  42.6672301
  18.6508011  49.0523776  41.9450910  18.7584059  48.8618261  43.4430868
  28.0483816  60.6948347  47.8956682  28.9730364  60.4891208  47.7581133
  27.8799120  60.4464748  48.8046023  21.0055380  46.9074906  52.1175369
  20.6652200  46.1082719  52.5196049  20.2994386  47.2076617  51.5452202
  21.6571851  43.9924218  50.5702692  22.4797921  43.5184696  50.4481583
  21.9009915  44.7714702  51.0701379  20.2980086  47.0212477  40.8665594
  21.0188448  47.3993729  40.3629311  19.6745390  47.7401353  40.9700572
  24.4411209  47.7257626  41.8023926  24.6574823  48.6082263  41.5012754
  23.9605276  47.3343839  41.0729568  19.1810430  50.6843339  48.3794671
  19.0355011  50.9983642  49.2718952  18.7035634  51.3028239  47.8265570
  21.0406813  47.6745887  48.4275560  21.0268382  46.7786980  48.0907858
  21.7579241  47.6816551  49.0613846  22.8932944  48.1083227  50.4728688
  22.6350722  49.0300298  50.4713018  22.3617984  47.7113662  51.1629152
  27.8379133  61.2134014  43.2518773  28.0116010  60.6480437  42.4992626
  28.3308024  62.0134909  43.0698263  13.6556092  53.2248683  51.3182332
  13.1109560  54.0008491  51.4502606  14.5335442  53.5719488  51.1601453
  20.4443709  46.5560267  43.6963131  20.5659620  45.6276913  43.8954018
  20.1545751  46.5698953  42.7841446  23.3134899  44.2415178  46.8329850
  23.3356596  44.3054511  45.8781830  23.7302958  43.4019686  47.0270357
  33.6918524  53.9770437  44.8709073  34.1349670  53.2277762  44.4728196
  32.8145034  53.9680573  44.4882805  28.8254305  60.5300779  40.3515672
  29.5205210  61.1507471  40.5702986  29.1677455  59.6796130  40.6268049
  14.4422114  52.3518579  54.2112489  13.7003850  52.5001215  54.7977119
  14.1214859  52.6126845  53.3479238  30.7245728  57.9800484  41.8803002
  31.2497052  58.3187757  41.1552322  30.6368081  57.0447499  41.6966137
  22.3865777  61.8934558  54.0092879  22.6952903  61.6483704  54.8815579
  23.1841259  62.0981196  53.5211749  22.4086389  64.0472467  46.2398255
  21.9691379  63.5548846  46.9331112  23.1594506  63.5045435  45.9990331
  14.8878728  60.2384008  46.2422884  15.7136748  59.9387780  45.8621527
  14.5372780  59.4691631  46.6912672  19.8560261  59.5910476  48.3120557
  19.2340270  58.9281181  48.0122785  20.5265128  59.6171608  47.6294205
  13.0887333  58.1570335  47.2011817  12.2519241  57.7292509  47.0195818
  13.0610978  58.3502778  48.1382608  19.9284789  48.0692264  57.9053063
  19.9772944  48.9454387  57.5230833  20.4707303  47.5269657  57.3324706
  30.4139634  58.6133388  57.1854200  29.6235178  58.5957527  56.6458700
  30.1772989  59.1521681  57.9403237  30.5337509  55.4625854  54.4986929
  30.5835514  55.2975862  55.4402452  30.4251433  54.5953113  54.1084810
  19.4173768  58.1414400  41.7879018  19.5661888  58.8249864  41.1345690
  20.2240211  58.1219490  42.3028473  27.8241272  51.4456782  55.8146235
  28.7251134  51.3063247  55.5230233  27.8989246  51.6111237  56.7544413
  22.1584077  48.8223637  54.6599422  21.2887386  49.1157203  54.3882010
  22.3943557  49.4064082  55.3806685  33.2351388  55.4475675  47.2631521
  34.0698280  55.8865479  47.4269081  33.3710517  54.9714329  46.4439766
  30.2842894  53.0055410  53.2109008  30.7597016  53.1983057  52.4027860
  29.3608460  53.0614596  52.9652392  17.1726401  54.1679577  42.7940087
  16.9272443  53.2641907  42.9920297  17.3422316  54.1696728  41.8519565
  24.8623111  45.0403254  52.1764842  25.3805055  45.7764281  51.8511331
  24.5078244  45.3467247  53.0111601  16.4422049  49.9007935  40.2926248
  15.7491293  49.9752290  39.6366284  16.1973800  49.1368279  40.8147765
  25.1135705  41.4603536  47.6965739  25.3937459  40.7926725  48.3226165
  25.8986312  41.6532632  47.1840403  22.9169174  60.6362530  39.2590765
  22.3443141  61.2552717  38.8061237  23.4901967  61.1861892  39.7930687
  28.9844563  49.8821170  51.4437314  29.9361986  49.9819268  51.4649538
  28.8148014  49.0899439  51.9535398  27.0058943  46.9676754  51.6296715
  26.4108875  47.2481766  50.9343203  26.7208640  47.4570654  52.4013456
  26.1366433  60.9199680  40.3899347  27.0697106  60.8545242  40.5932223
  26.0489646  61.7555947  39.9313880  28.7654450  60.2365551  37.3503295
  28.6868082  59.9025414  38.2439053  29.5864117  60.7287319  37.3494767
  31.4632641  53.1027290  50.5579614  31.4308961  52.1643291  50.7439297
  32.0733265  53.1811327  49.8245438  23.3015972  51.9723343  36.6006818
  24.2475077  51.8429551  36.6695236  22.9230217  51.2338005  37.0776246
  31.6127130  49.8938333  50.6037897  31.0966178  49.1096790  50.4167826
  32.4967078  49.5657050  50.7684416  29.2737857  43.6379349  46.5633709
  29.0762678  43.3294437  47.4477041  29.8837562  44.3640988  46.6931639
  35.3624488  52.3051159  50.2960102  34.6357652  52.1707124  49.6876593
  34.9471775  52.6127988  51.1016820  23.1854665  56.0241089  58.0607475
  24.1057674  56.2019688  58.2547521  23.1504248  55.0797134  57.9087174
  21.4858889  49.8973319  36.5361703  20.5790345  49.6006432  36.6124416
  21.7634870  49.6003137  35.6695989  12.4036830  51.2179683  46.9860749
  12.0839614  50.3644991  46.6935123  11.8570258  51.4328261  47.7418717
  16.1816737  53.9342124  50.7030256  16.4002747  54.8659232  50.7218290
  16.5942511  53.5750098  51.4885060  23.1020955  44.4410209  42.6905944
  22.2921683  44.0957294  43.0661190  23.7905372  44.1317753  43.2793556
  25.0311503  43.5188256  44.3130241  25.5842542  43.9383709  44.9720264
  25.2681590  42.5924004  44.3553197  21.0544602  49.5075330  60.0933005
  20.9541329  50.4569686  60.0245096  20.8366144  49.1793568  59.2209075
  20.2557674  46.7560255  36.6773682  21.1176838  47.0815153  36.9369499
  20.4408018  45.9691750  36.1646748  12.2725090  54.8382594  48.9553871
  11.5788561  54.4236547  48.4423825  13.0198081  54.8803131  48.3587290
  28.4090310  45.6288781  43.8208905  27.8288979  46.2873585  43.4386957
  28.1426243  44.8066126  43.4096323  26.8593877  45.0293839  46.0230225
  27.3593655  45.1410373  45.2144544  27.5029485  44.7254892  46.6631034
  20.9175872  52.9372468  58.9098066  20.4342954  53.7372828  59.1161955
  21.0036812  52.9480413  57.9565510  14.1861832  54.7700848  46.8319886
  14.1632520  54.8688535  45.8801769  14.4962469  55.6165999  47.1537052
  16.8449210  56.8277003  50.9466500  17.7992464  56.7960945  50.8796432
  16.6461734  56.3667627  51.7616726  17.4348592  55.3978119  53.5137298
  18.2541481  55.8922198  53.5372135  17.7085400  54.4810087  53.4854865
  27.1915188  47.7888871  42.8765253  26.3041043  48.0738522  42.6585448
  27.6069177  47.6282635  42.0292530  30.5429724  47.8135392  46.5919593
  31.3190115  48.3031845  46.8644209  29.8177859  48.2393447  47.0491462
  32.9802283  48.5263012  47.6493533  33.5746774  48.2858748  46.9386841
  33.0528867  47.8070142  48.2767069  15.1999439  62.3696623  47.9636698
  15.0653907  61.6097023  47.3974696  14.7831501  63.0937522  47.4965487
  26.3358402  57.5533546  36.9713273  27.0394252  57.7583549  37.5870929
  25.6121051  58.1210308  37.2362357  27.1656212  53.3043407  43.0915543
  27.1091413  53.7611959  42.2523176  27.7184555  52.5434092  42.9138386
  30.9761018  49.0933139  43.9165663  30.7197952  48.6929775  44.7473871
  30.3513886  49.8076933  43.7915802  35.2873356  51.8329212  46.4236954
  34.7272914  51.9022402  47.1968516  34.6816859  51.6570197  45.7036451
  18.3568565  63.2665940  48.1755141  18.2400949  64.2111372  48.0733831
  17.5361011  62.9639501  48.5640940  28.2445099  57.9916075  39.0211733
  29.0790703  57.5597274  38.8389208  28.0829442  57.8198089  39.9488628
  27.8990991  54.4948189  40.3868073  27.8439795  54.3292460  39.4456517
  27.2737047  55.2024222  40.5430262  12.6883506  49.7316253  54.2129495
  13.3342370  49.2215207  54.7016720  12.4800657  50.4684935  54.7872920
  25.2136899  56.7997100  59.7121635  26.0828058  56.9737753  59.3508270
  24.7343650  57.6191517  59.5897365  21.2087117  43.9956298  39.9653391
  21.1965787  44.9398138  40.1221662  22.1010539  43.8126443  39.6712852
  19.3823079  63.9194201  51.3911069  20.2850325  63.9517812  51.7077564
  19.1560449  62.9894652  51.4057405  21.1376681  62.6725188  48.0521148
  20.1872312  62.6727050  47.9385520  21.4409167  61.9257923  47.5357182
  25.0239236  40.5899074  44.2199328  24.2571632  40.0357561  44.3656010
  25.4349941  40.6620943  45.0813479  17.0280997  46.8783870  58.3104509
  17.8912459  46.5220675  58.5207834  16.4546408  46.5397765  58.9979913
  29.5405896  70.3148631  45.0425326  28.9770761  70.2238568  44.2741613
  29.4258291  69.4948535  45.5227818  27.0870328  71.8099823  47.8809546
  27.8791620  71.4690647  47.4655845  27.3266978  71.9194798  48.8011699
  35.1205455  73.9819599  40.3539791  34.4693435  74.5673679  39.9673804
  35.9149818  74.5125794  40.4134828  29.0461082  71.0708736  40.7526925
  29.8191958  70.5237723  40.6139801  29.3986481  71.9352985  40.9641386
  31.3827360  67.2301402  38.3845375  31.6352881  66.7082923  37.6228838
  30.4451919  67.0667547  38.4872058  36.5980720  71.6710031  40.8908775
  35.9626553  71.7444657  41.6029680  36.2678127  72.2603629  40.2127854
  31.1023649  69.1329508  40.5869750  30.9859907  68.4574411  41.2550834
  31.2125909  68.6461882  39.7701903  33.0860677  63.6229555  39.2877788
  33.2535079  64.4909791  39.6548259  32.8957846  63.7856836  38.3639077
  29.2948491  68.5360330  46.9880322  28.3698988  68.4036544  47.1958014
  29.5432904  69.3154550  47.4850265  33.0649897  66.0787212  40.2724454
  32.9449523  66.5244263  41.1109935  32.3702486  66.4272530  39.7137993
  26.6557302  68.1793604  47.8224111  26.7849683  68.4328083  48.7363523
  25.9754754  68.7721312  47.5028767  30.8256790  78.8490854  43.9214586
  30.7480819  79.7998679  44.0003066  30.2218433  78.5036726  44.5789512
  32.9232508  71.2708912  45.7568455  33.3870853  71.5496615  44.9673078
  32.6589306  70.3692356  45.5741546  29.8156589  70.8180393  48.6948218
  30.3857946  71.2467662  48.0565703  30.4064701  70.5362978  49.3932404
  31.8601394  67.3932064  42.5658020  32.5625437  67.8453108  43.0331947
  31.5282022  66.7515883  43.1937913  30.3081755  65.9843821  56.9409230
  29.6780416  66.6660102  57.1744626  30.2017843  65.8726902  55.9962368
  25.6026728  65.6515617  47.8675154  24.8125782  65.9073145  47.3915264
  26.0937975  66.4663955  47.9727194  27.5541473  66.0160196  44.8258630
  26.7572636  66.1278890  45.3442126  27.3267065  66.3546848  43.9599521
  23.8864431  65.9046107  50.2990145  24.1372469  66.7893117  50.5647720
  24.4223979  65.7250709  49.5265236  47.7096530  69.3359605  46.9665406
  46.9560239  68.7667003  46.8109410  47.8444072  69.3022269  47.9136041
  33.0995158  74.2073007  42.6420125  32.9640833  75.0524543  43.0704973
  33.6404971  74.4092284  41.8786059  26.5524556  71.7248445  43.2148050
  27.0649076  72.5191695  43.3653615  27.2047269  71.0274735  43.1481652
  28.3619441  74.8414201  45.2970804  28.5386069  75.7632166  45.1091788
  29.1576274  74.5272620  45.7265183  27.6471797  66.8878833  55.1732967
  27.5325312  65.9864090  55.4740066  26.7916315  67.1342530  54.8217783
  29.4850756  76.3592375  51.2981146  30.0358181  76.2309438  50.5258140
  28.6462232  76.6587264  50.9476039  24.5173473  70.0537099  43.9907621
  25.3548695  70.4634108  43.7741329  24.6951740  69.1136541  43.9607815
  36.4137905  67.7212180  39.6791454  35.8984528  68.4916784  39.9179841
  36.1415213  67.0477316  40.3024515  41.3872179  70.4744534  41.6144627
  40.6101622  70.1355694  41.1699790  42.0663660  70.4797158  40.9399592
  34.6470640  71.7529495  43.1544189  34.1192001  71.0182255  42.8417427
  34.1458143  72.5304172  42.9084157  29.3789367  62.4149162  45.5150801
  29.9533119  62.1924343  44.7823994  29.9660350  62.4837856  46.2679402
  29.7058955  64.4453623  39.5346686  28.8696267  64.7828309  39.8555961
  29.5663724  64.3102602  38.5973823  32.7923240  69.5709706  36.1579162
  31.8850302  69.3398959  36.3570311  33.2894272  68.7747325  36.3453144
  35.6991319  78.2807213  39.0775848  35.0253018  78.5838909  39.6860806
  36.0857141  79.0836293  38.7281305  33.9711473  69.6722300  40.6803152
  33.0622693  69.3881333  40.7775622  34.0006557  70.0921379  39.8206459
  39.2030741  73.2828890  44.4494320  38.7493068  72.4419800  44.5059510
  38.5724708  73.9190288  44.7869100  37.6463680  75.1205387  45.3844138
  37.9386654  75.6810444  44.6656504  38.1562301  75.4133948  46.1397297
  24.5399644  67.3927815  44.6618354  24.3424044  66.7997175  43.9369421
  23.9846308  67.0880025  45.3794293  33.6687561  71.2131044  38.0191231
  33.2306991  70.4966903  37.5596868  34.4098002  71.4407159  37.4576322
  30.4588727  65.9027981  44.5403326  29.6456593  66.2022151  44.9468519
  30.9547722  65.5083670  45.2577809  32.6097305  75.8985738  46.4737591
  32.5673484  76.1246584  45.5446123  33.5260004  75.6649112  46.6223392
  29.9502802  63.4746336  50.1564561  30.5902181  63.3335095  49.4587525
  29.1180333  63.1880850  49.7803163  30.7263106  72.7748767  46.2699554
  31.5203705  72.2799087  46.0682129  30.0154798  72.2466630  45.9067259
  35.5457951  75.1566862  50.6211921  35.5994973  75.7257799  51.3889637
  34.6772732  75.3268747  50.2565959  27.0345869  66.9191848  42.3459307
  26.1043458  66.8576304  42.5629269  27.1303341  66.3967801  41.5495948
  26.9531419  63.4446661  44.9337548  27.2138236  64.3591994  44.8246709
  27.7748591  62.9771104  45.0834161  28.4256344  64.8584418  52.1036373
  29.0979397  64.6501781  51.4549022  27.5986130  64.6606504  51.6641605
  33.3034382  73.3477789  49.9497391  33.1645468  72.9796573  50.8223329
  32.5148978  73.8625428  49.7781349  33.8982534  78.4486885  41.2922927
  34.0734290  77.9774928  42.1068550  33.2115322  79.0752651  41.5204188
  34.8539597  72.7259391  47.3386229  34.5189430  72.6860161  48.2343879
  34.3543543  72.0604107  46.8656639  28.8283841  68.1327021  52.8638810
  28.6903639  67.4007260  53.4650349  29.7388765  68.0435921  52.5822998
  37.7898789  70.0715426  37.6123288  37.1727959  69.3462254  37.5156341
  37.3215277  70.8324786  37.2690363  30.1695076  64.8312199  54.1718129
  29.6332433  64.3802937  54.8239725  29.5811784  64.9658107  53.4288593
  28.4643619  81.5976248  48.0662788  28.7040218  82.2294772  48.7441806
  27.6212816  81.2464288  48.3528147  29.5797335  64.2900850  36.7344593
  28.7026801  64.1689651  36.3706839  30.0555088  63.4986928  36.4823481
  21.0999475  69.0778010  46.8286100  21.7870515  68.7639740  46.2407115
  20.9447604  69.9819374  46.5553351  25.9034197  63.9668206  51.2571124
  25.8192386  63.3593876  50.5221533  25.0816903  64.4577225  51.2580620
  32.9771481  77.4055370  50.4704292  32.9041653  78.2110342  50.9823596
  32.5348874  77.6047336  49.6452313  32.7661261  76.6427140  43.9807113
  31.9828783  77.1848821  44.0745338  33.4654006  77.1601120  44.3801354
  35.4370165  77.3042204  52.6262450  36.1498137  77.9389669  52.5538352
  34.9460193  77.4006070  51.8102452  37.1587692  71.2093457  44.1979742
  36.2243970  71.3294920  44.0284446  37.3364360  70.3065924  43.9339752
  38.6136474  73.3954598  41.7315928  38.8896318  73.2811192  42.6409802
  37.7440973  72.9972082  41.6928101  35.2490538  77.6440948  45.3748742
  35.4312933  76.8262604  45.8376494  36.0723524  77.8608641  44.9373632
  35.5832704  76.5709134  42.6363790  36.1120470  76.0601588  42.0233952
  35.8460923  76.2551664  43.5009323  26.0849796  74.5873003  50.3799124
  26.6703233  73.8416691  50.5127028  25.8874635  74.8976960  51.2635788
  28.9388451  77.6224250  45.3961566  28.2698827  78.1070378  44.9125606
  28.8001321  77.8693471  46.3104945  20.6767451  67.1578603  49.1003567
  20.7151551  66.6242194  49.8940685  20.1707744  66.6313809  48.4814544
  33.0793720  79.6567994  51.9944225  33.6312028  79.8199615  52.7593310
  33.4199914  80.2472432  51.3224249  28.0558213  62.0043144  52.5966109
  28.1199540  62.8657974  52.1843507  27.9925334  61.3917145  51.8638468
  27.5310486  64.0766276  56.2439144  28.1582525  63.6943353  56.8576668
  26.6738405  63.8580478  56.6094836  24.3076029  65.8842705  42.1757498
  24.6029470  64.9753384  42.1224552  23.4064064  65.8630445  41.8538501
  36.2162107  77.6049969  48.9807907  36.0913247  76.8039709  48.4718852
  36.8741198  78.0996163  48.4921877  27.8370276  63.9598702  48.1585047
  27.1156861  64.5734670  48.0192520  28.6263531  64.4956467  48.0801693
  26.0363870  63.5656803  42.2996824  25.7076576  62.6854182  42.1171929
  26.3903241  63.5104472  43.1873213  35.2843449  75.2011706  46.8091809
  35.1368411  74.2728413  46.9899379  36.1096943  75.2231796  46.3248884
  29.1505693  63.8529773  42.6672301  29.4901766  64.3815694  41.9450910
  29.5977814  64.1910179  43.4430868  38.8877571  76.0240264  47.8956682
  39.8124118  75.8183126  47.7581133  38.7192874  75.7756666  48.8046023
  31.1373840  62.3504394  40.8665594  31.8582203  62.7285647  40.3629311
  30.5139145  63.0693271  40.9700572  35.2804963  63.0549543  41.8023926
  35.4968578  63.9374181  41.5012754  34.7999030  62.6635757  41.0729568
  30.0204185  66.0135256  48.3794671  29.8748765  66.3275560  49.2718952
  29.5429388  66.6320157  47.8265570  38.6772887  76.5425932  43.2518773
  38.8509765  75.9772354  42.4992626  39.1701778  77.3426827  43.0698263
  24.4949847  68.5540601  51.3182332  23.9503315  69.3300409  51.4502606
  25.3729197  68.9011405  51.1601453  31.2837464  61.8852185  43.6963131
  31.4053375  60.9568831  43.8954018  30.9939506  61.8990871  42.7841446
  39.6648060  75.8592696  40.3515672  40.3598964  76.4799389  40.5702986
  40.0071210  75.0088047  40.6268049  25.2815869  67.6810497  54.2112489
  24.5397605  67.8293133  54.7977119  24.9608613  67.9418763  53.3479238
  41.5639483  73.3092402  41.8803002  42.0890807  73.6479674  41.1552322
  41.4761835  72.3739417  41.6966137  33.2259531  77.2226475  54.0092879
  33.5346658  76.9775622  54.8815579  34.0235013  77.4273114  53.5211749
  33.2480143  79.3764385  46.2398255  32.8085134  78.8840764  46.9331112
  33.9988260  78.8337353  45.9990331  25.7272482  75.5675926  46.2422884
  26.5530502  75.2679698  45.8621527  25.3766534  74.7983548  46.6912672
  30.6954016  74.9202394  48.3120557  30.0734025  74.2573099  48.0122785
  31.3658882  74.9463526  47.6294205  23.9281087  73.4862252  47.2011817
  23.0912996  73.0584427  47.0195818  23.9004733  73.6794696  48.1382608
  30.2567522  73.4706317  41.7879018  30.4055643  74.1541782  41.1345690
  31.0633966  73.4511408  42.3028473  28.0120155  69.4971495  42.7940087
  27.7666197  68.5933825  42.9920297  28.1816070  69.4988646  41.8519565
  27.2815803  65.2299853  40.2926248  26.5885048  65.3044208  39.6366284
  27.0367555  64.4660196  40.8147765  33.7562928  75.9654448  39.2590765
  33.1836895  76.5844635  38.8061237  34.3295722  76.5153810  39.7930687
  36.9760188  76.2491598  40.3899347  37.9090861  76.1837160  40.5932223
  36.8883401  77.0847865  39.9313880  39.6048204  75.5657468  37.3503295
  39.5261836  75.2317332  38.2439053  40.4257871  76.0579236  37.3494767
  34.1409727  67.3015261  36.6006818  35.0868831  67.1721469  36.6695236
  33.7623971  66.5629923  37.0776246  32.3252644  65.2265237  36.5361703
  31.4184099  64.9298350  36.6124416  32.6028625  64.9295055  35.6695989
  23.2430584  66.5471600  46.9860749  22.9233368  65.6936909  46.6935123
  22.6964012  66.7620179  47.7418717  27.0210492  69.2634041  50.7030256
  27.2396501  70.1951149  50.7218290  27.4336265  68.9042016  51.4885060
  31.0951428  62.0852172  36.6773682  31.9570592  62.4107071  36.9369499
  31.2801772  61.2983668  36.1646748  23.1118844  70.1674512  48.9553871
  22.4182315  69.7528465  48.4423825  23.8591835  70.2095048  48.3587290
  31.7569627  68.2664386  58.9098066  31.2736709  69.0664746  59.1161955
  31.8430566  68.2772331  57.9565510  25.0255587  70.0992766  46.8319886
  25.0026275  70.1980453  45.8801769  25.3356223  70.9457917  47.1537052
  27.6842964  72.1568921  50.9466500  28.6386218  72.1252863  50.8796432
  27.4855488  71.6959544  51.7616726  28.2742347  70.7270037  53.5137298
  29.0935236  71.2214115  53.5372135  28.5479154  69.8102005  53.4854865
  26.0393193  77.6988540  47.9636698  25.9047661  76.9388941  47.3974696
  25.6225256  78.4229440  47.4965487  37.1752156  72.8825464  36.9713273
  37.8788006  73.0875466  37.5870929  36.4514805  73.4502226  37.2362357
  29.1962319  78.5957857  48.1755141  29.0794703  79.5403290  48.0733831
  28.3754765  78.2931419  48.5640940  39.0838854  73.3207993  39.0211733
  39.9184458  72.8889191  38.8389208  38.9223197  73.1490007  39.9488628
  38.7384746  69.8240106  40.3868073  38.6833550  69.6584378  39.4456517
  38.1130801  70.5316139  40.5430262  23.5277261  65.0608171  54.2129495
  24.1736124  64.5507125  54.7016720  23.3194412  65.7976852  54.7872920
  32.0480871  59.3248215  39.9653391  32.0359541  60.2690055  40.1221662
  32.9404293  59.1418361  39.6712852  30.2216833  79.2486119  51.3911069
  31.1244080  79.2809729  51.7077564  29.9954203  78.3186570  51.4057405
  31.9770435  78.0017106  48.0521148  31.0266066  78.0018967  47.9385520
  32.2802921  77.2549840  47.5357182  35.8632991  55.9190992  44.2199328
  35.0965387  55.3649479  44.3656010  36.2743696  55.9912861  45.0813479
  27.8674752  62.2075788  58.3104509  28.7306213  61.8512593  58.5207834
  27.2940162  61.8689683  58.9979913  47.7123129  83.8377644  49.1166910
  48.3501539  83.7184391  48.4130250  47.5943972  84.7858488  49.1754862
  44.5212835  83.7905072  49.0528435  44.1831347  83.6746137  48.1648970
  45.3902603  83.3896237  49.0329441  40.3799651  85.6440549  45.0425326
  39.8164516  85.5530486  44.2741613  40.2652046  84.8240453  45.5227818
  45.0032618  84.9439924  55.0114640  44.9921259  84.5492722  54.1395144
  45.1653258  84.2105997  55.6048412  37.9264083  87.1391740  47.8809546
  38.7185375  86.7982565  47.4655845  38.1660733  87.2486715  48.8011699
  45.9599209  89.3111516  40.3539791  45.3087189  89.8965597  39.9673804
  46.7543572  89.8417711  40.4134828  39.8854837  86.4000653  40.7526925
  40.6585713  85.8529641  40.6139801  40.2380235  87.2644903  40.9641386
  41.7239879  87.7277036  53.9593824  41.4329745  88.6322667  53.8440491
  42.3596864  87.7693563  54.6737894  42.6496086  85.1053884  50.5495184
  43.2459658  84.8809907  49.8352147  42.7071058  84.3638630  51.1520632
  42.2221114  82.5593320  38.3845375  42.4746635  82.0374841  37.6228838
  41.2845674  82.3959465  38.4872058  47.2664397  81.5629098  46.1920118
  48.0527486  81.1448521  45.8410535  47.5303102  82.4675190  46.3601767
  47.4374475  87.0001948  40.8908775  46.8020308  87.0736575  41.6029680
  47.1071881  87.5895547  40.2127854  52.6672824  81.5004331  47.0953097
  53.3997996  80.9303548  47.3290926  51.9112180  81.1125932  47.5359602
  41.9417403  84.4621426  40.5869750  41.8253661  83.7866329  41.2550834
  42.0519663  83.9753799  39.7701903  44.2848944  83.9231573  44.2916439
  43.9207151  83.3962194  45.0029361  45.1416060  83.5330042  44.1182924
  50.1898245  75.2125905  51.5547705  49.8581570  76.0821316  51.3308920
  49.5943858  74.8962189  52.2341736  43.9254431  78.9521472  39.2877788
  44.0928833  79.8201709  39.6548259  43.7351600  79.1148754  38.3639077
  46.6829764  87.4138451  50.9543618  46.3830487  88.3163490  50.8459425
  46.3380824  87.1470634  51.8064771  40.1342246  83.8652248  46.9880322
  39.2092742  83.7328462  47.1958014  40.3826659  84.6446467  47.4850265
  50.0826908  79.9320991  48.6341055  49.1743785  79.8636400  48.3399816
  50.0314504  80.4092936  49.4622881  43.9043652  81.4079130  40.2724454
  43.7843277  81.8536181  41.1109935  43.2096240  81.7564447  39.7137993
  37.4951057  83.5085522  47.8224111  37.6243438  83.7620001  48.7363523
  36.8148508  84.1013230  47.5028767  41.6650544  94.1782772  43.9214586
  41.5874574  95.1290597  44.0003066  41.0612188  93.8328644  44.5789512
  44.1567774  81.3510637  56.5775953  43.3801108  81.9104557  56.5678817
  44.7958337  81.8367420  57.0990823  51.9488554  78.1337430  50.4118929
  51.3062935  78.4269963  49.7658724  51.4443483  78.0190350  51.2172126
  49.6028718  81.8800603  41.1004788  50.5146574  82.1127990  40.9252486
  49.0938365  82.4637647  40.5379867  42.4114146  84.1596090  56.1393920
  43.1528831  84.6981134  55.8628743  41.7051132  84.7862379  56.2965471
  47.8869486  86.3025231  54.7366081  48.2952842  85.8607641  53.9920713
  47.1646747  85.7277858  54.9900274  44.2400556  81.2397838  52.1099638
  45.0861751  81.6637251  52.2534287  44.1799193  80.5831462  52.8038201
  48.2098300  86.8626421  48.4918370  47.5807163  87.0272136  47.7894438
  47.8223963  87.2768031  49.2629334  52.0887532  87.7980859  45.8462734
  51.4038570  88.1779761  45.2959767  52.1731382  88.4076186  46.5794681
  47.3900001  78.9002206  53.7680812  47.1460933  79.6544266  53.2315087
  47.6659932  79.2787554  54.6028059  49.3438464  85.4440818  52.4458077
  49.5555359  86.0872578  51.7692458  49.2968212  84.6103135  51.9780007
  46.9464693  78.0558639  49.3494649  46.0849172  78.3539893  49.6411387
  46.9727128  78.2729038  48.4175682  43.7626262  86.6000830  45.7568455
  44.2264608  86.8788533  44.9673078  43.4983060  85.6984274  45.5741546
  40.6550343  86.1472311  48.6948218  41.2251700  86.5759579  48.0565703
  41.2458455  85.8654896  49.3932404  42.6995148  82.7223982  42.5658020
  43.4019192  83.1745026  43.0331947  42.3675777  82.0807801  43.1937913
  41.1475510  81.3135739  56.9409230  40.5174170  81.9952019  57.1744626
  41.0411598  81.2018820  55.9962368  36.4420482  80.9807535  47.8675154
  35.6519536  81.2365063  47.3915264  36.9331730  81.7955872  47.9727194
  50.4584292  88.3212774  50.6180435  51.2801736  87.9192961  50.3363116
  50.4546695  88.2181008  51.5696550  38.3935228  81.3452114  44.8258630
  37.5966391  81.4570808  45.3442126  38.1660820  81.6838766  43.9599521
  44.2240895  87.8696817  52.7741145  44.2885328  88.3317224  53.6099317
  43.5151819  87.2394182  52.9023455  34.7258185  81.2338025  50.2990145
  34.9766224  82.1185035  50.5647720  35.2617734  81.0542627  49.5265236
  58.5490285  84.6651522  46.9665406  57.7953993  84.0958920  46.8109410
  58.6837826  84.6314187  47.9136041  43.9388913  89.5364925  42.6420125
  43.8034588  90.3816460  43.0704973  44.4798725  89.7384202  41.8786059
  37.3918310  87.0540363  43.2148050  37.9042831  87.8483613  43.3653615
  38.0441023  86.3566653  43.1481652  39.2013195  90.1706119  45.2970804
  39.3779823  91.0924084  45.1091788  39.9970029  89.8564538  45.7265183
  43.3424214  77.0314383  56.8954737  44.0833927  77.6321537  56.8159200
  43.5742136  76.2892021  56.3372780  38.4865552  82.2170751  55.1732967
  38.3719067  81.3156008  55.4740066  37.6310069  82.4634447  54.8217783
  45.5657389  90.1588491  56.7720467  45.1221244  89.3724870  56.4541372
  46.2274603  90.3467642  56.1064358  40.3244511  91.6884293  51.2981146
  40.8751936  91.5601356  50.5258140  39.4855986  91.9879182  50.9476039
  47.6638627  90.4391291  54.8001869  47.6457103  91.2600172  54.3082138
  48.5858547  90.3145366  55.0252010  44.1211682  87.9535420  55.6425377
  44.6540018  87.1923709  55.4124685  43.5925763  87.6609072  56.3849532
  47.2881377  73.0595486  51.1719019  46.9445646  73.9497128  51.0958129
  47.6560339  72.8697144  50.3088604  35.3567227  85.3829017  43.9907621
  36.1942449  85.7926025  43.7741329  35.5345495  84.4428459  43.9607815
  47.2531659  83.0504098  39.6791454  46.7378283  83.8208702  39.9179841
  46.9808968  82.3769234  40.3024515  44.8378770  77.8953798  44.7376692
  43.9820367  77.5060649  44.5582331  45.2505722  77.9745759  43.8776478
  46.3677917  75.4300142  49.1368252  45.8642713  75.3930277  48.3236057
  46.6608524  76.3392884  49.1964909  52.2265933  85.8036452  41.6144627
  51.4495376  85.4647612  41.1699790  52.9057414  85.8089075  40.9399592
  47.0417962  80.9231190  41.5051235  46.7368098  81.2377339  42.3561378
  47.9948405  81.0012610  41.5478568  45.4864394  87.0821413  43.1544189
  44.9585756  86.3474173  42.8417427  44.9851897  87.8596089  42.9084157
  50.4657240  85.2770433  48.2711235  49.8080915  85.9669695  48.3591364
  51.2697640  85.6666865  48.6145222  40.2183122  77.7441079  45.5150801
  40.7926874  77.5216261  44.7823994  40.8054104  77.8129774  46.2679402
  49.2762699  83.6314806  46.3215177  49.7894581  84.2644798  46.8236887
  49.9263923  83.0316002  45.9558537  40.5452709  79.7745540  39.5346686
  39.7090021  80.1120227  39.8555961  40.4057479  79.6394520  38.5973823
  42.5205790  74.6182328  44.2425870  41.8670202  74.3031345  43.6182485
  42.4786264  73.9958069  44.9685693  43.6316994  84.9001623  36.1579162
  42.7244056  84.6690877  36.3570311  44.1288026  84.1039242  36.3453144
  46.5385073  93.6099130  39.0775848  45.8646772  93.9130827  39.6860806
  46.9250895  94.4128211  38.7281305  45.7543530  81.1064262  48.5673518
  44.8366091  81.3279209  48.4095206  46.1703674  81.1810572  47.7085225
  46.5378578  82.5055677  43.6976198  47.2850397  83.0177075  43.3883320
  46.8070167  82.1839730  44.5580592  44.8105228  85.0014218  40.6803152
  43.9016447  84.7173251  40.7775622  44.8400312  85.4213297  39.8206459
  50.0424495  88.6120808  44.4494320  49.5886822  87.7711717  44.5059510
  49.4118462  89.2482206  44.7869100  48.9857415  79.5412794  45.6794987
  48.2480172  79.0290180  46.0105230  49.2384188  79.1013175  44.8678264
  48.4857435  90.4497304  45.3844138  48.7780409  91.0102361  44.6656504
  48.9956055  90.7425865  46.1397297  49.0869042  72.3189046  46.2736757
  49.3927919  71.4586409  45.9862672  49.8121647  72.9106666  46.0735750
  35.3793398  82.7219732  44.6618354  35.1817798  82.1289093  43.9369421
  34.8240062  82.4171942  45.3794293  43.3590122  82.6142839  46.7812948
  43.4138732  81.6616675  46.7055424  42.5481324  82.7702278  47.2654246
  44.5081316  86.5422962  38.0191231  44.0700746  85.8258821  37.5596868
  45.2491757  86.7699077  37.4576322  41.2982482  81.2319898  44.5403326
  40.4850347  81.5314069  44.9468519  41.7941476  80.8375587  45.2577809
  43.4491060  91.2277655  46.4737591  43.4067239  91.4538502  45.5446123
  44.3653759  90.9941030  46.6223392  46.8956694  81.6961723  53.3718220
  47.2506081  81.9233196  54.2312686  47.5428825  82.0280100  52.7495476
  52.6254430  84.8180159  44.0767549  52.4872329  85.0081755  43.1488739
  52.2690649  85.5799542  44.5335601  40.7896557  78.8038254  50.1564561
  41.4295936  78.6627013  49.4587525  39.9574087  78.5172767  49.7803163
  52.6523810  86.8856686  49.0878821  53.0860317  86.7931975  49.9361875
  53.3655391  86.8614186  48.4498837  41.5656861  88.1040684  46.2699554
  42.3597459  87.6091004  46.0682129  40.8548553  87.5758547  45.9067259
  46.3851705  90.4858780  50.6211921  46.4388727  91.0549716  51.3889637
  45.5166486  90.6560665  50.2565959  37.8739624  82.2483766  42.3459307
  36.9437212  82.1868222  42.5629269  37.9697096  81.7259719  41.5495948
  37.7925173  78.7738579  44.9337548  38.0531990  79.6883912  44.8246709
  38.6142345  78.3063021  45.0834161  39.2650098  80.1876336  52.1036373
  39.9373152  79.9793698  51.4549022  38.4379885  79.9898422  51.6641605
  53.5139360  86.9280386  51.6211706  53.7075250  87.8326197  51.8670981
  53.4139978  86.4687806  52.4550291  45.1675670  76.8138277  54.1202034
  44.5203585  77.5128227  54.0266510  45.9376686  77.2474421  54.4878282
  45.3439805  84.6519042  52.1798853  46.2731865  84.8030202  52.0067821
  44.9230835  84.7403063  51.3247500  44.1428137  88.6769706  49.9497391
  44.0039222  88.3088491  50.8223329  43.3542733  89.1917346  49.7781349
  44.7376288  93.7778803  41.2922927  44.9128044  93.3066846  42.1068550
  44.0509077  94.4044569  41.5204188  45.6933352  88.0551309  47.3386229
  45.3583184  88.0152079  48.2343879  45.1937297  87.3896025  46.8656639
  39.6677596  83.4618939  52.8638810  39.5297394  82.7299178  53.4650349
  40.5782519  83.3727839  52.5822998  48.6292543  85.4007343  37.6123288
  48.0121714  84.6754172  37.5156341  48.1609032  86.1616704  37.2690363
  42.2959896  83.1738898  52.3522490  43.0059515  82.5332091  52.3109108
  42.2529204  83.4251793  53.2748670  50.2846675  90.1106252  55.2729069
  50.2259221  89.4265472  54.6059652  50.6866193  90.8525242  54.8209695
  41.0088830  80.1604116  54.1718129  40.4726187  79.7094855  54.8239725
  40.4205539  80.2950025  53.4288593  39.3037374  96.9268166  48.0662788
  39.5433972  97.5586690  48.7441806  38.4606570  96.5756206  48.3528147
  40.4191089  79.6192768  36.7344593  39.5420556  79.4981568  36.3706839
  40.8948842  78.8278846  36.4823481  50.2864082  88.0745836  53.5043048
  49.3990861  87.7371757  53.6269447  50.8562633  87.3428867  53.7411814
  31.9393229  84.4069927  46.8286100  32.6264269  84.0931657  46.2407115
  31.7841358  85.3111292  46.5553351  36.7427952  79.2960124  51.2571124
  36.6586140  78.6885794  50.5221533  35.9210658  79.7869142  51.2580620
  43.8165236  92.7347288  50.4704292  43.7435407  93.5402260  50.9823596
  43.3742629  92.9339254  49.6452313  43.6055015  91.9719058  43.9807113
  42.8222537  92.5140738  44.0745338  44.3047760  92.4893038  44.3801354
  46.9151665  77.7813688  46.6241319  47.4120365  77.0283650  46.3042389
  46.1438647  77.8178004  46.0584528  54.7681423  83.4854053  48.2659610
  54.7571299  84.3678768  47.8953543  53.8998802  83.1325604  48.0714147
  46.2763919  92.6334122  52.6262450  46.9891891  93.2681587  52.5538352
  45.7853948  92.7297988  51.8102452  47.9981446  86.5385375  44.1979742
  47.0637725  86.6586837  44.0284446  48.1758115  85.6357841  43.9339752
  43.4986634  79.9231070  46.3513003  43.1284422  79.3702111  47.0393909
  43.9945727  79.3189204  45.7988003  51.3853997  82.3802694  44.7329776
  51.8514450  83.2130686  44.6590079  51.8361498  81.9147676  45.4375035
  41.3275833  90.3828566  53.4468021  42.0285292  91.0165048  53.5997415
  40.8570948  90.7243297  52.6863660  49.4530229  88.7246515  41.7315928
  49.7290072  88.6103110  42.6409802  48.5834727  88.3264000  41.6928101
  49.3570660  74.7483281  48.7720677  48.4433740  74.9787508  48.9402884
  49.7863762  74.8321725  49.6234710  49.1277119  82.9373173  51.2720571
  48.4748569  83.1849080  50.6173024  49.5057499  82.1237311  50.9383049
  46.0884293  92.9732866  45.3748742  46.2706687  92.1554522  45.8376494
  46.9117279  93.1900558  44.9373632  46.4226458  91.9001051  42.6363790
  46.9514224  91.3893506  42.0233952  46.6854678  91.5843581  43.5009323
  45.1764692  83.6792984  57.7586609  44.5005329  83.5787113  58.4288984
  45.9992326  83.5232198  58.2222606  36.9243551  89.9164921  50.3799124
  37.5096988  89.1708608  50.5127028  36.7268389  90.2268877  51.2635788
  39.7782206  92.9516168  45.3961566  39.1092581  93.4362296  44.9125606
  39.6395076  93.1985388  46.3104945  31.5161205  82.4870521  49.1003567
  31.5545305  81.9534111  49.8940685  31.0101498  81.9605726  48.4814544
  43.9187475  94.9859911  51.9944225  44.4705783  95.1491533  52.7593310
  44.2593668  95.5764349  51.3224249  38.3704240  79.4058194  56.2439144
  38.9976279  79.0235271  56.8576668  37.5132159  79.1872396  56.6094836
  48.7698349  89.8121169  57.8492879  49.3138253  90.4251127  57.3547834
  48.1885194  90.3700747  58.3659892  35.1469783  81.2134623  42.1757498
  35.4423224  80.3045301  42.1224552  34.2457819  81.1922362  41.8538501
  47.0555862  92.9341887  48.9807907  46.9307001  92.1331627  48.4718852
  47.7134953  93.4288080  48.4921877  38.6764030  79.2890619  48.1585047
  37.9550616  79.9026587  48.0192520  39.4657286  79.8248384  48.0801693
  49.1190770  90.7350907  50.6087457  48.1721106  90.6156258  50.5365784
  49.4673543  89.8473405  50.6913718  41.4790344  76.6245046  54.4325699
  42.0024745  76.8707343  55.1952008  41.2602677  77.4565081  54.0128836
  36.8757625  78.8948721  42.2996824  36.5470331  78.0146100  42.1171929
  37.2296995  78.8396389  43.1873213  46.1237204  90.5303623  46.8091809
  45.9762166  89.6020331  46.9899379  46.9490697  90.5523714  46.3248884
  39.9899448  79.1821690  42.6672301  40.3295520  79.7107612  41.9450910
  40.4371568  79.5202096  43.4430868  49.7271325  91.3532182  47.8956682
  50.6517873  91.1475043  47.7581133  49.5586629  91.1048583  48.8046023
  42.6842889  77.5658741  52.1175369  42.3439709  76.7666554  52.5196049
  41.9781895  77.8660452  51.5452202  41.9767595  77.6796312  40.8665594
  42.6975957  78.0577565  40.3629311  41.3532899  78.3985189  40.9700572
  46.1198718  78.3841461  41.8023926  46.3362332  79.2666099  41.5012754
  45.6392785  77.9927674  41.0729568  40.8597939  81.3427174  48.3794671
  40.7142520  81.6567477  49.2718952  40.3823143  81.9612074  47.8265570
  42.7194322  78.3329722  48.4275560  42.7055891  77.4370815  48.0907858
  43.4366750  78.3400386  49.0613846  44.5720453  78.7667062  50.4728688
  44.3138231  79.6884133  50.4713018  44.0405493  78.3697497  51.1629152
  49.5166642  91.8717849  43.2518773  49.6903519  91.3064272  42.4992626
  50.0095533  92.6718744  43.0698263  35.3343601  83.8832519  51.3182332
  34.7897069  84.6592327  51.4502606  36.2122951  84.2303323  51.1601453
  42.1231218  77.2144102  43.6963131  42.2447129  76.2860749  43.8954018
  41.8333260  77.2282788  42.7841446  55.3706033  84.6354272  44.8709073
  55.8137179  83.8861598  44.4728196  54.4932543  84.6264409  44.4882805
  50.5041814  91.1884614  40.3515672  51.1992719  91.8091307  40.5702986
  50.8464964  90.3379965  40.6268049  36.1209623  83.0102415  54.2112489
  35.3791359  83.1585050  54.7977119  35.8002368  83.2710680  53.3479238
  52.4033237  88.6384319  41.8803002  52.9284561  88.9771592  41.1552322
  52.3155590  87.7031335  41.6966137  44.0653286  92.5518393  54.0092879
  44.3740412  92.3067540  54.8815579  44.8628768  92.7565032  53.5211749
  44.0873898  94.7056303  46.2398255  43.6478888  94.2132681  46.9331112
  44.8382015  94.1629270  45.9990331  36.5666237  90.8967844  46.2422884
  37.3924257  90.5971615  45.8621527  36.2160289  90.1275466  46.6912672
  41.5347770  90.2494312  48.3120557  40.9127779  89.5865017  48.0122785
  42.2052637  90.2755444  47.6294205  34.7674842  88.8154170  47.2011817
  33.9306750  88.3876344  47.0195818  34.7398487  89.0086613  48.1382608
  41.6072298  78.7276100  57.9053063  41.6560453  79.6038223  57.5230833
  42.1494812  78.1853493  57.3324706  52.0927143  89.2717223  57.1854200
  51.3022687  89.2541362  56.6458700  51.8560498  89.8105517  57.9403237
  52.2125018  86.1209689  54.4986929  52.2623023  85.9559697  55.4402452
  52.1038942  85.2536948  54.1084810  41.0961277  88.7998235  41.7879018
  41.2449397  89.4833700  41.1345690  41.9027720  88.7803325  42.3028473
  43.8371586  79.4807472  54.6599422  42.9674895  79.7741038  54.3882010
  44.0731066  80.0647917  55.3806685  54.9138897  86.1059511  47.2631521
  55.7485789  86.5449315  47.4269081  55.0498026  85.6298164  46.4439766
  51.9630403  83.6639246  53.2109008  52.4384525  83.8566892  52.4027860
  51.0395969  83.7198431  52.9652392  38.8513910  84.8263413  42.7940087
  38.6059952  83.9225743  42.9920297  39.0209825  84.8280563  41.8519565
  46.5410620  75.6987089  52.1764842  47.0592564  76.4348116  51.8511331
  46.1865753  76.0051082  53.0111601  38.1209557  80.5591770  40.2926248
  37.4278802  80.6336125  39.6366284  37.8761309  79.7952114  40.8147765
  46.7923214  72.1187372  47.6965739  47.0724968  71.4510561  48.3226165
  47.5773821  72.3116467  47.1840403  44.5956683  91.2946366  39.2590765
  44.0230650  91.9136553  38.8061237  45.1689476  91.8445727  39.7930687
  50.6632072  80.5405006  51.4437314  51.6149495  80.6403103  51.4649538
  50.4935523  79.7483274  51.9535398  48.6846452  77.6260589  51.6296715
  48.0896384  77.9065602  50.9343203  48.3996149  78.1154490  52.4013456
  47.8153942  91.5783516  40.3899347  48.7484615  91.5129077  40.5932223
  47.7277155  92.4139783  39.9313880  50.4441959  90.8949386  37.3503295
  50.3655590  90.5609250  38.2439053  51.2651626  91.3871154  37.3494767
  53.1420150  83.7611125  50.5579614  53.1096470  82.8227126  50.7439297
  53.7520774  83.8395162  49.8245438  44.9803481  82.6307178  36.6006818
  45.9262586  82.5013386  36.6695236  44.6017726  81.8921840  37.0776246
  53.2914639  80.5522169  50.6037897  52.7753687  79.7680625  50.4167826
  54.1754587  80.2240885  50.7684416  50.9525366  74.2963184  46.5633709
  50.7550187  73.9878273  47.4477041  51.5625071  75.0224823  46.6931639
  58.9596700  84.8227132  49.6985650  59.6900088  84.5612420  50.2593354
  58.3503645  84.0855854  49.7387718  57.0411997  82.9634995  50.2960102
  56.3145161  82.8290960  49.6876593  56.6259284  83.2711823  51.1016820
  44.8642174  86.6824924  58.0607475  45.7845183  86.8603523  58.2547521
  44.8291757  85.7380970  57.9087174  43.1646398  80.5557155  36.5361703
  42.2577854  80.2590267  36.6124416  43.4422379  80.2586973  35.6695989
  34.0824339  81.8763518  46.9860749  33.7627123  81.0228826  46.6935123
  33.5357767  82.0912096  47.7418717  37.8604246  84.5925959  50.7030256
  38.0790256  85.5243067  50.7218290  38.2730020  84.2333934  51.4885060
  44.7808464  75.0994044  42.6905944  43.9709192  74.7541129  43.0661190
  45.4692881  74.7901588  43.2793556  46.7099012  74.1772091  44.3130241
  47.2630051  74.5967545  44.9720264  46.9469099  73.2507839  44.3553197
  42.7332111  80.1659165  60.0933005  42.6328838  81.1153522  60.0245096
  42.5153653  79.8377404  59.2209075  41.9345183  77.4144090  36.6773682
  42.7964347  77.7398988  36.9369499  42.1195527  76.6275586  36.1646748
  33.9512599  85.4966430  48.9553871  33.2576070  85.0820382  48.4423825
  34.6985590  85.5386966  48.3587290  50.0877819  76.2872616  43.8208905
  49.5076488  76.9457420  43.4386957  49.8213752  75.4649961  43.4096323
  48.5381386  75.6877674  46.0230225  49.0381164  75.7994209  45.2144544
  49.1816994  75.3838727  46.6631034  42.5963381  83.5956304  58.9098066
  42.1130463  84.3956664  59.1161955  42.6824321  83.6064249  57.9565510
  35.8649341  85.4284683  46.8319886  35.8420029  85.5272371  45.8801769
  36.1749978  86.2749834  47.1537052  38.5236719  87.4860838  50.9466500
  39.4779973  87.4544781  50.8796432  38.3249243  87.0251462  51.7616726
  39.1136101  86.0561954  53.5137298  39.9328990  86.5506033  53.5372135
  39.3872909  85.1393923  53.4854865  48.8702697  78.4472707  42.8765253
  47.9828552  78.7322357  42.6585448  49.2856686  78.2866470  42.0292530
  52.2217233  78.4719228  46.5919593  52.9977624  78.9615680  46.8644209
  51.4965368  78.8977282  47.0491462  54.6589792  79.1846847  47.6493533
  55.2534283  78.9442583  46.9386841  54.7316376  78.4653978  48.2767069
  36.8786948  93.0280458  47.9636698  36.7441416  92.2680859  47.3974696
  36.4619010  93.7521358  47.4965487  48.0145911  88.2117381  36.9713273
  48.7181761  88.4167384  37.5870929  47.2908560  88.7794143  37.2362357
  48.8443721  83.9627243  43.0915543  48.7878922  84.4195794  42.2523176
  49.3972063  83.2017927  42.9138386  52.6548527  79.7516975  43.9165663
  52.3985461  79.3513610  44.7473871  52.0301395  80.4660769  43.7915802
  56.9660865  82.4913048  46.4236954  56.4060423  82.5606237  47.1968516
  56.3604368  82.3154032  45.7036451  40.0356074  93.9249775  48.1755141
  39.9188458  94.8695207  48.0733831  39.2148520  93.6223336  48.5640940
  49.9232608  88.6499911  39.0211733  50.7578212  88.2181109  38.8389208
  49.7616951  88.4781924  39.9488628  49.5778500  85.1532024  40.3868073
  49.5227304  84.9876295  39.4456517  48.9524556  85.8608057  40.5430262
  34.3671015  80.3900088  54.2129495  35.0129879  79.8799042  54.7016720
  34.1588166  81.1268770  54.7872920  42.8874626  74.6540133  39.9653391
  42.8753296  75.5981973  40.1221662  43.7798048  74.4710278  39.6712852
  41.0610588  94.5778037  51.3911069  41.9637834  94.6101647  51.7077564
  40.8347958  93.6478488  51.4057405  42.8164190  93.3309023  48.0521148
  41.8659821  93.3310885  47.9385520  43.1196676  92.5841758  47.5357182
  46.7026745  71.2482910  44.2199328  45.9359141  70.6941396  44.3656010
  47.1137450  71.3204778  45.0813479  58.5516883  99.1669562  49.1166910
  59.1895293  99.0476309  48.4130250  58.4337726 100.1150406  49.1754862
  55.3606590  99.1196990  49.0528435  55.0225101  99.0038055  48.1648970
  56.2296358  98.7188155  49.0329441  51.2193405 100.9732466  45.0425326
  50.6558270 100.8822403  44.2741613  51.1045800 100.1532371  45.5227818
  55.8426373 100.2731842  55.0114640  55.8315013  99.8784640  54.1395144
  56.0047012  99.5397914  55.6048412  48.7657837 102.4683658  47.8809546
  49.5579129 102.1274483  47.4655845  49.0054487 102.5778633  48.8011699
  56.7992964 104.6403434  40.3539791  56.1480944 105.2257514  39.9673804
  57.5937327 105.1709629  40.4134828  50.7248591 101.7292571  40.7526925
  51.4979467 101.1821558  40.6139801  51.0773990 102.5936820  40.9641386
  52.5633634 103.0568953  53.9593824  52.2723500 103.9614584  53.8440491
  53.1990618 103.0985481  54.6737894  53.4889841 100.4345802  50.5495184
  54.0853413 100.2101824  49.8352147  53.5464812  99.6930547  51.1520632
  53.0614869  97.8885237  38.3845375  53.3140390  97.3666759  37.6228838
  52.1239428  97.7251383  38.4872058  58.1058152  96.8921016  46.1920118
  58.8921241  96.4740439  45.8410535  58.3696856  97.7967108  46.3601767
  58.2768229 102.3293866  40.8908775  57.6414062 102.4028492  41.6029680
  57.9465636 102.9187465  40.2127854  63.5066579  96.8296249  47.0953097
  64.2391751  96.2595466  47.3290926  62.7505935  96.4417849  47.5359602
  52.7811158  99.7913343  40.5869750  52.6647416  99.1158247  41.2550834
  52.8913418  99.3045717  39.7701903  55.1242699  99.2523490  44.2916439
  54.7600906  98.7254111  45.0029361  55.9809815  98.8621959  44.1182924
  61.0291999  90.5417823  51.5547705  60.6975324  91.4113234  51.3308920
  60.4337613  90.2254107  52.2341736  54.7648186  94.2813390  39.2877788
  54.9322588  95.1493626  39.6548259  54.5745355  94.4440672  38.3639077
  57.5223519 102.7430369  50.9543618  57.2224242 103.6455408  50.8459425
  57.1774578 102.4762552  51.8064771  50.9736000  99.1944166  46.9880322
  50.0486497  99.0620380  47.1958014  51.2220413  99.9738385  47.4850265
  60.9220663  95.2612909  48.6341055  60.0137540  95.1928318  48.3399816
  60.8708258  95.7384854  49.4622881  54.7437406  96.7371047  40.2724454
  54.6237032  97.1828098  41.1109935  54.0489995  97.0856365  39.7137993
  48.3344811  98.8377439  47.8224111  48.4637192  99.0911918  48.7363523
  47.6542263  99.4305147  47.5028767  52.5044299 109.5074689  43.9214586
  52.4268328 110.4582514  44.0003066  51.9005942 109.1620562  44.5789512
  54.9961528  96.6802555  56.5775953  54.2194862  97.2396475  56.5678817
  55.6352091  97.1659338  57.0990823  62.7882309  93.4629347  50.4118929
  62.1456689  93.7561881  49.7658724  62.2837237  93.3482268  51.2172126
  60.4422473  97.2092521  41.1004788  61.3540329  97.4419907  40.9252486
  59.9332120  97.7929565  40.5379867  53.2507901  99.4888008  56.1393920
  53.9922585 100.0273052  55.8628743  52.5444886 100.1154297  56.2965471
  58.7263240 101.6317149  54.7366081  59.1346596 101.1899559  53.9920713
  58.0040502 101.0569776  54.9900274  55.0794310  96.5689755  52.1099638
  55.9255506  96.9929169  52.2534287  55.0192948  95.9123380  52.8038201
  59.0492055 102.1918339  48.4918370  58.4200917 102.3564053  47.7894438
  58.6617717 102.6059949  49.2629334  62.9281287 103.1272777  45.8462734
  62.2432325 103.5071678  45.2959767  63.0125136 103.7368104  46.5794681
  58.2293756  94.2294124  53.7680812  57.9854688  94.9836184  53.2315087
  58.5053686  94.6079471  54.6028059  60.1832218 100.7732736  52.4458077
  60.3949114 101.4164496  51.7692458  60.1361967  99.9395053  51.9780007
  57.7858447  93.3850557  49.3494649  56.9242926  93.6831810  49.6411387
  57.8120882  93.6020956  48.4175682  54.6020017 101.9292747  45.7568455
  55.0658362 102.2080450  44.9673078  54.3376815 101.0276192  45.5741546
  51.4944098 101.4764229  48.6948218  52.0645455 101.9051497  48.0565703
  52.0852210 101.1946813  49.3932404  53.5388903  98.0515900  42.5658020
  54.2412946  98.5036943  43.0331947  53.2069531  97.4099718  43.1937913
  51.9869264  96.6427656  56.9409230  51.3567925  97.3243937  57.1744626
  51.8805352  96.5310738  55.9962368  47.2814237  96.3099452  47.8675154
  46.4913291  96.5656981  47.3915264  47.7725484  97.1247790  47.9727194
  61.2978046 103.6504691  50.6180435  62.1195490 103.2484879  50.3363116
  61.2940449 103.5472926  51.5696550  49.2328982  96.6744031  44.8258630
  48.4360145  96.7862726  45.3442126  49.0054574  97.0130684  43.9599521
  55.0634650 103.1988735  52.7741145  55.1279082 103.6609142  53.6099317
  54.3545574 102.5686100  52.9023455  45.5651940  96.5629943  50.2990145
  45.8159978  97.4476953  50.5647720  46.1011488  96.3834544  49.5265236
  69.3884039  99.9943440  46.9665406  68.6347748  99.4250838  46.8109410
  69.5231581  99.9606104  47.9136041  54.7782667 104.8656842  42.6420125
  54.6428342 105.7108378  43.0704973  55.3192480 105.0676120  41.8786059
  51.2650007  90.9448422  59.3034481  50.8716953  90.3914621  59.9782125
  52.0816147  91.2559001  59.6940998  48.2312065 102.3832280  43.2148050
  48.7436585 103.1775530  43.3653615  48.8834778 101.6858571  43.1481652
  50.0406950 105.4998037  45.2970804  50.2173578 106.4216001  45.1091788
  50.8363783 105.1856456  45.7265183  54.1817968  92.3606301  56.8954737
  54.9227681  92.9613454  56.8159200  54.4135891  91.6183939  56.3372780
  49.3259306  97.5462668  55.1732967  49.2112821  96.6447926  55.4740066
  48.4703824  97.7926365  54.8217783  56.4051144 105.4880409  56.7720467
  55.9614998 104.7016787  56.4541372  57.0668357 105.6759559  56.1064358
  51.1638265 107.0176210  51.2981146  51.7145690 106.8893274  50.5258140
  50.3249741 107.3171099  50.9476039  58.5032382 105.7683209  54.8001869
  58.4850857 106.5892090  54.3082138  59.4252302 105.6437284  55.0252010
  54.9605436 103.2827338  55.6425377  55.4933773 102.5215626  55.4124685
  54.4319517 102.9900990  56.3849532  58.1275131  88.3887404  51.1719019
  57.7839400  89.2789046  51.0958129  58.4954094  88.1989062  50.3088604
  46.1960982 100.7120935  43.9907621  47.0336204 101.1217943  43.7741329
  46.3739249  99.7720377  43.9607815  58.0925414  98.3796015  39.6791454
  57.5772037  99.1500620  39.9179841  57.8202722  97.7061151  40.3024515
  55.6772525  93.2245716  44.7376692  54.8214121  92.8352566  44.5582331
  56.0899477  93.3037677  43.8776478  57.2071671  90.7592059  49.1368252
  56.7036467  90.7222194  48.3236057  57.5002278  91.6684802  49.1964909
  53.4514557  90.8430789  48.1434434  54.3167554  90.6473598  47.7840323
  53.5192066  90.6141141  49.0703791  63.0659688 101.1328370  41.6144627
  62.2889131 100.7939529  41.1699790  63.7451169 101.1380993  40.9399592
  57.8811717  96.2523107  41.5051235  57.5761852  96.5669256  42.3561378
  58.8342159  96.3304527  41.5478568  56.3258149 102.4113331  43.1544189
  55.7979510 101.6766090  42.8417427  55.8245651 103.1888007  42.9084157
  61.3050995 100.6062351  48.2711235  60.6474669 101.2961612  48.3591364
  62.1091394 100.9958783  48.6145222  51.0576876  93.0732997  45.5150801
  51.6320628  92.8508178  44.7823994  51.6447859  93.1421691  46.2679402
  60.1156454  98.9606724  46.3215177  60.6288335  99.5936716  46.8236887
  60.7657677  98.3607919  45.9558537  51.3846463  95.1037458  39.5346686
  50.5483776  95.4412144  39.8555961  51.2451233  94.9686438  38.5973823
  53.3599544  89.9474246  44.2425870  52.7063956  89.6323263  43.6182485
  53.3180018  89.3249986  44.9685693  54.4710749 100.2293541  36.1579162
  53.5637811  99.9982794  36.3570311  54.9681781  99.4331160  36.3453144
  57.3778828 108.9391048  39.0775848  56.7040527 109.2422745  39.6860806
  57.7644650 109.7420128  38.7281305  56.5937284  96.4356179  48.5673518
  55.6759846  96.6571126  48.4095206  57.0097428  96.5102490  47.7085225
  57.3772332  97.8347595  43.6976198  58.1244151  98.3468992  43.3883320
  57.6463922  97.5131648  44.5580592  55.6498982 100.3306136  40.6803152
  54.7410202 100.0465169  40.7775622  55.6794066 100.7505214  39.8206459
  60.8818250 103.9412725  44.4494320  60.4280577 103.1003635  44.5059510
  60.2512217 104.5774124  44.7869100  59.8251169  94.8704711  45.6794987
  59.0873926  94.3582097  46.0105230  60.0777943  94.4305093  44.8678264
  59.3251189 105.7789222  45.3844138  59.6174163 106.3394279  44.6656504
  59.8349810 106.0717783  46.1397297  59.9262797  87.6480963  46.2736757
  60.2321673  86.7878327  45.9862672  60.6515401  88.2398583  46.0735750
  46.2187153  98.0511650  44.6618354  46.0211553  97.4581011  43.9369421
  45.6633817  97.7463860  45.3794293  54.1983876  97.9434756  46.7812948
  54.2532486  96.9908593  46.7055424  53.3875078  98.0994195  47.2654246
  55.3475070 101.8714879  38.0191231  54.9094500 101.1550738  37.5596868
  56.0885511 102.0990994  37.4576322  52.1376236  96.5611816  44.5403326
  51.3244102  96.8605987  44.9468519  52.6335231  96.1667505  45.2577809
  54.2884814 106.5569573  46.4737591  54.2460993 106.7830419  45.5446123
  55.2047513 106.3232948  46.6223392  57.7350448  97.0253641  53.3718220
  58.0899836  97.2525114  54.2312686  58.3822579  97.3572017  52.7495476
  63.4648185 100.1472076  44.0767549  63.3266084 100.3373672  43.1488739
  63.1084404 100.9091459  44.5335601  51.6290311  94.1330172  50.1564561
  52.2689690  93.9918931  49.4587525  50.7967842  93.8464685  49.7803163
  63.4917565 102.2148603  49.0878821  63.9254071 102.1223893  49.9361875
  64.2049145 102.1906104  48.4498837  52.4050615 103.4332602  46.2699554
  53.1991214 102.9382922  46.0682129  51.6942307 102.9050465  45.9067259
  57.2245459 105.8150698  50.6211921  57.2782482 106.3841634  51.3889637
  56.3560241 105.9852583  50.2565959  48.7133378  97.5775684  42.3459307
  47.7830967  97.5160139  42.5629269  48.8090850  97.0551637  41.5495948
  48.6318928  94.1030497  44.9337548  48.8925745  95.0175830  44.8246709
  49.4536100  93.6354939  45.0834161  50.1043853  95.5168254  52.1036373
  50.7766906  95.3085616  51.4549022  49.2773639  95.3190340  51.6641605
  64.3533114 102.2572304  51.6211706  64.5469004 103.1618115  51.8670981
  64.2533732 101.7979723  52.4550291  56.0069425  92.1430195  54.1202034
  55.3597340  92.8420144  54.0266510  56.7770440  92.5766339  54.4878282
  59.4148223 102.4079047  57.1952587  59.2633729 102.1789599  56.2782671
  59.4052902 103.3649648  57.2083932  56.1833559  99.9810960  52.1798853
  57.1125619 100.1322119  52.0067821  55.7624589 100.0694980  51.3247500
  54.9821891 104.0061624  49.9497391  54.8432977 103.6380408  50.8223329
  54.1936487 104.5209263  49.7781349  55.5770043 109.1070720  41.2922927
  55.7521799 108.6358764  42.1068550  54.8902831 109.7336487  41.5204188
  56.5327106 103.3843227  47.3386229  56.1976939 103.3443997  48.2343879
  56.0331052 102.7187943  46.8656639  50.5071350  98.7910857  52.8638810
  50.3691148  98.0591096  53.4650349  51.4176274  98.7019757  52.5822998
  59.4686298 100.7299261  37.6123288  58.8515468 100.0046089  37.5156341
  59.0002786 101.4908621  37.2690363  53.1353651  98.5030816  52.3522490
  53.8453269  97.8624008  52.3109108  53.0922959  98.7543711  53.2748670
  61.1240429 105.4398169  55.2729069  61.0652976 104.7557390  54.6059652
  61.5259948 106.1817159  54.8209695  51.8482585  95.4896034  54.1718129
  51.3119942  95.0386772  54.8239725  51.2599293  95.6241943  53.4288593
  50.1431128 112.2560083  48.0662788  50.3827726 112.8878607  48.7441806
  49.3000325 111.9048123  48.3528147  51.2584844  94.9484685  36.7344593
  50.3814310  94.8273486  36.3706839  51.7342597  94.1570764  36.4823481
  61.1257837 103.4037753  53.5043048  60.2384615 103.0663675  53.6269447
  61.6956388 102.6720785  53.7411814  42.7786984  99.7361845  46.8286100
  43.4658024  99.4223575  46.2407115  42.6235113 100.6403210  46.5553351
  47.5821706  94.6252042  51.2571124  47.4979895  94.0177711  50.5221533
  46.7604412  95.1161060  51.2580620  54.6558990 108.0639206  50.4704292
  54.5829162 108.8694177  50.9823596  54.2136383 108.2631172  49.6452313
  54.4448770 107.3010976  43.9807113  53.6616292 107.8432656  44.0745338
  55.1441515 107.8184955  44.3801354  57.7545420  93.1105605  46.6241319
  58.2514119  92.3575568  46.3042389  56.9832401  93.1469922  46.0584528
  65.6075177  98.8145971  48.2659610  65.5965054  99.6970686  47.8953543
  64.7392557  98.4617522  48.0714147  57.1157674 107.9626040  52.6262450
  57.8285646 108.5973505  52.5538352  56.6247702 108.0589906  51.8102452
  58.8375201 101.8677292  44.1979742  57.9031479 101.9878755  44.0284446
  59.0151869 100.9649759  43.9339752  54.3380389  95.2522988  46.3513003
  53.9678176  94.6994029  47.0393909  54.8339481  94.6481122  45.7988003
  62.2247752  97.7094612  44.7329776  62.6908204  98.5422603  44.6590079
  62.6755252  97.2439593  45.4375035  52.1669587 105.7120483  53.4468021
  52.8679047 106.3456966  53.5997415  51.6964702 106.0535215  52.6863660
  60.2923983 104.0538433  41.7315928  60.5683827 103.9395028  42.6409802
  59.4228482 103.6555918  41.6928101  60.1964415  90.0775199  48.7720677
  59.2827494  90.3079426  48.9402884  60.6257516  90.1613643  49.6234710
  59.9670873  98.2665091  51.2720571  59.3142323  98.5140998  50.6173024
  60.3451253  97.4529229  50.9383049  56.9278047 108.3024784  45.3748742
  57.1100442 107.4846440  45.8376494  57.7511033 108.5192476  44.9373632
  57.2620213 107.2292969  42.6363790  57.7907979 106.7185424  42.0233952
  57.5248432 106.9135499  43.5009323  56.0158446  99.0084902  57.7586609
  55.3399083  98.9079031  58.4288984  56.8386080  98.8524115  58.2222606
  47.7637305 105.2456838  50.3799124  48.3490742 104.5000526  50.5127028
  47.5662144 105.5560795  51.2635788  50.6175960 108.2808086  45.3961566
  49.9486336 108.7654213  44.9125606  50.4788830 108.5277306  46.3104945
  42.3554960  97.8162438  49.1003567  42.3939059  97.2826029  49.8940685
  41.8495253  97.2897644  48.4814544  54.7581229 110.3151829  51.9944225
  55.3099537 110.4783451  52.7593310  55.0987423 110.9056267  51.3224249
  49.7345722  92.6626979  52.5966109  49.7987049  93.5241810  52.1843507
  49.6712843  92.0500981  51.8638468  49.2097995  94.7350111  56.2439144
  49.8370034  94.3527189  56.8576668  48.3525914  94.5164313  56.6094836
  59.6092103 105.1413087  57.8492879  60.1532007 105.7543045  57.3547834
  59.0278948 105.6992665  58.3659892  45.9863538  96.5426541  42.1757498
  46.2816979  95.6337219  42.1224552  45.0851573  96.5214280  41.8538501
  57.8949616 108.2633805  48.9807907  57.7700756 107.4623545  48.4718852
  58.5528707 108.7579998  48.4921877  49.5157785  94.6182537  48.1585047
  48.7944370  95.2318505  48.0192520  50.3051040  95.1540302  48.0801693
  59.9584525 106.0642825  50.6087457  59.0114860 105.9448176  50.5365784
  60.3067298 105.1765323  50.6913718  52.3184098  91.9536964  54.4325699
  52.8418500  92.1999260  55.1952008  52.0996431  92.7856998  54.0128836
  47.7151379  94.2240638  42.2996824  47.3864085  93.3438017  42.1171929
  48.0690750  94.1688307  43.1873213  56.9630958 105.8595541  46.8091809
  56.8155920 104.9312248  46.9899379  57.7884452 105.8815632  46.3248884
  50.8293202  94.5113608  42.6672301  51.1689275  95.0399529  41.9450910
  51.2765323  94.8494014  43.4430868  60.5665080 106.6824100  47.8956682
  61.4911627 106.4766961  47.7581133  60.3980383 106.4340501  48.8046023
  53.5236643  92.8950659  52.1175369  53.1833463  92.0958472  52.5196049
  52.8175649  93.1952370  51.5452202  54.1753115  89.9799971  50.5702692
  54.9979184  89.5060449  50.4481583  54.4191178  90.7590455  51.0701379
  52.8161349  93.0088230  40.8665594  53.5369712  93.3869482  40.3629311
  52.1926654  93.7277106  40.9700572  56.9592472  93.7133379  41.8023926
  57.1756087  94.5958016  41.5012754  56.4786539  93.3219592  41.0729568
  51.6991694  96.6719092  48.3794671  51.5536274  96.9859395  49.2718952
  51.2216897  97.2903992  47.8265570  53.5588077  93.6621640  48.4275560
  53.5449645  92.7662733  48.0907858  54.2760505  93.6692304  49.0613846
  55.4114207  94.0958980  50.4728688  55.1531985  95.0176051  50.4713018
  54.8799248  93.6989415  51.1629152  60.3560396 107.2009767  43.2518773
  60.5297274 106.6356190  42.4992626  60.8489287 108.0010662  43.0698263
  46.1737356  99.2124436  51.3182332  45.6290824  99.9884244  51.4502606
  47.0516706  99.5595241  51.1601453  52.9624973  92.5436020  43.6963131
  53.0840884  91.6152666  43.8954018  52.6727015  92.5574706  42.7841446
  55.8316163  90.2290931  46.8329850  55.8537860  90.2930264  45.8781830
  56.2484222  89.3895439  47.0270357  66.2099787  99.9646190  44.8709073
  66.6530933  99.2153515  44.4728196  65.3326298  99.9556326  44.4882805
  61.3435569 106.5176532  40.3515672  62.0386473 107.1383224  40.5702986
  61.6858719 105.6671883  40.6268049  46.9603378  98.3394333  54.2112489
  46.2185114  98.4876968  54.7977119  46.6396122  98.6002598  53.3479238
  63.2426992 103.9676237  41.8803002  63.7678316 104.3063510  41.1552322
  63.1549344 103.0323252  41.6966137  54.9047040 107.8810311  54.0092879
  55.2134167 107.6359457  54.8815579  55.7022522 108.0856949  53.5211749
  54.9267652 110.0348220  46.2398255  54.4872643 109.5424599  46.9331112
  55.6775769 109.4921188  45.9990331  47.4059991 106.2259761  46.2422884
  48.2318011 105.9263533  45.8621527  47.0554043 105.4567384  46.6912672
  52.3741525 105.5786229  48.3120557  51.7521534 104.9156934  48.0122785
  53.0446391 105.6047361  47.6294205  45.6068596 104.1446088  47.2011817
  44.7700505 103.7168262  47.0195818  45.5792242 104.3378531  48.1382608
  52.4466052  94.0568017  57.9053063  52.4954208  94.9330140  57.5230833
  52.9888566  93.5145411  57.3324706  62.9320898 104.6009141  57.1854200
  62.1416441 104.5833280  56.6458700  62.6954252 105.1397434  57.9403237
  63.0518773 101.4501607  54.4986929  63.1016778 101.2851615  55.4402452
  62.9432696 100.5828866  54.1084810  51.9355031 104.1290153  41.7879018
  52.0843152 104.8125617  41.1345690  52.7421475 104.1095243  42.3028473
  60.3422535  97.4332535  55.8146235  61.2432398  97.2939000  55.5230233
  60.4170510  97.5986990  56.7544413  54.6765340  94.8099390  54.6599422
  53.8068650  95.1032956  54.3882010  54.9124821  95.3939835  55.3806685
  64.5536970 103.8698549  54.7428950  64.2621778 104.2328529  55.5792411
  63.9409101 103.1565557  54.5642282  65.7532652 101.4351428  47.2631521
  66.5879543 101.8741232  47.4269081  65.8891781 100.9590082  46.4439766
  62.8024158  98.9931163  53.2109008  63.2778279  99.1858810  52.4027860
  61.8789723  99.0490349  52.9652392  49.6907664 100.1555330  42.7940087
  49.4453706  99.2517660  42.9920297  49.8603579 100.1572481  41.8519565
  57.3804374  91.0279007  52.1764842  57.8986318  91.7640034  51.8511331
  57.0259507  91.3343000  53.0111601  48.9603312  95.8883688  40.2926248
  48.2672557  95.9628043  39.6366284  48.7155064  95.1244032  40.8147765
  57.6316968  87.4479289  47.6965739  57.9118722  86.7802478  48.3226165
  58.4167575  87.6408385  47.1840403  55.4350437 106.6238283  39.2590765
  54.8624404 107.2428470  38.8061237  56.0083231 107.1737645  39.7930687
  61.5025827  95.8696923  51.4437314  62.4543250  95.9695021  51.4649538
  61.3329277  95.0775192  51.9535398  59.5240206  92.9552507  51.6296715
  58.9290138  93.2357519  50.9343203  59.2389903  93.4446407  52.4013456
  58.6547697 106.9075433  40.3899347  59.5878370 106.8420995  40.5932223
  58.5670910 107.7431700  39.9313880  61.2835713 106.2241304  37.3503295
  61.2049345 105.8901167  38.2439053  62.1045380 106.7163072  37.3494767
  63.9813905  99.0903043  50.5579614  63.9490225  98.1519044  50.7439297
  64.5914528  99.1687080  49.8245438  55.8197235  97.9599096  36.6006818
  56.7656340  97.8305304  36.6695236  55.4411480  97.2213758  37.0776246
  64.1308393  95.8814086  50.6037897  63.6147442  95.0972543  50.4167826
  65.0148342  95.5532803  50.7684416  61.7919120  89.6255102  46.5633709
  61.5943941  89.3170190  47.4477041  62.4018826  90.3516741  46.6931639
  69.7990454 100.1519050  49.6985650  70.5293843  99.8904338  50.2593354
  69.1897400  99.4147772  49.7387718  67.8805752  98.2926912  50.2960102
  67.1538915  98.1582877  49.6876593  67.4653038  98.6003741  51.1016820
  55.7035928 102.0116842  58.0607475  56.6238937 102.1895441  58.2547521
  55.6685511 101.0672887  57.9087174  54.0040153  95.8849072  36.5361703
  53.0971608  95.5882185  36.6124416  54.2816134  95.5878890  35.6695989
  44.9218093  97.2055436  46.9860749  44.6020877  96.3520744  46.6935123
  44.3751521  97.4204014  47.7418717  48.6998001  99.9217877  50.7030256
  48.9184010 100.8534985  50.7218290  49.1123774  99.5625851  51.4885060
  55.6202218  90.4285962  42.6905944  54.8102947  90.0833047  43.0661190
  56.3086635  90.1193506  43.2793556  57.5492767  89.5064009  44.3130241
  58.1023805  89.9259462  44.9720264  57.7862853  88.5799757  44.3553197
  53.5725866  95.4951083  60.0933005  53.4722593  96.4445440  60.0245096
  53.3547408  95.1669321  59.2209075  52.7738937  92.7436008  36.6773682
  53.6358101  93.0690906  36.9369499  52.9589281  91.9567504  36.1646748
  44.7906353 100.8258347  48.9553871  44.0969824 100.4112300  48.4423825
  45.5379344 100.8678884  48.3587290  60.9271574  91.6164534  43.8208905
  60.3470243  92.2749338  43.4386957  60.6607506  90.7941879  43.4096323
  59.3775140  91.0169592  46.0230225  59.8774918  91.1286126  45.2144544
  60.0210748  90.7130645  46.6631034  53.4357136  98.9248221  58.9098066
  52.9524218  99.7248581  59.1161955  53.5218075  98.9356166  57.9565510
  46.7043096 100.7576601  46.8319886  46.6813784 100.8564288  45.8801769
  47.0143732 101.6041752  47.1537052  49.3630473 102.8152756  50.9466500
  50.3173727 102.7836698  50.8796432  49.1642997 102.3543380  51.7616726
  49.9529856 101.3853872  53.5137298  50.7722745 101.8797951  53.5372135
  50.2266663 100.4685840  53.4854865  59.7096452  93.7764624  42.8765253
  58.8222307  94.0614275  42.6585448  60.1250441  93.6158388  42.0292530
  63.0610988  93.8011145  46.5919593  63.8371378  94.2907598  46.8644209
  62.3359122  94.2269200  47.0491462  65.4983547  94.5138765  47.6493533
  66.0928037  94.2734501  46.9386841  65.5710130  93.7945895  48.2767069
  47.7180702 108.3572376  47.9636698  47.5835170 107.5972776  47.3974696
  47.3012764 109.0813275  47.4965487  58.8539665 103.5409299  36.9713273
  59.5575515 103.7459302  37.5870929  58.1302314 104.1086061  37.2362357
  59.6837476  99.2919160  43.0915543  59.6272677  99.7487712  42.2523176
  60.2365818  98.5309845  42.9138386  63.4942281  95.0808892  43.9165663
  63.2379216  94.6805528  44.7473871  62.8695149  95.7952686  43.7915802
  67.8054619  97.8204965  46.4236954  67.2454177  97.8898155  47.1968516
  67.1998123  97.6445950  45.7036451  50.8749828 109.2541693  48.1755141
  50.7582212 110.1987125  48.0733831  50.0542274 108.9515254  48.5640940
  60.7626363 103.9791828  39.0211733  61.5971967 103.5473027  38.8389208
  60.6010706 103.8073842  39.9488628  60.4172255 100.4823942  40.3868073
  60.3621059 100.3168213  39.4456517  59.7918310 101.1899975  40.5430262
  45.2064770  95.7192006  54.2129495  45.8523633  95.2090960  54.7016720
  44.9981921  96.4560688  54.7872920  57.7318162 102.7872853  59.7121635
  58.6009322 102.9613506  59.3508270  57.2524913 103.6067270  59.5897365
  53.7268380  89.9832051  39.9653391  53.7147050  90.9273891  40.1221662
  54.6191802  89.8002196  39.6712852  51.9004342 109.9069954  51.3911069
  52.8031589 109.9393565  51.7077564  51.6741712 108.9770405  51.4057405
  53.6557944 108.6600941  48.0521148  52.7053575 108.6602803  47.9385520
  53.9590430 107.9133676  47.5357182  57.5420500  86.5774827  44.2199328
  56.7752896  86.0233314  44.3656010  57.9531205  86.6496696  45.0813479
  49.5462261  92.8659623  58.3104509  50.4093722  92.5096428  58.5207834
  48.9727671  92.5273518  58.9979913  69.3910638 114.4961479  49.1166910
  70.0289048 114.3768227  48.4130250  69.2731481 115.4442323  49.1754862
  66.2000344 114.4488908  49.0528435  65.8618856 114.3329972  48.1648970
  67.0690112 114.0480073  49.0329441  62.0587160 116.3024384  45.0425326
  61.4952025 116.2114321  44.2741613  61.9439555 115.4824288  45.5227818
  66.6820127 115.6023759  55.0114640  66.6708768 115.2076558  54.1395144
  66.8440766 114.8689832  55.6048412  59.6051592 117.7975576  47.8809546
  60.3972884 117.4566400  47.4655845  59.8448242 117.9070551  48.8011699
  67.6386718 119.9695352  40.3539791  66.9874698 120.5549432  39.9673804
  68.4331081 120.5001547  40.4134828  61.5642346 117.0584489  40.7526925
  62.3373222 116.5113476  40.6139801  61.9167744 117.9228738  40.9641386
  63.4027388 118.3860871  53.9593824  63.1117254 119.2906502  53.8440491
  64.0384373 118.4277399  54.6737894  64.3283595 115.7637720  50.5495184
  64.9247167 115.5393742  49.8352147  64.3858567 115.0222465  51.1520632
  63.9008623 113.2177155  38.3845375  64.1534144 112.6958676  37.6228838
  62.9633182 113.0543300  38.4872058  68.9451906 112.2212933  46.1920118
  69.7314995 111.8032356  45.8410535  69.2090611 113.1259025  46.3601767
  69.1161984 117.6585784  40.8908775  68.4807817 117.7320410  41.6029680
  68.7859390 118.2479382  40.2127854  74.3460333 112.1588166  47.0953097
  75.0785505 111.5887383  47.3290926  73.5899689 111.7709767  47.5359602
  63.6204912 115.1205261  40.5869750  63.5041170 114.4450164  41.2550834
  63.7307172 114.6337635  39.7701903  65.9636453 114.5815408  44.2916439
  65.5994660 114.0546029  45.0029361  66.8203569 114.1913877  44.1182924
  71.8685754 105.8709741  51.5547705  71.5369078 106.7405152  51.3308920
  71.2731367 105.5546025  52.2341736  65.6041940 109.6105308  39.2877788
  65.7716342 110.4785544  39.6548259  65.4139109 109.7732589  38.3639077
  68.3617273 118.0722287  50.9543618  68.0617996 118.9747325  50.8459425
  68.0168333 117.8054470  51.8064771  61.8129755 114.5236083  46.9880322
  60.8880251 114.3912298  47.1958014  62.0614168 115.3030303  47.4850265
  71.7614417 110.5904827  48.6341055  70.8531294 110.5220235  48.3399816
  71.7102013 111.0676772  49.4622881  65.5831161 112.0662965  40.2724454
  65.4630786 112.5120016  41.1109935  64.8883749 112.4148283  39.7137993
  59.1738566 114.1669357  47.8224111  59.3030947 114.4203836  48.7363523
  58.4936017 114.7597065  47.5028767  63.3438053 124.8366607  43.9214586
  63.2662083 125.7874432  44.0003066  62.7399697 124.4912479  44.5789512
  65.8355283 112.0094472  56.5775953  65.0588617 112.5688392  56.5678817
  66.4745846 112.4951255  57.0990823  73.6276063 108.7921265  50.4118929
  72.9850444 109.0853798  49.7658724  73.1230992 108.6774185  51.2172126
  71.2816227 112.5384438  41.1004788  72.1934083 112.7711825  40.9252486
  70.7725874 113.1221483  40.5379867  64.0901655 114.8179926  56.1393920
  64.8316339 115.3564970  55.8628743  63.3838641 115.4446214  56.2965471
  69.5656995 116.9609066  54.7366081  69.9740351 116.5191477  53.9920713
  68.8434256 116.3861694  54.9900274  65.9188065 111.8981673  52.1099638
  66.7649260 112.3221087  52.2534287  65.8586702 111.2415297  52.8038201
  69.8885809 117.5210257  48.4918370  69.2594672 117.6855971  47.7894438
  69.5011471 117.9351866  49.2629334  73.7675041 118.4564695  45.8462734
  73.0826079 118.8363596  45.2959767  73.8518891 119.0660021  46.5794681
  69.0687510 109.5586041  53.7680812  68.8248442 110.3128102  53.2315087
  69.3447441 109.9371389  54.6028059  71.0225973 116.1024654  52.4458077
  71.2342868 116.7456414  51.7692458  70.9755721 115.2686970  51.9780007
  68.6252202 108.7142474  49.3494649  67.7636681 109.0123728  49.6411387
  68.6514637 108.9312873  48.4175682  65.4413771 117.2584665  45.7568455
  65.9052117 117.5372368  44.9673078  65.1770569 116.3568109  45.5741546
  62.3337852 116.8056146  48.6948218  62.9039209 117.2343415  48.0565703
  62.9245964 116.5238731  49.3932404  64.3782657 113.3807817  42.5658020
  65.0806701 113.8328861  43.0331947  64.0463286 112.7391636  43.1937913
  62.8263019 111.9719574  56.9409230  62.1961679 112.6535855  57.1744626
  62.7199107 111.8602655  55.9962368  58.1207991 111.6391370  47.8675154
  57.3307045 111.8948898  47.3915264  58.6119239 112.4539708  47.9727194
  72.1371801 118.9796609  50.6180435  72.9589245 118.5776796  50.3363116
  72.1334204 118.8764843  51.5696550  60.0722737 112.0035949  44.8258630
  59.2753900 112.1154643  45.3442126  59.8448329 112.3422601  43.9599521
  65.9028404 118.5280652  52.7741145  65.9672837 118.9901060  53.6099317
  65.1939328 117.8978017  52.9023455  56.4045694 111.8921860  50.2990145
  56.6553733 112.7768870  50.5647720  56.9405243 111.7126462  49.5265236
  80.2277794 115.3235358  46.9665406  79.4741502 114.7542756  46.8109410
  80.3625335 115.2898022  47.9136041  65.6176422 120.1948760  42.6420125
  65.4822097 121.0400296  43.0704973  66.1586234 120.3968038  41.8786059
  62.1043762 106.2740340  59.3034481  61.7110707 105.7206538  59.9782125
  62.9209902 106.5850918  59.6940998  59.0705819 117.7124198  43.2148050
  59.5830340 118.5067448  43.3653615  59.7228532 117.0150488  43.1481652
  60.8800704 120.8289954  45.2970804  61.0567332 121.7507919  45.1091788
  61.6757538 120.5148373  45.7265183  65.0211723 107.6898219  56.8954737
  65.7621436 108.2905372  56.8159200  65.2529645 106.9475857  56.3372780
  60.1653061 112.8754586  55.1732967  60.0506576 111.9739843  55.4740066
  59.3097578 113.1218283  54.8217783  67.2444898 120.8172326  56.7720467
  66.8008753 120.0308705  56.4541372  67.9062112 121.0051477  56.1064358
  62.0032020 122.3468128  51.2981146  62.5539445 122.2185191  50.5258140
  61.1643495 122.6463017  50.9476039  69.3426136 121.0975126  54.8001869
  69.3244612 121.9184007  54.3082138  70.2646056 120.9729202  55.0252010
  65.7999191 118.6119256  55.6425377  66.3327527 117.8507544  55.4124685
  65.2713272 118.3192908  56.3849532  68.9668886 103.7179322  51.1719019
  68.6233155 104.6080963  51.0958129  69.3347848 103.5280979  50.3088604
  57.0354736 116.0412852  43.9907621  57.8729958 116.4509861  43.7741329
  57.2133004 115.1012294  43.9607815  68.9319168 113.7087933  39.6791454
  68.4165792 114.4792538  39.9179841  68.6596477 113.0353069  40.3024515
  66.5166279 108.5537634  44.7376692  65.6607876 108.1644484  44.5582331
  66.9293231 108.6329594  43.8776478  68.0465426 106.0883977  49.1368252
  67.5430221 106.0514112  48.3236057  68.3396033 106.9976720  49.1964909
  64.2908312 106.1722707  48.1434434  65.1561309 105.9765515  47.7840323
  64.3585821 105.9433058  49.0703791  73.9053442 116.4620288  41.6144627
  73.1282885 116.1231447  41.1699790  74.5844923 116.4672911  40.9399592
  68.7205471 111.5815025  41.5051235  68.4155607 111.8961174  42.3561378
  69.6735914 111.6596445  41.5478568  67.1651903 117.7405248  43.1544189
  66.6373265 117.0058008  42.8417427  66.6639406 118.5179925  42.9084157
  72.1444749 115.9354269  48.2711235  71.4868424 116.6253530  48.3591364
  72.9485148 116.3250701  48.6145222  61.8970631 108.4024915  45.5150801
  62.4714383 108.1800096  44.7823994  62.4841613 108.4713609  46.2679402
  70.9550208 114.2898641  46.3215177  71.4682090 114.9228633  46.8236887
  71.6051432 113.6899837  45.9558537  62.2240218 110.4329376  39.5346686
  61.3877530 110.7704062  39.8555961  62.0844988 110.2978355  38.5973823
  64.1993299 105.2766163  44.2425870  63.5457711 104.9615181  43.6182485
  64.1573773 104.6541904  44.9685693  65.3104503 115.5585459  36.1579162
  64.4031565 115.3274712  36.3570311  65.8075535 114.7623078  36.3453144
  68.2172582 124.2682966  39.0775848  67.5434281 124.5714662  39.6860806
  68.6038404 125.0712046  38.7281305  67.4331039 111.7648097  48.5673518
  66.5153600 111.9863044  48.4095206  67.8491183 111.8394407  47.7085225
  68.2166087 113.1639513  43.6976198  68.9637906 113.6760910  43.3883320
  68.4857676 112.8423565  44.5580592  66.4892737 115.6598053  40.6803152
  65.5803956 115.3757086  40.7775622  66.5187821 116.0797132  39.8206459
  71.7212004 119.2704643  44.4494320  71.2674331 118.4295553  44.5059510
  71.0905971 119.9066041  44.7869100  70.6644924 110.1996629  45.6794987
  69.9267681 109.6874015  46.0105230  70.9171697 109.7597011  44.8678264
  70.1644944 121.1081140  45.3844138  70.4567918 121.6686197  44.6656504
  70.6743564 121.4009701  46.1397297  70.7656551 102.9772881  46.2736757
  71.0715428 102.1170244  45.9862672  71.4909156 103.5690501  46.0735750
  57.0580907 113.3803568  44.6618354  56.8605307 112.7872928  43.9369421
  56.5027571 113.0755778  45.3794293  65.0377631 113.2726674  46.7812948
  65.0926241 112.3200510  46.7055424  64.2268833 113.4286113  47.2654246
  66.1868825 117.2006797  38.0191231  65.7488255 116.4842656  37.5596868
  66.9279266 117.4282912  37.4576322  62.9769991 111.8903734  44.5403326
  62.1637856 112.1897904  44.9468519  63.4728985 111.4959423  45.2577809
  65.1278569 121.8861491  46.4737591  65.0854748 122.1122337  45.5446123
  66.0441268 121.6524865  46.6223392  68.5744203 112.3545558  53.3718220
  68.9293590 112.5817031  54.2312686  69.2216334 112.6863935  52.7495476
  74.3041939 115.4763994  44.0767549  74.1659838 115.6665590  43.1488739
  73.9478158 116.2383377  44.5335601  62.4684066 109.4622089  50.1564561
  63.1083445 109.3210848  49.4587525  61.6361596 109.1756603  49.7803163
  74.3311319 117.5440521  49.0878821  74.7647826 117.4515810  49.9361875
  75.0442900 117.5198022  48.4498837  63.2444370 118.7624520  46.2699554
  64.0384968 118.2674840  46.0682129  62.5336062 118.2342383  45.9067259
  68.0639214 121.1442615  50.6211921  68.1176236 121.7133552  51.3889637
  67.1953995 121.3144500  50.2565959  59.5527133 112.9067601  42.3459307
  58.6224721 112.8452057  42.5629269  59.6484605 112.3843554  41.5495948
  59.4712682 109.4322414  44.9337548  59.7319499 110.3467748  44.8246709
  60.2929854 108.9646857  45.0834161  60.9437607 110.8460171  52.1036373
  61.6160661 110.6377534  51.4549022  60.1167394 110.6482257  51.6641605
  75.1926869 117.5864222  51.6211706  75.3862759 118.4910032  51.8670981
  75.0927487 117.1271641  52.4550291  66.8463179 107.4722112  54.1202034
  66.1991094 108.1712062  54.0266510  67.6164195 107.9058256  54.4878282
  70.2541977 117.7370965  57.1952587  70.1027484 117.5081516  56.2782671
  70.2446657 118.6941566  57.2083932  67.0227314 115.3102877  52.1798853
  67.9519374 115.4614037  52.0067821  66.6018344 115.3986898  51.3247500
  65.8215645 119.3353542  49.9497391  65.6826731 118.9672326  50.8223329
  65.0330242 119.8501181  49.7781349  66.4163797 124.4362638  41.2922927
  66.5915553 123.9650681  42.1068550  65.7296585 125.0628404  41.5204188
  67.3720861 118.7135144  47.3386229  67.0370693 118.6735914  48.2343879
  66.8724806 118.0479860  46.8656639  61.3465105 114.1202774  52.8638810
  61.2084903 113.3883013  53.4650349  62.2570028 114.0311675  52.5822998
  70.3080052 116.0591179  37.6123288  69.6909223 115.3338007  37.5156341
  69.8396541 116.8200539  37.2690363  63.9747405 113.8322734  52.3522490
  64.6847024 113.1915926  52.3109108  63.9316713 114.0835629  53.2748670
  71.9634184 120.7690087  55.2729069  71.9046730 120.0849307  54.6059652
  72.3653702 121.5109077  54.8209695  62.6876339 110.8187952  54.1718129
  62.1513696 110.3678690  54.8239725  62.0993048 110.9533860  53.4288593
  62.0978598 110.2776603  36.7344593  61.2208065 110.1565404  36.3706839
  62.5736351 109.4862681  36.4823481  71.9651591 118.7329671  53.5043048
  71.0778370 118.3955593  53.6269447  72.5350142 118.0012702  53.7411814
  53.6180738 115.0653763  46.8286100  54.3051778 114.7515493  46.2407115
  53.4628867 115.9695127  46.5553351  58.4215460 109.9543959  51.2571124
  58.3373649 109.3469629  50.5221533  57.5998167 110.4452978  51.2580620
  65.4952745 123.3931123  50.4704292  65.4222916 124.1986095  50.9823596
  65.0530138 123.5923089  49.6452313  65.2842524 122.6302893  43.9807113
  64.5010046 123.1724574  44.0745338  65.9835269 123.1476873  44.3801354
  68.5939174 108.4397523  46.6241319  69.0907874 107.6867485  46.3042389
  67.8226156 108.4761840  46.0584528  76.4468932 114.1437888  48.2659610
  76.4358808 115.0262604  47.8953543  75.5786311 113.7909439  48.0714147
  67.9551428 123.2917957  52.6262450  68.6679400 123.9265422  52.5538352
  67.4641457 123.3881823  51.8102452  69.6768955 117.1969210  44.1979742
  68.7425234 117.3170673  44.0284446  69.8545624 116.2941677  43.9339752
  65.1774143 110.5814906  46.3513003  64.8071931 110.0285946  47.0393909
  65.6733236 109.9773039  45.7988003  73.0641506 113.0386529  44.7329776
  73.5301959 113.8714521  44.6590079  73.5149007 112.5731511  45.4375035
  63.0063342 121.0412401  53.4468021  63.7072801 121.6748884  53.5997415
  62.5358457 121.3827132  52.6863660  71.1317738 119.3830351  41.7315928
  71.4077581 119.2686945  42.6409802  70.2622236 118.9847835  41.6928101
  71.0358169 105.4067116  48.7720677  70.1221249 105.6371343  48.9402884
  71.4651271 105.4905560  49.6234710  70.8064628 113.5957008  51.2720571
  70.1536078 113.8432916  50.6173024  71.1845008 112.7821147  50.9383049
  67.7671802 123.6316701  45.3748742  67.9494196 122.8138357  45.8376494
  68.5904788 123.8484394  44.9373632  68.1013967 122.5584887  42.6363790
  68.6301733 122.0477341  42.0233952  68.3642187 122.2427417  43.5009323
  66.8552201 114.3376819  57.7586609  66.1792838 114.2370949  58.4288984
  67.6779835 114.1816033  58.2222606  58.6031060 120.5748756  50.3799124
  59.1884497 119.8292444  50.5127028  58.4055898 120.8852713  51.2635788
  61.4569715 123.6100003  45.3961566  60.7880090 124.0946131  44.9125606
  61.3182585 123.8569224  46.3104945  53.1948714 113.1454356  49.1003567
  53.2332814 112.6117947  49.8940685  52.6889007 112.6189562  48.4814544
  65.5974984 125.6443747  51.9944225  66.1493292 125.8075368  52.7593310
  65.9381177 126.2348185  51.3224249  60.5739477 107.9918897  52.5966109
  60.6380803 108.8533728  52.1843507  60.5106597 107.3792898  51.8638468
  60.0491749 110.0642029  56.2439144  60.6763788 109.6819106  56.8576668
  59.1919668 109.8456231  56.6094836  70.4485858 120.4705004  57.8492879
  70.9925762 121.0834963  57.3547834  69.8672703 121.0284583  58.3659892
  56.8257292 111.8718458  42.1757498  57.1210733 110.9629137  42.1224552
  55.9245328 111.8506198  41.8538501  68.7343371 123.5925722  48.9807907
  68.6094510 122.7915462  48.4718852  69.3922462 124.0871916  48.4921877
  60.3551539 109.9474455  48.1585047  59.6338125 110.5610423  48.0192520
  61.1444795 110.4832220  48.0801693  70.7978279 121.3934742  50.6087457
  69.8508615 121.2740094  50.5365784  71.1461052 120.5057240  50.6913718
  63.1577853 107.2828881  54.4325699  63.6812254 107.5291178  55.1952008
  62.9390186 108.1148916  54.0128836  58.5545134 109.5532556  42.2996824
  58.2257840 108.6729935  42.1171929  58.9084504 109.4980225  43.1873213
  67.8024713 121.1887459  46.8091809  67.6549675 120.2604166  46.9899379
  68.6278206 121.2107549  46.3248884  61.6686957 109.8405526  42.6672301
  62.0083029 110.3691447  41.9450910  62.1159077 110.1785932  43.4430868
  71.4058834 122.0116017  47.8956682  72.3305382 121.8058879  47.7581133
  71.2374138 121.7632419  48.8046023  64.3630398 108.2242576  52.1175369
  64.0227218 107.4250390  52.5196049  63.6569404 108.5244287  51.5452202
  65.0146869 105.3091889  50.5702692  65.8372939 104.8352367  50.4481583
  65.2584933 106.0882373  51.0701379  63.6555104 108.3380147  40.8665594
  64.3763466 108.7161400  40.3629311  63.0320408 109.0569024  40.9700572
  67.7986227 109.0425296  41.8023926  68.0149841 109.9249934  41.5012754
  67.3180294 108.6511510  41.0729568  62.5385448 112.0011010  48.3794671
  62.3930029 112.3151313  49.2718952  62.0610652 112.6195910  47.8265570
  64.3981831 108.9913558  48.4275560  64.3843400 108.0954651  48.0907858
  65.1154259 108.9984221  49.0613846  66.2507962 109.4250898  50.4728688
  65.9925740 110.3467968  50.4713018  65.7193002 109.0281332  51.1629152
  71.1954151 122.5301685  43.2518773  71.3691028 121.9648107  42.4992626
  71.6883042 123.3302580  43.0698263  57.0131110 114.5416354  51.3182332
  56.4684578 115.3176162  51.4502606  57.8910460 114.8887158  51.1601453
  63.8018727 107.8727938  43.6963131  63.9234638 106.9444584  43.8954018
  63.5120769 107.8866624  42.7841446  66.6709917 105.5582848  46.8329850
  66.6931614 105.6222181  45.8781830  67.0877976 104.7187357  47.0270357
  77.0493542 115.2938108  44.8709073  77.4924688 114.5445433  44.4728196
  76.1720052 115.2848244  44.4882805  72.1829323 121.8468449  40.3515672
  72.8780228 122.4675142  40.5702986  72.5252473 120.9963800  40.6268049
  57.7997132 113.6686250  54.2112489  57.0578868 113.8168886  54.7977119
  57.4789877 113.9294516  53.3479238  74.0820746 119.2968155  41.8803002
  74.6072070 119.6355428  41.1552322  73.9943099 118.3615170  41.6966137
  65.7440795 123.2102228  54.0092879  66.0527921 122.9651375  54.8815579
  66.5416277 123.4148867  53.5211749  65.7661407 125.3640138  46.2398255
  65.3266397 124.8716517  46.9331112  66.5169524 124.8213106  45.9990331
  58.2453746 121.5551679  46.2422884  59.0711766 121.2555451  45.8621527
  57.8947798 120.7859301  46.6912672  63.2135279 120.9078147  48.3120557
  62.5915288 120.2448852  48.0122785  63.8840146 120.9339279  47.6294205
  56.4462351 119.4738005  47.2011817  55.6094259 119.0460180  47.0195818
  56.4185996 119.6670449  48.1382608  63.2859807 109.3859935  57.9053063
  63.3347962 110.2622058  57.5230833  63.8282321 108.8437328  57.3324706
  73.7714652 119.9301058  57.1854200  72.9810196 119.9125197  56.6458700
  73.5348007 120.4689352  57.9403237  73.8912527 116.7793525  54.4986929
  73.9410532 116.6143532  55.4402452  73.7826451 115.9120784  54.1084810
  62.7748786 119.4582070  41.7879018  62.9236906 120.1417535  41.1345690
  63.5815229 119.4387161  42.3028473  71.1816290 112.7624453  55.8146235
  72.0826152 112.6230918  55.5230233  71.2564264 112.9278908  56.7544413
  65.5159095 110.1391308  54.6599422  64.6462404 110.4324874  54.3882010
  65.7518575 110.7231753  55.3806685  75.3930724 119.1990466  54.7428950
  75.1015532 119.5620447  55.5792411  74.7802855 118.4857475  54.5642282
  76.5926406 116.7643346  47.2631521  77.4273298 117.2033150  47.4269081
  76.7285535 116.2881999  46.4439766  73.6417912 114.3223081  53.2109008
  74.1172034 114.5150727  52.4027860  72.7183478 114.3782267  52.9652392
  60.5301419 115.4847248  42.7940087  60.2847461 114.5809578  42.9920297
  60.6997333 115.4864399  41.8519565  68.2198129 106.3570924  52.1764842
  68.7380073 107.0931951  51.8511331  67.8653262 106.6634918  53.0111601
  59.7997066 111.2175606  40.2926248  59.1066311 111.2919961  39.6366284
  59.5548818 110.4535949  40.8147765  68.4710723 102.7771207  47.6965739
  68.7512477 102.1094396  48.3226165  69.2561330 102.9700303  47.1840403
  66.2744191 121.9530201  39.2590765  65.7018159 122.5720388  38.8061237
  66.8476985 122.5029563  39.7930687  72.3419581 111.1988841  51.4437314
  73.2937004 111.2986939  51.4649538  72.1723032 110.4067110  51.9535398
  70.3633961 108.2844424  51.6296715  69.7683893 108.5649437  50.9343203
  70.0783658 108.7738325  52.4013456  69.4941451 122.2367351  40.3899347
  70.4272124 122.1712913  40.5932223  69.4064664 123.0723618  39.9313880
  72.1229468 121.5533221  37.3503295  72.0443099 121.2193085  38.2439053
  72.9439135 122.0454989  37.3494767  74.8207659 114.4194961  50.5579614
  74.7883979 113.4810961  50.7439297  75.4308283 114.4978997  49.8245438
  66.6590990 113.2891014  36.6006818  67.6050095 113.1597222  36.6695236
  66.2805235 112.5505676  37.0776246  74.9702148 111.2106004  50.6037897
  74.4541196 110.4264461  50.4167826  75.8542096 110.8824721  50.7684416
  72.6312875 104.9547020  46.5633709  72.4337696 104.6462108  47.4477041
  73.2412580 105.6808659  46.6931639  80.6384209 115.4810968  49.6985650
  81.3687597 115.2196256  50.2593354  80.0291154 114.7439689  49.7387718
  78.7199506 113.6218830  50.2960102  77.9932670 113.4874795  49.6876593
  78.3046793 113.9295659  51.1016820  66.5429683 117.3408760  58.0607475
  67.4632692 117.5187359  58.2547521  66.5079266 116.3964805  57.9087174
  64.8433907 111.2140990  36.5361703  63.9365363 110.9174103  36.6124416
  65.1209888 110.9170808  35.6695989  55.7611848 112.5347353  46.9860749
  55.4414632 111.6812662  46.6935123  55.2145276 112.7495932  47.7418717
  59.5391755 115.2509794  50.7030256  59.7577765 116.1826902  50.7218290
  59.9517529 114.8917769  51.4885060  66.4595973 105.7577880  42.6905944
  65.6496701 105.4124965  43.0661190  67.1480390 105.4485424  43.2793556
  68.3886521 104.8355927  44.3130241  68.9417560 105.2551380  44.9720264
  68.6256608 103.9091675  44.3553197  64.4119620 110.8243000  60.0933005
  64.3116347 111.7737357  60.0245096  64.1941162 110.4961239  59.2209075
  63.6132692 108.0727925  36.6773682  64.4751856 108.3982824  36.9369499
  63.7983036 107.2859421  36.1646748  55.6300108 116.1550265  48.9553871
  54.9363579 115.7404218  48.4423825  56.3773099 116.1970801  48.3587290
  71.7665328 106.9456452  43.8208905  71.1863997 107.6041256  43.4386957
  71.5001261 106.1233796  43.4096323  70.2168895 106.3461509  46.0230225
  70.7168673 106.4578044  45.2144544  70.8604503 106.0422562  46.6631034
  64.2750890 114.2540139  58.9098066  63.7917972 115.0540499  59.1161955
  64.3611829 114.2648084  57.9565510  57.5436850 116.0868519  46.8319886
  57.5207538 116.1856206  45.8801769  57.8537487 116.9333670  47.1537052
  60.2024228 118.1444674  50.9466500  61.1567481 118.1128616  50.8796432
  60.0036752 117.6835298  51.7616726  60.7923610 116.7145790  53.5137298
  61.6116499 117.2089868  53.5372135  61.0660418 115.7977758  53.4854865
  70.5490206 109.1056542  42.8765253  69.6616061 109.3906193  42.6585448
  70.9644195 108.9450305  42.0292530  73.9004742 109.1303063  46.5919593
  74.6765133 109.6199516  46.8644209  73.1752877 109.5561117  47.0491462
  76.3377301 109.8430682  47.6493533  76.9321792 109.6026418  46.9386841
  76.4103885 109.1237813  48.2767069  69.6933420 118.8701217  36.9713273
  70.3969270 119.0751219  37.5870929  68.9696068 119.4377979  37.2362357
  70.5231230 114.6211078  43.0915543  70.4666431 115.0779629  42.2523176
  71.0759572 113.8601763  42.9138386  74.3336036 110.4100810  43.9165663
  74.0772970 110.0097446  44.7473871  73.7088904 111.1244604  43.7915802
  78.6448374 113.1496883  46.4236954  78.0847932 113.2190072  47.1968516
  78.0391877 112.9737868  45.7036451  71.6020117 119.3083746  39.0211733
  72.4365721 118.8764944  38.8389208  71.4404460 119.1365760  39.9488628
  71.2566009 115.8115859  40.3868073  71.2014813 115.6460131  39.4456517
  70.6312065 116.5191892  40.5430262  56.0458524 111.0483924  54.2129495
  56.6917388 110.5382878  54.7016720  55.8375675 111.7852605  54.7872920
  68.5711916 118.1164771  59.7121635  69.4403076 118.2905423  59.3508270
  68.0918668 118.9359188  59.5897365  64.5662135 105.3123968  39.9653391
  64.5540805 106.2565808  40.1221662  65.4585557 105.1294114  39.6712852
  62.7398097 125.2361872  51.3911069  63.6425343 125.2685482  51.7077564
  62.5135467 124.3062323  51.4057405  64.4951699 123.9892859  48.0521148
  63.5447330 123.9894720  47.9385520  64.7984185 123.2425593  47.5357182
  68.3814254 101.9066745  44.2199328  67.6146650 101.3525232  44.3656010
  68.7924959 101.9788614  45.0813479  60.3856015 108.1951541  58.3104509
  61.2487477 107.8388346  58.5207834  59.8121426 107.8565436  58.9979913
  80.2304392 129.8253397  49.1166910  80.8682802 129.7060144  48.4130250
  80.1125235 130.7734241  49.1754862  77.0394099 129.7780825  49.0528435
  76.7012610 129.6621890  48.1648970  77.9083867 129.3771990  49.0329441
  77.5213882 130.9315677  55.0114640  77.5102522 130.5368475  54.1395144
  77.6834521 130.1981750  55.6048412  74.7402378 128.5469073  38.3845375
  74.9927899 128.0250594  37.6228838  73.8026937 128.3835218  38.4872058
  79.7845661 127.5504851  46.1920118  80.5708750 127.1324274  45.8410535
  80.0484365 128.4550943  46.3601767  85.1854088 127.4880084  47.0953097
  85.9179260 126.9179301  47.3290926  84.4293444 127.1001685  47.5359602
  76.8030208 129.9107326  44.2916439  76.4388415 129.3837947  45.0029361
  77.6597323 129.5205795  44.1182924  82.7079508 121.2001658  51.5547705
  82.3762833 122.0697069  51.3308920  82.1125122 120.8837942  52.2341736
  76.4435695 124.9397225  39.2877788  76.6110097 125.8077462  39.6548259
  76.2532864 125.1024507  38.3639077  82.6008172 125.9196744  48.6341055
  81.6925049 125.8512153  48.3399816  82.5495767 126.3968689  49.4622881
  76.4224915 127.3954883  40.2724454  76.3024541 127.8411934  41.1109935
  75.7277504 127.7440201  39.7137993  76.6749037 127.3386390  56.5775953
  75.8982371 127.8980310  56.5678817  77.3139600 127.8243173  57.0990823
  84.4669818 124.1213183  50.4118929  83.8244198 124.4145716  49.7658724
  83.9624746 124.0066103  51.2172126  82.1209982 127.8676356  41.1004788
  83.0327838 128.1003743  40.9252486  81.6119629 128.4513400  40.5379867
  76.7581819 127.2273591  52.1099638  77.6043014 127.6513004  52.2534287
  76.6980457 126.5707215  52.8038201  79.9081265 124.8877959  53.7680812
  79.6642197 125.6420020  53.2315087  80.1841195 125.2663307  54.6028059
  79.4645956 124.0434392  49.3494649  78.6030435 124.3415646  49.6411387
  79.4908391 124.2604791  48.4175682  75.2176412 128.7099735  42.5658020
  75.9200455 129.1620779  43.0331947  74.8857040 128.0683554  43.1937913
  73.6656773 127.3011492  56.9409230  73.0355434 127.9827772  57.1744626
  73.5592861 127.1894573  55.9962368  68.9601746 126.9683288  47.8675154
  68.1700800 127.2240816  47.3915264  69.4512993 127.7831625  47.9727194
  70.9116491 127.3327867  44.8258630  70.1147654 127.4446561  45.3442126
  70.6842083 127.6714519  43.9599521  72.9437516 121.6032257  59.3034481
  72.5504462 121.0498456  59.9782125  73.7603656 121.9142836  59.6940998
  75.8605477 123.0190136  56.8954737  76.6015190 123.6197290  56.8159200
  76.0923400 122.2767774  56.3372780  79.8062640 119.0471239  51.1719019
  79.4626909 119.9372881  51.0958129  80.1741603 118.8572897  50.3088604
  79.7712923 129.0379851  39.6791454  79.2559546 129.8084455  39.9179841
  79.4990231 128.3644987  40.3024515  77.3560034 123.8829551  44.7376692
  76.5001630 123.4936402  44.5582331  77.7686986 123.9621512  43.8776478
  78.8859180 121.4175895  49.1368252  78.3823976 121.3806030  48.3236057
  79.1789787 122.3268637  49.1964909  75.1302066 121.5014624  48.1434434
  75.9955063 121.3057433  47.7840323  75.1979575 121.2724976  49.0703791
  79.5599226 126.9106943  41.5051235  79.2549361 127.2253092  42.3561378
  80.5129668 126.9888363  41.5478568  72.7364385 123.7316832  45.5150801
  73.3108137 123.5092014  44.7823994  73.3235368 123.8005527  46.2679402
  81.7943963 129.6190559  46.3215177  82.3075844 130.2520551  46.8236887
  82.4445186 129.0191755  45.9558537  73.0633972 125.7621293  39.5346686
  72.2271285 126.0995980  39.8555961  72.9238742 125.6270273  38.5973823
  75.0387053 120.6058081  44.2425870  74.3851465 120.2907098  43.6182485
  74.9967527 119.9833822  44.9685693  78.2724793 127.0940015  48.5673518
  77.3547355 127.3154962  48.4095206  78.6884937 127.1686325  47.7085225
  79.0559841 128.4931430  43.6976198  79.8031660 129.0052828  43.3883320
  79.3251431 128.1715483  44.5580592  81.5038678 125.5288547  45.6794987
  80.7661435 125.0165933  46.0105230  81.7565452 125.0888928  44.8678264
  81.6050306 118.3064799  46.2736757  81.9109182 117.4462162  45.9862672
  82.3302910 118.8982419  46.0735750  75.8771385 128.6018592  46.7812948
  75.9319995 127.6492428  46.7055424  75.0662587 128.7578031  47.2654246
  73.8163745 127.2195651  44.5403326  73.0031611 127.5189822  44.9468519
  74.3122740 126.8251340  45.2577809  79.4137957 127.6837476  53.3718220
  79.7687345 127.9108949  54.2312686  80.0610088 128.0155853  52.7495476
  73.3077820 124.7914007  50.1564561  73.9477199 124.6502766  49.4587525
  72.4755351 124.5048520  49.7803163  70.3920887 128.2359519  42.3459307
  69.4618476 128.1743975  42.5629269  70.4878359 127.7135472  41.5495948
  70.3106437 124.7614332  44.9337548  70.5713254 125.6759665  44.8246709
  71.1323609 124.2938775  45.0834161  71.7831362 126.1752089  52.1036373
  72.4554415 125.9669451  51.4549022  70.9561148 125.9774175  51.6641605
  77.6856934 122.8014030  54.1202034  77.0384849 123.5003980  54.0266510
  78.4557949 123.2350174  54.4878282  77.8621068 130.6394795  52.1798853
  78.7913128 130.7905955  52.0067821  77.4412098 130.7278816  51.3247500
  81.1473807 131.3883096  37.6123288  80.5302977 130.6629925  37.5156341
  80.6790295 132.1492457  37.2690363  74.8141160 129.1614651  52.3522490
  75.5240778 128.5207844  52.3109108  74.7710468 129.4127546  53.2748670
  73.5270094 126.1479869  54.1718129  72.9907451 125.6970608  54.8239725
  72.9386802 126.2825778  53.4288593  72.9372353 125.6068521  36.7344593
  72.0601819 125.4857321  36.3706839  73.4130106 124.8154599  36.4823481
  69.2609215 125.2835877  51.2571124  69.1767404 124.6761547  50.5221533
  68.4391921 125.7744895  51.2580620  79.4332929 123.7689441  46.6241319
  79.9301628 123.0159403  46.3042389  78.6619910 123.8053757  46.0584528
  76.0167898 125.9106824  46.3513003  75.6465685 125.3577864  47.0393909
  76.5126990 125.3064957  45.7988003  83.9035261 128.3678447  44.7329776
  84.3695713 129.2006439  44.6590079  84.3542761 127.9023429  45.4375035
  81.8751924 120.7359034  48.7720677  80.9615003 120.9663261  48.9402884
  82.3045025 120.8197478  49.6234710  81.6458382 128.9248926  51.2720571
  80.9929832 129.1724833  50.6173024  82.0238762 128.1113064  50.9383049
  77.6945955 129.6668737  57.7586609  77.0186592 129.5662866  58.4288984
  78.5173589 129.5107951  58.2222606  71.4133231 123.3210814  52.5966109
  71.4774558 124.1825645  52.1843507  71.3500352 122.7084816  51.8638468
  70.8885504 125.3933947  56.2439144  71.5157543 125.0111024  56.8576668
  70.0313423 125.1748149  56.6094836  67.6651047 127.2010376  42.1757498
  67.9604488 126.2921054  42.1224552  66.7639082 127.1798115  41.8538501
  71.1945294 125.2766373  48.1585047  70.4731879 125.8902340  48.0192520
  71.9838549 125.8124137  48.0801693  73.9971607 122.6120799  54.4325699
  74.5206009 122.8583096  55.1952008  73.7783940 123.4440834  54.0128836
  69.3938888 124.8824474  42.2996824  69.0651594 124.0021853  42.1171929
  69.7478259 124.8272142  43.1873213  72.5080711 125.1697443  42.6672301
  72.8476784 125.6983365  41.9450910  72.9552832 125.5077850  43.4430868
  75.2024152 123.5534494  52.1175369  74.8620972 122.7542307  52.5196049
  74.4963158 123.8536205  51.5452202  75.8540624 120.6383807  50.5702692
  76.6766693 120.1644285  50.4481583  76.0978687 121.4174290  51.0701379
  74.4948858 123.6672065  40.8665594  75.2157221 124.0453318  40.3629311
  73.8714163 124.3860942  40.9700572  78.6379981 124.3717214  41.8023926
  78.8543596 125.2541852  41.5012754  78.1574048 123.9803427  41.0729568
  73.3779203 127.3302927  48.3794671  73.2323783 127.6443230  49.2718952
  72.9004406 127.9487828  47.8265570  75.2375586 124.3205475  48.4275560
  75.2237154 123.4246568  48.0907858  75.9548014 124.3276139  49.0613846
  77.0901716 124.7542815  50.4728688  76.8319494 125.6759886  50.4713018
  76.5586757 124.3573250  51.1629152  74.6412481 123.2019855  43.6963131
  74.7628393 122.2736502  43.8954018  74.3514524 123.2158541  42.7841446
  77.5103672 120.8874766  46.8329850  77.5325369 120.9514099  45.8781830
  77.9271731 120.0479275  47.0270357  74.1253561 124.7151853  57.9053063
  74.1741717 125.5913976  57.5230833  74.6676075 124.1729246  57.3324706
  82.0210044 128.0916370  55.8146235  82.9219907 127.9522835  55.5230233
  82.0958019 128.2570825  56.7544413  76.3552849 125.4683225  54.6599422
  75.4856159 125.7616791  54.3882010  76.5912330 126.0523670  55.3806685
  79.0591883 121.6862842  52.1764842  79.5773827 122.4223869  51.8511331
  78.7047016 121.9926835  53.0111601  70.6390821 126.5467523  40.2926248
  69.9460066 126.6211878  39.6366284  70.3942573 125.7827867  40.8147765
  79.3104477 118.1063125  47.6965739  79.5906231 117.4386314  48.3226165
  80.0955084 118.2992220  47.1840403  83.1813336 126.5280759  51.4437314
  84.1330759 126.6278856  51.4649538  83.0116786 125.7359027  51.9535398
  81.2027715 123.6136342  51.6296715  80.6077647 123.8941355  50.9343203
  80.9177412 124.1030243  52.4013456  77.4984744 128.6182931  36.6006818
  78.4443849 128.4889139  36.6695236  77.1198989 127.8797593  37.0776246
  85.8095902 126.5397922  50.6037897  85.2934951 125.7556378  50.4167826
  86.6935851 126.2116638  50.7684416  83.4706629 120.2838937  46.5633709
  83.2731450 119.9754026  47.4477041  84.0806335 121.0100576  46.6931639
  75.6827662 126.5432908  36.5361703  74.7759117 126.2466020  36.6124416
  75.9603643 126.2462726  35.6695989  77.2989727 121.0869797  42.6905944
  76.4890456 120.7416882  43.0661190  77.9874144 120.7777341  43.2793556
  79.2280276 120.1647844  44.3130241  79.7811314 120.5843298  44.9720264
  79.4650362 119.2383592  44.3553197  75.2513375 126.1534918  60.0933005
  75.1510102 127.1029275  60.0245096  75.0334917 125.8253157  59.2209075
  74.4526446 123.4019843  36.6773682  75.3145610 123.7274741  36.9369499
  74.6376790 122.6151339  36.1646748  82.6059083 122.2748369  43.8208905
  82.0257752 122.9333173  43.4386957  82.3395015 121.4525714  43.4096323
  81.0562649 121.6753427  46.0230225  81.5562427 121.7869962  45.2144544
  81.6998257 121.3714480  46.6631034  81.3883961 124.4348460  42.8765253
  80.5009816 124.7198110  42.6585448  81.8037950 124.2742223  42.0292530
  84.7398497 124.4594981  46.5919593  85.5158887 124.9491433  46.8644209
  84.0146631 124.8853035  47.0491462  87.1771056 125.1722600  47.6493533
  87.7715546 124.9318336  46.9386841  87.2497639 124.4529731  48.2767069
  81.3624984 129.9502996  43.0915543  81.3060186 130.4071547  42.2523176
  81.9153327 129.1893680  42.9138386  85.1729790 125.7392728  43.9165663
  84.9166725 125.3389363  44.7473871  84.5482658 126.4536522  43.7915802
  82.0959764 131.1407777  40.3868073  82.0408568 130.9752048  39.4456517
  81.4705819 131.8483810  40.5430262  66.8852279 126.3775841  54.2129495
  67.5311142 125.8674795  54.7016720  66.6769430 127.1144523  54.7872920
  75.4055889 120.6415886  39.9653391  75.3934559 121.5857726  40.1221662
  76.2979311 120.4586031  39.6712852  79.2208009 117.2358663  44.2199328
  78.4540405 116.6817149  44.3656010  79.6318714 117.3080531  45.0813479
  71.2249770 123.5243458  58.3104509  72.0881231 123.1680263  58.5207834
  70.6515180 123.1857353  58.9979913  15.1941867  14.8564014  35.8412217
  15.8320276  14.7370761  35.1375557  15.0762709  15.8044858  35.9000169
  12.0031573  14.8091442  35.7773741  11.6650084  14.6932506  34.8894276
  12.8721341  14.4082607  35.7574748  12.4851356  15.9626293  41.7359947
  12.4739997  15.5679092  40.8640451  12.6471995  15.2292366  42.3293718
   5.4082820  18.1578110  34.6054853   6.2004112  17.8168934  34.1901152
   5.6479471  18.2673085  35.5257006   9.2058617  18.7463405  40.6839131
   8.9148483  19.6509036  40.5685797   9.8415601  18.7879933  41.3983200
  10.1314824  16.1240254  37.2740491  10.7278396  15.8996276  36.5597453
  10.1889795  15.3824999  37.8765938  20.1491562  12.5190701  33.8198403
  20.8816734  11.9489917  34.0536233  19.3930918  12.1312301  34.2604909
  14.1648502  18.4324821  37.6788925  13.8649225  19.3349860  37.5704732
  13.8199562  18.1657004  38.5310077  17.5645646  10.9507361  35.3586362
  16.6562523  10.8822769  35.0645123  17.5133242  11.4279306  36.1868187
   9.1469282  25.1969141  30.6459892   9.0693312  26.1476966  30.7248373
   8.5430925  24.8515014  31.3034819  11.6386512  12.3697007  43.3021259
  10.8619846  12.9290927  43.2924124  12.2777075  12.8553790  43.8236129
  19.4307292   9.1523799  37.1364236  18.7881672   9.4456333  36.4904030
  18.9262221   9.0376720  37.9417433   9.8932884  15.1782460  42.8639226
  10.6347568  15.7167504  42.5874050   9.1869869  15.8048749  43.0210778
  15.3688224  17.3211600  41.4611388  15.7771580  16.8794011  40.7166020
  14.6465485  16.7464228  41.7145581  11.7219294  12.2584207  38.8344945
  12.5680489  12.6823621  38.9779594  11.6617931  11.6017831  39.5283508
  15.6917038  17.8812791  35.2163677  15.0625901  18.0458505  34.5139744
  15.3042700  18.2954401  35.9874641  19.5706270  18.8167229  32.5708040
  18.8857308  19.1966130  32.0205074  19.6550119  19.4262556  33.3039988
  14.8718739   9.9188576  40.4926118  14.6279671  10.6730636  39.9560394
  15.1478669  10.2973923  41.3273365  16.8257202  16.4627188  39.1703384
  17.0374097  17.1058948  38.4937765  16.7786950  15.6289504  38.7025314
   8.1369081  17.1658681  35.4193525   8.7070438  17.5945949  34.7811009
   8.7277193  16.8841265  36.1177711  17.9403030  19.3399143  37.3425741
  18.7620473  18.9379331  37.0608423  17.9365433  19.2367377  38.2941857
  11.7059633  18.8883187  39.4986452  11.7704066  19.3503594  40.3344624
  10.9970557  18.2580552  39.6268762  26.0309023  15.6837892  33.6910713
  25.2772731  15.1145290  33.5354717  26.1656564  15.6500556  34.6381347
   6.6831933  21.1892488  32.0216110   6.8598561  22.1110453  31.8337094
   7.4788766  20.8750908  32.4510490  13.0476127  21.1774861  43.4965774
  12.6039981  20.3911239  43.1786679  13.7093341  21.3654011  42.8309665
   7.8063248  22.7070662  38.0226453   8.3570673  22.5787726  37.2503447
   6.9674724  23.0065551  37.6721345  15.1457365  21.4577661  41.5247175
  15.1275841  22.2786542  41.0327445  16.0677285  21.3331736  41.7497317
  11.6030419  18.9721790  42.3670684  12.1358756  18.2110078  42.1369992
  11.0744500  18.6795442  43.1094838  17.9475978  16.2956803  34.9956542
  17.2899653  16.9856064  35.0836671  18.7516377  16.6853235  35.3390528
  16.7581437  14.6501176  33.0460484  17.2713319  15.2831168  33.5482194
  17.4082661  14.0502371  32.6803844  13.2362268  12.1250631  35.2918824
  12.3184829  12.3465578  35.1340512  13.6522411  12.1996942  34.4330532
  17.5243233  19.6307177  31.1739626  17.0705560  18.7898087  31.2304817
  16.8937200  20.2668575  31.5114407  15.9676172  21.4683674  32.1089445
  16.2599147  22.0288731  31.3901810  16.4774793  21.7612235  32.8642604
  10.9309798  22.2464025  33.1982898  10.8885976  22.4724871  32.2691430
  11.8472496  22.0127399  33.3468699  14.3775431  12.7148092  40.0963527
  14.7324819  12.9419566  40.9557993  15.0247563  13.0466469  39.4740782
  20.1073168  15.8366528  30.8012856  19.9691067  16.0268124  29.8734045
  19.7509387  16.5985911  31.2580907  20.1342548  17.9043055  35.8124128
  20.5679055  17.8118344  36.6607182  20.8474129  17.8800556  35.1744144
  13.8670443  21.5045149  37.3457228  13.9207465  22.0736086  38.1134944
  12.9985224  21.6747034  36.9811265  20.9958097  17.9466756  38.3457013
  21.1893988  18.8512566  38.5916288  20.8958716  17.4874175  39.1795598
  16.0573206  18.0973499  43.9197894  15.9058713  17.8684050  43.0027977
  16.0477886  19.0544100  43.9329239  12.8258543  15.6705411  38.9044160
  13.7550603  15.8216571  38.7313127  12.4049573  15.7589432  38.0492807
  11.6246874  19.6956076  36.6742698  11.4857960  19.3274860  37.5468636
  10.8361471  20.2103715  36.5026655  12.2195026  24.7965172  28.0168234
  12.3946782  24.3253216  28.8313857  11.5327814  25.4230939  28.2449495
  13.1752089  19.0737679  34.0631535  12.8401922  19.0338449  34.9589185
  12.6756035  18.4082395  33.5901946   7.1496333  14.4805309  39.5884117
   7.0116131  13.7485547  40.1895656   8.0601257  14.3914209  39.3068304
   9.7778634  14.1925268  39.0767796  10.4878253  13.5518460  39.0354415
   9.7347942  14.4438163  39.9993977  17.7665413  21.1292621  41.9974375
  17.7077959  20.4451841  41.3304958  18.1684931  21.8711611  41.5455001
   6.7856112  27.9454535  34.7908094   7.0252710  28.5773059  35.4687113
   5.9425308  27.5942575  35.0773454  17.7682820  19.0932205  40.2288355
  16.8809599  18.7558127  40.3514754  18.3381371  18.3615236  40.4657120
  11.2983973  23.7533658  37.1949598  11.2254145  24.5588629  37.7068903
  10.8561367  23.9525623  36.3697620  11.0873753  22.9905428  30.7052420
  10.3041275  23.5327108  30.7990644  11.7866498  23.5079407  31.1046661
  22.2500161  14.5040423  34.9904917  22.2390037  15.3865138  34.6198850
  21.3817540  14.1511973  34.7959454  13.7582657  23.6520492  39.3507757
  14.4710629  24.2867956  39.2783658  13.2672686  23.7484358  38.5347759
   8.8094570  21.4014935  40.1713328   9.5104030  22.0351418  40.3242722
   8.3389685  21.7429667  39.4108967  16.6095856  13.9559543  37.9965878
  15.9567307  14.2035450  37.3418331  16.9876236  13.1423681  37.6628355
  13.5703030  23.9919236  32.0994048  13.7525425  23.1740892  32.5621801
  14.3936016  24.2086928  31.6618938  13.9045196  22.9187421  29.3609097
  14.4332962  22.4079875  28.7479259  14.1673415  22.6029951  30.2254630
  12.6583429  14.6979354  44.4831915  11.9824066  14.5973483  45.1534290
  13.4811063  14.5418567  44.9467912   4.4062289  20.9351290  37.1044430
   4.9915725  20.1894978  37.2372335   4.2087127  21.2455247  37.9881094
   7.2600944  23.9702538  32.1206873   6.5911319  24.4548665  31.6370913
   7.1213813  24.2171758  33.0350251  11.4006212  26.0046281  38.7189531
  11.9524520  26.1677903  39.4838616  11.7412406  26.5950719  38.0469556
  16.2517087  20.8307539  44.5738186  16.7956991  21.4437497  44.0793140
  15.6703932  21.3887117  45.0905199  14.5374600  23.9528257  35.7053213
  14.4125739  23.1517996  35.1964159  15.1953691  24.4474450  35.2167183
  16.6009508  21.7537277  37.3332763  15.6539844  21.6342628  37.2611090
  16.9492281  20.8659775  37.4159025  13.6055941  21.5489993  33.5337116
  13.4580904  20.6206700  33.7144686  14.4309435  21.5710084  33.0494191
  17.2090063  22.3718552  34.6201988  18.1336611  22.1661413  34.4826440
  17.0405367  22.1234953  35.5291330  16.9985379  22.8904219  29.9764080
  17.1722257  22.3250642  29.2237932  17.4914271  23.6905114  29.7943570
  22.8524771  15.6540642  31.5954380  23.2955917  14.9047967  31.1973503
  21.9751281  15.6450778  31.2128112  17.9860552  22.2070983  27.0760978
  18.6811456  22.8277676  27.2948293  18.3283702  21.3566335  27.3513356
  19.8851975  19.6570689  28.6048309  20.4103299  19.9957962  27.8797629
  19.7974328  18.7217704  28.4211444  11.5472024  23.5704763  40.7338186
  11.8559150  23.3253909  41.6060885  12.3447506  23.7751401  40.2457056
  11.5692636  25.7242672  32.9643562  11.1297626  25.2319051  33.6576419
  12.3200753  25.1815640  32.7235637   4.0484975  21.9154213  32.9668190
   4.8742995  21.6157985  32.5866834   3.6979027  21.1461836  33.4157979
   9.0166508  21.2680681  35.0365864   8.3946517  20.6051386  34.7368092
   9.6871375  21.2941813  34.3539512  19.5745881  20.2903593  43.9099507
  18.7841425  20.2727731  43.3704006  19.3379236  20.8291886  44.6648543
  19.6943756  17.1396059  41.2232235  19.7441761  16.9746066  42.1647758
  19.5857679  16.2723318  40.8330116  16.9847518  13.1226987  42.5391542
  17.8857381  12.9833452  42.2475540  17.0595493  13.2881442  43.4789720
  21.1961953  19.5593001  41.4674257  20.9046761  19.9222981  42.3037718
  20.5834084  18.8460009  41.2887589  22.3957635  17.1245880  33.9876827
  23.2304527  17.5635684  34.1514388  22.5316764  16.6484533  33.1685073
  19.4449141  14.6825615  39.9354315  19.9203263  14.8753261  39.1273166
  18.5214707  14.7384801  39.6897699  18.1450810  11.5591375  38.1682621
  19.0968233  11.6589473  38.1894845  17.9754261  10.7669644  38.6780705
  16.1665190   8.6446958  38.3542021  15.5715122   8.9251971  37.6588510
  15.8814886   9.1340859  39.1258763  20.6238888  14.7797495  37.2824920
  20.5915208  13.8413496  37.4684604  21.2339512  14.8581532  36.5490745
  20.7733376  11.5708538  37.3283203  20.2572425  10.7866995  37.1413132
  21.6573325  11.2427255  37.4929723  26.4415438  15.8413502  36.4230957
  27.1718826  15.5798790  36.9838660  25.8322383  15.1042224  36.4633025
  24.5230735  13.9821364  37.0205408  23.7963898  13.8477329  36.4121900
  24.1078022  14.2898193  37.8262126  12.3460911  17.7011294  44.7852781
  13.2663921  17.8789893  44.9792828  12.3110494  16.7567339  44.6332480
   5.3422984  15.6112329  37.4275562   5.5608994  16.5429436  37.4463596
   5.7548758  15.2520303  38.2130366  10.0782119  14.6142673  45.6343373
   9.5949201  15.4143033  45.8407262  10.1643058  14.6250618  44.6810817
   6.0055457  18.5047208  37.6711807   6.9598710  18.4731150  37.6041738
   5.8067980  18.0437832  38.4862033   6.5954839  17.0748324  40.2382604
   7.4147728  17.5692403  40.2617442   6.8691647  16.1580292  40.2100172
  22.1408530  10.2033217  34.3738840  22.7353021   9.9628952  33.6632148
  22.2135114   9.4840347  35.0012376   4.3605686  24.0466827  34.6882005
   4.2260153  23.2867228  34.1220003   3.9437748  24.7707727  34.2210793
  24.4479603  13.5099417  33.1482261  23.8879161  13.5792607  33.9213823
  23.8423106  13.3340402  32.4281757   7.5174811  24.9436144  34.9000447
   7.4007196  25.8881577  34.7979138   6.6967258  24.6409706  35.2886246
  14.3743145  18.4767305  46.4366942  15.2434305  18.6507958  46.0753577
  13.8949897  19.2961722  46.3142671   8.5429326  25.5964406  38.1156376
   9.4456572  25.6288017  38.4322871   8.3166696  24.6664857  38.1302711
  10.2982928  24.3495393  34.7766454   9.3478559  24.3497255  34.6630827
  10.6015414  23.6028127  34.2602489  26.0335621  30.1855931  35.8412217
  26.6714031  30.0662679  35.1375557  25.9156464  31.1336775  35.9000169
  22.8425327  30.1383359  35.7773741  22.5043839  30.0224424  34.8894276
  23.7115096  29.7374525  35.7574748  18.7012143  31.9918836  31.7670632
  18.1377008  31.9008773  30.9986920  18.5864538  31.1718740  32.2473125
  23.3245110  31.2918211  41.7359947  23.3133751  30.8971009  40.8640451
  23.4865750  30.5584284  42.3293718  16.2476575  33.4870027  34.6054853
  17.0397867  33.1460852  34.1901152  16.4873225  33.5965002  35.5257006
  24.2811702  35.6589804  27.0785097  23.6299681  36.2443884  26.6919111
  25.0756065  36.1895998  27.1380135  18.2067329  32.7478941  27.4772232
  18.9798205  32.2007928  27.3385107  18.5592728  33.6123190  27.6886693
  20.0452371  34.0755323  40.6839131  19.7542237  34.9800954  40.5685797
  20.6809356  34.1171851  41.3983200  20.9708578  31.4532171  37.2740491
  21.5672151  31.2288194  36.5597453  21.0283550  30.7116917  37.8765938
  20.5433607  28.9071607  25.1090682  20.7959127  28.3853128  24.3474145
  19.6058166  28.7437752  25.2117365  25.5876890  27.9107385  32.9165425
  26.3739979  27.4926808  32.5655842  25.8515594  28.8153477  33.0847073
  25.7586967  33.3480235  27.6154082  25.1232800  33.4214862  28.3274986
  25.4284373  33.9373834  26.9373161  30.9885317  27.8482618  33.8198403
  31.7210489  27.2781835  34.0536233  30.2324672  27.4604219  34.2604909
  20.2629895  30.8099713  27.3115056  20.1466154  30.1344616  27.9796141
  20.3732155  30.3232087  26.4947210  22.6061436  30.2709860  31.0161746
  22.2419644  29.7440481  31.7274667  23.4628552  29.8808329  30.8428231
  28.5110737  21.5604192  38.2793012  28.1794062  22.4299603  38.0554227
  27.9156350  21.2440476  38.9587042  22.2466923  25.2999760  26.0123094
  22.4141326  26.1679996  26.3793565  22.0564092  25.4627041  25.0884383
  25.0042257  33.7616738  37.6788925  24.7042980  34.6641777  37.5704732
  24.6593316  33.4948922  38.5310077  18.4554738  30.2130535  33.7125629
  17.5305234  30.0806749  33.9203321  18.7039151  30.9924755  34.2095571
  28.4039400  26.2799279  35.3586362  27.4956278  26.2114687  35.0645123
  28.3526996  26.7571224  36.1868187  22.2256144  27.7557417  26.9969761
  22.1055769  28.2014468  27.8355241  21.5308733  28.1042735  26.4383299
  15.8163549  29.8563809  34.5469418  15.9455930  30.1098288  35.4608830
  15.1361000  30.4491517  34.2274073  19.9863036  40.5261059  30.6459892
  19.9087066  41.4768884  30.7248373  19.3824680  40.1806931  31.3034819
  22.4780266  27.6988924  43.3021259  21.7013600  28.2582844  43.2924124
  23.1170829  28.1845707  43.8236129  30.2701047  24.4815717  37.1364236
  29.6275427  24.7748250  36.4904030  29.7655975  24.3668637  37.9417433
  27.9241210  28.2278890  27.8250095  28.8359066  28.4606277  27.6497793
  27.4150857  28.8115934  27.2625174  20.7326638  30.5074378  42.8639226
  21.4741323  31.0459422  42.5874050  20.0263624  31.1340666  43.0210778
  26.2081978  32.6503518  41.4611388  26.6165334  32.2085929  40.7166020
  25.4859240  32.0756146  41.7145581  22.5613048  27.5876125  38.8344945
  23.4074243  28.0115538  38.9779594  22.5011686  26.9309749  39.5283508
  26.5310793  33.2104709  35.2163677  25.9019655  33.3750423  34.5139744
  26.1436455  33.6246318  35.9874641  30.4100025  34.1459147  32.5708040
  29.7251063  34.5258048  32.0205074  30.4943874  34.7554473  33.3039988
  25.7112493  25.2480493  40.4926118  25.4673425  26.0022554  39.9560394
  25.9872424  25.6265841  41.3273365  27.6650956  31.7919106  39.1703384
  27.8767851  32.4350865  38.4937765  27.6180704  30.9581422  38.7025314
  25.2677185  24.4036926  36.0739956  24.4061664  24.7018180  36.3656694
  25.2939620  24.6207325  35.1420989  22.0838755  32.9479117  32.4813762
  22.5477100  33.2266820  31.6918384  21.8195553  32.0462561  32.2986852
  18.9762836  32.4950598  35.4193525  19.5464193  32.9237867  34.7811009
  19.5670947  32.2133183  36.1177711  21.0207641  29.0702269  29.2903327
  21.7231684  29.5223313  29.7577253  20.6888269  28.4286088  29.9183220
  19.4688002  27.6614026  43.6654536  18.8386663  28.3430307  43.8989933
  19.3624090  27.5497107  42.7207674  14.7632975  27.3285822  34.5920460
  13.9732029  27.5843350  34.1160571  15.2544222  28.1434160  34.6972501
  28.7796784  34.6691061  37.3425741  29.6014228  34.2671248  37.0608423
  28.7759187  34.5659295  38.2941857  16.7147720  27.6930401  31.5503937
  15.9178883  27.8049095  32.0687433  16.4873312  28.0317053  30.6844828
  22.5453388  34.2175104  39.4986452  22.6097820  34.6795512  40.3344624
  21.8364311  33.5872469  39.6268762  13.0470678  27.5816312  37.0235451
  13.2978716  28.4663322  37.2893027  13.5830226  27.4020914  36.2510543
  36.8702777  31.0129809  33.6910713  36.1166486  30.4437208  33.5354717
  37.0050318  30.9792474  34.6381347  22.2601405  35.8843212  29.3665432
  22.1247080  36.7294747  29.7950280  22.8011218  36.0862489  28.6031366
  18.7468745  21.9634792  46.0279787  18.3535690  21.4100990  46.7027431
  19.5634885  22.2745370  46.4186305  15.7130803  33.4018650  29.9393357
  16.2255323  34.1961900  30.0898922  16.3653515  32.7044940  29.8726959
  17.5225687  36.5184406  32.0216110  17.6992316  37.4402371  31.8337094
  18.3182521  36.2042825  32.4510490  21.6636706  23.3792671  43.6200044
  22.4046419  23.9799824  43.5404506  21.8954629  22.6370309  43.0618086
  16.8078044  28.5649038  41.8978273  16.6931559  27.6634295  42.1985372
  15.9522562  28.8112735  41.5463090  23.8869882  36.5066778  43.4965774
  23.4433736  35.7203157  43.1786679  24.5487095  36.6945929  42.8309665
  18.6457003  38.0362580  38.0226453  19.1964428  37.9079643  37.2503447
  17.8068479  38.3357469  37.6721345  25.9851120  36.7869578  41.5247175
  25.9669595  37.6078459  41.0327445  26.9071040  36.6623653  41.7497317
  22.4424174  34.3013708  42.3670684  22.9752511  33.5401996  42.1369992
  21.9138255  34.0087360  43.1094838  25.6093869  19.4073774  37.8964325
  25.2658138  20.2975415  37.8203436  25.9772831  19.2175431  37.0333910
  13.6779719  31.7307304  30.7152928  14.5154941  32.1404312  30.4986635
  13.8557987  30.7906746  30.6853122  25.5744152  29.3982385  26.4036761
  25.0590775  30.1686989  26.6425148  25.3021460  28.7247521  27.0269822
  23.1591263  24.2432086  31.4621999  22.3032859  23.8538936  31.2827638
  23.5718214  24.3224046  30.6021785  24.6890409  21.7778429  35.8613559
  24.1855205  21.7408564  35.0481364  24.9821016  22.6871172  35.9210215
  20.9333295  21.8617159  34.8679740  21.7986292  21.6659967  34.5085630
  21.0010804  21.6327510  35.7949097  30.5478426  32.1514739  28.3389934
  29.7707868  31.8125899  27.8945096  31.2269907  32.1567363  27.6644899
  25.3630455  27.2709477  28.2296542  25.0580590  27.5855626  29.0806685
  26.3160897  27.3490897  28.2723875  23.8076887  33.4299700  29.8789496
  23.2798248  32.6952460  29.5662733  23.3064389  34.2074377  29.6329464
  28.7869733  31.6248721  34.9956542  28.1293407  32.3147982  35.0836671
  29.5910132  32.0145153  35.3390528  18.5395614  24.0919366  32.2396107
  19.1139366  23.8694548  31.5069300  19.1266597  24.1608061  32.9924709
  27.5975191  29.9793093  33.0460484  28.1107073  30.6123085  33.5482194
  28.2476415  29.3794289  32.6803844  18.8665201  26.1223827  26.2591993
  18.0302514  26.4598514  26.5801267  18.7269971  25.9872807  25.3219130
  20.8418282  20.9660615  30.9671177  20.1882694  20.6509633  30.3427791
  20.7998756  20.3436356  31.6931000  21.9529487  31.2479910  22.8824469
  21.0456548  31.0169164  23.0815618  22.4500519  30.4517530  23.0698450
  24.8597566  39.9577418  25.8021155  24.1859264  40.2609114  26.4106113
  25.2463388  40.7606498  25.4526612  24.0756022  27.4542549  35.2918824
  23.1578584  27.6757496  35.1340512  24.4916166  27.5288859  34.4330532
  24.8591070  28.8533965  30.4221505  25.6062889  29.3655362  30.1128627
  25.1282660  28.5318017  31.2825898  23.1317720  31.3492505  27.4048459
  22.2228939  31.0651538  27.5020929  23.1612804  31.7691584  26.5451766
  28.3636988  34.9599095  31.1739626  27.9099315  34.1190005  31.2304817
  27.7330954  35.5960493  31.5114407  27.3069907  25.8891081  32.4040294
  26.5692664  25.3768467  32.7350536  27.5596681  25.4491462  31.5923571
  26.8069927  36.7975591  32.1089445  27.0992901  37.3580649  31.3901810
  27.3168547  37.0904152  32.8642604  27.4081534  18.6667333  32.9982063
  27.7140411  17.8064696  32.7107978  28.1334139  19.2584953  32.7981057
  13.7005891  29.0698019  31.3863661  13.5030290  28.4767380  30.6614728
  13.1452555  28.7650230  32.1039600  21.6802614  28.9621126  33.5058254
  21.7351224  28.0094962  33.4300731  20.8693816  29.1180565  33.9899553
  22.8293808  32.8901249  24.7436537  22.3913238  32.1737108  24.2842175
  23.5704249  33.1177364  24.1821629  19.6194974  27.5798186  31.2648633
  18.8062840  27.8792356  31.6713825  20.1153968  27.1853874  31.9823115
  21.7703552  37.5755943  33.1982898  21.7279731  37.8016789  32.2691430
  22.6866251  37.3419317  33.3468699  25.2169186  28.0440010  40.0963527
  25.5718574  28.2711483  40.9557993  25.8641317  28.3758387  39.4740782
  30.9466923  31.1658446  30.8012856  30.8084821  31.3560042  29.8734045
  30.5903142  31.9277829  31.2580907  19.1109049  25.1516541  36.8809868
  19.7508428  25.0105300  36.1832831  18.2786579  24.8651055  36.5048470
  30.9736302  33.2334973  35.8124128  31.4072809  33.1410262  36.6607182
  31.6867883  33.2092473  35.1744144  19.8869353  34.4518972  32.9944861
  20.6809951  33.9569292  32.7927435  19.1761045  33.9236835  32.6312566
  24.7064197  36.8337067  37.3457228  24.7601220  37.4028003  38.1134944
  23.8378979  37.0038952  36.9811265  16.1952116  28.5962053  29.0704613
  15.2649704  28.5346509  29.2874575  16.2909588  28.0738006  28.2741254
  16.1137665  25.1216866  31.6582855  16.3744483  26.0362199  31.5492015
  16.9354838  24.6541309  31.8079468  17.5862591  26.5354623  38.8281679
  18.2585644  26.3271985  38.1794328  16.7592377  26.3376709  38.3886912
  31.8351852  33.2758674  38.3457013  32.0287742  34.1804484  38.5916288
  31.7352470  32.8166093  39.1795598  23.4888163  23.1616564  40.8447340
  22.8416078  23.8606514  40.7511817  24.2589178  23.5952708  41.2123588
  26.8966961  33.4265416  43.9197894  26.7452467  33.1975968  43.0027977
  26.8871640  34.3836018  43.9329239  23.6652297  30.9997329  38.9044160
  24.5944357  31.1508489  38.7313127  23.2443327  31.0881350  38.0492807
  22.4640629  35.0247994  36.6742698  22.3251714  34.6566778  37.5468636
  21.6755225  35.5395633  36.5026655  23.0588781  40.1257090  28.0168234
  23.2340536  39.6545133  28.8313857  22.3721569  40.7522856  28.2449495
  24.0145844  34.4029596  34.0631535  23.6795677  34.3630366  34.9589185
  23.5149790  33.7374312  33.5901946  17.9890088  29.8097226  39.5884117
  17.8509886  29.0777465  40.1895656  18.8995011  29.7206126  39.3068304
  26.9505036  31.7485631  24.3368595  26.3334206  31.0232459  24.2401648
  26.4821524  32.5094991  23.9935669  20.6172389  29.5217186  39.0767796
  21.3272007  28.8810378  39.0354415  20.5741697  29.7730080  39.9993977
  28.6059167  36.4584539  41.9974375  28.5471713  35.7743759  41.3304958
  29.0078686  37.2003529  41.5455001  19.3301323  26.5082404  40.8963436
  18.7938680  26.0573142  41.5485032  18.7418031  26.6428312  40.1533900
  17.6249866  43.2746453  34.7908094  17.8646464  43.9064977  35.4687113
  16.7819063  42.9234493  35.0773454  28.6076575  34.4224123  40.2288355
  27.7203353  34.0850045  40.3514754  29.1775126  33.6907154  40.4657120
  10.2605722  30.7548215  33.5531406  10.9476761  30.4409945  32.9652422
  10.1053850  31.6589579  33.2798658  15.0640444  25.6438411  37.9816430
  14.9798633  25.0364081  37.2466840  14.2423150  26.1347430  37.9825927
  22.1377728  39.0825575  37.1949598  22.0647899  39.8880547  37.7068903
  21.6955121  39.2817541  36.3697620  21.9267508  38.3197345  30.7052420
  21.1435029  38.8619025  30.7990644  22.6260253  38.8371325  31.1046661
  25.2364158  24.1291975  33.3486625  25.7332857  23.3761937  33.0287695
  24.4651139  24.1656291  32.7829835  33.0893915  29.8332340  34.9904917
  33.0783791  30.7157056  34.6198850  32.2211294  29.4803891  34.7959454
  24.5976411  38.9812409  39.3507757  25.3104384  39.6159874  39.2783658
  24.1066440  39.0776275  38.5347759  26.3193938  32.8863662  30.9225049
  25.3850217  33.0065124  30.7529753  26.4970607  31.9836129  30.6585058
  21.8199126  26.2709358  33.0758310  21.4496914  25.7180398  33.7639215
  22.3158219  25.6667491  32.5233310  29.7066490  28.7280981  31.4575083
  30.1726942  29.5608973  31.3835385  30.1573990  28.2625963  32.1620341
  19.6488325  36.7306853  40.1713328  20.3497784  37.3643336  40.3242722
  19.1783440  37.0721584  39.4108967  27.7742721  35.0724803  28.4561235
  28.0502565  34.9581397  29.3655109  26.9047220  34.6742287  28.4173408
  27.6783152  21.0961568  35.4965984  26.7646232  21.3265795  35.6648191
  28.1076254  21.1800012  36.3480016  27.4489611  29.2851460  37.9965878
  26.7961061  29.5327368  37.3418331  27.8269991  28.4715598  37.6628355
  24.4096785  39.3211153  32.0994048  24.5919179  38.5032809  32.5621801
  25.2329771  39.5378846  31.6618938  24.7438950  38.2479339  29.3609097
  25.2726717  37.7371793  28.7479259  25.0067170  37.9321869  30.2254630
  23.4977184  30.0271271  44.4831915  22.8217821  29.9265401  45.1534290
  24.3204818  29.8710485  44.9467912  15.2456043  36.2643208  37.1044430
  15.8309480  35.5186896  37.2372335  15.0480881  36.5747165  37.9881094
  18.0994698  39.2994455  32.1206873  17.4305074  39.7840583  31.6370913
  17.9607568  39.5463676  33.0350251   9.8373698  28.8348808  35.8248874
   9.8757797  28.3012399  36.6185992   9.3313991  28.3084014  35.2059851
  22.2399967  41.3338199  38.7189531  22.7918275  41.4969820  39.4838616
  22.5806160  41.9242637  38.0469556  17.2164460  23.6813349  39.3211416
  17.2805787  24.5428179  38.9088814  17.1531580  23.0687350  38.5883774
  16.6916733  25.7536481  42.9684450  17.3188771  25.3713558  43.5821974
  15.8344651  25.5350683  43.3340143  27.0910841  36.1599456  44.5738186
  27.6350745  36.7729414  44.0793140  26.5097686  36.7179035  45.0905199
  13.4682275  27.5612910  28.9002805  13.7635716  26.6523589  28.8469859
  12.5670311  27.5400650  28.5783807  25.3768354  39.2820174  35.7053213
  25.2519494  38.4809914  35.1964159  26.0347445  39.7766368  35.2167183
  16.9976522  25.6368907  34.8830354  16.2763108  26.2504874  34.7437827
  17.7869778  26.1726672  34.8047000  27.4403262  37.0829194  37.3332763
  26.4933598  36.9634546  37.2611090  27.7886036  36.1951692  37.4159025
  19.8002836  22.9723333  41.1571005  20.3237238  23.2185630  41.9197315
  19.5815169  23.8043368  40.7374143  15.1970117  25.2427008  29.0242130
  14.8682823  24.3624387  28.8417236  15.5509488  25.1874677  29.9118519
  24.4449696  36.8781911  33.5337116  24.2974658  35.9498618  33.7144686
  25.2703189  36.9002001  33.0494191  18.3111940  25.5299978  29.3917608
  18.6508013  26.0585899  28.6696216  18.7584061  25.8680384  30.1676174
  28.0483818  37.7010469  34.6201988  28.9730365  37.4953331  34.4826440
  27.8799121  37.4526870  35.5291330  21.0055381  23.9137028  38.8420676
  20.6652201  23.1144841  39.2441356  20.2994387  24.2138739  38.2697509
  21.6571853  20.9986341  37.2947999  22.4797922  20.5246819  37.1726889
  21.9009916  21.7776825  37.7946685  20.2980087  24.0274599  27.5910901
  21.0188450  24.4055852  27.0874617  19.6745391  24.7463476  27.6945879
  24.4411210  24.7319748  28.5269233  24.6574824  25.6144386  28.2258061
  23.9605277  24.3405962  27.7974875  19.1810431  27.6905461  35.1039978
  19.0355012  28.0045764  35.9964259  18.7035635  28.3090362  34.5510876
  21.0406814  24.6808009  35.1520867  21.0268383  23.7849103  34.8153165
  21.7579242  24.6878673  35.7859153  22.8932945  25.1145350  37.1973994
  22.6350723  26.0362420  37.1958325  22.3617985  24.7175784  37.8874459
  27.8379134  38.2196137  29.9764080  28.0116011  37.6542559  29.2237932
  28.3308025  39.0197032  29.7943570  13.6556094  30.2310806  38.0427639
  13.1109562  31.0070614  38.1747913  14.5335444  30.5781610  37.8846760
  20.4443710  23.5622390  30.4208437  20.5659622  22.6339036  30.6199325
  20.1545753  23.5761076  29.5086753  23.3134901  21.2477300  33.5575157
  23.3356598  21.3116633  32.6027137  23.7302960  20.4081809  33.7515663
  33.6918525  30.9832560  31.5954380  34.1349671  30.2339885  31.1973503
  32.8145035  30.9742696  31.2128112  28.8254306  37.5362901  27.0760978
  29.5205211  38.1569594  27.2948293  29.1677456  36.6858252  27.3513356
  14.4422116  29.3580702  40.9357796  13.7003852  29.5063337  41.5222426
  14.1214860  29.6188968  40.0724545  30.7245729  34.9862607  28.6048309
  31.2497054  35.3249879  27.8797629  30.6368082  34.0509622  28.4211444
  22.3865778  38.8996680  40.7338186  22.6952905  38.6545827  41.6060885
  23.1841260  39.1043319  40.2457056  22.4086390  41.0534590  32.9643562
  21.9691380  40.5610969  33.6576419  23.1594507  40.5107558  32.7235637
  14.8878729  37.2446131  32.9668190  15.7136749  36.9449903  32.5866834
  14.5372781  36.4753753  33.4157979  19.8560262  36.5972599  35.0365864
  19.2340272  35.9343304  34.7368092  20.5265129  36.6233731  34.3539512
  13.0887334  35.1632457  33.9257124  12.2519243  34.7354632  33.7441125
  13.0610980  35.3564901  34.8627915  19.9284790  25.0754387  44.6298370
  19.9772945  25.9516510  44.2476139  20.4707304  24.5331780  44.0570013
  30.4139636  35.6195510  43.9099507  29.6235179  35.6019649  43.3704006
  30.1772990  36.1583804  44.6648543  30.5337511  32.4687977  41.2232235
  30.5835516  32.3037984  42.1647758  30.4251434  31.6015236  40.8330116
  19.4173769  35.1476522  28.5124324  19.5661890  35.8311987  27.8590997
  20.2240213  35.1281612  29.0273780  27.8241273  28.4518905  42.5391542
  28.7251136  28.3125370  42.2475540  27.8989247  28.6173360  43.4789720
  22.1584078  25.8285759  41.3844728  21.2887388  26.1219326  41.1127317
  22.3943559  26.4126204  42.1051992  32.0355707  34.8884918  41.4674257
  31.7440516  35.2514899  42.3037718  31.4227839  34.1751926  41.2887589
  33.2351390  32.4537798  33.9876827  34.0698281  32.8927602  34.1514388
  33.3710519  31.9776451  33.1685073  30.2842896  30.0117533  39.9354315
  30.7597017  30.2045179  39.1273166  29.3608461  30.0676719  39.6897699
  17.1726402  31.1741700  29.5185393  16.9272444  30.2704030  29.7165603
  17.3422317  31.1758850  28.5764871  24.8623112  22.0465376  38.9010149
  25.3805056  22.7826403  38.5756637  24.5078245  22.3529370  39.7356908
  16.4422050  26.9070058  27.0171555  15.7491295  26.9814413  26.3611591
  16.1973802  26.1430401  27.5393072  25.1135706  18.4665659  34.4211045
  25.3937460  17.7988848  35.0471472  25.8986313  18.6594755  33.9085709
  22.9169175  37.6424653  25.9836072  22.3443142  38.2614840  25.5306544
  23.4901968  38.1924014  26.5175994  28.9844565  26.8883293  38.1682621
  29.9361988  26.9881391  38.1894845  28.8148015  26.0961561  38.6780705
  27.0058944  23.9738876  38.3542021  26.4108876  24.2543889  37.6588510
  26.7208641  24.4632777  39.1258763  26.1366435  37.9261803  27.1144654
  27.0697108  37.8607365  27.3177530  26.0489647  38.7618070  26.6559187
  28.7654451  37.2427673  24.0748602  28.6868083  36.9087537  24.9684359
  29.5864118  37.7349441  24.0740074  31.4632642  30.1089413  37.2824920
  31.4308963  29.1705413  37.4684604  32.0733266  30.1873449  36.5490745
  23.3015973  28.9785466  23.3252124  24.2475078  28.8491674  23.3940542
  22.9230218  28.2400127  23.8021552  31.6127131  26.9000456  37.3283203
  31.0966180  26.1158913  37.1413132  32.4967079  26.5719173  37.4929723
  29.2737858  20.6441472  33.2879016  29.0762679  20.3356560  34.1722348
  29.8837563  21.3703111  33.4176946  37.2809192  31.1705419  36.4230957
  38.0112581  30.9090708  36.9838660  36.6716138  30.4334141  36.4633025
  35.3624489  29.3113282  37.0205408  34.6357653  29.1769247  36.4121900
  34.9471776  29.6190111  37.8262126  23.1854666  33.0303212  44.7852781
  24.1057675  33.2081811  44.9792828  23.1504249  32.0859257  44.6332480
  12.4036831  28.2241805  33.7106056  12.0839615  27.3707114  33.4180430
  11.8570259  28.4390384  34.4664023  16.1816738  30.9404246  37.4275562
  16.4002748  31.8721354  37.4463596  16.5942512  30.5812221  38.2130366
  23.1020956  21.4472332  29.4151251  22.2921684  21.1019417  29.7906497
  23.7905373  21.1379875  30.0038862  25.0311504  20.5250378  31.0375547
  25.5842543  20.9445832  31.6965571  25.2681591  19.5986127  31.0798503
  21.0544604  26.5137452  46.8178311  20.9541331  27.4631809  46.7490402
  20.8366146  26.1855691  45.9454381  12.2725091  31.8444717  35.6799177
  11.5788562  31.4298670  35.1669132  13.0198082  31.8865253  35.0832596
  28.4090312  22.6350904  30.5454212  27.8288981  23.2935708  30.1632264
  28.1426244  21.8128248  30.1341629  26.8593878  22.0355961  32.7475532
  27.3593656  22.1472496  31.9389851  27.5029486  21.7317014  33.3876340
  20.9175874  29.9434591  45.6343373  20.4342955  30.7434951  45.8407262
  21.0036813  29.9542536  44.6810817  14.1861833  31.7762971  33.5565192
  14.1632521  31.8750658  32.6047075  14.4962470  32.6228121  33.8782358
  16.8449211  33.8339126  37.6711807  17.7992465  33.8023068  37.6041738
  16.6461735  33.3729749  38.4862033  17.4348593  32.4040242  40.2382604
  18.2541482  32.8984320  40.2617442  17.7085401  31.4872210  40.2100172
  27.1915190  24.7950994  29.6010560  26.3041045  25.0800645  29.3830755
  27.6069179  24.6344757  28.7537837  30.5429726  24.8197515  33.3164899
  31.3190116  25.3093967  33.5889516  29.8177860  25.2455569  33.7736769
  32.9802284  25.5325134  34.3738840  33.5746775  25.2920870  33.6632148
  33.0528868  24.8132265  35.0012376  15.1999440  39.3758745  34.6882005
  15.0653908  38.6159146  34.1220003  14.7831502  40.0999645  34.2210793
  26.3358403  34.5595669  23.6958580  27.0394253  34.7645671  24.3116236
  25.6121052  35.1272431  23.9607663  27.1656213  30.3105530  29.8160850
  27.1091415  30.7674081  28.9768482  27.7184556  29.5496215  29.6383693
  30.9761019  26.0995262  30.6410970  30.7197953  25.6991897  31.4719177
  30.3513887  26.8139056  30.5161109  35.2873357  28.8391335  33.1482261
  34.7272915  28.9084524  33.9213823  34.6816860  28.6632320  32.4281757
  18.3568566  40.2728062  34.9000447  18.2400950  41.2173495  34.7979138
  17.5361012  39.9701624  35.2886246  28.2445100  34.9978198  25.7457040
  29.0790704  34.5659396  25.5634515  28.0829443  34.8260212  26.6733934
  27.8990993  31.5010311  27.1113379  27.8439796  31.3354583  26.1701823
  27.2737048  32.2086344  27.2675569  12.6883508  26.7378376  40.9374801
  13.3342371  26.2277330  41.4262027  12.4800659  27.4747057  41.5118227
  25.2136900  33.8059223  46.4366942  26.0828059  33.9799875  46.0753577
  24.7343651  34.6253640  46.3142671  21.2087118  21.0018420  26.6898698
  21.1965788  21.9460260  26.8466969  22.1010540  20.8188566  26.3958159
  19.3823080  40.9256324  38.1156376  20.2850327  40.9579934  38.4322871
  19.1560450  39.9956775  38.1302711  21.1376682  39.6787311  34.7766454
  20.1872313  39.6789172  34.6630827  21.4409168  38.9320045  34.2602489
  25.0239238  17.5961197  30.9444634  24.2571633  17.0419684  31.0901317
  25.4349942  17.6683066  31.8058786  17.0280999  23.8845993  45.0349816
  17.8912460  23.5282797  45.2453140  16.4546409  23.5459887  45.7225220
  36.8729376  45.5147849  35.8412217  37.5107785  45.3954596  35.1375557
  36.7550218  46.4628693  35.9000169  33.6819082  45.4675277  35.7773741
  33.3437593  45.3516342  34.8894276  34.5508850  45.0666442  35.7574748
  29.5405897  47.3210754  31.7670632  28.9770763  47.2300690  30.9986920
  29.4258293  46.5010658  32.2473125  34.1638865  46.6210129  41.7359947
  34.1527506  46.2262927  40.8640451  34.3259504  45.8876201  42.3293718
  27.0870329  48.8161945  34.6054853  27.8791621  48.4752770  34.1901152
  27.3266980  48.9256920  35.5257006  35.1205456  50.9881721  27.0785097
  34.4693436  51.5735802  26.6919111  35.9149819  51.5187916  27.1380135
  29.0461083  48.0770858  27.4772232  29.8191959  47.5299845  27.3385107
  29.3986482  48.9415108  27.6886693  30.8846126  49.4047241  40.6839131
  30.5935992  50.3092871  40.5685797  31.5203110  49.4463768  41.3983200
  31.8102333  46.7824089  37.2740491  32.4065905  46.5580112  36.5597453
  31.8677304  46.0408835  37.8765938  31.3827361  44.2363524  25.1090682
  31.6352882  43.7145046  24.3474145  30.4451920  44.0729670  25.2117365
  36.4270644  43.2399303  32.9165425  37.2133733  42.8218726  32.5655842
  36.6909348  44.1445395  33.0847073  36.5980721  48.6772153  27.6154082
  35.9626554  48.7506780  28.3274986  36.2678128  49.2665752  26.9373161
  41.8279071  43.1774536  33.8198403  42.5604243  42.6073753  34.0536233
  41.0718427  42.7896136  34.2604909  31.1023650  46.1391630  27.3115056
  30.9859908  45.4636534  27.9796141  31.2125910  45.6524004  26.4947210
  33.4455191  45.6001778  31.0161746  33.0813398  45.0732399  31.7274667
  34.3022307  45.2100247  30.8428231  39.3504491  36.8896110  38.2793012
  39.0187816  37.7591521  38.0554227  38.7550105  36.5732394  38.9587042
  33.0860678  40.6291677  26.0123094  33.2535080  41.4971914  26.3793565
  32.8957847  40.7918959  25.0884383  35.8436011  49.0908656  37.6788925
  35.5436734  49.9933695  37.5704732  35.4987071  48.8240839  38.5310077
  29.2948492  45.5422453  33.7125629  28.3698989  45.4098667  33.9203321
  29.5432906  46.3216672  34.2095571  39.2433155  41.6091196  35.3586362
  38.3350032  41.5406605  35.0645123  39.1920751  42.0863141  36.1868187
  33.0649899  43.0849335  26.9969761  32.9449524  43.5306386  27.8355241
  32.3702487  43.4334652  26.4383299  26.6557304  45.1855727  34.5469418
  26.7849685  45.4390205  35.4608830  25.9754755  45.7783435  34.2274073
  30.8256791  55.8552976  30.6459892  30.7480821  56.8060802  30.7248373
  30.2218434  55.5098849  31.3034819  33.3174021  43.0280842  43.3021259
  32.5407355  43.5874762  43.2924124  33.9564584  43.5137625  43.8236129
  41.1094801  39.8107635  37.1364236  40.4669181  40.1040168  36.4904030
  40.6049730  39.6960555  37.9417433  38.7634965  43.5570808  27.8250095
  39.6752821  43.7898195  27.6497793  38.2544612  44.1407852  27.2625174
  31.5720393  45.8366295  42.8639226  32.3135077  46.3751339  42.5874050
  30.8657378  46.4632584  43.0210778  37.0475733  47.9795436  41.4611388
  37.4559089  47.5377846  40.7166020  36.3252994  47.4048063  41.7145581
  33.4006803  42.9168043  38.8344945  34.2467998  43.3407456  38.9779594
  33.3405440  42.2601667  39.5283508  37.3704547  48.5396626  35.2163677
  36.7413410  48.7042340  34.5139744  36.9830209  48.9538236  35.9874641
  41.2493779  49.4751064  32.5708040  40.5644817  49.8549966  32.0205074
  41.3337628  50.0846391  33.3039988  36.5506248  40.5772411  40.4926118
  36.3067180  41.3314471  39.9560394  36.8266178  40.9557758  41.3273365
  38.5044711  47.1211023  39.1703384  38.7161606  47.7642783  38.4937765
  38.4574459  46.2873340  38.7025314  36.1070940  39.7328844  36.0739956
  35.2455419  40.0310097  36.3656694  36.1333374  39.9499243  35.1420989
  32.9232509  48.2771034  32.4813762  33.3870855  48.5558737  31.6918384
  32.6589307  47.3754479  32.2986852  29.8156590  47.8242516  35.4193525
  30.3857947  48.2529784  34.7811009  30.4064702  47.5425101  36.1177711
  31.8601395  44.3994187  29.2903327  32.5625438  44.8515230  29.7577253
  31.5282024  43.7578006  29.9183220  30.3081757  42.9905943  43.6654536
  29.6780417  43.6722224  43.8989933  30.2017845  42.8789025  42.7207674
  25.6026729  42.6577739  34.5920460  24.8125783  42.9135268  34.1160571
  26.0937976  43.4726077  34.6972501  39.6190539  49.9982979  37.3425741
  40.4407982  49.5963166  37.0608423  39.6152942  49.8951213  38.2941857
  27.5541474  43.0222319  31.5503937  26.7572638  43.1341013  32.0687433
  27.3267067  43.3608971  30.6844828  33.3847142  49.5467022  39.4986452
  33.4491575  50.0087429  40.3344624  32.6758066  48.9164387  39.6268762
  23.8864432  42.9108230  37.0235451  24.1372470  43.7955240  37.2893027
  24.4223980  42.7312831  36.2510543  47.7096532  46.3421727  33.6910713
  46.9560240  45.7729125  33.5354717  47.8444073  46.3084392  34.6381347
  33.0995160  51.2135129  29.3665432  32.9640835  52.0586665  29.7950280
  33.6404972  51.4154407  28.6031366  29.5862499  37.2926709  46.0279787
  29.1929445  36.7392908  46.7027431  30.4028640  37.6037288  46.4186305
  26.5524557  48.7310567  29.9393357  27.0649078  49.5253818  30.0898922
  27.2047270  48.0336858  29.8726959  28.3619442  51.8476324  32.0216110
  28.5386070  52.7694288  31.8337094  29.1576275  51.5334743  32.4510490
  32.5030460  38.7084588  43.6200044  33.2440174  39.3091742  43.5404506
  32.7348383  37.9662226  43.0618086  27.6471798  43.8940956  41.8978273
  27.5325314  42.9926213  42.1985372  26.7916316  44.1404652  41.5463090
  34.7263636  51.8358696  43.4965774  34.2827490  51.0495075  43.1786679
  35.3880850  52.0237846  42.8309665  29.4850757  53.3654498  38.0226453
  30.0358182  53.2371561  37.2503447  28.6462233  53.6649387  37.6721345
  36.8244874  52.1161496  41.5247175  36.8063350  52.9370377  41.0327445
  37.7464794  51.9915571  41.7497317  33.2817928  49.6305625  42.3670684
  33.8146265  48.8693914  42.1369992  32.7532009  49.3379277  43.1094838
  36.4487623  34.7365691  37.8964325  36.1051893  35.6267333  37.8203436
  36.8166586  34.5467349  37.0333910  24.5173474  47.0599222  30.7152928
  25.3548696  47.4696230  30.4986635  24.6951742  46.1198664  30.6853122
  36.4137906  44.7274302  26.4036761  35.8984529  45.4978907  26.6425148
  36.1415214  44.0539439  27.0269822  33.9985017  39.5724003  31.4621999
  33.1426613  39.1830854  31.2827638  34.4111969  39.6515964  30.6021785
  35.5284164  37.1070346  35.8613559  35.0248959  37.0700482  35.0481364
  35.8214771  38.0163089  35.9210215  31.7727050  37.1909076  34.8679740
  32.6380046  36.9951885  34.5085630  31.8404558  36.9619428  35.7949097
  41.3872180  47.4806657  28.3389934  40.6101623  47.1417817  27.8945096
  42.0663661  47.4859280  27.6644899  36.2024209  42.6001395  28.2296542
  35.8974345  42.9147544  29.0806685  37.1554651  42.6782814  28.2723875
  34.6470641  48.7591618  29.8789496  34.1192003  48.0244377  29.5662733
  34.1458144  49.5366294  29.6329464  39.6263487  46.9540638  34.9956542
  38.9687161  47.6439900  35.0836671  40.4303886  47.3437070  35.3390528
  29.3789369  39.4211284  32.2396107  29.9533121  39.1986466  31.5069300
  29.9660351  39.4899979  32.9924709  38.4368946  45.3085011  33.0460484
  38.9500828  45.9415003  33.5482194  39.0870170  44.7086207  32.6803844
  29.7058956  41.4515745  26.2591993  28.8696268  41.7890432  26.5801267
  29.5663725  41.3164725  25.3219130  31.6812036  36.2952533  30.9671177
  31.0276449  35.9801550  30.3427791  31.6392511  35.6728273  31.6931000
  32.7923241  46.5771828  22.8824469  31.8850303  46.3461082  23.0815618
  33.2894273  45.7809447  23.0698450  35.6991320  55.2869335  25.8021155
  35.0253019  55.5901032  26.4106113  36.0857142  56.0898416  25.4526612
  34.9149777  42.7834467  35.2918824  33.9972338  43.0049414  35.1340512
  35.3309920  42.8580777  34.4330532  35.6984824  44.1825882  30.4221505
  36.4456643  44.6947279  30.1128627  35.9676414  43.8609935  31.2825898
  33.9711475  46.6784423  27.4048459  33.0622694  46.3943456  27.5020929
  34.0006558  47.0983502  26.5451766  39.2030742  50.2891012  31.1739626
  38.7493069  49.4481922  31.2304817  38.5724709  50.9252411  31.5114407
  38.1463662  41.2182999  32.4040294  37.4086418  40.7060385  32.7350536
  38.3990435  40.7783380  31.5923571  37.6463681  52.1267509  32.1089445
  37.9386656  52.6872566  31.3901810  38.1562302  52.4196070  32.8642604
  38.2475289  33.9959251  32.9982063  38.5534166  33.1356614  32.7107978
  38.9727894  34.5876871  32.7981057  24.5399645  44.3989937  31.3863661
  24.3424045  43.8059298  30.6614728  23.9846309  44.0942147  32.1039600
  32.5196369  44.2913044  33.5058254  32.5744978  43.3386880  33.4300731
  31.7087571  44.4472483  33.9899553  33.6687562  48.2193167  24.7436537
  33.2306992  47.5029026  24.2842175  34.4098003  48.4469281  24.1821629
  30.4588729  42.9090103  31.2648633  29.6456594  43.2084274  31.6713825
  30.9547723  42.5145792  31.9823115  32.6097307  52.9047860  33.1982898
  32.5673485  53.1308707  32.2691430  33.5260005  52.6711235  33.3468699
  36.0562940  43.3731928  40.0963527  36.4112328  43.6003401  40.9557993
  36.7035072  43.7050305  39.4740782  41.7860677  46.4950364  30.8012856
  41.6478576  46.6851960  29.8734045  41.4296896  47.2569747  31.2580907
  29.9502803  40.4808459  36.8809868  30.5902183  40.3397218  36.1832831
  29.1180334  40.1942972  36.5048470  41.8130057  48.5626891  35.8124128
  42.2466564  48.4702180  36.6607182  42.5261638  48.5384391  35.1744144
  30.7263107  49.7810889  32.9944861  31.5203706  49.2861209  32.7927435
  30.0154800  49.2528752  32.6312566  35.5457952  52.1628985  37.3457228
  35.5994974  52.7319921  38.1134944  34.6772733  52.3330870  36.9811265
  27.0345871  43.9253971  29.0704613  26.1043459  43.8638426  29.2874575
  27.1303343  43.4029924  28.2741254  26.9531420  40.4508784  31.6582855
  27.2138237  41.3654117  31.5492015  27.7748592  39.9833226  31.8079468
  28.4256345  41.8646541  38.8281679  29.0979399  41.6563903  38.1794328
  27.5986132  41.6668627  38.3886912  42.6745606  48.6050591  38.3457013
  42.8681496  49.5096402  38.5916288  42.5746225  48.1458010  39.1795598
  34.3281917  38.4908482  40.8447340  33.6809832  39.1898432  40.7511817
  35.0982933  38.9244626  41.2123588  37.7360715  48.7557334  43.9197894
  37.5846222  48.5267886  43.0027977  37.7265395  49.7127936  43.9329239
  34.5046051  46.3289247  38.9044160  35.4338111  46.4800406  38.7313127
  34.0837082  46.4173268  38.0492807  33.3034383  50.3539911  36.6742698
  33.1645469  49.9858696  37.5468636  32.5148980  50.8687551  36.5026655
  33.8982535  55.4549008  28.0168234  34.0734291  54.9837051  28.8313857
  33.2115323  56.0814774  28.2449495  34.8539598  49.7321514  34.0631535
  34.5189431  49.6922284  34.9589185  34.3543544  49.0666230  33.5901946
  28.8283842  45.1389144  39.5884117  28.6903640  44.4069383  40.1895656
  29.7388766  45.0498044  39.3068304  37.7898790  47.0777548  24.3368595
  37.1727961  46.3524376  24.2401648  37.3215279  47.8386909  23.9935669
  31.4566143  44.8509103  39.0767796  32.1665762  44.2102296  39.0354415
  31.4135451  45.1021998  39.9993977  39.4452922  51.7876457  41.9974375
  39.3865468  51.1035677  41.3304958  39.8472440  52.5295447  41.5455001
  30.1695077  41.8374321  40.8963436  29.6332434  41.3865060  41.5485032
  29.5811785  41.9720230  40.1533900  28.4643621  58.6038370  34.7908094
  28.7040219  59.2356895  35.4687113  27.6212817  58.2526411  35.0773454
  29.5797336  41.2962973  23.4589899  28.7026802  41.1751773  23.0952146
  30.0555089  40.5049051  23.2068788  39.4470329  49.7516041  40.2288355
  38.5597108  49.4141962  40.3514754  40.0168880  49.0199072  40.4657120
  21.0999476  46.0840132  33.5531406  21.7870516  45.7701862  32.9652422
  20.9447605  46.9881497  33.2798658  25.9034198  40.9730329  37.9816430
  25.8192387  40.3655998  37.2466840  25.0816905  41.4639347  37.9825927
  32.9771482  54.4117493  37.1949598  32.9041654  55.2172464  37.7068903
  32.5348876  54.6109459  36.3697620  32.7661262  53.6489263  30.7052420
  31.9828784  54.1910943  30.7990644  33.4654007  54.1663243  31.1046661
  36.0757912  39.4583892  33.3486625  36.5726612  38.7053855  33.0287695
  35.3044894  39.4948209  32.7829835  43.9287670  45.1624258  34.9904917
  43.9177546  46.0448973  34.6198850  43.0605049  44.8095809  34.7959454
  35.4370166  54.3104327  39.3507757  36.1498138  54.9451792  39.2783658
  34.9460195  54.4068193  38.5347759  37.1587693  48.2155580  30.9225049
  36.2243972  48.3357042  30.7529753  37.3364361  47.3128046  30.6585058
  32.6592881  41.6001275  33.0758310  32.2890668  41.0472316  33.7639215
  33.1551973  40.9959409  32.5233310  40.5460244  44.0572899  31.4575083
  41.0120696  44.8900891  31.3835385  40.9967745  43.5917880  32.1620341
  30.4882079  52.0598770  40.1713328  31.1891539  52.6935253  40.3242722
  30.0177194  52.4013502  39.4108967  38.6136475  50.4016720  28.4561235
  38.8896319  50.2873315  29.3655109  37.7440974  50.0034205  28.4173408
  38.5176907  36.4253486  35.4965984  37.6039987  36.6557713  35.6648191
  38.9470008  36.5091930  36.3480016  38.2883365  44.6143378  37.9965878
  37.6354816  44.8619285  37.3418331  38.6663745  43.8007516  37.6628355
  35.2490539  54.6503071  32.0994048  35.4312934  53.8324727  32.5621801
  36.0723525  54.8670763  31.6618938  35.5832705  53.5771256  29.3609097
  36.1120471  53.0663711  28.7479259  35.8460924  53.2613786  30.2254630
  34.3370938  45.3563189  44.4831915  33.6611575  45.2557318  45.1534290
  35.1598572  45.2002403  44.9467912  26.0849798  51.5935125  37.1044430
  26.6703234  50.8478813  37.2372335  25.8874636  51.9039082  37.9881094
  28.9388453  54.6286373  32.1206873  28.2698828  55.1132500  31.6370913
  28.8001322  54.8755593  33.0350251  20.6767452  44.1640726  35.8248874
  20.7151552  43.6304316  36.6185992  20.1707745  43.6375931  35.2059851
  33.0793721  56.6630116  38.7189531  33.6312029  56.8261738  39.4838616
  33.4199915  57.2534554  38.0469556  28.0558215  39.0105266  39.3211416
  28.1199541  39.8720097  38.9088814  27.9925335  38.3979268  38.5883774
  27.5310487  41.0828399  42.9684450  28.1582526  40.7005476  43.5821974
  26.6738406  40.8642601  43.3340143  37.9304596  51.4891374  44.5738186
  38.4744500  52.1021332  44.0793140  37.3491440  52.0470952  45.0905199
  24.3076030  42.8904828  28.9002805  24.6029471  41.9815506  28.8469859
  23.4064066  42.8692567  28.5783807  36.2162109  54.6112092  35.7053213
  36.0913248  53.8101832  35.1964159  36.8741200  55.1058285  35.2167183
  27.8370277  40.9660824  34.8830354  27.1156863  41.5796792  34.7437827
  28.6263533  41.5018589  34.8047000  38.2797017  52.4121112  37.3332763
  37.3327353  52.2926463  37.2611090  38.6279790  51.5243610  37.4159025
  30.6396590  38.3015251  41.1571005  31.1630992  38.5477547  41.9197315
  30.4208924  39.1335286  40.7374143  26.0363871  40.5718925  29.0242130
  25.7076578  39.6916304  28.8417236  26.3903242  40.5166594  29.9118519
  35.2843450  52.2073828  33.5337116  35.1368413  51.2790536  33.7144686
  36.1096944  52.2293919  33.0494191  29.1505695  40.8591895  29.3917608
  29.4901767  41.3877817  28.6696216  29.5977815  41.1972301  30.1676174
  38.8877572  53.0302387  34.6201988  39.8124120  52.8245248  34.4826440
  38.7192876  52.7818788  35.5291330  31.8449135  39.2428946  38.8420676
  31.5045956  38.4436759  39.2441356  31.1388142  39.5430657  38.2697509
  32.4965607  36.3278258  37.2947999  33.3191677  35.8538737  37.1726889
  32.7403671  37.1068742  37.7946685  31.1373842  39.3566517  27.5910901
  31.8582204  39.7347770  27.0874617  30.5139146  40.0755394  27.6945879
  35.2804965  40.0611666  28.5269233  35.4968579  40.9436304  28.2258061
  34.7999032  39.6697879  27.7974875  30.0204186  43.0197379  35.1039978
  29.8748767  43.3337682  35.9964259  29.5429390  43.6382279  34.5510876
  31.8800569  40.0099927  35.1520867  31.8662138  39.1141020  34.8153165
  32.5972997  40.0170591  35.7859153  33.7326700  40.4437267  37.1973994
  33.4744477  41.3654338  37.1958325  33.2011740  40.0467702  37.8874459
  38.6772888  53.5488054  29.9764080  38.8509766  52.9834477  29.2237932
  39.1701780  54.3488949  29.7943570  24.4949848  45.5602723  38.0427639
  23.9503316  46.3362531  38.1747913  25.3729198  45.9073528  37.8846760
  31.2837465  38.8914307  30.4208437  31.4053376  37.9630954  30.6199325
  30.9939507  38.9052993  29.5086753  34.1528655  36.5769218  33.5575157
  34.1750352  36.6408551  32.6027137  34.5696714  35.7373726  33.7515663
  44.5312280  46.3124477  31.5954380  44.9743426  45.5631803  31.1973503
  43.6538790  46.3034614  31.2128112  39.6648061  52.8654819  27.0760978
  40.3598965  53.4861511  27.2948293  40.0071211  52.0150170  27.3513356
  25.2815870  44.6872620  40.9357796  24.5397606  44.8355255  41.5222426
  24.9608614  44.9480885  40.0724545  41.5639484  50.3154524  28.6048309
  42.0890808  50.6541797  27.8797629  41.4761837  49.3801540  28.4211444
  33.2259533  54.2288598  40.7338186  33.5346659  53.9837745  41.6060885
  34.0235015  54.4335236  40.2457056  33.2480145  56.3826508  32.9643562
  32.8085135  55.8902886  33.6576419  33.9988262  55.8399475  32.7235637
  25.7272484  52.5738048  32.9668190  26.5530504  52.2741820  32.5866834
  25.3766536  51.8045671  33.4157979  30.6954017  51.9264517  35.0365864
  30.0734026  51.2635222  34.7368092  31.3658884  51.9525649  34.3539512
  23.9281089  50.4924375  33.9257124  23.0912997  50.0646549  33.7441125
  23.9004734  50.6856818  34.8627915  30.7678544  40.4046305  44.6298370
  30.8166700  41.2808428  44.2476139  31.3101059  39.8623698  44.0570013
  41.3731265  47.7979894  41.2232235  41.4229270  47.6329902  42.1647758
  41.2645188  46.9307153  40.8330116  30.2567524  50.4768440  28.5124324
  30.4055644  51.1603904  27.8590997  31.0633967  50.4573530  29.0273780
  38.6635027  43.7810822  42.5391542  39.5644890  43.6417287  42.2475540
  38.7383002  43.9465277  43.4789720  32.9977833  41.1577677  41.3844728
  32.1281142  41.4511243  41.1127317  33.2337313  41.7418122  42.1051992
  42.8749462  50.2176836  41.4674257  42.5834270  50.5806816  42.3037718
  42.2621593  49.5043844  41.2887589  44.0745144  47.7829716  33.9876827
  44.9092036  48.2219520  34.1514388  44.2104273  47.3068369  33.1685073
  41.1236650  45.3409450  39.9354315  41.5990772  45.5337097  39.1273166
  40.2002216  45.3968636  39.6897699  28.0120157  46.5033618  29.5185393
  27.7666199  45.5995948  29.7165603  28.1816071  46.5050768  28.5764871
  35.7016867  37.3757294  38.9010149  36.2198810  38.1118321  38.5756637
  35.3471999  37.6821287  39.7356908  27.2815804  42.2361975  27.0171555
  26.5885049  42.3106330  26.3611591  27.0367556  41.4722319  27.5393072
  35.9529461  33.7957577  34.4211045  36.2331215  33.1280766  35.0471472
  36.7380068  33.9886672  33.9085709  33.7562929  52.9716570  25.9836072
  33.1836896  53.5906758  25.5306544  34.3295723  53.5215932  26.5175994
  39.8238319  42.2175211  38.1682621  40.7755742  42.3173308  38.1894845
  39.6541770  41.4253479  38.6780705  37.8452699  39.3030794  38.3542021
  37.2502631  39.5835807  37.6588510  37.5602395  39.7924695  39.1258763
  36.9760189  53.2553721  27.1144654  37.9090862  53.1899282  27.3177530
  36.8883402  54.0909987  26.6559187  39.6048206  52.5719591  24.0748602
  39.5261837  52.2379455  24.9684359  40.4257873  53.0641359  24.0740074
  42.3026397  45.4381330  37.2824920  42.2702717  44.4997331  37.4684604
  42.9127021  45.5165367  36.5490745  34.1409728  44.3077383  23.3252124
  35.0868833  44.1783591  23.3940542  33.7623973  43.5692045  23.8021552
  42.4520885  42.2292374  37.3283203  41.9359934  41.4450830  37.1413132
  43.3360834  41.9011090  37.4929723  40.1131612  35.9733389  33.2879016
  39.9156433  35.6648477  34.1722348  40.7231318  36.6995028  33.4176946
  48.1202947  46.4997337  36.4230957  48.8506335  46.2382625  36.9838660
  47.5109892  45.7626059  36.4633025  46.2018244  44.6405200  37.0205408
  45.4751407  44.5061165  36.4121900  45.7865531  44.9482028  37.8262126
  34.0248420  48.3595129  44.7852781  34.9451430  48.5373728  44.9792828
  33.9898003  47.4151175  44.6332480  32.3252645  42.2327360  23.2607009
  31.4184100  41.9360472  23.3369723  32.6028626  41.9357178  22.3941296
  23.2430585  43.5533723  33.7106056  22.9233370  42.6999031  33.4180430
  22.6964014  43.7682301  34.4664023  27.0210493  46.2696164  37.4275562
  27.2396503  47.2013272  37.4463596  27.4336267  45.9104138  38.2130366
  33.9414711  36.7764249  29.4151251  33.1315439  36.4311334  29.7906497
  34.6299128  36.4671793  30.0038862  35.8705259  35.8542296  31.0375547
  36.4236298  36.2737750  31.6965571  36.1075345  34.9278044  31.0798503
  31.8938358  41.8429370  46.8178311  31.7935085  42.7923727  46.7490402
  31.6759900  41.5147609  45.9454381  31.0951430  39.0914295  23.4018989
  31.9570594  39.4169193  23.6614806  31.2801774  38.3045791  22.8892054
  23.1118845  47.1736635  35.6799177  22.4182317  46.7590587  35.1669132
  23.8591836  47.2157171  35.0832596  39.2484066  37.9642821  30.5454212
  38.6682735  38.6227625  30.1632264  38.9819999  37.1420166  30.1341629
  37.6987632  37.3647879  32.7475532  38.1987411  37.4764414  31.9389851
  38.3423240  37.0608932  33.3876340  31.7569628  45.2726509  45.6343373
  31.2736710  46.0726869  45.8407262  31.8430567  45.2834453  44.6810817
  25.0255588  47.1054888  33.5565192  25.0026276  47.2042576  32.6047075
  25.3356224  47.9520039  33.8782358  27.6842966  49.1631043  37.6711807
  28.6386219  49.1314986  37.6041738  27.4855489  48.7021667  38.4862033
  28.2742348  47.7332159  40.2382604  29.0935237  48.2276238  40.2617442
  28.5479156  46.8164128  40.2100172  38.0308944  40.1242912  29.6010560
  37.1434799  40.4092562  29.3830755  38.4462933  39.9636675  28.7537837
  41.3823480  40.1489433  33.3164899  42.1583870  40.6385885  33.5889516
  40.6571614  40.5747487  33.7736769  43.8196039  40.8617052  34.3738840
  44.4140530  40.6212788  33.6632148  43.8922623  40.1424182  35.0012376
  26.0393195  54.7050663  34.6882005  25.9047662  53.9451064  34.1220003
  25.6225257  55.4291563  34.2210793  37.1752158  49.8887586  23.6958580
  37.8788008  50.0937589  24.3116236  36.4514806  50.4564348  23.9607663
  38.0049968  45.6397448  29.8160850  37.9485169  46.0965999  28.9768482
  38.5578310  44.8788132  29.6383693  41.8154774  41.4287179  30.6410970
  41.5591708  41.0283815  31.4719177  41.1907642  42.1430973  30.5161109
  46.1267112  44.1683253  33.1482261  45.5666670  44.2376442  33.9213823
  45.5210615  43.9924237  32.4281757  29.1962320  55.6019980  34.9000447
  29.0794705  56.5465412  34.7979138  28.3754767  55.2993541  35.2886246
  39.0838855  50.3270116  25.7457040  39.9184459  49.8951314  25.5634515
  38.9223198  50.1552129  26.6733934  38.7384747  46.8302229  27.1113379
  38.6833551  46.6646500  26.1701823  38.1130802  47.5378262  27.2675569
  23.5277262  42.0670293  40.9374801  24.1736126  41.5569247  41.4262027
  23.3194413  42.8038975  41.5118227  36.0530654  49.1351141  46.4366942
  36.9221814  49.3091793  46.0753577  35.5737406  49.9545558  46.3142671
  32.0480873  36.3310338  26.6898698  32.0359542  37.2752178  26.8466969
  32.9404294  36.1480483  26.3958159  30.2216835  56.2548242  38.1156376
  31.1244081  56.2871852  38.4322871  29.9954205  55.3248693  38.1302711
  31.9770437  55.0079228  34.7766454  31.0266068  55.0081090  34.6630827
  32.2802923  54.2611963  34.2602489  35.8632992  32.9253115  30.9444634
  35.0965388  32.3711601  31.0901317  36.2743697  32.9974983  31.8058786
  27.8674753  39.2137910  45.0349816  28.7306215  38.8574715  45.2453140
  27.2940164  38.8751805  45.7225220  44.5212836  60.7967195  35.7773741
  44.1831348  60.6808259  34.8894276  45.3902604  60.3958360  35.7574748
  40.3799652  62.6502671  31.7670632  39.8164517  62.5592608  30.9986920
  40.2652047  61.8302576  32.2473125  37.9264084  64.1453863  34.6054853
  38.7185376  63.8044687  34.1901152  38.1660734  64.2548838  35.5257006
  45.9599211  66.3173639  27.0785097  45.3087190  66.9027719  26.6919111
  46.7543574  66.8479834  27.1380135  39.8854838  63.4062776  27.4772232
  40.6585714  62.8591763  27.3385107  40.2380237  64.2707025  27.6886693
  42.6496087  62.1116007  37.2740491  43.2459660  61.8872029  36.5597453
  42.7071059  61.3700752  37.8765938  42.2221116  59.5655442  25.1090682
  42.4746636  59.0436963  24.3474145  41.2845675  59.4021588  25.2117365
  47.2664398  58.5691221  32.9165425  48.0527488  58.1510644  32.5655842
  47.5303103  59.4737313  33.0847073  47.4374476  64.0064071  27.6154082
  46.8020309  64.0798697  28.3274986  47.1071882  64.5957670  26.9373161
  41.9417404  61.4683548  27.3115056  41.8253663  60.7928451  27.9796141
  42.0519664  60.9815922  26.4947210  44.2848945  60.9293695  31.0161746
  43.9207153  60.4024316  31.7274667  45.1416061  60.5392164  30.8428231
  50.1898246  52.2188028  38.2793012  49.8581571  53.0883439  38.0554227
  49.5943859  51.9024312  38.9587042  43.9254432  55.9583595  26.0123094
  44.0928835  56.8263831  26.3793565  43.7351601  56.1210877  25.0884383
  40.1342247  60.8714371  33.7125629  39.2092743  60.7390585  33.9203321
  40.3826660  61.6508590  34.2095571  43.9043653  58.4141252  26.9969761
  43.7843278  58.8598303  27.8355241  43.2096242  58.7626570  26.4383299
  37.4951058  60.5147644  34.5469418  37.6243439  60.7682123  35.4608830
  36.8148509  61.1075352  34.2274073  41.6650545  71.1844894  30.6459892
  41.5874575  72.1352719  30.7248373  41.0612189  70.8390767  31.3034819
  49.6028719  58.8862726  27.8250095  50.5146575  59.1190112  27.6497793
  49.0938366  59.4699770  27.2625174  44.2400557  58.2459960  38.8344945
  45.0861752  58.6699374  38.9779594  44.1799195  57.5893585  39.5283508
  46.9464694  55.0620762  36.0739956  46.0849173  55.3602015  36.3656694
  46.9727129  55.2791160  35.1420989  43.7626264  63.6062952  32.4813762
  44.2264609  63.8850655  31.6918384  43.4983062  62.7046397  32.2986852
  40.6550345  63.1534434  35.4193525  41.2251702  63.5821702  34.7811009
  41.2458456  62.8717018  36.1177711  42.6995150  59.7286105  29.2903327
  43.4019193  60.1807148  29.7577253  42.3675778  59.0869923  29.9183220
  36.4420484  57.9869657  34.5920460  35.6519538  58.2427186  34.1160571
  36.9331731  58.8017995  34.6972501  38.3935229  58.3514236  31.5503937
  37.5966392  58.4632931  32.0687433  38.1660821  58.6900889  30.6844828
  44.2240897  64.8758940  39.4986452  44.2885329  65.3379347  40.3344624
  43.5151820  64.2456305  39.6268762  34.7258187  58.2400148  37.0235451
  34.9766225  59.1247158  37.2893027  35.2617735  58.0604749  36.2510543
  43.9388914  66.5427047  29.3665432  43.8034589  67.3878583  29.7950280
  44.4798727  66.7446325  28.6031366  37.3918312  64.0602485  29.9393357
  37.9042832  64.8545735  30.0898922  38.0441024  63.3628776  29.8726959
  39.2013196  67.1768241  32.0216110  39.3779825  68.0986206  31.8337094
  39.9970030  66.8626661  32.4510490  40.3244512  68.6946415  38.0226453
  40.8751937  68.5663479  37.2503447  39.4855988  68.9941304  37.6721345
  47.6638629  67.4453414  41.5247175  47.6457104  68.2662295  41.0327445
  48.5858549  67.3207489  41.7497317  47.2881378  50.0657609  37.8964325
  46.9445647  50.9559251  37.8203436  47.6560340  49.8759267  37.0333910
  35.3567228  62.3891139  30.7152928  36.1942450  62.7988148  30.4986635
  35.5345496  61.4490582  30.6853122  47.2531661  60.0566220  26.4036761
  46.7378284  60.8270825  26.6425148  46.9808969  59.3831356  27.0269822
  44.8378772  54.9015921  31.4621999  43.9820368  54.5122771  31.2827638
  45.2505723  54.9807882  30.6021785  46.3677918  52.4362264  35.8613559
  45.8642714  52.3992399  35.0481364  46.6608525  53.3455007  35.9210215
  42.6120804  52.5200994  34.8679740  43.4773801  52.3243803  34.5085630
  42.6798313  52.2911346  35.7949097  47.0417964  57.9293312  28.2296542
  46.7368099  58.2439461  29.0806685  47.9948406  58.0074732  28.2723875
  45.4864396  64.0883536  29.8789496  44.9585757  63.3536295  29.5662733
  44.9851898  64.8658212  29.6329464  40.2183123  54.7503202  32.2396107
  40.7926875  54.5278383  31.5069300  40.8054106  54.8191896  32.9924709
  40.5452710  56.7807663  26.2591993  39.7090023  57.1182349  26.5801267
  40.4057480  56.6456643  25.3219130  42.5205791  51.6244451  30.9671177
  41.8670203  51.3093468  30.3427791  42.4786265  51.0020191  31.6931000
  43.6316996  61.9063746  22.8824469  42.7244057  61.6752999  23.0815618
  44.1288028  61.1101365  23.0698450  46.5385075  70.6161253  25.8021155
  45.8646773  70.9192950  26.4106113  46.9250897  71.4190333  25.4526612
  45.7543531  58.1126384  35.2918824  44.8366093  58.3341331  35.1340512
  46.1703675  58.1872695  34.4330532  46.5378579  59.5117800  30.4221505
  47.2850398  60.0239197  30.1128627  46.8070169  59.1901853  31.2825898
  44.8105229  62.0076341  27.4048459  43.9016448  61.7235373  27.5020929
  44.8400313  62.4275419  26.5451766  48.4857436  67.4559427  32.1089445
  48.7780410  68.0164484  31.3901810  48.9956056  67.7487988  32.8642604
  49.0869043  49.3251168  32.9982063  49.3927920  48.4648532  32.7107978
  49.8121648  49.9168788  32.7981057  35.3793400  59.7281855  31.3863661
  35.1817799  59.1351215  30.6614728  34.8240064  59.4234065  32.1039600
  43.3590123  59.6204961  33.5058254  43.4138733  58.6678798  33.4300731
  42.5481325  59.7764400  33.9899553  44.5081317  63.5485084  24.7436537
  44.0700747  62.8320943  24.2842175  45.2491758  63.7761199  24.1821629
  41.2982483  58.2382021  31.2648633  40.4850349  58.5376192  31.6713825
  41.7941477  57.8437710  31.9823115  43.4491061  68.2339778  33.1982898
  43.4067240  68.4600624  32.2691430  44.3653760  68.0003153  33.3468699
  40.7896558  55.8100377  36.8809868  41.4295937  55.6689136  36.1832831
  39.9574088  55.5234890  36.5048470  41.5656862  65.1102807  32.9944861
  42.3597460  64.6153127  32.7927435  40.8548554  64.5820670  32.6312566
  46.3851706  67.4920902  37.3457228  46.4388729  68.0611839  38.1134944
  45.5166488  67.6622788  36.9811265  37.8739625  59.2545889  29.0704613
  36.9437213  59.1930344  29.2874575  37.9697097  58.7321841  28.2741254
  37.7925174  55.7800702  31.6582855  38.0531992  56.6946035  31.5492015
  38.6142347  55.3125144  31.8079468  39.2650100  57.1938459  38.8281679
  39.9373153  56.9855821  38.1794328  38.4379886  56.9960545  38.3886912
  44.1428138  65.6831829  36.6742698  44.0039223  65.3150613  37.5468636
  43.3542734  66.1979468  36.5026655  44.7376290  70.7840925  28.0168234
  44.9128045  70.3128969  28.8313857  44.0509078  71.4106692  28.2449495
  45.6933353  65.0613432  34.0631535  45.3583186  65.0214202  34.9589185
  45.1937299  64.3958148  33.5901946  39.6677597  60.4681062  39.5884117
  39.5297395  59.7361300  40.1895656  40.5782520  60.3789962  39.3068304
  48.6292545  62.4069466  24.3368595  48.0121715  61.6816294  24.2401648
  48.1609033  63.1678826  23.9935669  42.2959898  60.1801021  39.0767796
  43.0059516  59.5394213  39.0354415  42.2529206  60.4313916  39.9993977
  50.2846676  67.1168374  41.9974375  50.2259222  66.4327594  41.3304958
  50.6866195  67.8587364  41.5455001  39.3037375  73.9330288  34.7908094
  39.5433973  74.5648812  35.4687113  38.4606572  73.5818328  35.0773454
  40.4191090  56.6254890  23.4589899  39.5420557  56.5043691  23.0952146
  40.8948844  55.8340969  23.2068788  31.9393231  61.4132050  33.5531406
  32.6264270  61.0993780  32.9652422  31.7841359  62.3173415  33.2798658
  36.7427953  56.3022247  37.9816430  36.6586141  55.6947916  37.2466840
  35.9210659  56.7931265  37.9825927  43.8165237  69.7409411  37.1949598
  43.7435408  70.5464382  37.7068903  43.3742630  69.9401376  36.3697620
  43.6055017  68.9781181  30.7052420  42.8222538  69.5202861  30.7990644
  44.3047762  69.4955160  31.1046661  46.9151667  54.7875810  33.3486625
  47.4120366  54.0345772  33.0287695  46.1438648  54.8240127  32.7829835
  46.2763920  69.6396245  39.3507757  46.9891893  70.2743709  39.2783658
  45.7853949  69.7360111  38.5347759  43.4986635  56.9293193  33.0758310
  43.1284423  56.3764233  33.7639215  43.9945728  56.3251327  32.5233310
  41.3275834  67.3890688  40.1713328  42.0285293  68.0227171  40.3242722
  40.8570949  67.7305420  39.4108967  49.4530230  65.7308638  28.4561235
  49.7290074  65.6165232  29.3655109  48.5834729  65.3326123  28.4173408
  49.3570661  51.7545404  35.4965984  48.4433741  51.9849630  35.6648191
  49.7863763  51.8383848  36.3480016  46.0884294  69.9794989  32.0994048
  46.2706688  69.1616645  32.5621801  46.9117280  70.1962681  31.6618938
  46.4226459  68.9063174  29.3609097  46.9514226  68.3955628  28.7479259
  46.6854679  68.5905704  30.2254630  36.9243552  66.9227043  37.1044430
  37.5096989  66.1770731  37.2372335  36.7268390  67.2331000  37.9881094
  39.7782207  69.9578291  32.1206873  39.1092582  70.4424418  31.6370913
  39.6395077  70.2047511  33.0350251  31.5161207  59.4932643  35.8248874
  31.5545306  58.9596234  36.6185992  31.0101500  58.9667849  35.2059851
  43.9187476  71.9922034  38.7189531  44.4705784  72.1553656  39.4838616
  44.2593669  72.5826472  38.0469556  38.8951969  54.3397184  39.3211416
  38.9593296  55.2012015  38.9088814  38.8319089  53.7271186  38.5883774
  48.7698350  66.8183292  44.5738186  49.3138254  67.4313250  44.0793140
  48.1885195  67.3762870  45.0905199  35.1469784  58.2196746  28.9002805
  35.4423225  57.3107424  28.8469859  34.2457820  58.1984485  28.5783807
  47.0555863  69.9404010  35.7053213  46.9307003  69.1393749  35.1964159
  47.7134954  70.4350203  35.2167183  38.6764031  56.2952742  34.8830354
  37.9550617  56.9088710  34.7437827  39.4657287  56.8310507  34.8047000
  41.4790345  53.6307169  41.1571005  42.0024747  53.8769465  41.9197315
  41.2602678  54.4627203  40.7374143  36.8757626  55.9010843  29.0242130
  36.5470332  55.0208222  28.8417236  37.2296997  55.8458512  29.9118519
  46.1237205  67.5365746  33.5337116  45.9762167  66.6082453  33.7144686
  46.9490698  67.5585837  33.0494191  39.9899449  56.1883813  29.3917608
  40.3295522  56.7169734  28.6696216  40.4371570  56.5264219  30.1676174
  49.7271327  68.3594305  34.6201988  50.6517874  68.1537166  34.4826440
  49.5586630  68.1110706  35.5291330  42.6842890  54.5720864  38.8420676
  42.3439710  53.7728677  39.2441356  41.9781896  54.8722575  38.2697509
  43.3359362  51.6570176  37.2947999  44.1585431  51.1830654  37.1726889
  43.5797425  52.4360660  37.7946685  41.9767596  54.6858435  27.5910901
  42.6975959  55.0639687  27.0874617  41.3532900  55.4047311  27.6945879
  46.1198719  55.3903584  28.5269233  46.3362333  56.2728221  28.2258061
  45.6392786  54.9989797  27.7974875  40.8597940  58.3489297  35.1039978
  40.7142521  58.6629600  35.9964259  40.3823144  58.9674197  34.5510876
  42.7194323  55.3391845  35.1520867  42.7055892  54.4432938  34.8153165
  43.4366751  55.3462508  35.7859153  44.5720454  55.7729185  37.1973994
  44.3138232  56.6946256  37.1958325  44.0405494  55.3759619  37.8874459
  49.5166643  68.8779972  29.9764080  49.6903520  68.3126395  29.2237932
  50.0095534  69.6780867  29.7943570  35.3343603  60.8894641  38.0427639
  34.7897071  61.6654449  38.1747913  36.2122952  61.2365446  37.8846760
  42.1231219  54.2206225  30.4208437  42.2447130  53.2922871  30.6199325
  41.8333262  54.2344911  29.5086753  44.9922410  51.9061135  33.5575157
  45.0144106  51.9700469  32.6027137  45.4090469  51.0665644  33.7515663
  50.5041815  68.1946736  27.0760978  51.1992720  68.8153429  27.2948293
  50.8464965  67.3442088  27.3513356  36.1209624  60.0164537  40.9357796
  35.3791361  60.1647173  41.5222426  35.8002369  60.2772803  40.0724545
  52.4033238  65.6446442  28.6048309  52.9284563  65.9833715  27.8797629
  52.3155591  64.7093457  28.4211444  44.0653287  69.5580516  40.7338186
  44.3740414  69.3129662  41.6060885  44.8628769  69.7627154  40.2457056
  44.0873899  71.7118425  32.9643562  43.6478889  71.2194804  33.6576419
  44.8382016  71.1691393  32.7235637  36.5666238  67.9029966  32.9668190
  37.3924258  67.6033738  32.5866834  36.2160290  67.1337589  33.4157979
  41.5347771  67.2556434  35.0365864  40.9127781  66.5927139  34.7368092
  42.2052638  67.2817566  34.3539512  34.7674843  65.8216293  33.9257124
  33.9306752  65.3938467  33.7441125  34.7398489  66.0148736  34.8627915
  52.0927145  66.2779346  43.9099507  51.3022688  66.2603484  43.3704006
  51.8560499  66.8167639  44.6648543  41.0961278  65.8060358  28.5124324
  41.2449399  66.4895822  27.8590997  41.9027722  65.7865448  29.0273780
  38.8513911  61.8325535  29.5185393  38.6059953  60.9287865  29.7165603
  39.0209826  61.8342686  28.5764871  46.5410621  52.7049212  38.9010149
  47.0592565  53.4410239  38.5756637  46.1865754  53.0113205  39.7356908
  38.1209559  57.5653893  27.0171555  37.4278804  57.6398248  26.3611591
  37.8761311  56.8014237  27.5393072  46.7923215  49.1249494  34.4211045
  47.0724969  48.4572683  35.0471472  47.5773822  49.3178590  33.9085709
  44.5956684  68.3008488  25.9836072  44.0230651  68.9198675  25.5306544
  45.1689477  68.8507850  26.5175994  48.6846453  54.6322711  38.3542021
  48.0896385  54.9127724  37.6588510  48.3996150  55.1216612  39.1258763
  47.8153944  68.5845638  27.1144654  48.7484617  68.5191200  27.3177530
  47.7277156  69.4201905  26.6559187  50.4441960  67.9011509  24.0748602
  50.3655592  67.5671372  24.9684359  51.2651627  68.3933277  24.0740074
  44.9803482  59.6369301  23.3252124  45.9262587  59.5075509  23.3940542
  44.6017727  58.8983963  23.8021552  50.9525367  51.3025307  33.2879016
  50.7550188  50.9940395  34.1722348  51.5625072  52.0286946  33.4176946
  43.1646399  57.5619277  23.2607009  42.2577855  57.2652390  23.3369723
  43.4422380  57.2649095  22.3941296  34.0824340  58.8825641  33.7106056
  33.7627124  58.0290949  33.4180430  33.5357768  59.0974219  34.4664023
  37.8604247  61.5988082  37.4275562  38.0790257  62.5305190  37.4463596
  38.2730021  61.2396056  38.2130366  44.7808465  52.1056167  29.4151251
  43.9709193  51.7603252  29.7906497  45.4692882  51.7963711  30.0038862
  46.7099013  51.1834214  31.0375547  47.2630052  51.6029667  31.6965571
  46.9469100  50.2569962  31.0798503  41.9345184  54.4206213  23.4018989
  42.7964348  54.7461111  23.6614806  42.1195528  53.6337708  22.8892054
  33.9512600  62.5028552  35.6799177  33.2576071  62.0882505  35.1669132
  34.6985591  62.5449089  35.0832596  50.0877821  53.2934739  30.5454212
  49.5076490  53.9519543  30.1632264  49.8213753  52.4712084  30.1341629
  48.5381387  52.6939797  32.7475532  49.0381165  52.8056331  31.9389851
  49.1816995  52.3900850  33.3876340  35.8649342  62.4346806  33.5565192
  35.8420030  62.5334493  32.6047075  36.1749979  63.2811957  33.8782358
  38.5236720  64.4922961  37.6711807  39.4779974  64.4606903  37.6041738
  38.3249244  64.0313585  38.4862033  39.1136102  63.0624077  40.2382604
  39.9328991  63.5568156  40.2617442  39.3872910  62.1456045  40.2100172
  48.8702699  55.4534829  29.6010560  47.9828554  55.7384480  29.3830755
  49.2856688  55.2928593  28.7537837  52.2217235  55.4781350  33.3164899
  52.9977625  55.9677803  33.5889516  51.4965369  55.9039405  33.7736769
  36.8786949  70.0342581  34.6882005  36.7441417  69.2742981  34.1220003
  36.4619011  70.7583480  34.2210793  48.0145912  65.2179504  23.6958580
  48.7181762  65.4229507  24.3116236  47.2908561  65.7856266  23.9607663
  40.0356075  70.9311898  34.9000447  39.9188459  71.8757330  34.7979138
  39.2148521  70.6285459  35.2886246  49.9232609  65.6562033  25.7457040
  50.7578213  65.2243232  25.5634515  49.7616952  65.4844047  26.6733934
  49.5778502  62.1594147  27.1113379  49.5227305  61.9938418  26.1701823
  48.9524557  62.8670179  27.2675569  34.3671017  57.3962211  40.9374801
  35.0129880  56.8861165  41.4262027  34.1588168  58.1330893  41.5118227
  42.8874627  51.6602256  26.6898698  42.8753297  52.6044095  26.8466969
  43.7798049  51.4772401  26.3958159  41.0610589  71.5840159  38.1156376
  41.9637836  71.6163770  38.4322871  40.8347959  70.6540610  38.1302711
  42.8164191  70.3371146  34.7766454  41.8659822  70.3373008  34.6630827
  43.1196677  69.5903881  34.2602489  46.7026747  48.2545032  30.9444634
  45.9359142  47.7003519  31.0901317  47.1137451  48.3266901  31.8058786
  58.5516885  76.1731684  35.8412217  59.1895294  76.0538432  35.1375557
  58.4337727  77.1212528  35.9000169  55.3606591  76.1259112  35.7773741
  55.0225102  76.0100177  34.8894276  56.2296359  75.7250278  35.7574748
  51.2193406  77.9794589  31.7670632  50.6558272  77.8884526  30.9986920
  51.1045802  77.1594493  32.2473125  55.8426374  77.2793964  41.7359947
  55.8315015  76.8846762  40.8640451  56.0047013  76.5460037  42.3293718
  48.7657838  79.4745780  34.6054853  49.5579130  79.1336605  34.1901152
  49.0054489  79.5840756  35.5257006  56.7992965  81.6465557  27.0785097
  56.1480945  82.2319637  26.6919111  57.5937328  82.1771751  27.1380135
  50.7248592  78.7354694  27.4772232  51.4979468  78.1883681  27.3385107
  51.0773991  79.5998943  27.6886693  52.5633635  80.0631076  40.6839131
  52.2723501  80.9676707  40.5685797  53.1990619  80.1047604  41.3983200
  53.4889842  77.4407925  37.2740491  54.0853414  77.2163947  36.5597453
  53.5464813  76.6992670  37.8765938  53.0614870  74.8947360  25.1090682
  53.3140391  74.3728881  24.3474145  52.1239429  74.7313505  25.2117365
  58.1058153  73.8983138  32.9165425  58.8921242  73.4802561  32.5655842
  58.3696857  74.8029230  33.0847073  58.2768230  79.3355989  27.6154082
  57.6414063  79.4090615  28.3274986  57.9465637  79.9249587  26.9373161
  52.7811159  76.7975466  27.3115056  52.6647417  76.1220369  27.9796141
  52.8913419  76.3107840  26.4947210  55.1242700  76.2585613  31.0161746
  54.7600907  75.7316234  31.7274667  55.9809816  75.8684082  30.8428231
  54.7648187  71.2875513  26.0123094  54.9322589  72.1555749  26.3793565
  54.5745356  71.4502794  25.0884383  57.5223520  79.7492491  37.6788925
  57.2224243  80.6517530  37.5704732  57.1774580  79.4824675  38.5310077
  50.9736001  76.2006288  33.7125629  50.0486498  76.0682502  33.9203321
  51.2220415  76.9800508  34.2095571  54.7437408  73.7433170  26.9969761
  54.6237033  74.1890221  27.8355241  54.0489996  74.0918488  26.4383299
  48.3344813  75.8439562  34.5469418  48.4637194  76.0974041  35.4608830
  47.6542264  76.4367270  34.2274073  52.5044300  86.5136812  30.6459892
  52.4268329  87.4644637  30.7248373  51.9005943  86.1682684  31.3034819
  54.9961530  73.6864677  43.3021259  54.2194864  74.2458597  43.2924124
  55.6352093  74.1721460  43.8236129  60.4422474  74.2154643  27.8250095
  61.3540330  74.4482030  27.6497793  59.9332121  74.7991687  27.2625174
  53.2507902  76.4950131  42.8639226  53.9922586  77.0335175  42.5874050
  52.5444887  77.1216419  43.0210778  58.7263242  78.6379271  41.4611388
  59.1346598  78.1961682  40.7166020  58.0040503  78.0631899  41.7145581
  55.0794312  73.5751878  38.8344945  55.9255507  73.9991291  38.9779594
  55.0192949  72.9185502  39.5283508  59.0492056  79.1980462  35.2163677
  58.4200919  79.3626176  34.5139744  58.6617718  79.6122071  35.9874641
  62.9281288  80.1334900  32.5708040  62.2432326  80.5133801  32.0205074
  63.0125137  80.7430226  33.3039988  58.2293757  71.2356246  40.4926118
  57.9854689  71.9898307  39.9560394  58.5053687  71.6141594  41.3273365
  60.1832220  77.7794859  39.1703384  60.3949115  78.4226618  38.4937765
  60.1361968  76.9457175  38.7025314  57.7858449  70.3912679  36.0739956
  56.9242928  70.6893933  36.3656694  57.8120883  70.6083078  35.1420989
  54.6020018  78.9354870  32.4813762  55.0658364  79.2142573  31.6918384
  54.3376816  78.0338314  32.2986852  51.4944099  78.4826351  35.4193525
  52.0645456  78.9113620  34.7811009  52.0852211  78.2008936  36.1177711
  53.5388904  75.0578022  29.2903327  54.2412947  75.5099066  29.7577253
  53.2069533  74.4161841  29.9183220  51.9869266  73.6489779  43.6654536
  51.3567926  74.3306060  43.8989933  51.8805354  73.5372860  42.7207674
  47.2814238  73.3161575  34.5920460  46.4913292  73.5719103  34.1160571
  47.7725485  74.1309913  34.6972501  61.2978048  80.6566814  37.3425741
  62.1195491  80.2547001  37.0608423  61.2940450  80.5535048  38.2941857
  49.2328983  73.6806154  31.5503937  48.4360147  73.7924848  32.0687433
  49.0054576  74.0192806  30.6844828  55.0634651  80.2050857  39.4986452
  55.1279084  80.6671265  40.3344624  54.3545575  79.5748222  39.6268762
  45.5651941  73.5692065  37.0235451  45.8159979  74.4539075  37.2893027
  46.1011489  73.3896667  36.2510543  69.3884041  77.0005562  33.6910713
  68.6347749  76.4312961  33.5354717  69.5231582  76.9668227  34.6381347
  54.7782669  81.8718965  29.3665432  54.6428344  82.7170501  29.7950280
  55.3192481  82.0738242  28.6031366  51.2650008  67.9510545  46.0279787
  50.8716954  67.3976743  46.7027431  52.0816149  68.2621123  46.4186305
  48.2312066  79.3894403  29.9393357  48.7436587  80.1837653  30.0898922
  48.8834779  78.6920693  29.8726959  50.0406951  82.5060159  32.0216110
  50.2173579  83.4278124  31.8337094  50.8363784  82.1918578  32.4510490
  54.1817969  69.3668424  43.6200044  54.9227683  69.9675577  43.5404506
  54.4135892  68.6246062  43.0618086  49.3259307  74.5524791  41.8978273
  49.2112822  73.6510048  42.1985372  48.4703825  74.7988488  41.5463090
  56.4051145  82.4942531  43.4965774  55.9614999  81.7078910  43.1786679
  57.0668359  82.6821682  42.8309665  51.1638266  84.0238333  38.0226453
  51.7145691  83.8955396  37.2503447  50.3249742  84.3233222  37.6721345
  58.5032383  82.7745331  41.5247175  58.4850859  83.5954212  41.0327445
  59.4252303  82.6499406  41.7497317  54.9605437  80.2889461  42.3670684
  55.4933774  79.5277749  42.1369992  54.4319518  79.9963113  43.1094838
  46.1960983  77.7183057  30.7152928  47.0336205  78.1280066  30.4986635
  46.3739251  76.7782499  30.6853122  58.0925415  75.3858138  26.4036761
  57.5772038  76.1562742  26.6425148  57.8202723  74.7123274  27.0269822
  55.6772526  70.2307839  31.4621999  54.8214122  69.8414689  31.2827638
  56.0899478  70.3099799  30.6021785  57.2071673  67.7654182  35.8613559
  56.7036468  67.7284317  35.0481364  57.5002280  68.6746925  35.9210215
  53.4514559  67.8492912  34.8679740  54.3167555  67.6535720  34.5085630
  53.5192067  67.6203263  35.7949097  63.0659689  78.1390492  28.3389934
  62.2889132  77.8001652  27.8945096  63.7451170  78.1443116  27.6644899
  57.8811718  73.2585230  28.2296542  57.5761854  73.5731379  29.0806685
  58.8342160  73.3366650  28.2723875  56.3258150  79.4175453  29.8789496
  55.7979512  78.6828213  29.5662733  55.8245653  80.1950130  29.6329464
  61.3050996  77.6124474  34.9956542  60.6474670  78.3023735  35.0836671
  62.1091395  78.0020906  35.3390528  51.0576878  70.0795119  32.2396107
  51.6320630  69.8570301  31.5069300  51.6447860  70.1483814  32.9924709
  60.1156455  75.9668846  33.0460484  60.6288337  76.5998838  33.5482194
  60.7657679  75.3670042  32.6803844  51.3846465  72.1099581  26.2591993
  50.5483777  72.4474267  26.5801267  51.2451234  71.9748560  25.3219130
  53.3599545  66.9536368  30.9671177  52.7063958  66.6385386  30.3427791
  53.3180019  66.3312109  31.6931000  54.4710750  77.2355663  22.8824469
  53.5637812  77.0044917  23.0815618  54.9681782  76.4393283  23.0698450
  57.3778829  85.9453171  25.8021155  56.7040528  86.2484867  26.4106113
  57.7644651  86.7482251  25.4526612  56.5937286  73.4418302  35.2918824
  55.6759847  73.6633249  35.1340512  57.0097429  73.5164612  34.4330532
  57.3772333  74.8409718  30.4221505  58.1244152  75.3531115  30.1128627
  57.6463923  74.5193770  31.2825898  55.6498984  77.3368258  27.4048459
  54.7410203  77.0527291  27.5020929  55.6794067  77.7567337  26.5451766
  60.8818251  80.9474848  31.1739626  60.4280578  80.1065758  31.2304817
  60.2512218  81.5836246  31.5114407  59.3251190  82.7851345  32.1089445
  59.6174165  83.3456402  31.3901810  59.8349811  83.0779906  32.8642604
  46.2187154  75.0573772  31.3863661  46.0211554  74.4643133  30.6614728
  45.6633818  74.7525983  32.1039600  54.1983878  74.9496879  33.5058254
  54.2532487  73.9970715  33.4300731  53.3875080  75.1056318  33.9899553
  55.3475071  78.8777002  24.7436537  54.9094501  78.1612861  24.2842175
  56.0885512  79.1053117  24.1821629  52.1376238  73.5673939  31.2648633
  51.3244103  73.8668109  31.6713825  52.6335232  73.1729627  31.9823115
  54.2884815  83.5631696  33.1982898  54.2460994  83.7892542  32.2691430
  55.2047514  83.3295070  33.3468699  57.7350449  74.0315763  40.0963527
  58.0899837  74.2587236  40.9557993  58.3822581  74.3634140  39.4740782
  63.4648186  77.1534199  30.8012856  63.3266085  77.3435795  29.8734045
  63.1084405  77.9153582  31.2580907  51.6290312  71.1392294  36.8809868
  52.2689692  70.9981053  36.1832831  50.7967843  70.8526808  36.5048470
  63.4917566  79.2210726  35.8124128  63.9254072  79.1286015  36.6607182
  64.2049147  79.1968227  35.1744144  52.4050616  80.4394725  32.9944861
  53.1991215  79.9445045  32.7927435  51.6942309  79.9112588  32.6312566
  57.2245461  82.8212820  37.3457228  57.2782483  83.3903756  38.1134944
  56.3560242  82.9914705  36.9811265  48.7133380  74.5837806  29.0704613
  47.7830968  74.5222262  29.2874575  48.8090852  74.0613759  28.2741254
  48.6318929  71.1092619  31.6582855  48.8925746  72.0237952  31.5492015
  49.4536101  70.6417062  31.8079468  50.1043854  72.5230376  38.8281679
  50.7766908  72.3147738  38.1794328  49.2773641  72.3252462  38.3886912
  64.3533115  79.2634427  38.3457013  64.5469005  80.1680237  38.5916288
  64.2533734  78.8041846  39.1795598  56.0069426  69.1492317  40.8447340
  55.3597341  69.8482267  40.7511817  56.7770442  69.5828461  41.2123588
  59.4148224  79.4141169  43.9197894  59.2633730  79.1851721  43.0027977
  59.4052904  80.3711771  43.9329239  56.1833560  76.9873082  38.9044160
  57.1125620  77.1384242  38.7313127  55.7624590  77.0757103  38.0492807
  54.9821892  81.0123747  36.6742698  54.8432978  80.6442531  37.5468636
  54.1936488  81.5271386  36.5026655  55.5770044  86.1132843  28.0168234
  55.7521800  85.6420886  28.8313857  54.8902832  86.7398609  28.2449495
  56.5327107  80.3905349  34.0631535  56.1976940  80.3506119  34.9589185
  56.0331053  79.7250065  33.5901946  50.5071351  75.7972979  39.5884117
  50.3691149  75.0653218  40.1895656  51.4176275  75.7081879  39.3068304
  59.4686299  77.7361384  24.3368595  58.8515470  77.0108212  24.2401648
  59.0002788  78.4970744  23.9935669  53.1353652  75.5092939  39.0767796
  53.8453271  74.8686131  39.0354415  53.0922960  75.7605834  39.9993977
  61.1240431  82.4460292  41.9974375  61.0652977  81.7619512  41.3304958
  61.5259949  83.1879282  41.5455001  51.8482586  72.4958157  40.8963436
  51.3119943  72.0448895  41.5485032  51.2599294  72.6304065  40.1533900
  50.1431130  89.2622206  34.7908094  50.3827728  89.8940730  35.4687113
  49.3000326  88.9110246  35.0773454  51.2584845  71.9546808  23.4589899
  50.3814311  71.8335609  23.0952146  51.7342598  71.1632886  23.2068788
  61.1257838  80.4099876  40.2288355  60.2384617  80.0725798  40.3514754
  61.6956389  79.6782907  40.4657120  42.7786985  76.7423968  33.5531406
  43.4658025  76.4285698  32.9652422  42.6235114  77.6465332  33.2798658
  47.5821707  71.6314164  37.9816430  47.4979896  71.0239834  37.2466840
  46.7604414  72.1223183  37.9825927  54.6558991  85.0701328  37.1949598
  54.5829163  85.8756300  37.7068903  54.2136384  85.2693294  36.3697620
  54.4448771  84.3073098  30.7052420  53.6616293  84.8494779  30.7990644
  55.1441516  84.8247078  31.1046661  65.6075179  75.8208093  34.9904917
  65.5965055  76.7032809  34.6198850  64.7392558  75.4679644  34.7959454
  57.1157675  84.9688162  39.3507757  57.8285647  85.6035627  39.2783658
  56.6247704  85.0652028  38.5347759  58.8375202  78.8739415  30.9225049
  57.9031481  78.9940877  30.7529753  59.0151870  77.9711882  30.6585058
  54.3380390  72.2585111  33.0758310  53.9678177  71.7056151  33.7639215
  54.8339482  71.6543244  32.5233310  62.2247753  74.7156734  31.4575083
  62.6908205  75.5484726  31.3835385  62.6755254  74.2501716  32.1620341
  52.1669588  82.7182606  40.1713328  52.8679048  83.3519089  40.3242722
  51.6964703  83.0597337  39.4108967  60.2923984  81.0600556  28.4561235
  60.5683828  80.9457150  29.3655109  59.4228483  80.6618040  28.4173408
  59.9670874  75.2727213  37.9965878  59.3142325  75.5203121  37.3418331
  60.3451254  74.4591351  37.6628355  56.9278048  85.3086906  32.0994048
  57.1100443  84.4908562  32.5621801  57.7511034  85.5254599  31.6618938
  57.2620214  84.2355092  29.3609097  57.7907980  83.7247546  28.7479259
  57.5248433  83.9197622  30.2254630  56.0158447  76.0147024  44.4831915
  55.3399084  75.9141154  45.1534290  56.8386081  75.8586238  44.9467912
  47.7637306  82.2518961  37.1044430  48.3490743  81.5062649  37.2372335
  47.5662145  82.5622918  37.9881094  50.6175962  85.2870208  32.1206873
  49.9486337  85.7716336  31.6370913  50.4788831  85.5339429  33.0350251
  42.3554961  74.8224561  35.8248874  42.3939061  74.2888152  36.6185992
  41.8495254  74.2959767  35.2059851  54.7581230  87.3213952  38.7189531
  55.3099538  87.4845573  39.4838616  55.0987424  87.9118390  38.0469556
  49.7345724  69.6689102  39.3211416  49.7987050  70.5303932  38.9088814
  49.6712844  69.0563103  38.5883774  49.2097996  71.7412234  42.9684450
  49.8370035  71.3589311  43.5821974  48.3525915  71.5226436  43.3340143
  59.6092105  82.1475209  44.5738186  60.1532009  82.7605168  44.0793140
  59.0278949  82.7054788  45.0905199  45.9863539  73.5488663  28.9002805
  46.2816980  72.6399342  28.8469859  45.0851575  73.5276403  28.5783807
  57.8949618  85.2695927  35.7053213  57.7700757  84.4685667  35.1964159
  58.5528709  85.7642121  35.2167183  49.5157786  71.6244660  34.8830354
  48.7944372  72.2380627  34.7437827  50.3051042  72.1602425  34.8047000
  59.9584526  83.0704947  37.3332763  59.0114861  82.9510299  37.2611090
  60.3067299  82.1827445  37.4159025  52.3184099  68.9599086  41.1571005
  52.8418501  69.2061383  41.9197315  52.0996433  69.7919121  40.7374143
  47.7151380  71.2302761  29.0242130  47.3864087  70.3500140  28.8417236
  48.0690751  71.1750430  29.9118519  56.9630959  82.8657664  33.5337116
  56.8155922  81.9374371  33.7144686  57.7884453  82.8877754  33.0494191
  50.8293204  71.5175731  29.3917608  51.1689276  72.0461652  28.6696216
  51.2765324  71.8556137  30.1676174  60.5665081  83.6886222  34.6201988
  61.4911629  83.4829084  34.4826440  60.3980384  83.4402623  35.5291330
  53.5236644  69.9012781  38.8420676  53.1833465  69.1020594  39.2441356
  52.8175651  70.2014492  38.2697509  54.1753116  66.9862094  37.2947999
  54.9979186  66.5122572  37.1726889  54.4191180  67.7652578  37.7946685
  52.8161351  70.0150352  27.5910901  53.5369713  70.3931605  27.0874617
  52.1926655  70.7339229  27.6945879  56.9592474  70.7195501  28.5269233
  57.1756088  71.6020139  28.2258061  56.4786541  70.3281715  27.7974875
  51.6991695  73.6781214  35.1039978  51.5536276  73.9921518  35.9964259
  51.2216899  74.2966115  34.5510876  53.5588078  70.6683762  35.1520867
  53.5449647  69.7724856  34.8153165  54.2760506  70.6754426  35.7859153
  55.4114209  71.1021103  37.1973994  55.1531986  72.0238173  37.1958325
  54.8799249  70.7051537  37.8874459  60.3560397  84.2071890  29.9764080
  60.5297275  83.6418312  29.2237932  60.8489289  85.0072785  29.7943570
  46.1737357  76.2186559  38.0427639  45.6290825  76.9946367  38.1747913
  47.0516707  76.5657363  37.8846760  52.9624974  69.5498143  30.4208437
  53.0840885  68.6214789  30.6199325  52.6727016  69.5636829  29.5086753
  55.8316164  67.2353053  33.5575157  55.8537861  67.2992386  32.6027137
  56.2484223  66.3957562  33.7515663  66.2099788  76.9708313  31.5954380
  66.6530935  76.2215638  31.1973503  65.3326299  76.9618449  31.2128112
  61.3435570  83.5238654  27.0760978  62.0386474  84.1445347  27.2948293
  61.6858720  82.6734005  27.3513356  46.9603379  75.3456455  40.9357796
  46.2185115  75.4939090  41.5222426  46.6396123  75.6064721  40.0724545
  63.2426993  80.9738360  28.6048309  63.7678317  81.3125632  27.8797629
  63.1549345  80.0385375  28.4211444  54.9047042  84.8872433  40.7338186
  55.2134168  84.6421580  41.6060885  55.7022524  85.0919072  40.2457056
  54.9267654  87.0410343  32.9643562  54.4872644  86.5486722  33.6576419
  55.6775771  86.4983311  32.7235637  47.4059993  83.2321884  32.9668190
  48.2318013  82.9325656  32.5866834  47.0554045  82.4629506  33.4157979
  52.3741526  82.5848352  35.0365864  51.7521535  81.9219057  34.7368092
  53.0446393  82.6109484  34.3539512  45.6068598  81.1508210  33.9257124
  44.7700506  80.7230385  33.7441125  45.5792243  81.3440654  34.8627915
  52.4466053  71.0630140  44.6298370  52.4954209  71.9392263  44.2476139
  52.9888568  70.5207533  44.0570013  62.9320899  81.6071263  43.9099507
  62.1416443  81.5895402  43.3704006  62.6954254  82.1459557  44.6648543
  63.0518774  78.4563730  41.2232235  63.1016779  78.2913737  42.1647758
  62.9432697  77.5890989  40.8330116  51.9355033  81.1352275  28.5124324
  52.0843153  81.8187740  27.8590997  52.7421476  81.1157365  29.0273780
  60.3422536  74.4394658  42.5391542  61.2432399  74.3001123  42.2475540
  60.4170511  74.6049113  43.4789720  54.6765342  71.8161512  41.3844728
  53.8068651  72.1095079  41.1127317  54.9124822  72.4001957  42.1051992
  64.5536971  80.8760671  41.4674257  64.2621779  81.2390652  42.3037718
  63.9409102  80.1627679  41.2887589  65.7532653  78.4413551  33.9876827
  66.5879545  78.8803355  34.1514388  65.8891782  77.9652204  33.1685073
  62.8024159  75.9993286  39.9354315  63.2778281  76.1920932  39.1273166
  61.8789724  76.0552472  39.6897699  49.6907666  77.1617453  29.5185393
  49.4453708  76.2579783  29.7165603  49.8603580  77.1634603  28.5764871
  48.9603313  72.8945811  27.0171555  48.2672558  72.9690166  26.3611591
  48.7155065  72.1306154  27.5393072  55.4350438  83.6300406  25.9836072
  54.8624405  84.2490593  25.5306544  56.0083232  84.1799768  26.5175994
  58.6547698  83.9137556  27.1144654  59.5878371  83.8483118  27.3177530
  58.5670911  84.7493823  26.6559187  61.2835715  83.2303426  24.0748602
  61.2049346  82.8963290  24.9684359  62.1045382  83.7225194  24.0740074
  63.9813906  76.0965166  37.2824920  63.9490226  75.1581166  37.4684604
  64.5914530  76.1749202  36.5490745  55.8197237  74.9661219  23.3252124
  56.7656341  74.8367427  23.3940542  55.4411482  74.2275880  23.8021552
  69.7990456  77.1581172  36.4230957  70.5293844  76.8966461  36.9838660
  69.1897401  76.4209894  36.4633025  55.7035929  79.0178965  44.7852781
  56.6238939  79.1957564  44.9792828  55.6685512  78.0735010  44.6332480
  54.0040154  72.8911195  23.2607009  53.0971609  72.5944308  23.3369723
  54.2816135  72.5941013  22.3941296  44.9218094  74.2117558  33.7106056
  44.6020879  73.3582867  33.4180430  44.3751522  74.4266137  34.4664023
  48.6998002  76.9279999  37.4275562  48.9184012  77.8597107  37.4463596
  49.1123776  76.5687974  38.2130366  55.6202220  67.4348085  29.4151251
  54.8102948  67.0895170  29.7906497  56.3086637  67.1255628  30.0038862
  53.5725867  72.5013205  46.8178311  53.4722594  73.4507562  46.7490402
  53.3547409  72.1731444  45.9454381  52.7738939  69.7498130  23.4018989
  53.6358103  70.0753029  23.6614806  52.9589283  68.9629626  22.8892054
  44.7906354  77.8320470  35.6799177  44.0969826  77.4174423  35.1669132
  45.5379345  77.8741006  35.0832596  53.4357137  75.9310344  45.6343373
  52.9524219  76.7310704  45.8407262  53.5218076  75.9418289  44.6810817
  46.7043097  77.7638724  33.5565192  46.6813785  77.8626411  32.6047075
  47.0143733  78.6103874  33.8782358  49.3630475  79.8214879  37.6711807
  50.3173728  79.7898821  37.6041738  49.1642998  79.3605502  38.4862033
  49.9529857  78.3915995  40.2382604  50.7722746  78.8860073  40.2617442
  50.2266665  77.4747963  40.2100172  47.7180703  85.3634498  34.6882005
  47.5835171  84.6034899  34.1220003  47.3012766  86.0875398  34.2210793
  58.8539666  80.5471422  23.6958580  59.5575517  80.7521424  24.3116236
  58.1302315  81.1148184  23.9607663  59.6837477  76.2981283  29.8160850
  59.6272678  76.7549834  28.9768482  60.2365819  75.5371968  29.6383693
  50.8749829  86.2603815  34.9000447  50.7582214  87.2049248  34.7979138
  50.0542276  85.9577377  35.2886246  60.7626364  80.9853951  25.7457040
  61.5971968  80.5535149  25.5634515  60.6010707  80.8135965  26.6733934
  60.4172256  77.4886064  27.1113379  60.3621060  77.3230336  26.1701823
  59.7918311  78.1962097  27.2675569  45.2064771  72.7254129  40.9374801
  45.8523635  72.2153083  41.4262027  44.9981922  73.4622810  41.5118227
  57.7318163  79.7934976  46.4366942  58.6009323  79.9675628  46.0753577
  57.2524915  80.6129393  46.3142671  53.7268382  66.9894173  26.6898698
  53.7147051  67.9336013  26.8466969  54.6191803  66.8064319  26.3958159
  51.9004343  86.9132077  38.1156376  52.8031590  86.9455687  38.4322871
  51.6741714  85.9832528  38.1302711  53.6557946  85.6663064  34.7766454
  52.7053577  85.6664925  34.6630827  53.9590432  84.9195798  34.2602489
  49.5462262  69.8721746  45.0349816  50.4093724  69.5158551  45.2453140
  48.9727673  69.5335640  45.7225220  69.3910639  91.5023602  35.8412217
  70.0289049  91.3830349  35.1375557  69.2731482  92.4504446  35.9000169
  66.2000345  91.4551030  35.7773741  65.8618857  91.3392095  34.8894276
  67.0690113  91.0542195  35.7574748  62.0587161  93.3086507  31.7670632
  61.4952026  93.2176443  30.9986920  61.9439556  92.4886411  32.2473125
  66.6820128  92.6085882  41.7359947  66.6708769  92.2138680  40.8640451
  66.8440768  91.8751954  42.3293718  59.6051593  94.8037698  34.6054853
  60.3972885  94.4628523  34.1901152  59.8448243  94.9132673  35.5257006
  67.6386720  96.9757474  27.0785097  66.9874699  97.5611555  26.6919111
  68.4331082  97.5063669  27.1380135  61.5642347  94.0646611  27.4772232
  62.3373223  93.5175598  27.3385107  61.9167746  94.9290861  27.6886693
  63.4027389  95.3922994  40.6839131  63.1117255  96.2968625  40.5685797
  64.0384374  95.4339521  41.3983200  64.3283596  92.7699842  37.2740491
  64.9247169  92.5455865  36.5597453  64.3858568  92.0284588  37.8765938
  63.9008625  90.2239278  25.1090682  64.1534145  89.7020799  24.3474145
  62.9633184  90.0605423  25.2117365  68.9451907  89.2275056  32.9165425
  69.7314997  88.8094479  32.5655842  69.2090612  90.1321148  33.0847073
  69.1161985  94.6647906  27.6154082  68.4807818  94.7382533  28.3274986
  68.7859391  95.2541505  26.9373161  74.3460335  89.1650289  33.8198403
  75.0785507  88.5949506  34.0536233  73.5899690  88.7771890  34.2604909
  63.6204913  92.1267383  27.3115056  63.5041172  91.4512287  27.9796141
  63.7307173  91.6399757  26.4947210  65.9636454  91.5877531  31.0161746
  65.5994662  91.0608152  31.7274667  66.8203570  91.1976000  30.8428231
  71.8685755  82.8771863  38.2793012  71.5369080  83.7467274  38.0554227
  71.2731368  82.5608147  38.9587042  65.6041941  86.6167430  26.0123094
  65.7716344  87.4847667  26.3793565  65.4139110  86.7794712  25.0884383
  68.3617274  95.0784409  37.6788925  68.0617998  95.9809448  37.5704732
  68.0168334  94.8116592  38.5310077  61.8129756  91.5298206  33.7125629
  60.8880252  91.3974420  33.9203321  62.0614169  92.3092425  34.2095571
  71.7614418  87.5966949  35.3586362  70.8531296  87.5282358  35.0645123
  71.7102014  88.0738894  36.1868187  65.5831162  89.0725088  26.9969761
  65.4630787  89.5182139  27.8355241  64.8883751  89.4210405  26.4383299
  59.1738567  91.1731480  34.5469418  59.3030948  91.4265958  35.4608830
  58.4936018  91.7659188  34.2274073  63.3438054 101.8428730  30.6459892
  63.2662084 102.7936555  30.7248373  62.7399698 101.4974602  31.3034819
  65.8355284  89.0156595  43.3021259  65.0588618  89.5750515  43.2924124
  66.4745847  89.5013378  43.8236129  73.6276065  85.7983388  37.1364236
  72.9850445  86.0915921  36.4904030  73.1230993  85.6836308  37.9417433
  71.2816228  89.5446561  27.8250095  72.1934084  89.7773948  27.6497793
  70.7725875  90.1283605  27.2625174  64.0901656  91.8242048  42.8639226
  64.8316341  92.3627092  42.5874050  63.3838642  92.4508337  43.0210778
  69.5656996  93.9671189  41.4611388  69.9740352  93.5253599  40.7166020
  68.8434258  93.3923816  41.7145581  65.9188066  88.9043796  38.8344945
  66.7649261  89.3283209  38.9779594  65.8586704  88.2477420  39.5283508
  69.8885811  94.5272379  35.2163677  69.2594673  94.6918094  34.5139744
  69.5011473  94.9413989  35.9874641  73.7675043  95.4626817  32.5708040
  73.0826081  95.8425719  32.0205074  73.8518892  96.0722144  33.3039988
  69.0687511  86.5648164  40.4926118  68.8248443  87.3190224  39.9560394
  69.3447442  86.9433512  41.3273365  71.0225974  93.1086776  39.1703384
  71.2342869  93.7518536  38.4937765  70.9755722  92.2749093  38.7025314
  68.6252203  85.7204597  36.0739956  67.7636682  86.0185850  36.3656694
  68.6514638  85.9374996  35.1420989  65.4413773  94.2646787  32.4813762
  65.9052118  94.5434490  31.6918384  65.1770571  93.3630232  32.2986852
  62.3337854  93.8118269  35.4193525  62.9039211  94.2405537  34.7811009
  62.9245965  93.5300854  36.1177711  64.3782659  90.3869940  29.2903327
  65.0806702  90.8390984  29.7577253  64.0463287  89.7453759  29.9183220
  62.8263020  88.9781696  43.6654536  62.1961681  89.6597977  43.8989933
  62.7199108  88.8664778  42.7207674  58.1207993  88.6453493  34.5920460
  57.3307047  88.9011021  34.1160571  58.6119240  89.4601830  34.6972501
  72.1371802  95.9858732  37.3425741  72.9589246  95.5838919  37.0608423
  72.1334205  95.8826966  38.2941857  60.0722738  89.0098072  31.5503937
  59.2753901  89.1216766  32.0687433  59.8448330  89.3484724  30.6844828
  65.9028406  95.5342775  39.4986452  65.9672838  95.9963182  40.3344624
  65.1939329  94.9040140  39.6268762  56.4045696  88.8983983  37.0235451
  56.6553734  89.7830993  37.2893027  56.9405244  88.7188584  36.2510543
  80.2277795  92.3297480  33.6910713  79.4741504  91.7604878  33.5354717
  80.3625336  92.2960145  34.6381347  65.6176423  97.2010882  29.3665432
  65.4822098  98.0462418  29.7950280  66.1586236  97.4030160  28.6031366
  62.1043763  83.2802462  46.0279787  61.7110708  82.7268661  46.7027431
  62.9209903  83.5913041  46.4186305  59.0705821  94.7186321  29.9393357
  59.5830341  95.5129571  30.0898922  59.7228533  94.0212611  29.8726959
  60.8800705  97.8352077  32.0216110  61.0567334  98.7570041  31.8337094
  61.6757539  97.5210496  32.4510490  65.0211724  84.6960341  43.6200044
  65.7621437  85.2967495  43.5404506  65.2529647  83.9537979  43.0618086
  60.1653062  89.8816709  41.8978273  60.0506577  88.9801966  42.1985372
  59.3097580  90.1280405  41.5463090  67.2444900  97.8234449  43.4965774
  66.8008754  97.0370828  43.1786679  67.9062113  98.0113599  42.8309665
  62.0032021  99.3530251  38.0226453  62.5539446  99.2247314  37.2503447
  61.1643497  99.6525140  37.6721345  69.3426138  98.1037249  41.5247175
  69.3244613  98.9246130  41.0327445  70.2646058  97.9791324  41.7497317
  65.7999192  95.6181378  42.3670684  66.3327529  94.8569667  42.1369992
  65.2713273  95.3255030  43.1094838  68.9668887  80.7241444  37.8964325
  68.6233156  81.6143086  37.8203436  69.3347849  80.5343102  37.0333910
  57.0354737  93.0474975  30.7152928  57.8729959  93.4571983  30.4986635
  57.2133005  92.1074417  30.6853122  68.9319169  90.7150055  26.4036761
  68.4165793  91.4854660  26.6425148  68.6596478  90.0415192  27.0269822
  66.5166281  85.5599756  31.4621999  65.6607877  85.1706607  31.2827638
  66.9293232  85.6391717  30.6021785  68.0465427  83.0946100  35.8613559
  67.5430223  83.0576235  35.0481364  68.3396034  84.0038842  35.9210215
  64.2908313  83.1784829  34.8679740  65.1561310  82.9827638  34.5085630
  64.3585822  82.9495181  35.7949097  73.9053444  93.4682410  28.3389934
  73.1282886  93.1293570  27.8945096  74.5844925  93.4735033  27.6644899
  68.7205473  88.5877148  28.2296542  68.4155608  88.9023297  29.0806685
  69.6735915  88.6658567  28.2723875  67.1651905  94.7467371  29.8789496
  66.6373266  94.0120130  29.5662733  66.6639407  95.5242047  29.6329464
  72.1444751  92.9416391  34.9956542  71.4868425  93.6315653  35.0836671
  72.9485150  93.3312823  35.3390528  61.8970632  85.4087037  32.2396107
  62.4714384  85.1862219  31.5069300  62.4841615  85.4775732  32.9924709
  70.9550209  91.2960764  33.0460484  71.4682091  91.9290756  33.5482194
  71.6051433  90.6961960  32.6803844  62.2240219  87.4391498  26.2591993
  61.3877531  87.7766185  26.5801267  62.0844989  87.3040478  25.3219130
  64.1993300  82.2828286  30.9671177  63.5457712  81.9677303  30.3427791
  64.1573774  81.6604027  31.6931000  65.3104505  92.5647581  22.8824469
  64.4031566  92.3336835  23.0815618  65.8075537  91.7685200  23.0698450
  68.2172584 101.2745088  25.8021155  67.5434282 101.5776785  26.4106113
  68.6038406 102.0774169  25.4526612  67.4331040  88.7710220  35.2918824
  66.5153602  88.9925167  35.1340512  67.8491184  88.8456530  34.4330532
  68.2166088  90.1701635  30.4221505  68.9637907  90.6823033  30.1128627
  68.4857678  89.8485688  31.2825898  66.4892738  92.6660176  27.4048459
  65.5803957  92.3819209  27.5020929  66.5187822  93.0859255  26.5451766
  71.7212006  96.2766766  31.1739626  71.2674333  95.4357675  31.2304817
  71.0905972  96.9128164  31.5114407  70.6644925  87.2058752  32.4040294
  69.9267682  86.6936138  32.7350536  70.9171699  86.7659133  31.5923571
  70.1644945  98.1143262  32.1089445  70.4567919  98.6748319  31.3901810
  70.6743565  98.4071823  32.8642604  70.7656552  79.9835004  32.9982063
  71.0715429  79.1232367  32.7107978  71.4909157  80.5752624  32.7981057
  57.0580909  90.3865690  31.3863661  56.8605308  89.7935051  30.6614728
  56.5027573  90.0817900  32.1039600  65.0377632  90.2788797  33.5058254
  65.0926242  89.3262633  33.4300731  64.2268834  90.4348236  33.9899553
  66.1868826  94.2068920  24.7436537  65.7488256  93.4904779  24.2842175
  66.9279267  94.4345034  24.1821629  62.9769992  88.8965856  31.2648633
  62.1637858  89.1960027  31.6713825  63.4728986  88.5021545  31.9823115
  65.1278570  98.8923613  33.1982898  65.0854749  99.1184460  32.2691430
  66.0441269  98.6586988  33.3468699  68.5744204  89.3607681  40.0963527
  68.9293592  89.5879154  40.9557993  69.2216335  89.6926058  39.4740782
  74.3041941  92.4826117  30.8012856  74.1659839  92.6727713  29.8734045
  73.9478160  93.2445500  31.2580907  62.4684067  86.4684212  36.8809868
  63.1083446  86.3272971  36.1832831  61.6361597  86.1818725  36.5048470
  74.3311320  94.5502644  35.8124128  74.7647827  94.4577933  36.6607182
  75.0442901  94.5260144  35.1744144  63.2444371  95.7686642  32.9944861
  64.0384969  95.2736962  32.7927435  62.5336063  95.2404505  32.6312566
  68.0639215  98.1504738  37.3457228  68.1176238  98.7195674  38.1134944
  67.1953997  98.3206623  36.9811265  59.5527134  89.9129724  29.0704613
  58.6224722  89.8514180  29.2874575  59.6484606  89.3905677  28.2741254
  59.4712683  86.4384537  31.6582855  59.7319501  87.3529870  31.5492015
  60.2929856  85.9708979  31.8079468  60.9437609  87.8522294  38.8281679
  61.6160662  87.6439656  38.1794328  60.1167395  87.6544380  38.3886912
  75.1926870  94.5926344  38.3457013  75.3862760  95.4972155  38.5916288
  75.0927488  94.1333763  39.1795598  66.8463181  84.4784235  40.8447340
  66.1991096  85.1774185  40.7511817  67.6164196  84.9120379  41.2123588
  70.2541979  94.7433087  43.9197894  70.1027485  94.5143639  43.0027977
  70.2446658  95.7003689  43.9329239  67.0227315  92.3165000  38.9044160
  67.9519375  92.4676159  38.7313127  66.6018345  92.4049021  38.0492807
  65.8215647  96.3415664  36.6742698  65.6826732  95.9734449  37.5468636
  65.0330243  96.8563304  36.5026655  66.4163799 101.4424761  28.0168234
  66.5915554 100.9712804  28.8313857  65.7296587 102.0690527  28.2449495
  67.3720862  95.7197267  34.0631535  67.0370695  95.6798037  34.9589185
  66.8724808  95.0541983  33.5901946  61.3465106  91.1264897  39.5884117
  61.2084904  90.3945136  40.1895656  62.2570029  91.0373797  39.3068304
  70.3080054  93.0653301  24.3368595  69.6909224  92.3400129  24.2401648
  69.8396542  93.8262662  23.9935669  63.9747407  90.8384856  39.0767796
  64.6847025  90.1978049  39.0354415  63.9316715  91.0897751  39.9993977
  71.9634185  97.7752210  41.9974375  71.9046731  97.0911430  41.3304958
  72.3653704  98.5171200  41.5455001  62.6876341  87.8250074  40.8963436
  62.1513698  87.3740813  41.5485032  62.0993049  87.9595983  40.1533900
  60.9824884 104.5914124  34.7908094  61.2221482 105.2232648  35.4687113
  60.1394080 104.2402164  35.0773454  62.0978599  87.2838726  23.4589899
  61.2208066  87.1627526  23.0952146  62.5736353  86.4924804  23.2068788
  71.9651592  95.7391794  40.2288355  71.0778371  95.4017715  40.3514754
  72.5350144  95.0074825  40.4657120  53.6180740  92.0715885  33.5531406
  54.3051779  91.7577615  32.9652422  53.4628868  92.9757250  33.2798658
  58.4215462  86.9606082  37.9816430  58.3373650  86.3531751  37.2466840
  57.5998168  87.4515100  37.9825927  65.4952746 100.3993246  37.1949598
  65.4222917 101.2048217  37.7068903  65.0530139 100.5985212  36.3697620
  65.2842525  99.6365016  30.7052420  64.5010047 100.1786696  30.7990644
  65.9835271 100.1538996  31.1046661  68.5939176  85.4459645  33.3486625
  69.0907875  84.6929608  33.0287695  67.8226157  85.4823962  32.7829835
  76.4468933  91.1500011  34.9904917  76.4358809  92.0324726  34.6198850
  75.5786312  90.7971562  34.7959454  67.9551429 100.2980080  39.3507757
  68.6679402 100.9327545  39.2783658  67.4641458 100.3943946  38.5347759
  69.6768956  94.2031333  30.9225049  68.7425235  94.3232795  30.7529753
  69.8545625  93.3003799  30.6585058  65.1774144  87.5877028  33.0758310
  64.8071932  87.0348069  33.7639215  65.6733237  86.9835162  32.5233310
  73.0641508  90.0448652  31.4575083  73.5301960  90.8776644  31.3835385
  73.5149008  89.5793634  32.1620341  63.0063343  98.0474523  40.1713328
  63.7072802  98.6811006  40.3242722  62.5358458  98.3889255  39.4108967
  71.1317739  96.3892473  28.4561235  71.4077583  96.2749068  29.3655109
  70.2622237  95.9909958  28.4173408  71.0358170  82.4129239  35.4965984
  70.1221250  82.6433466  35.6648191  71.4651272  82.4967683  36.3480016
  70.8064629  90.6019131  37.9965878  70.1536079  90.8495038  37.3418331
  71.1845009  89.7883269  37.6628355  67.7671803 100.6378824  32.0994048
  67.9494197  99.8200480  32.5621801  68.5904789 100.8546516  31.6618938
  68.1013968  99.5647009  29.3609097  68.6301735  99.0539464  28.7479259
  68.3642188  99.2489539  30.2254630  66.8552202  91.3438942  44.4831915
  66.1792839  91.2433071  45.1534290  67.6779836  91.1878156  44.9467912
  58.6031061  97.5810878  37.1044430  59.1884498  96.8354566  37.2372335
  58.4055899  97.8914835  37.9881094  61.4569716 100.6162126  32.1206873
  60.7880091 101.1008254  31.6370913  61.3182586 100.8631346  33.0350251
  53.1948716  90.1516479  35.8248874  53.2332815  89.6180069  36.6185992
  52.6889009  89.6251684  35.2059851  65.5974985 102.6505869  38.7189531
  66.1493293 102.8137491  39.4838616  65.9381178 103.2410307  38.0469556
  60.5739478  84.9981019  39.3211416  60.6380805  85.8595850  38.9088814
  60.5106598  84.3855021  38.5883774  60.0491751  87.0704152  42.9684450
  60.6763789  86.6881229  43.5821974  59.1919669  86.8518354  43.3340143
  70.4485859  97.4767127  44.5738186  70.9925763  98.0897085  44.0793140
  69.8672704  98.0346705  45.0905199  56.8257293  88.8780581  28.9002805
  57.1210734  87.9691259  28.8469859  55.9245329  88.8568320  28.5783807
  68.7343372 100.5987845  35.7053213  68.6094512  99.7977585  35.1964159
  69.3922463 101.0934038  35.2167183  60.3551540  86.9536577  34.8830354
  59.6338126  87.5672545  34.7437827  61.1444796  87.4894342  34.8047000
  70.7978280  98.3996865  37.3332763  69.8508616  98.2802216  37.2611090
  71.1461054  97.5119363  37.4159025  63.1577854  84.2891004  41.1571005
  63.6812256  84.5353300  41.9197315  62.9390187  85.1211039  40.7374143
  58.5545135  86.5594679  29.0242130  58.2257841  85.6792057  28.8417236
  58.9084506  86.5042347  29.9118519  67.8024714  98.1949581  33.5337116
  67.6549676  97.2666289  33.7144686  68.6278207  98.2169672  33.0494191
  61.6686958  86.8467648  29.3917608  62.0083031  87.3753570  28.6696216
  62.1159079  87.1848054  30.1676174  71.4058836  99.0178140  34.6201988
  72.3305383  98.8121001  34.4826440  71.2374139  98.7694541  35.5291330
  64.3630399  85.2304699  38.8420676  64.0227219  84.4312512  39.2441356
  63.6569405  85.5306410  38.2697509  65.0146871  82.3154011  37.2947999
  65.8372940  81.8414490  37.1726889  65.2584934  83.0944495  37.7946685
  63.6555105  85.3442270  27.5910901  64.3763468  85.7223523  27.0874617
  63.0320409  86.0631147  27.6945879  67.7986228  86.0487419  28.5269233
  68.0149842  86.9312057  28.2258061  67.3180295  85.6573632  27.7974875
  62.5385449  89.0073132  35.1039978  62.3930030  89.3213435  35.9964259
  62.0610653  89.6258032  34.5510876  64.3981832  85.9975680  35.1520867
  64.3843401  85.1016773  34.8153165  65.1154260  86.0046344  35.7859153
  66.2507963  86.4313020  37.1973994  65.9925741  87.3530091  37.1958325
  65.7193003  86.0343455  37.8874459  71.1954152  99.5363807  29.9764080
  71.3691029  98.9710230  29.2237932  71.6883043 100.3364702  29.7943570
  57.0131112  91.5478477  38.0427639  56.4684580  92.3238284  38.1747913
  57.8910461  91.8949281  37.8846760  63.8018728  84.8790060  30.4208437
  63.9234639  83.9506707  30.6199325  63.5120771  84.8928746  29.5086753
  66.6709919  82.5644971  33.5575157  66.6931615  82.6284304  32.6027137
  67.0877978  81.7249479  33.7515663  77.0493543  92.3000230  31.5954380
  77.4924689  91.5507556  31.1973503  76.1720053  92.2910367  31.2128112
  72.1829324  98.8530572  27.0760978  72.8780229  99.4737265  27.2948293
  72.5252474  98.0025923  27.3513356  57.7997133  90.6748373  40.9357796
  57.0578870  90.8231008  41.5222426  57.4789878  90.9356638  40.0724545
  74.0820747  96.3030277  28.6048309  74.6072072  96.6417550  27.8797629
  73.9943100  95.3677293  28.4211444  65.7440796 100.2164351  40.7338186
  66.0527923  99.9713498  41.6060885  66.5416278 100.4210989  40.2457056
  65.7661408 102.3702261  32.9643562  65.3266398 101.8778639  33.6576419
  66.5169525 101.8275228  32.7235637  58.2453747  98.5613801  32.9668190
  59.0711767  98.2617573  32.5866834  57.8947799  97.7921424  33.4157979
  63.2135280  97.9140270  35.0365864  62.5915290  97.2510975  34.7368092
  63.8840147  97.9401402  34.3539512  56.4462352  96.4800128  33.9257124
  55.6094261  96.0522302  33.7441125  56.4185998  96.6732571  34.8627915
  63.2859808  86.3922058  44.6298370  63.3347963  87.2684181  44.2476139
  63.8282322  85.8499451  44.0570013  73.7714653  96.9363181  43.9099507
  72.9810197  96.9187320  43.3704006  73.5348008  97.4751475  44.6648543
  73.8912529  93.7855647  41.2232235  73.9410533  93.6205655  42.1647758
  73.7826452  92.9182906  40.8330116  62.7748787  96.4644193  28.5124324
  62.9236908  97.1479657  27.8590997  63.5815231  96.4449283  29.0273780
  71.1816291  89.7686575  42.5391542  72.0826154  89.6293040  42.2475540
  71.2564265  89.9341030  43.4789720  65.5159096  87.1453430  41.3844728
  64.6462406  87.4386996  41.1127317  65.7518577  87.7293875  42.1051992
  75.3930725  96.2052589  41.4674257  75.1015534  96.5682569  42.3037718
  74.7802857  95.4919597  41.2887589  76.5926408  93.7705469  33.9876827
  77.4273299  94.2095273  34.1514388  76.7285536  93.2944122  33.1685073
  73.6417914  91.3285204  39.9354315  74.1172035  91.5212850  39.1273166
  72.7183479  91.3844389  39.6897699  60.5301420  92.4909371  29.5185393
  60.2847462  91.5871701  29.7165603  60.6997335  92.4926521  28.5764871
  68.2198130  83.3633047  38.9010149  68.7380074  84.0994074  38.5756637
  67.8653263  83.6697040  39.7356908  59.7997068  88.2237728  27.0171555
  59.1066313  88.2982083  26.3611591  59.5548820  87.4598072  27.5393072
  68.4710724  79.7833330  34.4211045  68.7512478  79.1156519  35.0471472
  69.2561331  79.9762425  33.9085709  66.2744193  98.9592324  25.9836072
  65.7018160  99.5782511  25.5306544  66.8476986  99.5091685  26.5175994
  72.3419583  88.2050964  38.1682621  73.2937005  88.3049061  38.1894845
  72.1723033  87.4129232  38.6780705  70.3633962  85.2906547  38.3542021
  69.7683894  85.5711560  37.6588510  70.0783659  85.7800448  39.1258763
  69.4941453  99.2429474  27.1144654  70.4272126  99.1775035  27.3177530
  69.4064665 100.0785740  26.6559187  72.1229469  98.5595344  24.0748602
  72.0443101  98.2255208  24.9684359  72.9439136  99.0517112  24.0740074
  74.8207660  91.4257083  37.2824920  74.7883980  90.4873084  37.4684604
  75.4308284  91.5041120  36.5490745  66.6590991  90.2953136  23.3252124
  67.6050096  90.1659344  23.3940542  66.2805236  89.5567798  23.8021552
  74.9702149  88.2168127  37.3283203  74.4541198  87.4326583  37.1413132
  75.8542097  87.8886843  37.4929723  72.6312876  81.9609142  33.2879016
  72.4337697  81.6524230  34.1722348  73.2412581  82.6870781  33.4176946
  80.6384210  92.4873090  36.4230957  81.3687599  92.2258378  36.9838660
  80.0291156  91.7501812  36.4633025  78.7199507  90.6280953  37.0205408
  77.9932671  90.4936918  36.4121900  78.3046794  90.9357781  37.8262126
  66.5429684  94.3470882  44.7852781  67.4632693  94.5249481  44.9792828
  66.5079267  93.4026928  44.6332480  64.8433908  88.2203113  23.2607009
  63.9365364  87.9236225  23.3369723  65.1209889  87.9232931  22.3941296
  55.7611849  89.5409476  33.7106056  55.4414633  88.6874784  33.4180430
  55.2145277  89.7558054  34.4664023  59.5391756  92.2571917  37.4275562
  59.7577766  93.1889025  37.4463596  59.9517530  91.8979891  38.2130366
  66.4595974  82.7640002  29.4151251  65.6496702  82.4187087  29.7906497
  67.1480391  82.4547546  30.0038862  68.3886522  81.8418049  31.0375547
  68.9417561  82.2613503  31.6965571  68.6256609  80.9153797  31.0798503
  64.4119622  87.8305123  46.8178311  64.3116349  88.7799480  46.7490402
  64.1941164  87.5023362  45.9454381  63.6132693  85.0790048  23.4018989
  64.4751857  85.4044946  23.6614806  63.7983037  84.2921544  22.8892054
  55.6300109  93.1612388  35.6799177  54.9363580  92.7466340  35.1669132
  56.3773100  93.2032924  35.0832596  71.7665329  83.9518574  30.5454212
  71.1863999  84.6103378  30.1632264  71.5001262  83.1295919  30.1341629
  70.2168896  83.3523632  32.7475532  70.7168674  83.4640167  31.9389851
  70.8604504  83.0484685  33.3876340  64.2750892  91.2602262  45.6343373
  63.7917973  92.0602622  45.8407262  64.3611831  91.2710207  44.6810817
  57.5436851  93.0930641  33.5565192  57.5207539  93.1918329  32.6047075
  57.8537488  93.9395792  33.8782358  60.2024229  95.1506796  37.6711807
  61.1567483  95.1190739  37.6041738  60.0036753  94.6897420  38.4862033
  60.7923611  93.7207912  40.2382604  61.6116500  94.2151991  40.2617442
  61.0660419  92.8039881  40.2100172  70.5490208  86.1118665  29.6010560
  69.6616063  86.3968315  29.3830755  70.9644197  85.9512428  28.7537837
  73.9004744  86.1365186  33.3164899  74.6765134  86.6261638  33.5889516
  73.1752878  86.5623240  33.7736769  76.3377302  86.8492805  34.3738840
  76.9321793  86.6088541  33.6632148  76.4103886  86.1299935  35.0012376
  58.5574458 100.6926416  34.6882005  58.4228926  99.9326817  34.1220003
  58.1406520 101.4167316  34.2210793  69.6933421  95.8763339  23.6958580
  70.3969271  96.0813342  24.3116236  68.9696070  96.4440101  23.9607663
  70.5231231  91.6273201  29.8160850  70.4666433  92.0841752  28.9768482
  71.0759574  90.8663885  29.6383693  74.3336037  87.4162933  30.6410970
  74.0772971  87.0159568  31.4719177  73.7088905  88.1306726  30.5161109
  78.6448375  90.1559006  33.1482261  78.0847933  90.2252195  33.9213823
  78.0391878  89.9799990  32.4281757  61.7143584 101.5895733  34.9000447
  61.5975968 102.5341165  34.7979138  60.8936030 101.2869294  35.2886246
  71.6020118  96.3145869  25.7457040  72.4365722  95.8827067  25.5634515
  71.4404461  96.1427882  26.6733934  71.2566011  92.8177982  27.1113379
  71.2014814  92.6522253  26.1701823  70.6312066  93.5254015  27.2675569
  56.0458526  88.0546046  40.9374801  56.6917389  87.5445000  41.4262027
  55.8375677  88.7914728  41.5118227  68.5711918  95.1226894  46.4366942
  69.4403077  95.2967546  46.0753577  68.0918669  95.9421311  46.3142671
  64.5662136  82.3186091  26.6898698  64.5540806  83.2627931  26.8466969
  65.4585558  82.1356236  26.3958159  62.7398098 102.2423995  38.1156376
  63.6425345 102.2747605  38.4322871  62.5135468 101.3124446  38.1302711
  64.4951700 100.9954981  34.7766454  63.5447331 100.9956843  34.6630827
  64.7984186 100.2487716  34.2602489  68.3814255  78.9128868  30.9444634
  67.6146651  78.3587354  31.0901317  68.7924960  78.9850736  31.8058786
  60.3856017  85.2013663  45.0349816  61.2487478  84.8450468  45.2453140
  59.8121427  84.8627558  45.7225220  80.2304393 106.8315520  35.8412217
  80.8682803 106.7122267  35.1375557  80.1125236 107.7796364  35.9000169
  77.0394100 106.7842948  35.7773741  76.7012611 106.6684013  34.8894276
  77.9083868 106.3834113  35.7574748  72.8980915 108.6378424  31.7670632
  72.3345781 108.5468361  30.9986920  72.7833311 107.8178329  32.2473125
  77.5213883 107.9377800  41.7359947  77.5102524 107.5430598  40.8640451
  77.6834522 107.2043872  42.3293718  70.4445347 110.1329616  34.6054853
  71.2366639 109.7920440  34.1901152  70.6841998 110.2424591  35.5257006
  78.4780474 112.3049392  27.0785097  77.8268454 112.8903472  26.6919111
  79.2724837 112.8355587  27.1380135  72.4036101 109.3938529  27.4772232
  73.1766977 108.8467516  27.3385107  72.7561500 110.2582778  27.6886693
  74.2421144 110.7214911  40.6839131  73.9511010 111.6260542  40.5685797
  74.8778128 110.7631439  41.3983200  75.1677351 108.0991760  37.2740491
  75.7640923 107.8747782  36.5597453  75.2252322 107.3576505  37.8765938
  74.7402379 105.5531195  25.1090682  74.9927900 105.0312716  24.3474145
  73.8026938 105.3897341  25.2117365  79.7845662 104.5566974  32.9165425
  80.5708751 104.1386397  32.5655842  80.0484366 105.4613066  33.0847073
  79.9555739 109.9939824  27.6154082  79.3201572 110.0674450  28.3274986
  79.6253146 110.5833423  26.9373161  85.1854089 104.4942207  33.8198403
  85.9179261 103.9241424  34.0536233  84.4293445 104.1063807  34.2604909
  74.4598668 107.4559301  27.3115056  74.3434926 106.7804205  27.9796141
  74.5700928 106.9691675  26.4947210  76.8030209 106.9169448  31.0161746
  76.4388416 106.3900069  31.7274667  77.6597325 106.5267917  30.8428231
  82.7079509  98.2063781  38.2793012  82.3762834  99.0759192  38.0554227
  82.1125123  97.8900065  38.9587042  76.4435696 101.9459348  26.0123094
  76.6110098 102.8139584  26.3793565  76.2532865 102.1086630  25.0884383
  79.2011029 110.4076327  37.6788925  78.9011752 111.3101366  37.5704732
  78.8562089 110.1408510  38.5310077  72.6523510 106.8590124  33.7125629
  71.7274007 106.7266338  33.9203321  72.9007924 107.6384343  34.2095571
  82.6008173 102.9258867  35.3586362  81.6925050 102.8574275  35.0645123
  82.5495769 103.4030812  36.1868187  76.4224917 104.4017005  26.9969761
  76.3024542 104.8474056  27.8355241  75.7277505 104.7502323  26.4383299
  70.0132322 106.5023397  34.5469418  70.1424703 106.7557876  35.4608830
  69.3329773 107.0951105  34.2274073  74.1831809 117.1720647  30.6459892
  74.1055838 118.1228472  30.7248373  73.5793452 116.8266520  31.3034819
  76.6749039 104.3448513  43.3021259  75.8982373 104.9042433  43.2924124
  77.3139602 104.8305296  43.8236129  84.4669819 101.1275305  37.1364236
  83.8244199 101.4207839  36.4904030  83.9624748 101.0128226  37.9417433
  82.1209983 104.8738479  27.8250095  83.0327839 105.1065865  27.6497793
  81.6119630 105.4575523  27.2625174  74.9295411 107.1533966  42.8639226
  75.6710095 107.6919010  42.5874050  74.2232396 107.7800255  43.0210778
  80.4050750 109.2963106  41.4611388  80.8134107 108.8545517  40.7166020
  79.6828012 108.7215734  41.7145581  76.7581821 104.2335713  38.8344945
  77.6043016 104.6575127  38.9779594  76.6980458 103.5769338  39.5283508
  80.7279565 109.8564297  35.2163677  80.0988428 110.0210011  34.5139744
  80.3405227 110.2705907  35.9874641  84.6068797 110.7918735  32.5708040
  83.9219835 111.1717636  32.0205074  84.6912646 111.4014062  33.3039988
  79.9081266 101.8940082  40.4926118  79.6642198 102.6482142  39.9560394
  80.1841196 102.2725429  41.3273365  81.8619729 108.4378694  39.1703384
  82.0736624 109.0810454  38.4937765  81.8149477 107.6041011  38.7025314
  79.4645958 101.0496515  36.0739956  78.6030437 101.3477768  36.3656694
  79.4908392 101.2666913  35.1420989  76.2807527 109.5938705  32.4813762
  76.7445873 109.8726408  31.6918384  76.0164325 108.6922150  32.2986852
  73.1731608 109.1410187  35.4193525  73.7432965 109.5697455  34.7811009
  73.7639720 108.8592771  36.1177711  75.2176413 105.7161858  29.2903327
  75.9200456 106.1682901  29.7577253  74.8857042 105.0745676  29.9183220
  73.6656775 104.3073614  43.6654536  73.0355435 104.9889895  43.8989933
  73.5592862 104.1956696  42.7207674  68.9601747 103.9745410  34.5920460
  68.1700801 104.2302939  34.1160571  69.4512994 104.7893748  34.6972501
  82.9765557 111.3150649  37.3425741  83.7983000 110.9130837  37.0608423
  82.9727959 111.2118884  38.2941857  70.9116492 104.3389989  31.5503937
  70.1147656 104.4508684  32.0687433  70.6842085 104.6776642  30.6844828
  76.7422160 110.8634693  39.4986452  76.8066593 111.3255100  40.3344624
  76.0333084 110.2332058  39.6268762  67.2439450 104.2275901  37.0235451
  67.4947488 105.1122911  37.2893027  67.7798998 104.0480502  36.2510543
  91.0671550 107.6589398  33.6910713  90.3135258 107.0896796  33.5354717
  91.2019091 107.6252062  34.6381347  76.4570178 112.5302800  29.3665432
  76.3215852 113.3754336  29.7950280  76.9979990 112.7322078  28.6031366
  72.9437517  98.6094380  46.0279787  72.5504463  98.0560579  46.7027431
  73.7603658  98.9204958  46.4186305  69.9099575 110.0478238  29.9393357
  70.4224096 110.8421488  30.0898922  70.5622288 109.3504529  29.8726959
  71.7194460 113.1643994  32.0216110  71.8961088 114.0861959  31.8337094
  72.5151293 112.8502414  32.4510490  75.8605478 100.0252259  43.6200044
  76.6015192 100.6259412  43.5404506  76.0923401  99.2829897  43.0618086
  71.0046816 105.2108626  41.8978273  70.8900331 104.3093884  42.1985372
  70.1491334 105.4572323  41.5463090  78.0838654 113.1526367  43.4965774
  77.6402508 112.3662745  43.1786679  78.7455868 113.3405517  42.8309665
  72.8425775 114.6822168  38.0226453  73.3933200 114.5539232  37.2503447
  72.0037251 114.9817057  37.6721345  80.1819892 113.4329167  41.5247175
  80.1638367 114.2538048  41.0327445  81.1039812 113.3083242  41.7497317
  76.6392946 110.9473296  42.3670684  77.1721283 110.1861584  42.1369992
  76.1107027 110.6546948  43.1094838  79.8062641  96.0533362  37.8964325
  79.4626911  96.9435004  37.8203436  80.1741604  95.8635020  37.0333910
  67.8748492 108.3766892  30.7152928  68.7123714 108.7863901  30.4986635
  68.0526760 107.4366335  30.6853122  79.7712924 106.0441973  26.4036761
  79.2559547 106.8146578  26.6425148  79.4990232 105.3707109  27.0269822
  77.3560035 100.8891674  31.4621999  76.5001631 100.4998524  31.2827638
  77.7686987 100.9683635  30.6021785  78.8859182  98.4238017  35.8613559
  78.3823977  98.3868152  35.0481364  79.1789789  99.3330760  35.9210215
  75.1302068  98.5076747  34.8679740  75.9955064  98.3119556  34.5085630
  75.1979576  98.2787099  35.7949097  84.7447198 108.7974328  28.3389934
  83.9676641 108.4585487  27.8945096  85.4238679 108.8026951  27.6644899
  79.5599227 103.9169065  28.2296542  79.2549363 104.2315214  29.0806685
  80.5129669 103.9950485  28.2723875  78.0045659 110.0759289  29.8789496
  77.4767021 109.3412048  29.5662733  77.5033162 110.8533965  29.6329464
  82.9838505 108.2708309  34.9956542  82.3262179 108.9607570  35.0836671
  83.7878904 108.6604741  35.3390528  72.7364387 100.7378955  32.2396107
  73.3108139 100.5154136  31.5069300  73.3235369 100.8067649  32.9924709
  81.7943964 106.6252682  33.0460484  82.3075846 107.2582674  33.5482194
  82.4445188 106.0253877  32.6803844  73.0633974 102.7683416  26.2591993
  72.2271286 103.1058102  26.5801267  72.9238743 102.6332396  25.3219130
  75.0387054  97.6120204  30.9671177  74.3851467  97.2969221  30.3427791
  74.9967528  96.9895944  31.6931000  76.1498259 107.8939499  22.8824469
  75.2425321 107.6628752  23.0815618  76.6469291 107.0977118  23.0698450
  78.2724795 104.1002137  35.2918824  77.3547356 104.3217084  35.1340512
  78.6884938 104.1748448  34.4330532  79.0559842 105.4993553  30.4221505
  79.8031661 106.0114950  30.1128627  79.3251432 105.1777606  31.2825898
  77.3286493 107.9952094  27.4048459  76.4197712 107.7111127  27.5020929
  77.3581576 108.4151172  26.5451766  82.5605760 111.6058683  31.1739626
  82.1068087 110.7649593  31.2304817  81.9299727 112.2420082  31.5114407
  81.5038680 102.5350669  32.4040294  80.7661436 102.0228055  32.7350536
  81.7565453 102.0951051  31.5923571  81.0038699 113.4435180  32.1089445
  81.2961674 114.0040237  31.3901810  81.5137320 113.7363741  32.8642604
  81.6050307  95.3126921  32.9982063  81.9109184  94.4524285  32.7107978
  82.3302912  95.9044541  32.7981057  67.8974663 105.7157608  31.3863661
  67.6999063 105.1226969  30.6614728  67.3421327 105.4109818  32.1039600
  75.8771387 105.6080714  33.5058254  75.9319996 104.6554551  33.4300731
  75.0662589 105.7640153  33.9899553  77.0262580 109.5360837  24.7436537
  76.5882010 108.8196696  24.2842175  77.7673021 109.7636952  24.1821629
  73.8163747 104.2257774  31.2648633  73.0031612 104.5251945  31.6713825
  74.3122741 103.8313463  31.9823115  75.9672324 114.2215531  33.1982898
  75.9248503 114.4476377  32.2691430  76.8835023 113.9878906  33.3468699
  79.4137958 104.6899599  40.0963527  79.7687346 104.9171072  40.9557993
  80.0610089 105.0217975  39.4740782  85.1435695 107.8118034  30.8012856
  85.0053594 108.0019630  29.8734045  84.7871914 108.5737417  31.2580907
  73.3077821 101.7976130  36.8809868  73.9477201 101.6564889  36.1832831
  72.4755352 101.5110643  36.5048470  85.1705075 109.8794561  35.8124128
  85.6041581 109.7869850  36.6607182  85.8836656 109.8552062  35.1744144
  74.0838125 111.0978560  32.9944861  74.8778724 110.6028880  32.7927435
  73.3729818 110.5696423  32.6312566  78.9032970 113.4796656  37.3457228
  78.9569992 114.0487592  38.1134944  78.0347751 113.6498541  36.9811265
  70.3920889 105.2421642  29.0704613  69.4618477 105.1806097  29.2874575
  70.4878361 104.7197594  28.2741254  70.3106438 101.7676455  31.6582855
  70.5713255 102.6821788  31.5492015  71.1323610 101.3000897  31.8079468
  71.7831363 103.1814212  38.8281679  72.4554417 102.9731574  38.1794328
  70.9561150 102.9836298  38.3886912  86.0320624 109.9218262  38.3457013
  86.2256514 110.8264073  38.5916288  85.9321243 109.4625681  39.1795598
  77.6856935  99.8076153  40.8447340  77.0384850 100.5066102  40.7511817
  78.4557951 100.2412297  41.2123588  81.0935733 110.0725005  43.9197894
  80.9421239 109.8435556  43.0027977  81.0840413 111.0295606  43.9329239
  77.8621069 107.6456918  38.9044160  78.7913129 107.7968077  38.7313127
  77.4412099 107.7340938  38.0492807  76.6609401 111.6707582  36.6742698
  76.5220487 111.3026366  37.5468636  75.8723997 112.1855221  36.5026655
  77.2557553 116.7716678  28.0168234  77.4309309 116.3004722  28.8313857
  76.5690341 117.3982445  28.2449495  78.2114616 111.0489185  34.0631535
  77.8764449 111.0089955  34.9589185  77.7118562 110.3833901  33.5901946
  72.1858860 106.4556815  39.5884117  72.0478658 105.7237054  40.1895656
  73.0963784 106.3665715  39.3068304  81.1473808 108.3945219  24.3368595
  80.5302979 107.6692047  24.2401648  80.6790297 109.1554579  23.9935669
  74.8141161 106.1676774  39.0767796  75.5240780 105.5269966  39.0354415
  74.7710469 106.4189669  39.9993977  82.8027940 113.1044127  41.9974375
  82.7440486 112.4203347  41.3304958  83.2047458 113.8463117  41.5455001
  73.5270095 103.1541992  40.8963436  72.9907452 102.7032730  41.5485032
  72.9386803 103.2887901  40.1533900  71.8218638 119.9206041  34.7908094
  72.0615237 120.5524565  35.4687113  70.9787835 119.5694081  35.0773454
  72.9372354 102.6130643  23.4589899  72.0601820 102.4919444  23.0952146
  73.4130107 101.8216722  23.2068788  82.8045347 111.0683711  40.2288355
  81.9172126 110.7309633  40.3514754  83.3743898 110.3366743  40.4657120
  64.4574494 107.4007803  33.5531406  65.1445534 107.0869533  32.9652422
  64.3022623 108.3049168  33.2798658  69.2609216 102.2898000  37.9816430
  69.1767405 101.6823669  37.2466840  68.4391923 102.7807018  37.9825927
  76.3346500 115.7285164  37.1949598  76.2616672 116.5340135  37.7068903
  75.8923893 115.9277129  36.3697620  76.1236280 114.9656934  30.7052420
  75.3403802 115.5078614  30.7990644  76.8229025 115.4830913  31.1046661
  79.4332930 100.7751563  33.3486625  79.9301630 100.0221525  33.0287695
  78.6619912 100.8115880  32.7829835  87.2862688 106.4791929  34.9904917
  87.2752564 107.3616644  34.6198850  86.4180067 106.1263479  34.7959454
  78.7945184 115.6271998  39.3507757  79.5073156 116.2619462  39.2783658
  78.3035213 115.7235864  38.5347759  80.5162711 109.5323250  30.9225049
  79.5818990 109.6524713  30.7529753  80.6939379 108.6295717  30.6585058
  76.0167899 102.9168946  33.0758310  75.6465686 102.3639986  33.7639215
  76.5126991 102.3127080  32.5233310  83.9035262 105.3740570  31.4575083
  84.3695714 106.2068561  31.3835385  84.3542763 104.9085551  32.1620341
  73.8457097 113.3766441  40.1713328  74.5466557 114.0102924  40.3242722
  73.3752212 113.7181173  39.4108967  81.9711493 111.7184391  28.4561235
  82.2471337 111.6040985  29.3655109  81.1015992 111.3201876  28.4173408
  81.8751925  97.7421157  35.4965984  80.9615005  97.9725383  35.6648191
  82.3045026  97.8259601  36.3480016  81.6458383 105.9311049  37.9965878
  80.9929834 106.1786956  37.3418331  82.0238763 105.1175187  37.6628355
  78.6065557 115.9670742  32.0994048  78.7887952 115.1492398  32.5621801
  79.4298543 116.1838434  31.6618938  78.9407723 114.8938927  29.3609097
  79.4695489 114.3831381  28.7479259  79.2035942 114.5781457  30.2254630
  77.6945956 106.6730860  44.4831915  77.0186593 106.5724989  45.1534290
  78.5173590 106.5170073  44.9467912  69.4424815 112.9102796  37.1044430
  70.0278252 112.1646484  37.2372335  69.2449654 113.2206753  37.9881094
  72.2963471 115.9454044  32.1206873  71.6273846 116.4300171  31.6370913
  72.1576340 116.1923264  33.0350251  64.0342470 105.4808396  35.8248874
  64.0726570 104.9471987  36.6185992  63.5282763 104.9543602  35.2059851
  76.4368739 117.9797787  38.7189531  76.9887047 118.1429409  39.4838616
  76.7774933 118.5702225  38.0469556  71.4133233 100.3272937  39.3211416
  71.4774559 101.1887768  38.9088814  71.3500353  99.7146939  38.5883774
  70.8885505 102.3996069  42.9684450  71.5157544 102.0173147  43.5821974
  70.0313424 102.1810271  43.3340143  81.2879614 112.8059045  44.5738186
  81.8319518 113.4189003  44.0793140  80.7066458 113.3638623  45.0905199
  67.6651048 104.2072499  28.9002805  67.9604489 103.2983177  28.8469859
  66.7639084 104.1860238  28.5783807  79.5737127 115.9279763  35.7053213
  79.4488266 115.1269502  35.1964159  80.2316218 116.4225956  35.2167183
  71.1945295 102.2828495  34.8830354  70.4731881 102.8964463  34.7437827
  71.9838551 102.8186260  34.8047000  81.6372035 113.7288783  37.3332763
  80.6902370 113.6094134  37.2611090  81.9854808 112.8411281  37.4159025
  73.9971608  99.6182922  41.1571005  74.5206010  99.8645218  41.9197315
  73.7783942 100.4502956  40.7374143  69.3938889 101.8886596  29.0242130
  69.0651596 101.0083975  28.8417236  69.7478260 101.8334265  29.9118519
  78.6418468 113.5241499  33.5337116  78.4943431 112.5958206  33.7144686
  79.4671962 113.5461590  33.0494191  72.5080713 102.1759566  29.3917608
  72.8476785 102.7045487  28.6696216  72.9552833 102.5139972  30.1676174
  82.2452590 114.3470058  34.6201988  83.1699138 114.1412919  34.4826440
  82.0767893 114.0986459  35.5291330  75.2024153 100.5596617  38.8420676
  74.8620974  99.7604430  39.2441356  74.4963160 100.8598328  38.2697509
  75.8540625  97.6445929  37.2947999  76.6766695  97.1706407  37.1726889
  76.0978689  98.4236413  37.7946685  74.4948860 100.6734188  27.5910901
  75.2157222 101.0515440  27.0874617  73.8714164 101.3923064  27.6945879
  78.6379983 101.3779337  28.5269233  78.8543597 102.2603974  28.2258061
  78.1574050 100.9865550  27.7974875  73.3779204 104.3365050  35.1039978
  73.2323785 104.6505353  35.9964259  72.9004408 104.9549950  34.5510876
  75.2375587 101.3267598  35.1520867  75.2237156 100.4308691  34.8153165
  75.9548015 101.3338262  35.7859153  77.0901718 101.7604938  37.1973994
  76.8319495 102.6822009  37.1958325  76.5586758 101.3635373  37.8874459
  82.0347906 114.8655725  29.9764080  82.2084784 114.3002148  29.2237932
  82.5276798 115.6656620  29.7943570  67.8524866 106.8770394  38.0427639
  67.3078334 107.6530202  38.1747913  68.7304216 107.2241199  37.8846760
  74.6412483 100.2081978  30.4208437  74.7628394  99.2798624  30.6199325
  74.3514525 100.2220664  29.5086753  77.5103673  97.8936888  33.5575157
  77.5325370  97.9576222  32.6027137  77.9271732  97.0541397  33.7515663
  87.8887297 107.6292148  31.5954380  88.3318444 106.8799473  31.1973503
  87.0113808 107.6202284  31.2128112  83.0223079 114.1822490  27.0760978
  83.7173983 114.8029182  27.2948293  83.3646229 113.3317841  27.3513356
  68.6390888 106.0040290  40.9357796  67.8972624 106.1522926  41.5222426
  68.3183632 106.2648556  40.0724545  84.9214502 111.6322195  28.6048309
  85.4465826 111.9709468  27.8797629  84.8336854 110.6969210  28.4211444
  76.5834551 115.5456269  40.7338186  76.8921677 115.3005415  41.6060885
  77.3810033 115.7502907  40.2457056  76.6055163 117.6994178  32.9643562
  76.1660153 117.2070557  33.6576419  77.3563280 117.1567146  32.7235637
  69.0847502 113.8905719  32.9668190  69.9105522 113.5909491  32.5866834
  68.7341554 113.1213342  33.4157979  74.0529035 113.2432187  35.0365864
  73.4309044 112.5802892  34.7368092  74.7233902 113.2693319  34.3539512
  67.2856107 111.8092046  33.9257124  66.4488015 111.3814220  33.7441125
  67.2579752 112.0024489  34.8627915  74.1253562 101.7213975  44.6298370
  74.1741718 102.5976098  44.2476139  74.6676077 101.1791368  44.0570013
  84.6108408 112.2655099  43.9099507  83.8203952 112.2479238  43.3704006
  84.3741763 112.8043392  44.6648543  84.7306283 109.1147565  41.2232235
  84.7804288 108.9497572  42.1647758  84.6220206 108.2474824  40.8330116
  73.6142542 111.7936111  28.5124324  73.7630662 112.4771575  27.8590997
  74.4208985 111.7741201  29.0273780  82.0210045 105.0978493  42.5391542
  82.9219908 104.9584958  42.2475540  82.0958020 105.2632948  43.4789720
  76.3552851 102.4745348  41.3844728  75.4856160 102.7678914  41.1127317
  76.5912331 103.0585793  42.1051992  86.2324480 111.5344507  41.4674257
  85.9409288 111.8974487  42.3037718  85.6196611 110.8211515  41.2887589
  87.4320162 109.0997386  33.9876827  88.2667054 109.5387190  34.1514388
  87.5679291 108.6236040  33.1685073  84.4811668 106.6577121  39.9354315
  84.9565790 106.8504768  39.1273166  83.5577233 106.7136307  39.6897699
  71.3695175 107.8201288  29.5185393  71.1241217 106.9163618  29.7165603
  71.5391089 107.8218439  28.5764871  79.0591885  98.6924965  38.9010149
  79.5773828  99.4285992  38.5756637  78.7047017  98.9988958  39.7356908
  70.6390822 103.5529646  27.0171555  69.9460067 103.6274001  26.3611591
  70.3942574 102.7889990  27.5393072  79.3104479  95.1125247  34.4211045
  79.5906233  94.4448436  35.0471472  80.0955086  95.3054343  33.9085709
  77.1137947 114.2884241  25.9836072  76.5411914 114.9074428  25.5306544
  77.6870741 114.8383603  26.5175994  83.1813337 103.5342881  38.1682621
  84.1330760 103.6340979  38.1894845  83.0116788 102.7421150  38.6780705
  81.2027717 100.6198464  38.3542021  80.6077649 100.9003477  37.6588510
  80.9177413 101.1092365  39.1258763  80.3335207 114.5721391  27.1144654
  81.2665880 114.5066953  27.3177530  80.2458420 115.4077658  26.6559187
  85.6601415 106.7549001  37.2824920  85.6277735 105.8165002  37.4684604
  86.2702039 106.8333038  36.5490745  77.4984746 105.6245054  23.3252124
  78.4443850 105.4951262  23.3940542  77.1198991 104.8859716  23.8021552
  85.8095903 103.5460044  37.3283203  85.2934952 102.7618501  37.1413132
  86.6935852 103.2178761  37.4929723  83.4706630  97.2901060  33.2879016
  83.2731451  96.9816148  34.1722348  84.0806336  98.0162699  33.4176946
  91.4777965 107.8165008  36.4230957  92.2081353 107.5550296  36.9838660
  90.8684910 107.0793730  36.4633025  89.5593262 105.9572870  37.0205408
  88.8326425 105.8228835  36.4121900  89.1440549 106.2649699  37.8262126
  77.3823438 109.6762800  44.7852781  78.3026448 109.8541399  44.9792828
  77.3473021 108.7318845  44.6332480  75.6827663 103.5495030  23.2607009
  74.7759118 103.2528143  23.3369723  75.9603644 103.2524848  22.3941296
  66.6005603 104.8701394  33.7106056  66.2808388 104.0166702  33.4180430
  66.0539031 105.0849972  34.4664023  70.3785511 107.5863835  37.4275562
  70.5971521 108.5180943  37.4463596  70.7911285 107.2271809  38.2130366
  77.2989729  98.0931920  29.4151251  76.4890457  97.7479005  29.7906497
  77.9874146  97.7839464  30.0038862  79.2280277  97.1709967  31.0375547
  79.7811316  97.5905420  31.6965571  79.4650363  96.2445715  31.0798503
  75.2513376 103.1597040  46.8178311  75.1510103 104.1091397  46.7490402
  75.0334918 102.8315279  45.9454381  74.4526448 100.4081966  23.4018989
  75.3145612 100.7336864  23.6614806  74.6376792  99.6213461  22.8892054
  66.4693863 108.4904305  35.6799177  65.7757335 108.0758258  35.1669132
  67.2166854 108.5324842  35.0832596  82.6059084  99.2810492  30.5454212
  82.0257753  99.9395296  30.1632264  82.3395017  98.4587837  30.1341629
  81.0562650  98.6815550  32.7475532  81.5562429  98.7932084  31.9389851
  81.6998258  98.3776603  33.3876340  75.1144646 106.5894179  45.6343373
  74.6311728 107.3894539  45.8407262  75.2005585 106.6002124  44.6810817
  68.3830606 108.4222559  33.5565192  68.3601294 108.5210246  32.6047075
  68.6931242 109.2687710  33.8782358  71.0417984 110.4798714  37.6711807
  71.9961237 110.4482656  37.6041738  70.8430507 110.0189338  38.4862033
  71.6317366 109.0499830  40.2382604  72.4510255 109.5443909  40.2617442
  71.9054174 108.1331798  40.2100172  81.3883962 101.4410582  29.6010560
  80.5009817 101.7260233  29.3830755  81.8037951 101.2804346  28.7537837
  84.7398498 101.4657103  33.3164899  85.5158888 101.9553556  33.5889516
  84.0146632 101.8915158  33.7736769  87.1771057 102.1784723  34.3738840
  87.7715548 101.9380459  33.6632148  87.2497640 101.4591853  35.0012376
  69.3968212 116.0218334  34.6882005  69.2622680 115.2618734  34.1220003
  68.9800275 116.7459233  34.2210793  81.3624986 106.9565118  29.8160850
  81.3060187 107.4133670  28.9768482  81.9153328 106.1955803  29.6383693
  85.1729792 102.7454850  30.6410970  84.9166726 102.3451486  31.4719177
  84.5482660 103.4598644  30.5161109  89.4842130 105.4850923  33.1482261
  88.9241688 105.5544113  33.9213823  88.8785633 105.3091908  32.4281757
  72.5537338 116.9187651  34.9000447  72.4369722 117.8633083  34.7979138
  71.7329785 116.6161212  35.2886246  82.4413873 111.6437786  25.7457040
  83.2759477 111.2118985  25.5634515  82.2798216 111.4719800  26.6733934
  82.0959765 108.1469900  27.1113379  82.0408569 107.9814171  26.1701823
  81.4705820 108.8545932  27.2675569  66.8852280 103.3837964  40.9374801
  67.5311144 102.8736918  41.4262027  66.6769431 104.1206646  41.5118227
  79.4105672 110.4518811  46.4366942  80.2796832 110.6259464  46.0753577
  78.9312424 111.2713228  46.3142671  75.4055891  97.6478009  26.6898698
  75.3934560  98.5919848  26.8466969  76.2979312  97.4648154  26.3958159
  73.5791852 117.5715912  38.1156376  74.4819099 117.6039523  38.4322871
  73.3529223 116.6416363  38.1302711  75.3345454 116.3246899  34.7766454
  74.3841085 116.3248761  34.6630827  75.6377941 115.5779634  34.2602489
  79.2208010  94.2420785  30.9444634  78.4540406  93.6879272  31.0901317
  79.6318715  94.3142654  31.8058786  71.2249771 100.5305581  45.0349816
  72.0881233 100.1742386  45.2453140  70.6515182 100.1919476  45.7225220
  91.0698148 122.1607437  35.8412217  91.7076558 122.0414185  35.1375557
  90.9518991 123.1088281  35.9000169  87.8787854 122.1134865  35.7773741
  87.5406366 121.9975930  34.8894276  88.7477622 121.7126031  35.7574748
  88.3607637 123.2669717  41.7359947  88.3496278 122.8722515  40.8640451
  88.5228277 122.5335790  42.3293718  81.2839102 125.4621533  34.6054853
  82.0760394 125.1212358  34.1901152  81.5235752 125.5716509  35.5257006
  85.0814898 126.0506829  40.6839131  84.7904764 126.9552460  40.5685797
  85.7171883 126.0923357  41.3983200  86.0071105 123.4283678  37.2740491
  86.6034677 123.2039700  36.5597453  86.0646077 122.6868423  37.8765938
  93.5473264 113.5355699  38.2793012  93.2156589 114.4051109  38.0554227
  92.9518877 113.2191983  38.9587042  83.4917265 122.1882041  33.7125629
  82.5667761 122.0558255  33.9203321  83.7401678 122.9676261  34.2095571
  93.4401927 118.2550785  35.3586362  92.5318805 118.1866193  35.0645123
  93.3889523 118.7322730  36.1868187  80.8526076 121.8315315  34.5469418
  80.9818457 122.0849794  35.4608830  80.1723527 122.4243023  34.2274073
  87.5142793 119.6740430  43.3021259  86.7376127 120.2334350  43.2924124
  88.1533356 120.1597213  43.8236129  95.3063574 116.4567223  37.1364236
  94.6637954 116.7499756  36.4904030  94.8018502 116.3420143  37.9417433
  85.7689165 122.4825884  42.8639226  86.5103850 123.0210928  42.5874050
  85.0626151 123.1092172  43.0210778  91.2444505 124.6255024  41.4611388
  91.6527861 124.1837435  40.7166020  90.5221766 124.0507652  41.7145581
  87.5975575 119.5627631  38.8344945  88.4436770 119.9867044  38.9779594
  87.5374213 118.9061255  39.5283508  90.7475020 117.2231999  40.4926118
  90.5035952 117.9774060  39.9560394  91.0234951 117.6017347  41.3273365
  90.3039712 116.3788432  36.0739956  89.4424191 116.6769686  36.3656694
  90.3302147 116.5958831  35.1420989  84.0125363 124.4702104  35.4193525
  84.5826720 124.8989373  34.7811009  84.6033474 124.1884689  36.1177711
  84.5050529 119.6365532  43.6654536  83.8749190 120.3181813  43.8989933
  84.3986617 119.5248613  42.7207674  79.7995502 119.3037328  34.5920460
  79.0094556 119.5594856  34.1160571  80.2906749 120.1185666  34.6972501
  81.7510247 119.6681907  31.5503937  80.9541410 119.7800601  32.0687433
  81.5235839 120.0068559  30.6844828  87.5815915 126.1926610  39.4986452
  87.6460347 126.6547018  40.3344624  86.8726838 125.5623975  39.6268762
  78.0833205 119.5567818  37.0235451  78.3341243 120.4414828  37.2893027
  78.6192753 119.3772420  36.2510543  83.7831272 113.9386298  46.0279787
  83.3898217 113.3852496  46.7027431  84.5997412 114.2496876  46.4186305
  86.6999233 115.3544177  43.6200044  87.4408946 115.9551330  43.5404506
  86.9317156 114.6121815  43.0618086  81.8440571 120.5400544  41.8978273
  81.7294086 119.6385801  42.1985372  80.9885089 120.7864241  41.5463090
  83.6819530 130.0114086  38.0226453  84.2326955 129.8831149  37.2503447
  82.8431006 130.3108975  37.6721345  87.4786701 126.2765214  42.3670684
  88.0115038 125.5153502  42.1369992  86.9500782 125.9838866  43.1094838
  90.6456396 111.3825280  37.8964325  90.3020665 112.2726921  37.8203436
  91.0135358 111.1926937  37.0333910  88.1953790 116.2183592  31.4621999
  87.3395386 115.8290442  31.2827638  88.6080741 116.2975552  30.6021785
  89.7252936 113.7529935  35.8613559  89.2217732 113.7160070  35.0481364
  90.0183543 114.6622678  35.9210215  85.9695822 113.8368665  34.8679740
  86.8348819 113.6411473  34.5085630  86.0373331 113.6079016  35.7949097
  83.5758141 116.0670873  32.2396107  84.1501893 115.8446054  31.5069300
  84.1629124 116.1359567  32.9924709  85.8780809 112.9412121  30.9671177
  85.2245221 112.6261139  30.3427791  85.8361283 112.3187862  31.6931000
  89.1118549 119.4294055  35.2918824  88.1941111 119.6509002  35.1340512
  89.5278693 119.5040365  34.4330532  92.4444061 110.6418839  32.9982063
  92.7502938 109.7816202  32.7107978  93.1696666 111.2336459  32.7981057
  78.7368417 121.0449525  31.3863661  78.5392817 120.4518886  30.6614728
  78.1815081 120.7401736  32.1039600  86.7165141 120.9372632  33.5058254
  86.7713751 119.9846468  33.4300731  85.9056343 121.0932071  33.9899553
  84.6557501 119.5549692  31.2648633  83.8425367 119.8543862  31.6713825
  85.1516495 119.1605380  31.9823115  90.2531713 120.0191516  40.0963527
  90.6081100 120.2462989  40.9557993  90.9003844 120.3509893  39.4740782
  84.1471576 117.1268047  36.8809868  84.7870955 116.9856806  36.1832831
  83.3149106 116.8402561  36.5048470  81.1500192 117.0968372  31.6582855
  81.4107010 118.0113705  31.5492015  81.9717365 116.6292815  31.8079468
  82.6225118 118.5106129  38.8281679  83.2948171 118.3023492  38.1794328
  81.7954904 118.3128215  38.3886912  88.5250690 115.1368070  40.8447340
  87.8778605 115.8358020  40.7511817  89.2951705 115.5704214  41.2123588
  88.7014824 122.9748835  38.9044160  89.6306884 123.1259995  38.7313127
  88.2805854 123.0632856  38.0492807  87.5003156 126.9999500  36.6742698
  87.3614241 126.6318284  37.5468636  86.7117752 127.5147139  36.5026655
  83.0252615 121.7848732  39.5884117  82.8872413 121.0528971  40.1895656
  83.9357538 121.6957632  39.3068304  85.6534916 121.4968692  39.0767796
  86.3634534 120.8561884  39.0354415  85.6104224 121.7481587  39.9993977
  84.3663849 118.4833910  40.8963436  83.8301207 118.0324648  41.5485032
  83.7780558 118.6179818  40.1533900  75.2968249 122.7299721  33.5531406
  75.9839288 122.4161451  32.9652422  75.1416377 123.6341085  33.2798658
  80.1002971 117.6189917  37.9816430  80.0161159 117.0115587  37.2466840
  79.2785677 118.1098936  37.9825927  90.2726685 116.1043481  33.3486625
  90.7695384 115.3513443  33.0287695  89.5013666 116.1407797  32.7829835
  86.8561653 118.2460864  33.0758310  86.4859441 117.6931904  33.7639215
  87.3520746 117.6418997  32.5233310  84.6850852 128.7058359  40.1713328
  85.3860311 129.3394842  40.3242722  84.2145967 129.0473090  39.4108967
  92.7145679 113.0713074  35.4965984  91.8008759 113.3017301  35.6648191
  93.1438781 113.1551518  36.3480016  92.4852138 121.2602966  37.9965878
  91.8323588 121.5078874  37.3418331  92.8632518 120.4467104  37.6628355
  88.5339711 122.0022777  44.4831915  87.8580348 121.9016907  45.1534290
  89.3567345 121.8461991  44.9467912  80.2818570 128.2394714  37.1044430
  80.8672007 127.4938402  37.2372335  80.0843408 128.5498671  37.9881094
  74.8736225 120.8100314  35.8248874  74.9120324 120.2763905  36.6185992
  74.3676518 120.2835520  35.2059851  82.2526987 115.6564855  39.3211416
  82.3168313 116.5179685  38.9088814  82.1894107 115.0438856  38.5883774
  81.7279260 117.7287987  42.9684450  82.3551298 117.3465064  43.5821974
  80.8707178 117.5102189  43.3340143  78.5044802 119.5364416  28.9002805
  78.7998243 118.6275095  28.8469859  77.6032838 119.5152156  28.5783807
  82.0339049 117.6120413  34.8830354  81.3125635 118.2256381  34.7437827
  82.8232305 118.1478178  34.8047000  84.8365363 114.9474839  41.1571005
  85.3599765 115.1937136  41.9197315  84.6177696 115.7794874  40.7374143
  80.2332644 117.2178514  29.0242130  79.9045350 116.3375893  28.8417236
  80.5872015 117.1626183  29.9118519  86.0417908 115.8888534  38.8420676
  85.7014728 115.0896347  39.2441356  85.3356914 116.1890245  38.2697509
  86.6934380 112.9737847  37.2947999  87.5160449 112.4998325  37.1726889
  86.9372443 113.7528331  37.7946685  84.2172958 119.6656967  35.1039978
  84.0717539 119.9797271  35.9964259  83.7398162 120.2841868  34.5510876
  86.0769341 116.6559515  35.1520867  86.0630910 115.7600609  34.8153165
  86.7941769 116.6630179  35.7859153  87.9295472 117.0896856  37.1973994
  87.6713250 118.0113926  37.1958325  87.3980512 116.6927290  37.8874459
  78.6918621 122.2062312  38.0427639  78.1472089 122.9822120  38.1747913
  79.5697970 122.5533116  37.8846760  85.4806237 115.5373896  30.4208437
  85.6022148 114.6090542  30.6199325  85.1908280 115.5512582  29.5086753
  88.3497428 113.2228806  33.5575157  88.3719124 113.2868139  32.6027137
  88.7665487 112.3833315  33.7515663  79.4784642 121.3332208  40.9357796
  78.7366378 121.4814843  41.5222426  79.1577387 121.5940474  40.0724545
  78.1249861 127.1383963  33.9257124  77.2881769 126.7106138  33.7441125
  78.0973507 127.3316407  34.8627915  84.9647317 117.0505893  44.6298370
  85.0135472 117.9268016  44.2476139  85.5069831 116.5083286  44.0570013
  92.8603800 120.4270411  42.5391542  93.7613663 120.2876876  42.2475540
  92.9351774 120.5924866  43.4789720  87.1946605 117.8037266  41.3844728
  86.3249915 118.0970832  41.1127317  87.4306086 118.3877711  42.1051992
  89.8985639 114.0216882  38.9010149  90.4167583 114.7577909  38.5756637
  89.5440772 114.3280876  39.7356908  90.1498233 110.4417165  34.4211045
  90.4299987 109.7740354  35.0471472  90.9348840 110.6346261  33.9085709
  94.0207092 118.8634799  38.1682621  94.9724514 118.9632897  38.1894845
  93.8510542 118.0713068  38.6780705  92.0421471 115.9490382  38.3542021
  91.4471403 116.2295395  37.6588510  91.7571168 116.4384283  39.1258763
  96.6489658 118.8751962  37.3283203  96.1328707 118.0910419  37.1413132
  97.5329606 118.5470679  37.4929723  94.3100385 112.6192978  33.2879016
  94.1125206 112.3108066  34.1722348  94.9200090 113.3454617  33.4176946
  88.2217193 125.0054718  44.7852781  89.1420202 125.1833317  44.9792828
  88.1866776 124.0610763  44.6332480  77.4399358 120.1993311  33.7106056
  77.1202142 119.3458620  33.4180430  76.8932786 120.4141890  34.4664023
  81.2179265 122.9155752  37.4275562  81.4365275 123.8472860  37.4463596
  81.6305039 122.5563727  38.2130366  88.1383483 113.4223838  29.4151251
  87.3284211 113.0770923  29.7906497  88.8267900 113.1131381  30.0038862
  90.0674031 112.5001885  31.0375547  90.6205070 112.9197338  31.6965571
  90.3044118 111.5737633  31.0798503  86.0907131 118.4888958  46.8178311
  85.9903858 119.4383315  46.7490402  85.8728673 118.1607197  45.9454381
  77.3087618 123.8196223  35.6799177  76.6151089 123.4050176  35.1669132
  78.0560609 123.8616759  35.0832596  91.8956405 114.0107467  32.7475532
  92.3956183 114.1224002  31.9389851  92.5392013 113.7068520  33.3876340
  85.9538401 121.9186097  45.6343373  85.4705482 122.7186457  45.8407262
  86.0399340 121.9294042  44.6810817  79.2224360 123.7514477  33.5565192
  79.1995048 123.8502164  32.6047075  79.5324997 124.5979627  33.8782358
  81.8811738 125.8090632  37.6711807  82.8354992 125.7774574  37.6041738
  81.6824262 125.3481255  38.4862033  82.4711120 124.3791748  40.2382604
  83.2904009 124.8735826  40.2617442  82.7447928 123.4623716  40.2100172
  77.7246035 118.7129882  40.9374801  78.3704898 118.2028836  41.4262027
  77.5163186 119.4498563  41.5118227  90.0601764 109.5712703  30.9444634
  89.2934160 109.0171190  31.0901317  90.4712469 109.6434572  31.8058786
  82.0643526 115.8597499  45.0349816  82.9274987 115.5034304  45.2453140
  81.4908936 115.5211394  45.7225220  28.6059169  13.4646662  28.7219682
  28.5471715  12.7805882  28.0550265  29.0078687  14.2065652  28.2700308
  27.0910842  13.1661579  31.2983492  27.6350746  13.7791537  30.8038447
  26.5097687  13.7241157  31.8150505  30.4139637  12.6257633  30.6344814
  29.6235180  12.6081772  30.0949313  30.1772991  13.1645927  31.3893850
  32.0355709  11.8947041  28.1919564  31.7440517  12.2577021  29.0283025
  31.4227840  11.1814049  28.0132896  25.2136901  10.8121346  33.1612249
  26.0828061  10.9861998  32.7998884  24.7343653  11.6315762  33.0387978
  36.8729377  22.5209972  22.5657523  37.5107787  22.4016719  21.8620863
  36.7550220  23.4690816  22.6245475  33.6819083  22.4737400  22.5019048
  33.3437595  22.3578464  21.6139583  34.5508851  22.0728565  22.4820054
  34.1638866  23.6272251  28.4605254  34.1527507  23.2325050  27.5885757
  34.3259506  22.8938324  29.0539025  27.0870331  25.8224068  21.3300159
  27.8791623  25.4814892  20.9146459  27.3266981  25.9319043  22.2502313
  30.8846127  26.4109363  27.4084438  30.5935993  27.3154994  27.2931104
  31.5203112  26.4525891  28.1228507  31.8102334  23.7886212  23.9985797
  32.4065906  23.5642234  23.2842760  31.8677306  23.0470957  24.6011245
  41.8279072  20.1836659  20.5443710  42.5604244  19.6135875  20.7781539
  41.0718428  19.7958259  20.9850215  39.3504493  13.8958233  25.0038318
  39.0187818  14.7653644  24.7799533  38.7550106  13.5794517  25.6832349
  35.8436012  26.0970779  24.4034231  35.5436735  26.9995818  24.2950038
  35.4987072  25.8302962  25.2555384  39.2433156  18.6153319  22.0831669
  38.3350033  18.5468727  21.7890430  39.1920752  19.0925264  22.9113494
  30.8256792  32.8615099  17.3705199  30.7480822  33.8122924  17.4493679
  30.2218436  32.5160972  18.0280125  33.3174022  20.0342965  30.0266566
  32.5407356  20.5936885  30.0169430  33.9564585  20.5199747  30.5481436
  41.1094802  16.8169757  23.8609542  40.4669183  17.1102290  23.2149337
  40.6049731  16.7022678  24.6662739  31.5720394  22.8428418  29.5884533
  32.3135079  23.3813462  29.3119356  30.8657380  23.4694707  29.7456085
  37.0475734  24.9857558  28.1856694  37.4559090  24.5439969  27.4411327
  36.3252995  24.4110186  28.4390887  33.4006804  19.9230165  25.5590251
  34.2467999  20.3469579  25.7024900  33.3405442  19.2663789  26.2528814
  37.3704548  25.5458749  21.9408983  36.7413411  25.7104463  21.2385051
  36.9830211  25.9600359  22.7119947  41.2493780  26.4813187  19.2953347
  40.5644818  26.8612088  18.7450380  41.3337630  27.0908513  20.0285295
  36.5506249  17.5834533  27.2171425  36.3067181  18.3376594  26.6805701
  36.8266180  17.9619881  28.0518672  38.5044712  24.1273146  25.8948690
  38.7161607  24.7704906  25.2183072  38.4574460  23.2935462  25.4270621
  29.8156591  24.8304639  22.1438832  30.3857948  25.2591907  21.5056316
  30.4064703  24.5487223  22.8423017  30.3081758  19.9968066  30.3899843
  29.6780418  20.6784347  30.6235240  30.2017846  19.8851148  29.4452981
  39.6190540  27.0045101  24.0671048  40.4407984  26.6025289  23.7853729
  39.6152943  26.9013335  25.0187164  33.3847143  26.5529145  26.2231758
  33.4491576  27.0149552  27.0589930  32.6758067  25.9226509  26.3514068
  47.7096533  23.3483850  20.4156019  46.9560241  22.7791248  20.2600024
  47.8444074  23.3146514  21.3626654  29.5862501  14.2988832  32.7525094
  29.1929446  13.7455030  33.4272738  30.4028641  14.6099410  33.1431611
  28.3619443  28.8538446  18.7461417  28.5386071  29.7756411  18.5582401
  29.1576277  28.5396866  19.1755797  32.5030462  15.7146711  30.3445350
  33.2440175  16.3153864  30.2649813  32.7348384  14.9724349  29.7863393
  27.6471800  20.9003078  28.6223580  27.5325315  19.9988335  28.9230679
  26.7916317  21.1466775  28.2708397  34.7263637  28.8420819  30.2211081
  34.2827492  28.0557197  29.9031985  35.3880851  29.0299969  29.5554972
  29.4850759  30.3716620  24.7471759  30.0358184  30.2433684  23.9748753
  28.6462234  30.6711509  24.3966652  36.8244875  29.1223618  28.2492482
  36.8063351  29.9432500  27.7572751  37.7464795  28.9977694  28.4742623
  33.2817930  26.6367748  29.0915990  33.8146266  25.8756036  28.8615298
  32.7532011  26.3441400  29.8340145  39.6263488  23.9602761  21.7201849
  38.9687163  24.6502022  21.8081977  40.4303888  24.3499193  22.0635835
  38.4368947  22.3147134  19.7705790  38.9500829  22.9477125  20.2727500
  39.0870171  21.7148329  19.4049150  34.9149778  19.7896589  22.0164131
  33.9972339  20.0111536  21.8585819  35.3309922  19.8642900  21.1575838
  39.2030743  27.2953135  17.8984933  38.7493070  26.4544045  17.9550124
  38.5724710  27.9314533  18.2359713  37.6463683  29.1329632  18.8334751
  37.9386657  29.6934689  18.1147117  38.1562303  29.4258193  19.5887910
  32.6097308  29.9109983  19.9228204  32.5673487  30.1370829  18.9936736
  33.5260007  29.6773357  20.0714006  36.0562942  20.3794050  26.8208834
  36.4112329  20.6065524  27.6803299  36.7035073  20.7112427  26.1986089
  41.7860679  23.5012486  17.5258163  41.6478577  23.6914082  16.5979352
  41.4296897  24.2631869  17.9826214  41.8130058  25.5689013  22.5369434
  42.2466565  25.4764302  23.3852488  42.5261639  25.5446514  21.8989450
  35.5457953  29.1691107  24.0702535  35.5994975  29.7382044  24.8380251
  34.6772734  29.3392992  23.7056572  28.4256346  18.8708664  25.5526986
  29.0979400  18.6626026  24.9039635  27.5986133  18.6730750  25.1132218
  42.6745608  25.6112714  25.0702320  42.8681498  26.5158524  25.3161594
  42.5746226  25.1520133  25.9040905  34.3281918  15.4970605  27.5692647
  33.6809833  16.1960554  27.4757123  35.0982934  15.9306748  27.9368895
  37.7360716  25.7619457  30.6443200  37.5846223  25.5330008  29.7273284
  37.7265396  26.7190058  30.6574545  34.5046053  23.3351369  25.6289467
  35.4338113  23.4862529  25.4558434  34.0837083  23.4235390  24.7738113
  33.3034385  27.3602034  23.3988004  33.1645470  26.9920818  24.2713942
  32.5148981  27.8749673  23.2271962  33.8982537  32.4611130  14.7413541
  34.0734292  31.9899174  15.5559163  33.2115325  33.0876897  14.9694801
  34.8539600  26.7383637  20.7876842  34.5189432  26.6984407  21.6834492
  34.3543545  26.0728352  20.3147252  28.8283844  22.1451267  26.3129423
  28.6903642  21.4131505  26.9140962  29.7388767  22.0560167  26.0313611
  31.4566144  21.8571226  25.8013103  32.1665763  21.2164418  25.7599721
  31.4135452  22.1084121  26.7239284  39.4452923  28.7938579  28.7219682
  39.3865469  28.1097799  28.0550265  39.8472441  29.5357569  28.2700308
  30.1695078  18.8436444  27.6208742  29.6332435  18.3927182  28.2730339
  29.5811787  18.9782353  26.8779207  28.4643622  35.6100493  21.5153401
  28.7040220  36.2419017  22.1932419  27.6212818  35.2588533  21.8018760
  39.4470330  26.7578163  26.9533662  38.5597109  26.4204085  27.0760061
  40.0168881  26.0261194  27.1902427  32.9771484  31.4179616  23.9194905
  32.9041655  32.2234587  24.4314209  32.5348877  31.6171581  23.0942926
  32.7661263  30.6551386  17.4297726  31.9828785  31.1973066  17.5235951
  33.4654008  31.1725365  17.8291968  43.9287671  22.1686381  21.7150223
  43.9177547  23.0511096  21.3444156  43.0605050  21.8157931  21.5204760
  35.4370167  31.3166450  26.0753064  36.1498139  31.9513914  26.0028965
  34.9460196  31.4130316  25.2593065  30.4882081  29.0660893  26.8958634
  31.1891540  29.6997376  27.0488029  30.0177196  29.4075625  26.1354274
  38.2883367  21.6205500  24.7211185  37.6354817  21.8681408  24.0663638
  38.6663747  20.8069639  24.3873662  35.2490541  31.6565194  18.8239355
  35.4312935  30.8386850  19.2867107  36.0723527  31.8732886  18.3864245
  35.5832706  30.5833379  16.0854404  36.1120472  30.0725833  15.4724566
  35.8460926  30.2675909  16.9499937  34.3370940  22.3625312  31.2077222
  33.6611577  22.2619441  31.8779597  35.1598574  22.2064525  31.6713219
  26.0849799  28.5997248  23.8289737  26.6703236  27.8540936  23.9617641
  25.8874637  28.9101205  24.7126401  28.9388454  31.6348495  18.8452179
  28.2698829  32.1194623  18.3616220  28.8001324  31.8817716  19.7595558
  33.0793723  33.6692239  25.4434838  33.6312031  33.8323860  26.2083923
  33.4199916  34.2596677  24.7714863  27.5310488  18.0890521  29.6929757
  28.1582527  17.7067599  30.3067281  26.6738407  17.8704723  30.0585449
  37.9304597  28.4953496  31.2983492  38.4744501  29.1083455  30.8038447
  37.3491442  29.0533075  31.8150505  36.2162110  31.6174215  22.4298520
  36.0913249  30.8163954  21.9209465  36.8741201  32.1120408  21.9412490
  38.2797018  29.4183235  24.0578070  37.3327354  29.2988586  23.9856397
  38.6279791  28.5305733  24.1404332  30.6396592  15.3077374  27.8816312
  31.1630993  15.5539670  28.6442621  30.4208925  16.1397408  27.4619449
  35.2843452  29.2135951  20.2582422  35.1368414  28.2852658  20.4389992
  36.1096945  29.2356042  19.7739498  38.8877573  30.0364510  21.3447295
  39.8124121  29.8307371  21.2071746  38.7192877  29.7880911  22.2536637
  31.8449137  16.2491069  25.5665983  31.5045957  15.4498882  25.9686662
  31.1388143  16.5492779  24.9942816  33.7326701  17.4499390  23.9219301
  33.4744479  18.3716461  23.9203632  33.2011741  17.0529824  24.6119765
  38.6772890  30.5550177  16.7009387  38.8509767  29.9896599  15.9483239
  39.1701781  31.3551072  16.5188876  24.4949849  22.5664846  24.7672945
  23.9503317  23.3424654  24.8993220  25.3729199  22.9135651  24.6092067
  44.5312281  23.3186600  18.3199686  44.9743427  22.5693925  17.9218810
  43.6538791  23.3096736  17.9373418  39.6648062  29.8716941  13.8006285
  40.3598967  30.4923634  14.0193599  40.0071212  29.0212293  14.0758663
  25.2815871  21.6934742  27.6603102  24.5397607  21.8417378  28.2467733
  24.9608616  21.9543008  26.7969852  41.5639485  27.3216647  15.3293616
  42.0890809  27.6603920  14.6042936  41.4761838  26.3863662  15.1456750
  33.2259534  31.2350721  27.4583492  33.5346660  30.9899867  28.3306192
  34.0235016  31.4397359  26.9702362  33.2480146  33.3888630  19.6888869
  32.8085136  32.8965009  20.3821725  33.9988263  32.8461598  19.4480944
  25.7272485  29.5800171  19.6913497  26.5530505  29.2803943  19.3112140
  25.3766537  28.8107793  20.1403285  30.6954018  28.9326639  21.7611170
  30.0734027  28.2697344  21.4613398  31.3658885  28.9587771  21.0784818
  30.7678546  17.4108427  31.3543676  30.8166701  18.2870550  30.9721446
  31.3101060  16.8685820  30.7815320  41.2533391  27.9549551  30.6344814
  40.4628935  27.9373689  30.0949313  41.0166746  28.4937844  31.3893850
  41.3731266  24.8042017  27.9477542  41.4229271  24.6392024  28.8893065
  41.2645190  23.9369276  27.5575423  38.6635029  20.7872945  29.2636849
  39.5644891  20.6479410  28.9720847  38.7383003  20.9527400  30.2035026
  32.9977834  18.1639800  28.1090035  32.1281143  18.4573366  27.8372624
  33.2337314  18.7480245  28.8297299  42.8749463  27.2238958  28.1919564
  42.5834271  27.5868939  29.0283025  42.2621594  26.5105967  28.0132896
  44.0745145  24.7891838  20.7122134  44.9092037  25.2281642  20.8759694
  44.2104274  24.3130491  19.8930380  41.1236651  22.3471573  26.6599622
  41.5990773  22.5399219  25.8518473  40.2002217  22.4030759  26.4143005
  35.7016868  14.3819417  25.6255455  36.2198812  15.1180444  25.3001944
  35.3472001  14.6883410  26.4602215  39.8238320  19.2237333  24.8927927
  40.7755743  19.3235431  24.9140151  39.6541771  18.4315602  25.4026012
  37.8452700  16.3092916  25.0787328  37.2502632  16.5897929  24.3833817
  37.5602397  16.7986817  25.8504069  42.3026398  22.4443453  24.0070227
  42.2702718  21.5059454  24.1929911  42.9127022  22.5227490  23.2736052
  42.4520887  19.2354496  24.0528510  41.9359935  18.4512953  23.8658439
  43.3360835  18.9073213  24.2175029  48.1202948  23.5059460  23.1476264
  48.8506337  23.2444748  23.7083967  47.5109894  22.7688182  23.1878332
  46.2018245  21.6467322  23.7450715  45.4751409  21.5123287  23.1367206
  45.7865532  21.9544151  24.5507433  34.0248422  25.3657252  31.5098088
  34.9451431  25.5435851  31.7038134  33.9898005  24.4213297  31.3577787
  27.0210494  23.2758287  24.1520869  27.2396504  24.2075394  24.1708903
  27.4336268  22.9166261  24.9375673  31.8938359  18.8491492  33.5423618
  31.7935086  19.7985849  33.4735709  31.6759901  18.5209731  32.6699688
  31.7569629  22.2788631  32.3588680  31.2736711  23.0788991  32.5652569
  31.8430569  22.2896576  31.4056124  27.6842967  26.1693166  24.3957113
  28.6386221  26.1377108  24.3287045  27.4855491  25.7083790  25.2107339
  28.2742349  24.7394282  26.9627911  29.0935238  25.2338361  26.9862748
  28.5479157  23.8226250  26.9345479  43.8196040  17.8679174  21.0984146
  44.4140531  17.6274910  20.3877455  43.8922624  17.1486305  21.7257683
  26.0393196  31.7112785  21.4127311  25.9047664  30.9513186  20.8465309
  25.6225258  32.4353685  20.9456100  46.1267113  21.1745375  19.8727568
  45.5666671  21.2438565  20.6459130  45.5210616  20.9986360  19.1527064
  29.1962322  32.6082102  21.6245754  29.0794706  33.5527535  21.5224444
  28.3754768  32.3055664  22.0131553  23.5277263  19.0732416  27.6620108
  24.1736127  18.5631370  28.1507333  23.3194414  19.8101097  28.2363533
  36.0530656  26.1413263  33.1612249  36.9221815  26.3153916  32.7998884
  35.5737407  26.9607680  33.0387978  30.2216836  33.2610364  24.8401682
  31.1244082  33.2933975  25.1568177  29.9954206  32.3310815  24.8548018
  31.9770438  32.0141351  21.5011761  31.0266069  32.0143212  21.3876133
  32.2802924  31.2674085  20.9847796  27.8674754  16.2200033  31.7595122
  28.7306216  15.8636838  31.9698447  27.2940165  15.8813928  32.4470527
  47.7123131  37.8501889  22.5657523  48.3501541  37.7308637  21.8620863
  47.5943974  38.7982733  22.6245475  44.5212838  37.8029317  22.5019048
  44.1831349  37.6870382  21.6139583  45.3902606  37.4020482  22.4820054
  40.3799653  39.6564794  18.4915939  39.8164518  39.5654731  17.7232227
  40.2652048  38.8364698  18.9718432  45.0032621  38.9564169  28.4605254
  44.9921261  38.5616967  27.5885757  45.1653260  38.2230242  29.0539025
  37.9264085  41.1515985  21.3300159  38.7185377  40.8106810  20.9146459
  38.1660735  41.2610960  22.2502313  45.9599212  43.3235761  13.8030404
  45.3087192  43.9089842  13.4164418  46.7543575  43.8541956  13.8625441
  39.8854839  40.4124899  14.2017538  40.6585715  39.8653886  14.0630414
  40.2380238  41.2769148  14.4132000  41.7239882  41.7401281  27.4084438
  41.4329748  42.6446912  27.2931104  42.3596866  41.7817809  28.1228507
  42.6496089  39.1178129  23.9985797  43.2459661  38.8934152  23.2842760
  42.7071060  38.3762875  24.6011245  42.2221117  36.5717565  11.8335988
  42.4746638  36.0499086  11.0719451  41.2845676  36.4083710  11.9362672
  47.2664400  35.5753343  19.6410731  48.0527489  35.1572766  19.2901148
  47.5303104  36.4799435  19.8092380  47.4374477  41.0126193  14.3399388
  46.8020310  41.0860820  15.0520293  47.1071884  41.6019792  13.6618467
  52.6672827  35.5128576  20.5443710  53.3997999  34.9427793  20.7781539
  51.9112183  35.1250177  20.9850215  41.9417406  38.4745671  14.0360363
  41.8253664  37.7990574  14.7041447  42.0519666  37.9878045  13.2192516
  44.2848947  37.9355818  17.7407052  43.9207154  37.4086439  18.4519974
  45.1416063  37.5454287  17.5673538  50.1898247  29.2250150  25.0038318
  49.8581572  30.0945561  24.7799533  49.5943861  28.9086434  25.6832349
  43.9254434  32.9645718  12.7368401  44.0928836  33.8325954  13.1038872
  43.7351603  33.1272999  11.8129690  46.6829767  41.4262696  24.4034231
  46.3830490  42.3287735  24.2950038  46.3380826  41.1594880  25.2555384
  40.1342248  37.8776493  20.4370936  39.2092745  37.7452707  20.6448627
  40.3826661  38.6570712  20.9340878  50.0826911  33.9445237  22.0831669
  49.1743788  33.8760645  21.7890430  50.0314506  34.4217182  22.9113494
  43.9043654  35.4203375  13.7215068  43.7843280  35.8660426  14.5600548
  43.2096243  35.7688693  13.1628606  37.4951059  37.5209767  21.2714725
  37.6243440  37.7744246  22.1854136  36.8148511  38.1137475  20.9519380
  41.6650547  48.1907017  17.3705199  41.5874576  49.1414842  17.4493679
  41.0612190  47.8452889  18.0280125  44.1567776  35.3634882  30.0266566
  43.3801110  35.9228802  30.0169430  44.7958339  35.8491665  30.5481436
  51.9488557  32.1461675  23.8609542  51.3062937  32.4394208  23.2149337
  51.4443485  32.0314595  24.6662739  49.6028721  35.8924848  14.5495402
  50.5146577  36.1252235  14.3743099  49.0938368  36.4761892  13.9870480
  42.4114149  38.1720336  29.5884533  43.1528833  38.7105380  29.3119356
  41.7051134  38.7986624  29.7456085  47.8869488  40.3149476  28.1856694
  48.2952844  39.8731887  27.4411327  47.1646750  39.7402104  28.4390887
  44.2400558  35.2522083  25.5590251  45.0861754  35.6761496  25.7024900
  44.1799196  34.5955707  26.2528814  48.2098303  40.8750667  21.9408983
  47.5807165  41.0396381  21.2385051  47.8223965  41.2892276  22.7119947
  52.0887535  41.8105104  19.2953347  51.4038573  42.1904006  18.7450380
  52.1731384  42.4200431  20.0285295  47.3900004  32.9126451  27.2171425
  47.1460936  33.6668512  26.6805701  47.6659934  33.2911799  28.0518672
  49.3438466  39.4565064  25.8948690  49.5555362  40.0996823  25.2183072
  49.2968215  38.6227380  25.4270621  46.9464695  32.0682884  22.7985263
  46.0849174  32.3664138  23.0902000  46.9727130  32.2853283  21.8666295
  43.7626265  40.6125075  19.2059068  44.2264610  40.8912778  18.4163691
  43.4983063  39.7108519  19.0232159  40.6550346  40.1596556  22.1438832
  41.2251703  40.5883825  21.5056316  41.2458458  39.8779141  22.8423017
  42.6995151  36.7348227  16.0148633  43.4019194  37.1869271  16.4822560
  42.3675779  36.0932046  16.6428527  41.1475512  35.3259984  30.3899843
  40.5174173  36.0076265  30.6235240  41.0411600  35.2143065  29.4452981
  36.4420485  34.9931780  21.3165767  35.6519539  35.2489308  20.8405878
  36.9331732  35.8080118  21.4217808  50.4584294  42.3337019  24.0671048
  51.2801738  41.9317206  23.7853729  50.4546697  42.2305253  25.0187164
  38.3935230  35.3576359  18.2749244  37.5966393  35.4695053  18.7932739
  38.1660822  35.6963011  17.4090134  44.2240898  41.8821062  26.2231758
  44.2885330  42.3441469  27.0589930  43.5151822  41.2518427  26.3514068
  34.7258188  35.2462270  23.7480758  34.9766226  36.1309280  24.0138334
  35.2617736  35.0666872  22.9755850  58.5490287  38.6775767  20.4156019
  57.7953996  38.1083165  20.2600024  58.6837829  38.6438432  21.3626654
  43.9388915  43.5489170  16.0910739  43.8034590  44.3940705  16.5195586
  44.4798728  43.7508447  15.3276672  40.4256255  29.6280750  32.7525094
  40.0323201  29.0746948  33.4272738  41.2422395  29.9391328  33.1431611
  37.3918313  41.0664608  16.6638664  37.9042833  41.8607858  16.8144228
  38.0441026  40.3690898  16.5972265  39.2013198  44.1830364  18.7461417
  39.3779826  45.1048329  18.5582401  39.9970031  43.8688783  19.1755797
  43.3424216  31.0438629  30.3445350  44.0833929  31.6445782  30.2649813
  43.5742139  30.3016266  29.7863393  38.4865554  36.2294996  28.6223580
  38.3719069  35.3280253  28.9230679  37.6310072  36.4758693  28.2708397
  45.5657392  44.1712736  30.2211081  45.1221246  43.3849115  29.9031985
  46.2274605  44.3591887  29.5554972  40.3244513  45.7008538  24.7471759
  40.8751938  45.5725601  23.9748753  39.4855989  46.0003427  24.3966652
  47.6638630  44.4515536  28.2492482  47.6457105  45.2724417  27.7572751
  48.5858550  44.3269611  28.4742623  44.1211684  41.9659666  29.0915990
  44.6540021  41.2047954  28.8615298  43.5925765  41.6733317  29.8340145
  47.2881379  27.0719732  24.6209632  46.9445648  27.9621373  24.5448743
  47.6560342  26.8821389  23.7579217  35.3567230  39.3953262  17.4398234
  36.1942452  39.8050270  17.2231942  35.5345497  38.4552704  17.4098428
  47.2531662  37.0628343  13.1282067  46.7378285  37.8332947  13.3670455
  46.9808970  36.3893479  13.7515129  44.8378773  31.9078043  18.1867306
  43.9820369  31.5184894  18.0072944  45.2505725  31.9870004  17.3267091
  46.3677919  29.4424387  22.5858865  45.8642715  29.4054522  21.7726671
  46.6608526  30.3517129  22.6455522  42.6120805  29.5263116  21.5925047
  43.4773802  29.3305925  21.2330937  42.6798314  29.2973468  22.5194404
  52.2265936  39.8160697  15.0635241  51.4495379  39.4771857  14.6190403
  52.9057417  39.8213321  14.3890206  47.0417965  34.9355435  14.9541848
  46.7368101  35.2501584  15.8051992  47.9948407  35.0136855  14.9969181
  45.4864397  41.0945658  16.6034802  44.9585758  40.3598418  16.2908040
  44.9851900  41.8720334  16.3574771  50.4657243  39.2894679  21.7201849
  49.8080917  39.9793940  21.8081977  51.2697642  39.6791111  22.0635835
  40.2183124  31.7565324  18.9641414  40.7926876  31.5340506  18.2314607
  40.8054107  31.8254019  19.7170015  49.2762702  37.6439051  19.7705790
  49.7894583  38.2769043  20.2727500  49.9263925  37.0440247  19.4049150
  40.5452712  33.7869785  12.9837299  39.7090024  34.1244472  13.3046574
  40.4057481  33.6518765  12.0464436  42.5205792  28.6306573  17.6916483
  41.8670204  28.3155590  17.0673098  42.4786266  28.0082314  18.4176306
  43.6316997  38.9125868   9.6069775  42.7244059  38.6815122   9.8060924
  44.1288029  38.1163488   9.7943757  46.5385076  47.6223376  12.5266462
  45.8646775  47.9255072  13.1351419  46.9250898  48.4252456  12.1771919
  45.7543532  35.1188507  22.0164131  44.8366094  35.3403454  21.8585819
  46.1703676  35.1934817  21.1575838  46.5378580  36.5179923  17.1466811
  47.2850399  37.0301320  16.8373933  46.8070170  36.1963975  18.0071205
  44.8105230  39.0138463  14.1293766  43.9016450  38.7297496  14.2266235
  44.8400314  39.4337542  13.2697072  50.0424498  42.6245053  17.8984933
  49.5886825  41.7835963  17.9550124  49.4118465  43.2606451  18.2359713
  48.9857417  33.5537039  19.1285601  48.2480174  33.0414425  19.4595843
  49.2384191  33.1137420  18.3168877  48.4857437  44.4621549  18.8334751
  48.7780411  45.0226607  18.1147117  48.9956058  44.7550110  19.5887910
  49.0869045  26.3313291  19.7227370  49.3927922  25.4710654  19.4353285
  49.8121650  26.9230911  19.5226364  35.3793401  36.7343977  18.1108968
  35.1817801  36.1413338  17.3860034  34.8240065  36.4296188  18.8284907
  43.3590124  36.6267084  20.2303561  43.4138734  35.6740920  20.1546037
  42.5481326  36.7826523  20.7144859  44.5081318  40.5547207  11.4681844
  44.0700748  39.8383066  11.0087481  45.2491759  40.7823322  10.9066935
  41.2982484  35.2444144  17.9893940  40.4850350  35.5438314  18.3959132
  41.7941479  34.8499832  18.7068422  43.4491062  45.2401901  19.9228204
  43.4067241  45.4662747  18.9936736  44.3653761  45.0065275  20.0714006
  46.8956696  35.7085968  26.8208834  47.2506084  35.9357441  27.6803299
  47.5428827  36.0404345  26.1986089  52.6254433  38.8304404  17.5258163
  52.4872332  39.0206000  16.5979352  52.2690652  39.5923787  17.9826214
  40.7896559  32.8162499  23.6055175  41.4295938  32.6751258  22.9078138
  39.9574090  32.5297013  23.2293777  52.6523813  40.8980931  22.5369434
  53.0860319  40.8056220  23.3852488  53.3655393  40.8738431  21.8989450
  41.5656863  42.1164930  19.7190167  42.3597462  41.6215250  19.5172742
  40.8548555  41.5882793  19.3557873  46.3851708  44.4983025  24.0702535
  46.4388730  45.0673961  24.8380251  45.5166489  44.6684910  23.7056572
  37.8739627  36.2608011  15.7949920  36.9437215  36.1992467  16.0119882
  37.9697098  35.7383964  14.9986561  37.7925176  32.7862824  18.3828161
  38.0531993  33.7008157  18.2737322  38.6142348  32.3187267  18.5324774
  39.2650101  34.2000581  25.5526986  39.9373154  33.9917943  24.9039635
  38.4379887  34.0022667  25.1132218  53.5139362  40.9404632  25.0702320
  53.7075252  41.8450442  25.3161594  53.4139980  40.4812051  25.9040905
  45.1675673  30.8262522  27.5692647  44.5203588  31.5252472  27.4757123
  45.9376688  31.2598666  27.9368895  48.5754471  41.0911374  30.6443200
  48.4239977  40.8621926  29.7273284  48.5659150  42.0481976  30.6574545
  45.3439807  38.6643287  25.6289467  46.2731867  38.8154447  25.4558434
  44.9230837  38.7527308  24.7738113  44.1428139  42.6893952  23.3988004
  44.0039225  42.3212736  24.2713942  43.3542735  43.2041591  23.2271962
  44.7376291  47.7903048  14.7413541  44.9128047  47.3191091  15.5559163
  44.0509079  48.4168814  14.9694801  45.6933354  42.0675554  20.7876842
  45.3583187  42.0276324  21.6834492  45.1937300  41.4020270  20.3147252
  39.6677598  37.4743184  26.3129423  39.5297396  36.7423423  26.9140962
  40.5782522  37.3852084  26.0313611  48.6292546  39.4131589  11.0613902
  48.0121716  38.6878417  10.9646954  48.1609034  40.1740949  10.7180976
  42.2959899  37.1863144  25.8013103  43.0059517  36.5456336  25.7599721
  42.2529207  37.4376038  26.7239284  50.2846677  44.1230497  28.7219682
  50.2259224  43.4389717  28.0550265  50.6866196  44.8649487  28.2700308
  41.0088833  34.1728361  27.6208742  40.4726190  33.7219100  28.2730339
  40.4205541  34.3074270  26.8779207  39.3037376  50.9392411  21.5153401
  39.5433975  51.5710935  22.1932419  38.4606573  50.5880451  21.8018760
  50.2864085  42.0870081  26.9533662  49.3990864  41.7496003  27.0760061
  50.8562636  41.3553112  27.1902427  31.9393232  38.4194173  20.2776713
  32.6264272  38.1055903  19.6897728  31.7841361  39.3235537  20.0043965
  36.7427954  33.3084369  24.7061737  36.6586143  32.7010039  23.9712147
  35.9210660  33.7993387  24.7071233  43.8165238  46.7471533  23.9194905
  43.7435410  47.5526505  24.4314209  43.3742631  46.9463499  23.0942926
  43.6055018  45.9843303  17.4297726  42.8222540  46.5264983  17.5235951
  44.3047763  46.5017283  17.8291968  46.9151668  31.7937933  20.0731932
  47.4120367  31.0407895  19.7533002  46.1438649  31.8302249  19.5075141
  54.7681425  37.4978298  21.7150223  54.7571302  38.3803014  21.3444156
  53.8998805  37.1449849  21.5204760  46.2763922  46.6458367  26.0753064
  46.9891894  47.2805832  26.0028965  45.7853950  46.7422233  25.2593065
  47.9981449  40.5509620  17.6470355  47.0637727  40.6711082  17.4775060
  48.1758117  39.6482087  17.3830365  43.4986637  33.9355316  19.8003616
  43.1284424  33.3826356  20.4884522  43.9945729  33.3313449  19.2478616
  51.3854000  36.3926939  18.1820389  51.8514452  37.2254931  18.1080692
  51.8361500  35.9271921  18.8865648  41.3275835  44.3952811  26.8958634
  42.0285295  45.0289294  27.0488029  40.8570950  44.7367542  26.1354274
  49.4530231  42.7370760  15.1806541  49.7290075  42.6227355  16.0900416
  48.5834730  42.3388245  15.1418715  49.3570663  28.7607526  22.2211291
  48.4433742  28.9911753  22.3893498  49.7863764  28.8445970  23.0725323
  49.1277121  36.9497418  24.7211185  48.4748571  37.1973326  24.0663638
  49.5057501  36.1361556  24.3873662  46.0884295  46.9857111  18.8239355
  46.2706690  46.1678767  19.2867107  46.9117281  47.2024804  18.3864245
  46.4226461  45.9125296  16.0854404  46.9514227  45.4017751  15.4724566
  46.6854680  45.5967827  16.9499937  45.1764694  37.6917229  31.2077222
  44.5005331  37.5911359  31.8779597  45.9992328  37.5356443  31.6713219
  36.9243553  43.9289166  23.8289737  37.5096990  43.1832854  23.9617641
  36.7268392  44.2393122  24.7126401  39.7782208  46.9640413  18.8452179
  39.1092584  47.4486541  18.3616220  39.6395078  47.2109634  19.7595558
  31.5161208  36.4994766  22.5494180  31.5545308  35.9658357  23.3431298
  31.0101501  35.9729971  21.9305157  43.9187477  48.9984157  25.4434838
  44.4705785  49.1615778  26.2083923  44.2593671  49.5888594  24.7714863
  38.8951970  31.3459306  26.0456723  38.9593297  32.2074137  25.6334120
  38.8319091  30.7333308  25.3129081  38.3704243  33.4182439  29.6929757
  38.9976282  33.0359516  30.3067281  37.5132162  33.1996641  30.0585449
  48.7698351  43.8245414  31.2983492  49.3138255  44.4375372  30.8038447
  48.1885196  44.3824993  31.8150505  35.1469786  35.2258868  15.6248112
  35.4423227  34.3169547  15.5715165  34.2457821  35.2046608  15.3029114
  47.0555864  46.9466132  22.4298520  46.9307004  46.1455872  21.9209465
  47.7134955  47.4412326  21.9412490  38.6764033  33.3014865  21.6075660
  37.9550618  33.9150832  21.4683134  39.4657288  33.8372630  21.5292306
  49.1190773  44.7475152  24.0578070  48.1721108  44.6280503  23.9856397
  49.4673546  43.8597650  24.1404332  41.4790346  30.6369291  27.8816312
  42.0024748  30.8831588  28.6442621  41.2602679  31.4689326  27.4619449
  36.8757627  32.9072966  15.7487437  36.5470333  32.0270345  15.5662543
  37.2296998  32.8520634  16.6363826  46.1237206  44.5427868  20.2582422
  45.9762168  43.6144576  20.4389992  46.9490700  44.5647959  19.7739498
  39.9899450  33.1945936  16.1162914  40.3295523  33.7231857  15.3941523
  40.4371571  33.5326342  16.8921481  49.7271328  45.3656427  21.3447295
  50.6517875  45.1599289  21.2071746  49.5586631  45.1172828  22.2536637
  42.6842891  31.5782986  25.5665983  42.3439712  30.7790799  25.9686662
  41.9781897  31.8784697  24.9942816  43.3359363  28.6632299  24.0193306
  44.1585432  28.1892777  23.8972196  43.5797427  29.4422782  24.5191992
  41.9767597  31.6920557  14.3156207  42.6975960  32.0701810  13.8119924
  41.3532902  32.4109434  14.4191185  46.1198720  32.3965706  15.2514540
  46.3362335  33.2790344  14.9503368  45.6392787  32.0051920  14.5220182
  40.8597942  35.3551419  21.8285284  40.7142522  35.6691722  22.7209566
  40.3823145  35.9736320  21.2756183  42.7194325  32.3453967  21.8766174
  42.7055893  31.4495061  21.5398472  43.4366753  32.3524631  22.5104460
  44.5720455  32.7791308  23.9219301  44.3138233  33.7008378  23.9203632
  44.0405496  32.3821742  24.6119765  49.5166644  45.8842095  16.7009387
  49.6903522  45.3188517  15.9483239  50.0095535  46.6842990  16.5188876
  35.3343604  37.8956764  24.7672945  34.7897072  38.6716572  24.8993220
  36.2122954  38.2427568  24.6092067  42.1231221  31.2268348  17.1453744
  42.2447132  30.2984994  17.3444631  41.8333263  31.2407034  16.2332059
  44.9922411  28.9123258  20.2820464  45.0144108  28.9762591  19.3272443
  45.4090470  28.0727767  20.4760970  55.3706035  38.6478518  18.3199686
  55.8137181  37.8985843  17.9218810  54.4932546  38.6388654  17.9373418
  50.5041817  45.2008859  13.8006285  51.1992721  45.8215552  14.0193599
  50.8464967  44.3504210  14.0758663  36.1209626  37.0226660  27.6603102
  35.3791362  37.1709295  28.2467733  35.8002370  37.2834926  26.7969852
  52.4033240  42.6508565  15.3293616  52.9284564  42.9895837  14.6042936
  52.3155592  41.7155580  15.1456750  44.0653288  46.5642638  27.4583492
  44.3740415  46.3191785  28.3306192  44.8628770  46.7689277  26.9702362
  44.0873900  48.7180548  19.6888869  43.6478891  48.2256927  20.3821725
  44.8382017  48.1753516  19.4480944  36.5666239  44.9092089  19.6913497
  37.3924259  44.6095861  19.3112140  36.2160291  44.1399711  20.1403285
  41.5347773  44.2618557  21.7611170  40.9127782  43.5989262  21.4613398
  42.2052639  44.2879689  21.0784818  34.7674844  42.8278415  20.6502430
  33.9306753  42.4000590  20.4686432  34.7398490  43.0210859  21.5873222
  41.6072300  32.7400345  31.3543676  41.6560456  33.6162468  30.9721446
  42.1494814  32.1977738  30.7815320  52.0927146  43.2841468  30.6344814
  51.3022689  43.2665607  30.0949313  51.8560500  43.8229762  31.3893850
  52.2125021  40.1333935  27.9477542  52.2623026  39.9683942  28.8893065
  52.1038944  39.2661194  27.5575423  41.0961279  42.8122480  15.2369631
  41.2449400  43.4957945  14.5836304  41.9027723  42.7927570  15.7519087
  49.5028783  36.1164863  29.2636849  50.4038646  35.9771327  28.9720847
  49.5776758  36.2819317  30.2035026  43.8371589  33.4931717  28.1090035
  42.9674898  33.7865283  27.8372624  44.0731069  34.0772162  28.8297299
  53.7143218  42.5530876  28.1919564  53.4228026  42.9160857  29.0283025
  53.1015349  41.8397884  28.0132896  54.9138900  40.1183756  20.7122134
  55.7485791  40.5573560  20.8759694  55.0498029  39.6422409  19.8930380
  51.9630406  37.6763491  26.6599622  52.4384527  37.8691137  25.8518473
  51.0395971  37.7322677  26.4143005  38.8513912  38.8387658  16.2430700
  38.6059954  37.9349988  16.4410910  39.0209827  38.8404808  15.3010178
  46.5410622  29.7111334  25.6255455  47.0592566  30.4472361  25.3001944
  46.1865755  30.0175328  26.4602215  38.1209560  34.5716016  13.7416861
  37.4278805  34.6460371  13.0856897  37.8761312  33.8076359  14.2638378
  46.7923217  26.1311617  21.1456352  47.0724970  25.4634806  21.7716779
  47.5773823  26.3240712  20.6331016  44.5956685  45.3070611  12.7081378
  44.0230652  45.9260798  12.2551850  45.1689479  45.8569972  13.2421300
  50.6632075  34.5529251  24.8927927  51.6149498  34.6527349  24.9140151
  50.4935525  33.7607519  25.4026012  48.6846454  31.6384834  25.0787328
  48.0896386  31.9189847  24.3833817  48.3996151  32.1278735  25.8504069
  47.8153945  45.5907761  13.8389961  48.7484618  45.5253323  14.0422836
  47.7277158  46.4264028  13.3804493  50.4441961  44.9073631  10.7993908
  50.3655593  44.5733495  11.6929666  51.2651628  45.3995399  10.7985381
  53.1420153  37.7735371  24.0070227  53.1096473  36.8351371  24.1929911
  53.7520776  37.8519407  23.2736052  44.9803484  36.6431424  10.0497431
  45.9262588  36.5137632  10.1185849  44.6017728  35.9046085  10.5266859
  53.2914641  34.5646414  24.0528510  52.7753690  33.7804871  23.8658439
  54.1754590  34.2365131  24.2175029  50.9525368  28.3087430  20.0124323
  50.7550189  28.0002518  20.8967655  51.5625074  29.0349068  20.1422253
  58.9596703  38.8351377  23.1476264  59.6900091  38.5736666  23.7083967
  58.3503648  38.0980099  23.1878332  57.0412000  36.9759240  23.7450715
  56.3145163  36.8415205  23.1367206  56.6259287  37.2836069  24.5507433
  44.8642176  40.6949170  31.5098088  45.7845186  40.8727769  31.7038134
  44.8291759  39.7505215  31.3577787  34.0824341  35.8887763  20.4351362
  33.7627125  35.0353072  20.1425737  33.5357769  36.1036341  21.1909330
  37.8604249  38.6050204  24.1520869  38.0790258  39.5367312  24.1708903
  38.2730022  38.2458179  24.9375673  44.7808466  29.1118290  16.1396557
  43.9709195  28.7665375  16.5151803  45.4692883  28.8025833  16.7284169
  46.7099015  28.1896336  17.7620854  47.2630053  28.6091790  18.4210877
  46.9469101  27.2632085  17.8043810  42.7332114  34.1783410  33.5423618
  42.6328841  35.1277767  33.4735709  42.5153656  33.8501649  32.6699688
  33.9512601  39.5090675  22.4044484  33.2576072  39.0944628  21.8914438
  34.6985592  39.5511211  21.8077903  50.0877822  30.2996862  17.2699518
  49.5076491  30.9581666  16.8877571  49.8213754  29.4774206  16.8586936
  48.5381388  29.7001919  19.4720839  49.0381167  29.8118454  18.6635157
  49.1816996  29.3962972  20.1121647  42.5963384  37.6080549  32.3588680
  42.1130466  38.4080909  32.5652569  42.6824323  37.6188494  31.4056124
  35.8649344  39.4408929  20.2810499  35.8420032  39.5396616  19.3292382
  36.1749980  40.2874079  20.6027665  38.5236721  41.4985084  24.3957113
  39.4779975  41.4669026  24.3287045  38.3249245  41.0375707  25.2107339
  39.1136104  40.0686200  26.9627911  39.9328993  40.5630278  26.9862748
  39.3872911  39.1518168  26.9345479  48.8702700  32.4596952  16.3255867
  47.9828555  32.7446603  16.1076061  49.2856689  32.2990715  15.4783143
  52.2217236  32.4843473  20.0410206  52.9977626  32.9739925  20.3134823
  51.4965370  32.9101527  20.4982075  54.6589795  33.1971092  21.0984146
  55.2534285  32.9566828  20.3877455  54.7316378  32.4778223  21.7257683
  36.8786950  47.0404703  21.4127311  36.7441418  46.2805104  20.8465309
  36.4619013  47.7645603  20.9456100  48.0145913  42.2241627  10.4203887
  48.7181763  42.4291629  11.0361542  47.2908562  42.7918389  10.6852970
  48.8443724  37.9751488  16.5406157  48.7878925  38.4320039  15.7013789
  49.3972066  37.2142172  16.3628999  52.6548529  33.7641220  17.3656276
  52.3985464  33.3637855  18.1964484  52.0301397  34.4785014  17.2406415
  56.9660867  36.5037293  19.8727568  56.4060425  36.5730482  20.6459130
  56.3604371  36.3278278  19.1527064  40.0356076  47.9374020  21.6245754
  39.9188460  48.8819453  21.5224444  39.2148522  47.6347582  22.0131553
  49.9232611  42.6624156  12.4702347  50.7578215  42.2305354  12.2879821
  49.7616954  42.4906170  13.3979241  49.5778503  39.1656269  13.8358686
  49.5227307  39.0000541  12.8947130  48.9524558  39.8732302  13.9920876
  34.3671018  34.4024334  27.6620108  35.0129881  33.8923287  28.1507333
  34.1588169  35.1393015  28.2363533  46.8924410  41.4705181  33.1612249
  47.7615570  41.6445833  32.7998884  46.4131162  42.2899598  33.0387978
  42.8874628  28.6664378  13.4144004  42.8753298  29.6106218  13.5712275
  43.7798050  28.4834524  13.1203465  41.0610590  48.5902282  24.8401682
  41.9637837  48.6225892  25.1568177  40.8347960  47.6602733  24.8548018
  42.8164192  47.3433269  21.5011761  41.8659823  47.3435130  21.3876133
  43.1196678  46.5966003  20.9847796  46.7026748  25.2607155  17.6689941
  45.9359144  24.7065641  17.8146623  47.1137453  25.3329024  18.5304093
  38.7068509  31.5491951  31.7595122  39.5699970  31.1928755  31.9698447
  38.1333919  31.2105845  32.4470527  58.5516886  53.1793807  22.5657523
  59.1895296  53.0600554  21.8620863  58.4337729  54.1274651  22.6245475
  55.3606592  53.1321235  22.5019048  55.0225104  53.0162300  21.6139583
  56.2296360  52.7312400  22.4820054  51.2193408  54.9856711  18.4915939
  50.6558273  54.8946648  17.7232227  51.1045803  54.1656616  18.9718432
  48.7657840  56.4807903  21.3300159  49.5579132  56.1398728  20.9146459
  49.0054490  56.5902878  22.2502313  56.7992966  58.6527679  13.8030404
  56.1480946  59.2381760  13.4164418  57.5937329  59.1833874  13.8625441
  50.7248594  55.7416816  14.2017538  51.4979470  55.1945803  14.0630414
  51.0773992  56.6061066  14.4132000  53.4889843  54.4470047  23.9985797
  54.0853415  54.2226069  23.2842760  53.5464815  53.7054793  24.6011245
  53.0614871  51.9009482  11.8335988  53.3140392  51.3791004  11.0719451
  52.1239431  51.7375628  11.9362672  58.1058154  50.9045261  19.6410731
  58.8921243  50.4864684  19.2901148  58.3696859  51.8091353  19.8092380
  58.2768232  56.3418111  14.3399388  57.6414065  56.4152738  15.0520293
  57.9465638  56.9311710  13.6618467  63.5066581  50.8420494  20.5443710
  64.2391753  50.2719711  20.7781539  62.7505937  50.4542094  20.9850215
  52.7811160  53.8037588  14.0360363  52.6647418  53.1282492  14.7041447
  52.8913420  53.3169962  13.2192516  55.1242701  53.2647735  17.7407052
  54.7600908  52.7378356  18.4519974  55.9809817  52.8746205  17.5673538
  61.0292002  44.5542068  25.0038318  60.6975327  45.4237479  24.7799533
  60.4337615  44.2378352  25.6832349  54.7648188  48.2937635  12.7368401
  54.9322590  49.1617872  13.1038872  54.5745357  48.4564917  11.8129690
  57.5223521  56.7554614  24.4034231  57.2224244  57.6579653  24.2950038
  57.1774581  56.4886797  25.2555384  50.9736003  53.2068411  20.4370936
  50.0486499  53.0744625  20.6448627  51.2220416  53.9862630  20.9340878
  60.9220665  49.2737154  22.0831669  60.0137542  49.2052563  21.7890430
  60.8708261  49.7509099  22.9113494  54.7437409  50.7495293  13.7215068
  54.6237034  51.1952343  14.5600548  54.0489997  51.0980610  13.1628606
  48.3344814  52.8501684  21.2714725  48.4637195  53.1036163  22.1854136
  47.6542265  53.4429392  20.9519380  52.5044301  63.5198934  17.3705199
  52.4268331  64.4706760  17.4493679  51.9005945  63.1744807  18.0280125
  54.9961531  50.6926800  30.0266566  54.2194865  51.2520720  30.0169430
  55.6352094  51.1783583  30.5481436  62.7882311  47.4753593  23.8609542
  62.1456692  47.7686126  23.2149337  62.2837240  47.3606513  24.6662739
  60.4422475  51.2216766  14.5495402  61.3540331  51.4544153  14.3743099
  59.9332122  51.8053810  13.9870480  53.2507903  53.5012253  29.5884533
  53.9922588  54.0397297  29.3119356  52.5444889  54.1278542  29.7456085
  55.0794313  50.5814000  25.5590251  55.9255508  51.0053414  25.7024900
  55.0192950  49.9247625  26.2528814  59.0492057  56.2042584  21.9408983
  58.4200920  56.3688298  21.2385051  58.6617720  56.6184194  22.7119947
  62.9281289  57.1397022  19.2953347  62.2432327  57.5195924  18.7450380
  63.0125139  57.7492349  20.0285295  58.2293758  48.2418369  27.2171425
  57.9854690  48.9960429  26.6805701  58.5053689  48.6203716  28.0518672
  57.7858450  47.3974802  22.7985263  56.9242929  47.6956055  23.0902000
  57.8120885  47.6145201  21.8666295  54.6020019  55.9416992  19.2059068
  55.0658365  56.2204695  18.4163691  54.3376817  55.0400437  19.0232159
  51.4944100  55.4888474  22.1438832  52.0645457  55.9175742  21.5056316
  52.0852212  55.2071059  22.8423017  53.5388905  52.0640145  16.0148633
  54.2412949  52.5161188  16.4822560  53.2069534  51.4223964  16.6428527
  51.9869267  50.6551901  30.3899843  51.3567927  51.3368182  30.6235240
  51.8805355  50.5434983  29.4452981  47.2814239  50.3223697  21.3165767
  46.4913293  50.5781226  20.8405878  47.7725487  51.1372035  21.4217808
  61.2978049  57.6628937  24.0671048  62.1195493  57.2609124  23.7853729
  61.2940452  57.5597171  25.0187164  49.2328985  50.6868277  18.2749244
  48.4360148  50.7986971  18.7932739  49.0054577  51.0254929  17.4090134
  45.5651942  50.5754188  23.7480758  45.8159981  51.4601198  24.0138334
  46.1011491  50.3958789  22.9755850  69.3884042  54.0067685  20.4156019
  68.6347750  53.4375083  20.2600024  69.5231583  53.9730350  21.3626654
  54.7782670  58.8781087  16.0910739  54.6428345  59.7232623  16.5195586
  55.3192482  59.0800365  15.3276672  51.2650010  44.9572667  32.7525094
  50.8716955  44.4038866  33.4272738  52.0816150  45.2683246  33.1431611
  48.2312067  56.3956525  16.6638664  48.7436588  57.1899776  16.8144228
  48.8834780  55.6982816  16.5972265  50.0406952  59.5122282  18.7461417
  50.2173580  60.4340246  18.5582401  50.8363786  59.1980701  19.1755797
  54.1817971  46.3730546  30.3445350  54.9227684  46.9737699  30.2649813
  54.4135893  45.6308184  29.7863393  49.3259309  51.5586914  28.6223580
  49.2112824  50.6572171  28.9230679  48.4703826  51.8050610  28.2708397
  51.1638268  61.0300455  24.7471759  51.7145693  60.9017519  23.9748753
  50.3249743  61.3295345  24.3966652  58.1275134  42.4011649  24.6209632
  57.7839403  43.2913291  24.5448743  58.4954096  42.2113307  23.7579217
  46.1960984  54.7245180  17.4398234  47.0336206  55.1342188  17.2231942
  46.3739252  53.7844622  17.4098428  58.0925416  52.3920260  13.1282067
  57.5772040  53.1624865  13.3670455  57.8202725  51.7185397  13.7515129
  55.6772527  47.2369961  18.1867306  54.8214124  46.8476812  18.0072944
  56.0899479  47.3161922  17.3267091  57.2071674  44.7716304  22.5858865
  56.7036470  44.7346440  21.7726671  57.5002281  45.6809047  22.6455522
  53.4514560  44.8555034  21.5925047  54.3167557  44.6597843  21.2330937
  53.5192069  44.6265386  22.5194404  63.0659690  55.1452615  15.0635241
  62.2889133  54.8063775  14.6190403  63.7451171  55.1505238  14.3890206
  57.8811719  50.2647352  14.9541848  57.5761855  50.5793502  15.8051992
  58.8342162  50.3428772  14.9969181  56.3258151  56.4237576  16.6034802
  55.7979513  55.6890335  16.2908040  55.8245654  57.2012252  16.3574771
  61.3050997  54.6186596  21.7201849  60.6474672  55.3085858  21.8081977
  62.1091397  55.0083028  22.0635835  51.0576879  47.0857242  18.9641414
  51.6320631  46.8632424  18.2314607  51.6447861  47.1545937  19.7170015
  60.1156456  52.9730969  19.7705790  60.6288338  53.6060961  20.2727500
  60.7657680  52.3732164  19.4049150  51.3846466  49.1161703  12.9837299
  50.5483778  49.4536390  13.3046574  51.2451236  48.9810683  12.0464436
  53.3599547  43.9598491  17.6916483  52.7063959  43.6447508  17.0673098
  53.3180021  43.3374231  18.4176306  54.4710751  54.2417786   9.6069775
  53.5637813  54.0107040   9.8060924  54.9681783  53.4455405   9.7943757
  57.3778830  62.9515293  12.5266462  56.7040529  63.2546990  13.1351419
  57.7644652  63.7544374  12.1771919  56.5937287  50.4480425  22.0164131
  55.6759848  50.6695372  21.8585819  57.0097431  50.5226735  21.1575838
  57.3772335  51.8471840  17.1466811  58.1244154  52.3593237  16.8373933
  57.6463924  51.5255893  18.0071205  55.6498985  54.3430381  14.1293766
  54.7410204  54.0589414  14.2266235  55.6794069  54.7629459  13.2697072
  60.8818252  57.9536970  17.8984933  60.4280579  57.1127880  17.9550124
  60.2512219  58.5898369  18.2359713  59.8251172  48.8828956  19.1285601
  59.0873929  48.3706343  19.4595843  60.0777945  48.4429338  18.3168877
  59.3251192  59.7913467  18.8334751  59.6174166  60.3518524  18.1147117
  59.8349812  60.0842028  19.5887910  59.9262799  41.6605208  19.7227370
  60.2321676  40.8002572  19.4353285  60.6515404  42.2522829  19.5226364
  46.2187155  52.0635895  18.1108968  46.0211555  51.4705256  17.3860034
  45.6633819  51.7588105  18.8284907  54.1983879  51.9559002  20.2303561
  54.2532489  51.0032838  20.1546037  53.3875081  52.1118441  20.7144859
  55.3475073  55.8839125  11.4681844  54.9094503  55.1674984  11.0087481
  56.0885514  56.1115239  10.9066935  52.1376239  50.5736061  17.9893940
  51.3244104  50.8730232  18.3959132  52.6335233  50.1791750  18.7068422
  54.2884817  60.5693818  19.9228204  54.2460996  60.7954665  18.9936736
  55.2047516  60.3357193  20.0714006  57.7350451  51.0377886  26.8208834
  58.0899838  51.2649359  27.6803299  58.3822582  51.3696263  26.1986089
  63.4648187  54.1596322  17.5258163  63.3266086  54.3497918  16.5979352
  63.1084406  54.9215704  17.9826214  51.6290314  48.1454417  23.6055175
  52.2689693  48.0043176  22.9078138  50.7967844  47.8588930  23.2293777
  63.4917567  56.2272849  22.5369434  63.9254074  56.1348138  23.3852488
  64.2049148  56.2030349  21.8989450  52.4050618  57.4456847  19.7190167
  53.1991216  56.9507167  19.5172742  51.6942310  56.9174710  19.3557873
  57.2245462  59.8274943  24.0702535  57.2782484  60.3965879  24.8380251
  56.3560243  59.9976828  23.7056572  48.7133381  51.5899929  15.7949920
  47.7830969  51.5284384  16.0119882  48.8090853  51.0675882  14.9986561
  48.6318930  48.1154742  18.3828161  48.8925747  49.0300075  18.2737322
  49.4536102  47.6479184  18.5324774  50.1043855  49.5292499  25.5526986
  50.7766909  49.3209861  24.9039635  49.2773642  49.3314585  25.1132218
  56.0069427  46.1554440  27.5692647  55.3597342  46.8544390  27.4757123
  56.7770443  46.5890584  27.9368895  56.1833562  53.9935205  25.6289467
  57.1125622  54.1446364  25.4558434  55.7624592  54.0819226  24.7738113
  54.9821894  58.0185869  23.3988004  54.8432979  57.6504654  24.2713942
  54.1936490  58.5333509  23.2271962  55.5770045  63.1194966  14.7413541
  55.7521801  62.6483009  15.5559163  54.8902834  63.7460732  14.9694801
  56.5327109  57.3967472  20.7876842  56.1976941  57.3568242  21.6834492
  56.0331054  56.7312188  20.3147252  50.5071353  52.8035102  26.3129423
  50.3691151  52.0715341  26.9140962  51.4176276  52.7144002  26.0313611
  59.4686300  54.7423506  11.0613902  58.8515471  54.0170334  10.9646954
  59.0002789  55.5032867  10.7180976  53.1353653  52.5155061  25.8013103
  53.8453272  51.8748253  25.7599721  53.0922961  52.7667956  26.7239284
  51.8482587  49.5020279  27.6208742  51.3119944  49.0511018  28.2730339
  51.2599296  49.6366188  26.8779207  50.1431131  66.2684328  21.5153401
  50.3827729  66.9002853  22.1932419  49.3000327  65.9172368  21.8018760
  51.2584846  48.9608931  10.1835206  50.3814313  48.8397731   9.8197453
  51.7342599  48.1695009   9.9314095  42.7786986  53.7486090  20.2776713
  43.4658026  53.4347820  19.6897728  42.6235115  54.6527455  20.0043965
  47.5821709  48.6376287  24.7061737  47.4979897  48.0301956  23.9712147
  46.7604415  49.1285305  24.7071233  54.6558993  62.0763451  23.9194905
  54.5829164  62.8818422  24.4314209  54.2136386  62.2755417  23.0942926
  54.4448772  61.3135221  17.4297726  53.6616294  61.8556901  17.5235951
  55.1441517  61.8309201  17.8291968  57.7545422  47.1229850  20.0731932
  58.2514122  46.3699813  19.7533002  56.9832404  47.1594167  19.5075141
  65.6075180  52.8270216  21.7150223  65.5965056  53.7094931  21.3444156
  64.7392559  52.4741767  21.5204760  57.1157676  61.9750285  26.0753064
  57.8285648  62.6097750  26.0028965  56.6247705  62.0714151  25.2593065
  58.8375203  55.8801538  17.6470355  57.9031482  56.0003000  17.4775060
  59.0151872  54.9774004  17.3830365  54.3380391  49.2647233  19.8003616
  53.9678179  48.7118274  20.4884522  54.8339484  48.6605367  19.2478616
  62.2247754  51.7218857  18.1820389  62.6908207  52.5546848  18.1080692
  62.6755255  51.2563838  18.8865648  52.1669590  59.7244728  26.8958634
  52.8679049  60.3581211  27.0488029  51.6964705  60.0659460  26.1354274
  60.2923986  58.0662678  15.1806541  60.5683829  57.9519273  16.0900416
  59.4228484  57.6680163  15.1418715  60.1964417  44.0899444  22.2211291
  59.2827497  44.3203671  22.3893498  60.6257519  44.1737888  23.0725323
  59.9670876  52.2789336  24.7211185  59.3142326  52.5265243  24.0663638
  60.3451256  51.4653474  24.3873662  56.9278050  62.3149029  18.8239355
  57.1100444  61.4970685  19.2867107  57.7511036  62.5316721  18.3864245
  57.2620215  61.2417214  16.0854404  57.7907981  60.7309669  15.4724566
  57.5248435  60.9259744  16.9499937  47.7637308  59.2581083  23.8289737
  48.3490745  58.5124771  23.9617641  47.5662146  59.5685040  24.7126401
  50.6175963  62.2932331  18.8452179  49.9486338  62.7778458  18.3616220
  50.4788833  62.5401551  19.7595558  42.3554962  51.8286684  22.5494180
  42.3939062  51.2950274  23.3431298  41.8495255  51.3021889  21.9305157
  54.7581232  64.3276074  25.4434838  55.3099540  64.4907696  26.2083923
  55.0987425  64.9180512  24.7714863  49.7345725  46.6751224  26.0456723
  49.7987051  47.5366055  25.6334120  49.6712845  46.0625226  25.3129081
  49.2097997  48.7474357  29.6929757  49.8370036  48.3651434  30.3067281
  48.3525916  48.5288559  30.0585449  45.9863540  50.5550786  15.6248112
  46.2816981  49.6461464  15.5715165  45.0851576  50.5338525  15.3029114
  57.8949619  62.2758050  22.4298520  57.7700758  61.4747790  21.9209465
  58.5528710  62.7704243  21.9412490  49.5157787  48.6306782  21.6075660
  48.7944373  49.2442750  21.4683134  50.3051043  49.1664547  21.5292306
  59.9584527  60.0767070  24.0578070  59.0114863  59.9572421  23.9856397
  60.3067300  59.1889568  24.1404332  52.3184101  45.9661209  27.8816312
  52.8418502  46.2123505  28.6442621  52.0996434  46.7981244  27.4619449
  47.7151382  48.2364883  15.7487437  47.3864088  47.3562262  15.5662543
  48.0690752  48.1812552  16.6363826  56.9630961  59.8719786  20.2582422
  56.8155923  58.9436494  20.4389992  57.7884454  59.8939877  19.7739498
  50.8293205  48.5237853  16.1162914  51.1689277  49.0523774  15.3941523
  51.2765325  48.8618259  16.8921481  60.5665082  60.6948345  21.3447295
  61.4911630  60.4891206  21.2071746  60.3980386  60.4464746  22.2536637
  53.5236646  46.9074904  25.5665983  53.1833466  46.1082717  25.9686662
  52.8175652  47.2076615  24.9942816  54.1753117  43.9924216  24.0193306
  54.9979187  43.5184695  23.8972196  54.4191181  44.7714700  24.5191992
  52.8161352  47.0212475  14.3156207  53.5369714  47.3993728  13.8119924
  52.1926656  47.7401352  14.4191185  56.9592475  47.7257624  15.2514540
  57.1756089  48.6082262  14.9503368  56.4786542  47.3343837  14.5220182
  51.6991696  50.6843337  21.8285284  51.5536277  50.9983640  22.7209566
  51.2216900  51.3028237  21.2756183  53.5588079  47.6745885  21.8766174
  53.5449648  46.7786978  21.5398472  54.2760507  47.6816549  22.5104460
  55.4114210  48.1083225  23.9219301  55.1531988  49.0300296  23.9203632
  54.8799250  47.7113660  24.6119765  60.3560399  61.2134012  16.7009387
  60.5297276  60.6480435  15.9483239  60.8489290  62.0134907  16.5188876
  46.1737358  53.2248681  24.7672945  45.6290826  54.0008489  24.8993220
  47.0516708  53.5719486  24.6092067  52.9624975  46.5560265  17.1453744
  53.0840886  45.6276911  17.3444631  52.6727017  46.5698951  16.2332059
  55.8316165  44.2415176  20.2820464  55.8537862  44.3054509  19.3272443
  56.2484224  43.4019684  20.4760970  66.2099790  53.9770435  18.3199686
  66.6530936  53.2277760  17.9218810  65.3326300  53.9680572  17.9373418
  61.3435571  60.5300777  13.8006285  62.0386476  61.1507469  14.0193599
  61.6858721  59.6796128  14.0758663  46.9603380  52.3518578  27.6603102
  46.2185116  52.5001213  28.2467733  46.6396125  52.6126843  26.7969852
  63.2426994  57.9800482  15.3293616  63.7678318  58.3187755  14.6042936
  63.1549347  57.0447498  15.1456750  54.9267655  64.0472466  19.6888869
  54.4872645  63.5548844  20.3821725  55.6775772  63.5045433  19.4480944
  47.4059994  60.2384006  19.6913497  48.2318014  59.9387778  19.3112140
  47.0554046  59.4691629  20.1403285  52.3741527  59.5910475  21.7611170
  51.7521536  58.9281180  21.4613398  53.0446394  59.6171607  21.0784818
  45.6068599  58.1570333  20.6502430  44.7700507  57.7292507  20.4686432
  45.5792244  58.3502776  21.5873222  52.4466055  48.0692263  31.3543676
  52.4954210  48.9454385  30.9721446  52.9888569  47.5269656  30.7815320
  51.9355034  58.1414398  15.2369631  52.0843154  58.8249862  14.5836304
  52.7421477  58.1219488  15.7519087  54.6765343  48.8223635  28.1090035
  53.8068652  49.1157201  27.8372624  54.9124823  49.4064080  28.8297299
  65.7532654  55.4475674  20.7122134  66.5879546  55.8865478  20.8759694
  65.8891783  54.9714327  19.8930380  49.6907667  54.1679576  16.2430700
  49.4453709  53.2641906  16.4410910  49.8603582  54.1696726  15.3010178
  57.3804377  45.0403252  25.6255455  57.8986321  45.7764279  25.3001944
  57.0259510  45.3467245  26.4602215  48.9603315  49.9007933  13.7416861
  48.2672559  49.9752288  13.0856897  48.7155066  49.1368277  14.2638378
  57.6316971  41.4603535  21.1456352  57.9118725  40.7926724  21.7716779
  58.4167578  41.6532630  20.6331016  55.4350440  60.6362528  12.7081378
  54.8624407  61.2552716  12.2551850  56.0083233  61.1861890  13.2421300
  61.5025829  49.8821169  24.8927927  62.4543252  49.9819266  24.9140151
  61.3329280  49.0899437  25.4026012  59.5240209  46.9676752  25.0787328
  58.9290141  47.2481764  24.3833817  59.2389906  47.4570653  25.8504069
  58.6547699  60.9199679  13.8389961  59.5878372  60.8545240  14.0422836
  58.5670912  61.7555945  13.3804493  61.2835716  60.2365549  10.7993908
  61.2049348  59.9025413  11.6929666  62.1045383  60.7287317  10.7985381
  63.9813907  53.1027288  24.0070227  63.9490227  52.1643289  24.1929911
  64.5914531  53.1811325  23.2736052  55.8197238  51.9723341  10.0497431
  56.7656343  51.8429549  10.1185849  55.4411483  51.2338003  10.5266859
  64.1308396  49.8938332  24.0528510  63.6147444  49.1096788  23.8658439
  65.0148344  49.5657048  24.2175029  61.7919123  43.6379347  20.0124323
  61.5943944  43.3294435  20.8967655  62.4018828  44.3640986  20.1422253
  54.0040155  49.8973318   9.9852316  53.0971611  49.6006430  10.0615030
  54.2816136  49.6003136   9.1186602  44.9218096  51.2179681  20.4351362
  44.6020880  50.3644989  20.1425737  44.3751524  51.4328259  21.1909330
  48.6998003  53.9342122  24.1520869  48.9184013  54.8659230  24.1708903
  49.1123777  53.5750096  24.9375673  55.6202221  44.4410207  16.1396557
  54.8102949  44.0957292  16.5151803  56.3086638  44.1317751  16.7284169
  57.5492769  43.5188254  17.7620854  58.1023808  43.9383708  18.4210877
  57.7862856  42.5924002  17.8043810  53.5725868  49.5075328  33.5423618
  53.4722595  50.4569685  33.4735709  53.3547410  49.1793567  32.6699688
  52.7738940  46.7560253  10.1264295  53.6358104  47.0815151  10.3860113
  52.9589284  45.9691749   9.6137361  44.7906356  54.8382592  22.4044484
  44.0969827  54.4236545  21.8914438  45.5379347  54.8803129  21.8077903
  60.9271576  45.6288779  17.2699518  60.3470245  46.2873583  16.8877571
  60.6607509  44.8066124  16.8586936  59.3775143  45.0293837  19.4720839
  59.8774921  45.1410371  18.6635157  60.0210751  44.7254890  20.1121647
  53.4357138  52.9372467  32.3588680  52.9524220  53.7372827  32.5652569
  53.5218078  52.9480411  31.4056124  46.7043098  54.7700846  20.2810499
  46.6813786  54.8688534  19.3292382  47.0143735  55.6165997  20.6027665
  49.3630476  56.8277001  24.3957113  50.3173730  56.7960944  24.3287045
  49.1643000  56.3667625  25.2107339  49.9529858  55.3978117  26.9627911
  50.7722747  55.8922196  26.9862748  50.2266666  54.4810085  26.9345479
  59.7096454  47.7888870  16.3255867  58.8222309  48.0738520  16.1076061
  60.1250443  47.6282633  15.4783143  63.0610990  47.8135391  20.0410206
  63.8371381  48.3031843  20.3134823  62.3359125  48.2393445  20.4982075
  65.4983549  48.5263010  21.0984146  66.0928040  48.2858746  20.3877455
  65.5710133  47.8070140  21.7257683  47.7180705  62.3696621  21.4127311
  47.5835173  61.6097022  20.8465309  47.3012767  63.0937521  20.9456100
  58.8539668  57.5533544  10.4203887  59.5575518  57.7583547  11.0361542
  58.1302317  58.1210306  10.6852970  59.6837478  53.3043406  16.5406157
  59.6272679  53.7611957  15.7013789  60.2365820  52.5434090  16.3628999
  63.4942284  49.0933137  17.3656276  63.2379218  48.6929773  18.1964484
  62.8695152  49.8076931  17.2406415  67.8054622  51.8329211  19.8727568
  67.2454180  51.9022400  20.6459130  67.1998125  51.6570195  19.1527064
  50.8749831  63.2665938  21.6245754  50.7582215  64.2111370  21.5224444
  50.0542277  62.9639499  22.0131553  60.7626365  57.9916074  12.4702347
  61.5971969  57.5597272  12.2879821  60.6010708  57.8198087  13.3979241
  60.4172257  54.4948187  13.8358686  60.3621061  54.3292458  12.8947130
  59.7918313  55.2024220  13.9920876  45.2064772  49.7316251  27.6620108
  45.8523636  49.2215205  28.1507333  44.9981923  50.4684933  28.2363533
  53.7268383  43.9956296  13.4144004  53.7147053  44.9398136  13.5712275
  54.6191805  43.8126441  13.1203465  51.9004345  63.9194200  24.8401682
  52.8031591  63.9517810  25.1568177  51.6741715  62.9894651  24.8548018
  53.6557947  62.6725186  21.5011761  52.7053578  62.6727048  21.3876133
  53.9590433  61.9257921  20.9847796  57.5420502  40.5899072  17.6689941
  56.7752898  40.0357559  17.8146623  57.9531207  40.6620941  18.5304093
  49.5462263  46.8783868  31.7595122  50.4093725  46.5220673  31.9698447
  48.9727674  46.5397763  32.4470527  69.3910640  68.5085725  22.5657523
  70.0289050  68.3892472  21.8620863  69.2731483  69.4566569  22.6245475
  66.2000347  68.4613153  22.5019048  65.8618858  68.3454217  21.6139583
  67.0690115  68.0604318  22.4820054  62.0587162  70.3148629  18.4915939
  61.4952027  70.2238566  17.7232227  61.9439557  69.4948534  18.9718432
  59.6051594  71.8099821  21.3300159  60.3972886  71.4690645  20.9146459
  59.8448244  71.9194796  22.2502313  67.6386721  73.9819597  13.8030404
  66.9874701  74.5673677  13.4164418  68.4331084  74.5125792  13.8625441
  61.5642348  71.0708734  14.2017538  62.3373224  70.5237721  14.0630414
  61.9167747  71.9352983  14.4132000  64.3283598  69.7761965  23.9985797
  64.9247170  69.5517987  23.2842760  64.3858569  69.0346710  24.6011245
  63.9008626  67.2301400  11.8335988  64.1534147  66.7082921  11.0719451
  62.9633185  67.0667546  11.9362672  68.9451909  66.2337178  19.6410731
  69.7314998  65.8156602  19.2901148  69.2090613  67.1383271  19.8092380
  69.1161986  71.6710029  14.3399388  68.4807819  71.7444655  15.0520293
  68.7859393  72.2603628  13.6618467  74.3460336  66.1712412  20.5443710
  75.0785508  65.6011628  20.7781539  73.5899692  65.7834012  20.9850215
  63.6204915  69.1329506  14.0360363  63.5041173  68.4574409  14.7041447
  63.7307175  68.6461880  13.2192516  65.9636456  68.5939653  17.7407052
  65.5994663  68.0670274  18.4519974  66.8203572  68.2038122  17.5673538
  65.6041943  63.6229553  12.7368401  65.7716345  64.4909789  13.1038872
  65.4139112  63.7856835  11.8129690  68.3617276  72.0846532  24.4034231
  68.0617999  72.9871571  24.2950038  68.0168335  71.8178715  25.2555384
  71.7614420  64.6029072  22.0831669  70.8531297  64.5344480  21.7890430
  71.7102015  65.0801017  22.9113494  65.5831163  66.0787210  13.7215068
  65.4630789  66.5244261  14.5600548  64.8883752  66.4272528  13.1628606
  63.3438056  78.8490852  17.3705199  63.2662085  79.7998677  17.4493679
  62.7399699  78.5036725  18.0280125  73.6276066  62.8045510  23.8609542
  72.9850446  63.0978044  23.2149337  73.1230994  62.6898431  24.6662739
  71.2816230  66.5508684  14.5495402  72.1934086  66.7836070  14.3743099
  70.7725877  67.1345728  13.9870480  69.8885812  71.5334502  21.9408983
  69.2594674  71.6980216  21.2385051  69.5011474  71.9476112  22.7119947
  73.7675044  72.4688940  19.2953347  73.0826082  72.8487841  18.7450380
  73.8518893  73.0784266  20.0285295  71.0225975  70.1148899  25.8948690
  71.2342871  70.7580659  25.2183072  70.9755724  69.2811215  25.4270621
  68.6252204  62.7266720  22.7985263  67.7636683  63.0247973  23.0902000
  68.6514639  62.9437118  21.8666295  65.4413774  71.2708910  19.2059068
  65.9052119  71.5496613  18.4163691  65.1770572  70.3692355  19.0232159
  64.3782660  67.3932062  16.0148633  65.0806703  67.8453106  16.4822560
  64.0463288  66.7515881  16.6428527  58.1207994  65.6515615  21.3165767
  57.3307048  65.9073144  20.8405878  58.6119241  66.4663953  21.4217808
  72.1371803  72.9920854  24.0671048  72.9589247  72.5901042  23.7853729
  72.1334206  72.8889088  25.0187164  60.0722739  66.0160194  18.2749244
  59.2753902  66.1278889  18.7932739  59.8448331  66.3546847  17.4090134
  56.4045697  65.9046106  23.7480758  56.6553735  66.7893115  24.0138334
  56.9405245  65.7250707  22.9755850  80.2277796  69.3359603  20.4156019
  79.4741505  68.7667001  20.2600024  80.3625338  69.3022267  21.3626654
  65.6176424  74.2073005  16.0910739  65.4822099  75.0524541  16.5195586
  66.1586237  74.4092283  15.3276672  59.0705822  71.7248443  16.6638664
  59.5830342  72.5191693  16.8144228  59.7228535  71.0274734  16.5972265
  60.8800707  74.8414199  18.7461417  61.0567335  75.7632164  18.5582401
  61.6757540  74.5272619  19.1755797  62.0032022  76.3592373  24.7471759
  62.5539447  76.2309437  23.9748753  61.1643498  76.6587262  24.3966652
  69.3426139  75.1099372  28.2492482  69.3244614  75.9308253  27.7572751
  70.2646059  74.9853447  28.4742623  57.0354739  70.0537097  17.4398234
  57.8729961  70.4634106  17.2231942  57.2133006  69.1136540  17.4098428
  68.9319171  67.7212178  13.1282067  68.4165794  68.4916783  13.3670455
  68.6596479  67.0477314  13.7515129  66.5166282  62.5661879  18.1867306
  65.6607878  62.1768729  18.0072944  66.9293234  62.6453840  17.3267091
  64.2908314  60.1846952  21.5925047  65.1561311  59.9889761  21.2330937
  64.3585823  59.9557304  22.5194404  73.9053445  70.4744533  15.0635241
  73.1282888  70.1355692  14.6190403  74.5844926  70.4797156  14.3890206
  68.7205474  65.5939270  14.9541848  68.4155609  65.9085419  15.8051992
  69.6735916  65.6720690  14.9969181  67.1651906  71.7529493  16.6034802
  66.6373267  71.0182253  16.2908040  66.6639408  72.5304170  16.3574771
  72.1444752  69.9478514  21.7201849  71.4868426  70.6377775  21.8081977
  72.9485151  70.3374946  22.0635835  61.8970633  62.4149160  18.9641414
  62.4714385  62.1924341  18.2314607  62.4841616  62.4837854  19.7170015
  70.9550211  68.3022887  19.7705790  71.4682092  68.9352878  20.2727500
  71.6051434  67.7024082  19.4049150  62.2240220  64.4453621  12.9837299
  61.3877533  64.7828307  13.3046574  62.0844990  64.3102601  12.0464436
  64.1993301  59.2890409  17.6916483  63.5457713  58.9739426  17.0673098
  64.1573775  58.6666149  18.4176306  65.3104506  69.5709704   9.6069775
  64.4031568  69.3398957   9.8060924  65.8075538  68.7747323   9.7943757
  68.2172585  78.2807211  12.5266462  67.5434284  78.5838908  13.1351419
  68.6038407  79.0836291  12.1771919  67.4331041  65.7772342  22.0164131
  66.5153603  65.9987289  21.8585819  67.8491185  65.8518653  21.1575838
  68.2166089  67.1763758  17.1466811  68.9637908  67.6885155  16.8373933
  68.4857679  66.8547811  18.0071205  66.4892739  69.6722299  14.1293766
  65.5803959  69.3881331  14.2266235  66.5187823  70.0921377  13.2697072
  71.7212007  73.2828888  17.8984933  71.2674334  72.4419798  17.9550124
  71.0905974  73.9190286  18.2359713  70.6644926  64.2120874  19.1285601
  69.9267683  63.6998260  19.4595843  70.9171700  63.7721256  18.3168877
  70.1644946  75.1205385  18.8334751  70.4567920  75.6810442  18.1147117
  70.6743567  75.4133946  19.5887910  70.7656554  56.9897126  19.7227370
  71.0715430  56.1294490  19.4353285  71.4909159  57.5814746  19.5226364
  57.0580910  67.3927813  18.1108968  56.8605310  66.7997173  17.3860034
  56.5027574  67.0880023  18.8284907  65.0377633  67.2850919  20.2303561
  65.0926243  66.3324756  20.1546037  64.2268835  67.4410358  20.7144859
  66.1868827  71.2131042  11.4681844  65.7488257  70.4966901  11.0087481
  66.9279268  71.4407157  10.9066935  62.9769993  65.9027979  17.9893940
  62.1637859  66.2022150  18.3959132  63.4728988  65.5083668  18.7068422
  65.1278571  75.8985736  19.9228204  65.0854750  76.1246582  18.9936736
  66.0441270  75.6649110  20.0714006  74.3041942  69.4888239  17.5258163
  74.1659841  69.6789835  16.5979352  73.9478161  70.2507622  17.9826214
  62.4684068  63.4746334  23.6055175  63.1083447  63.3335094  22.9078138
  61.6361599  63.1880848  23.2293777  74.3311322  71.5564766  22.5369434
  74.7647828  71.4640055  23.3852488  75.0442902  71.5322267  21.8989450
  63.2444372  72.7748765  19.7190167  64.0384971  72.2799085  19.5172742
  62.5336064  72.2466628  19.3557873  68.0639216  75.1566860  24.0702535
  68.1176239  75.7257797  24.8380251  67.1953998  75.3268745  23.7056572
  59.5527135  66.9191847  15.7949920  58.6224724  66.8576302  16.0119882
  59.6484607  66.3967799  14.9986561  59.4712685  63.4446659  18.3828161
  59.7319502  64.3591993  18.2737322  60.2929857  62.9771102  18.5324774
  75.1926871  71.5988467  25.0702320  75.3862761  72.5034277  25.3161594
  75.0927489  71.1395886  25.9040905  67.0227316  69.3227122  25.6289467
  67.9519376  69.4738282  25.4558434  66.6018346  69.4111143  24.7738113
  65.8215648  73.3477787  23.3988004  65.6826734  72.9796571  24.2713942
  65.0330244  73.8625426  23.2271962  66.4163800  78.4486883  14.7413541
  66.5915556  77.9774927  15.5559163  65.7296588  79.0752650  14.9694801
  67.3720863  72.7259390  20.7876842  67.0370696  72.6860160  21.6834492
  66.8724809  72.0604105  20.3147252  70.3080055  70.0715424  11.0613902
  69.6909225  69.3462252  10.9646954  69.8396543  70.8324784  10.7180976
  71.9634186  74.7814332  28.7219682  71.9046733  74.0973552  28.0550265
  72.3653705  75.5233322  28.2700308  60.9824885  81.5976246  21.5153401
  61.2221483  82.2294770  22.1932419  60.1394082  81.2464286  21.8018760
  62.0978601  64.2900848  10.1835206  61.2208067  64.1689649   9.8197453
  62.5736354  63.4986927   9.9314095  71.9651594  72.7453916  26.9533662
  71.0778372  72.4079838  27.0760061  72.5350145  72.0136947  27.1902427
  53.6180741  69.0778008  20.2776713  54.3051781  68.7639738  19.6897728
  53.4628870  69.9819373  20.0043965  65.4952747  77.4055369  23.9194905
  65.4222919  78.2110340  24.4314209  65.0530140  77.6047334  23.0942926
  65.2842527  76.6427139  17.4297726  64.5010049  77.1848819  17.5235951
  65.9835272  77.1601118  17.8291968  68.5939177  62.4521768  20.0731932
  69.0907876  61.6991730  19.7533002  67.8226158  62.4886085  19.5075141
  76.4468934  68.1562134  21.7150223  76.4358811  69.0386849  21.3444156
  75.5786314  67.8033684  21.5204760  67.9551431  77.3042203  26.0753064
  68.6679403  77.9389667  26.0028965  67.4641459  77.4006069  25.2593065
  69.6768958  71.2093455  17.6470355  68.7425236  71.3294918  17.4775060
  69.8545626  70.3065922  17.3830365  65.1774146  64.5939151  19.8003616
  64.8071933  64.0410191  20.4884522  65.6733238  63.9897285  19.2478616
  73.0641509  67.0510775  18.1820389  73.5301961  67.8838766  18.1080692
  73.5149009  66.5855756  18.8865648  63.0063344  75.0536646  26.8958634
  63.7072804  75.6873129  27.0488029  62.5358459  75.3951378  26.1354274
  71.1317740  73.3954596  15.1806541  71.4077584  73.2811190  16.0900416
  70.2622239  72.9972081  15.1418715  71.0358172  59.4191362  22.2211291
  70.1221251  59.6495588  22.3893498  71.4651273  59.5029806  23.0725323
  70.8064630  67.6081254  24.7211185  70.1536080  67.8557161  24.0663638
  71.1845010  66.7945392  24.3873662  67.7671804  77.6440947  18.8239355
  67.9494199  76.8262603  19.2867107  68.5904790  77.8608639  18.3864245
  68.1013970  76.5709132  16.0854404  68.6301736  76.0601586  15.4724566
  68.3642189  76.2551662  16.9499937  58.6031062  74.5873001  23.8289737
  59.1884499  73.8416689  23.9617641  58.4055901  74.8976958  24.7126401
  61.4569717  77.6224248  18.8452179  60.7880093  78.1070376  18.3616220
  61.3182587  77.8693469  19.7595558  53.1948717  67.1578601  22.5494180
  53.2332816  66.6242192  23.3431298  52.6889010  66.6313807  21.9305157
  65.5974986  79.6567992  25.4434838  66.1493294  79.8199614  26.2083923
  65.9381180  80.2472430  24.7714863  56.8257295  65.8842703  15.6248112
  57.1210736  64.9753382  15.5715165  55.9245330  65.8630443  15.3029114
  68.7343373  77.6049968  22.4298520  68.6094513  76.8039707  21.9209465
  69.3922464  78.0996161  21.9412490  60.3551542  63.9598700  21.6075660
  59.6338127  64.5734668  21.4683134  61.1444797  64.4956465  21.5292306
  70.7978282  75.4058988  24.0578070  69.8508617  75.2864339  23.9856397
  71.1461055  74.5181486  24.1404332  58.5545136  63.5656801  15.7487437
  58.2257842  62.6854180  15.5662543  58.9084507  63.5104470  16.6363826
  67.8024715  75.2011704  20.2582422  67.6549677  74.2728411  20.4389992
  68.6278209  75.2231795  19.7739498  61.6686959  63.8529771  16.1162914
  62.0083032  64.3815692  15.3941523  62.1159080  64.1910177  16.8921481
  71.4058837  76.0240263  21.3447295  72.3305384  75.8183124  21.2071746
  71.2374140  75.7756664  22.2536637  63.6555106  62.3504393  14.3156207
  64.3763469  62.7285645  13.8119924  63.0320411  63.0693269  14.4191185
  67.7986229  63.0549541  15.2514540  68.0149844  63.9374179  14.9503368
  67.3180296  62.6635755  14.5220182  64.3981834  63.0037803  21.8766174
  64.3843402  62.1078896  21.5398472  65.1154262  63.0108466  22.5104460
  71.1954153  76.5425930  16.7009387  71.3691031  75.9772353  15.9483239
  71.6883044  77.3426825  16.5188876  63.8018730  61.8852183  17.1453744
  63.9234641  60.9568829  17.3444631  63.5120772  61.8990869  16.2332059
  66.6709920  59.5707093  20.2820464  66.6931617  59.6346427  19.3272443
  67.0877979  58.7311602  20.4760970  77.0493544  69.3062353  18.3199686
  77.4924690  68.5569678  17.9218810  76.1720055  69.2972489  17.9373418
  72.1829326  75.8592694  13.8006285  72.8780230  76.4799387  14.0193599
  72.5252476  75.0088046  14.0758663  74.0820749  73.3092400  15.3293616
  74.6072073  73.6479673  14.6042936  73.9943101  72.3739415  15.1456750
  65.7440797  77.2226474  27.4583492  66.0527924  76.9775620  28.3306192
  66.5416279  77.4273112  26.9702362  65.7661409  79.3764383  19.6888869
  65.3266400  78.8840762  20.3821725  66.5169526  78.8337351  19.4480944
  58.2453748  75.5675924  19.6913497  59.0711768  75.2679696  19.3112140
  57.8947800  74.7983547  20.1403285  63.2135282  74.9202392  21.7611170
  62.5915291  74.2573097  21.4613398  63.8840148  74.9463524  21.0784818
  56.4462353  73.4862251  20.6502430  55.6094262  73.0584425  20.4686432
  56.4185999  73.6794694  21.5873222  73.8912530  70.7917770  27.9477542
  73.9410535  70.6267777  28.8893065  73.7826453  69.9245029  27.5575423
  62.7748788  73.4706316  15.2369631  62.9236909  74.1541780  14.5836304
  63.5815232  73.4511406  15.7519087  75.3930727  73.2114711  28.1919564
  75.1015535  73.5744692  29.0283025  74.7802858  72.4981720  28.0132896
  76.5926409  70.7767591  20.7122134  77.4273300  71.2157395  20.8759694
  76.7285538  70.3006244  19.8930380  73.6417915  68.3347326  26.6599622
  74.1172036  68.5274972  25.8518473  72.7183480  68.3906512  26.4143005
  60.5301421  69.4971493  16.2430700  60.2847463  68.5933823  16.4410910
  60.6997336  69.4988644  15.3010178  59.7997069  65.2299851  13.7416861
  59.1066314  65.3044206  13.0856897  59.5548821  64.4660195  14.2638378
  68.4710726  56.7895452  21.1456352  68.7512479  56.1218641  21.7716779
  69.2561332  56.9824548  20.6331016  66.2744194  75.9654446  12.7081378
  65.7018161  76.5844633  12.2551850  66.8476988  76.5153808  13.2421300
  72.3419584  65.2113086  24.8927927  73.2937007  65.3111184  24.9140151
  72.1723034  64.4191355  25.4026012  69.4941454  76.2491596  13.8389961
  70.4272127  76.1837158  14.0422836  69.4064667  77.0847863  13.3804493
  72.1229470  75.5657467  10.7993908  72.0443102  75.2317330  11.6929666
  72.9439137  76.0579234  10.7985381  74.8207662  68.4319206  24.0070227
  74.7883982  67.4935207  24.1929911  75.4308285  68.5103243  23.2736052
  66.6590993  67.3015259  10.0497431  67.6050097  67.1721467  10.1185849
  66.2805237  66.5629921  10.5266859  74.9702150  65.2230249  24.0528510
  74.4541199  64.4388706  23.8658439  75.8542099  64.8948966  24.2175029
  72.6312877  58.9671265  20.0124323  72.4337698  58.6586353  20.8967655
  73.2412583  59.6932904  20.1422253  80.6384211  69.4935213  23.1476264
  81.3687600  69.2320501  23.7083967  80.0291157  68.7563935  23.1878332
  78.7199509  67.6343075  23.7450715  77.9932672  67.4999040  23.1367206
  78.3046795  67.9419904  24.5507433  64.8433910  65.2265235   9.9852316
  63.9365365  64.9298348  10.0615030  65.1209891  64.9295053   9.1186602
  55.7611850  66.5471599  20.4351362  55.4414634  65.6936907  20.1425737
  55.2145278  66.7620177  21.1909330  66.4595975  59.7702125  16.1396557
  65.6496704  59.4249210  16.5151803  67.1480392  59.4609669  16.7284169
  68.3886524  58.8480172  17.7620854  68.9417562  59.2675625  18.4210877
  68.6256610  57.9215920  17.8043810  63.6132694  62.0852170  10.1264295
  64.4751858  62.4107069  10.3860113  63.7983038  61.2983666   9.6137361
  55.6300110  70.1674510  22.4044484  54.9363581  69.7528463  21.8914438
  56.3773101  70.2095047  21.8077903  71.7665331  60.9580697  17.2699518
  71.1864000  61.6165501  16.8877571  71.5001263  60.1358042  16.8586936
  70.2168897  60.3585755  19.4720839  70.7168675  60.4702289  18.6635157
  70.8604505  60.0546807  20.1121647  57.5436853  70.0992764  20.2810499
  57.5207541  70.1980451  19.3292382  57.8537489  70.9457915  20.6027665
  60.2024230  72.1568919  24.3957113  61.1567484  72.1252861  24.3287045
  60.0036754  71.6959543  25.2107339  70.5490209  63.1180787  16.3255867
  69.6616064  63.4030438  16.1076061  70.9644198  62.9574551  15.4783143
  73.9004745  63.1427308  20.0410206  74.6765135  63.6323761  20.3134823
  73.1752879  63.5685362  20.4982075  76.3377304  63.8554928  21.0984146
  76.9321794  63.6150663  20.3877455  76.4103887  63.1362058  21.7257683
  58.5574459  77.6988538  21.4127311  58.4228927  76.9388939  20.8465309
  58.1406522  78.4229438  20.9456100  69.6933422  72.8825462  10.4203887
  70.3969272  73.0875464  11.0361542  68.9696071  73.4502224  10.6852970
  70.5231233  68.6335323  16.5406157  70.4666434  69.0903875  15.7013789
  71.0759575  67.8726008  16.3628999  74.3336038  64.4225055  17.3656276
  74.0772973  64.0221691  18.1964484  73.7088906  65.1368849  17.2406415
  78.6448376  67.1621128  19.8727568  78.0847934  67.2314318  20.6459130
  78.0391880  66.9862113  19.1527064  61.7143585  78.5957855  21.6245754
  61.5975969  79.5403288  21.5224444  60.8936031  78.2931417  22.0131553
  71.6020120  73.3207991  12.4702347  72.4365724  72.8889190  12.2879821
  71.4404463  73.1490005  13.3979241  71.2566012  69.8240104  13.8358686
  71.2014816  69.6584376  12.8947130  70.6312067  70.5316137  13.9920876
  64.5662137  59.3248213  13.4144004  64.5540807  60.2690053  13.5712275
  65.4585559  59.1418359  13.1203465  62.7398099  79.2486117  24.8401682
  63.6425346  79.2809728  25.1568177  62.5135469  78.3186568  24.8548018
  64.4951701  78.0017104  21.5011761  63.5447332  78.0018966  21.3876133
  64.7984187  77.2549838  20.9847796  68.3814257  55.9190990  17.6689941
  67.6146653  55.3649477  17.8146623  68.7924962  55.9912859  18.5304093
  80.2304395  83.8377642  22.5657523  80.8682805  83.7184390  21.8620863
  80.1125238  84.7858486  22.6245475  77.0394101  83.7905070  22.5019048
  76.7012613  83.6746135  21.6139583  77.9083869  83.3896235  22.4820054
  72.8980917  85.6440547  18.4915939  72.3345782  85.5530484  17.7232227
  72.7833312  84.8240451  18.9718432  77.5213884  84.9439922  28.4605254
  77.5102525  84.5492720  27.5885757  77.6834523  84.2105995  29.0539025
  70.4445349  87.1391738  21.3300159  71.2366641  86.7982563  20.9146459
  70.6841999  87.2486713  22.2502313  78.4780475  89.3111515  13.8030404
  77.8268455  89.8965595  13.4164418  79.2724838  89.8417709  13.8625441
  72.4036103  86.4000652  14.2017538  73.1766979  85.8529639  14.0630414
  72.7561501  87.2644901  14.4132000  74.2421145  87.7277034  27.4084438
  73.9511011  88.6322665  27.2931104  74.8778130  87.7693562  28.1228507
  75.1677352  85.1053882  23.9985797  75.7640924  84.8809905  23.2842760
  75.2252324  84.3638628  24.6011245  74.7402380  82.5593318  11.8335988
  74.9927901  82.0374839  11.0719451  73.8026940  82.3959463  11.9362672
  79.7845663  81.5629096  19.6410731  80.5708752  81.1448519  19.2901148
  80.0484368  82.4675188  19.8092380  79.9555741  87.0001946  14.3399388
  79.3201574  87.0736573  15.0520293  79.6253147  87.5895545  13.6618467
  85.1854090  81.5004329  20.5443710  85.9179262  80.9303546  20.7781539
  84.4293446  81.1125930  20.9850215  74.4598669  84.4621424  14.0360363
  74.3434927  83.7866327  14.7041447  74.5700929  83.9753798  13.2192516
  76.8030210  83.9231571  17.7407052  76.4388417  83.3962192  18.4519974
  77.6597326  83.5330040  17.5673538  82.7079511  75.2125903  25.0038318
  82.3762835  76.0821314  24.7799533  82.1125124  74.8962187  25.6832349
  76.4435697  78.9521471  12.7368401  76.6110099  79.8201707  13.1038872
  76.2532866  79.1148752  11.8129690  79.2011030  87.4138449  24.4034231
  78.9011753  88.3163488  24.2950038  78.8562090  87.1470633  25.2555384
  72.6523512  83.8652246  20.4370936  71.7274008  83.7328460  20.6448627
  72.9007925  84.6446466  20.9340878  82.6008174  79.9320990  22.0831669
  81.6925051  79.8636398  21.7890430  82.5495770  80.4092935  22.9113494
  76.4224918  81.4079128  13.7215068  76.3024543  81.8536179  14.5600548
  75.7277506  81.7564446  13.1628606  70.0132323  83.5085520  21.2714725
  70.1424704  83.7619999  22.1854136  69.3329774  84.1013228  20.9519380
  74.1831810  94.1782770  17.3705199  74.1055840  95.1290595  17.4493679
  73.5793454  93.8328642  18.0280125  76.6749040  81.3510635  30.0266566
  75.8982374  81.9104555  30.0169430  77.3139603  81.8367418  30.5481436
  84.4669820  78.1337428  23.8609542  83.8244201  78.4269961  23.2149337
  83.9624749  78.0190348  24.6662739  82.1209984  81.8800601  14.5495402
  83.0327840  82.1127988  14.3743099  81.6119631  82.4637645  13.9870480
  74.9295412  84.1596089  29.5884533  75.6710096  84.6981133  29.3119356
  74.2232398  84.7862377  29.7456085  80.4050752  86.3025229  28.1856694
  80.8134108  85.8607640  27.4411327  79.6828013  85.7277857  28.4390887
  76.7581822  81.2397836  25.5590251  77.6043017  81.6637249  25.7024900
  76.6980459  80.5831460  26.2528814  80.7279566  86.8626420  21.9408983
  80.0988429  87.0272134  21.2385051  80.3405228  87.2768029  22.7119947
  84.6068798  87.7980858  19.2953347  83.9219836  88.1779759  18.7450380
  84.6912648  88.4076184  20.0285295  79.9081267  78.9002204  27.2171425
  79.6642199  79.6544265  26.6805701  80.1841198  79.2787552  28.0518672
  81.8619730  85.4440817  25.8948690  82.0736625  86.0872576  25.2183072
  81.8149478  84.6103133  25.4270621  79.4645959  78.0558637  22.7985263
  78.6030438  78.3539891  23.0902000  79.4908394  78.2729036  21.8666295
  76.2807528  86.6000828  19.2059068  76.7445874  86.8788531  18.4163691
  76.0164326  85.6984272  19.0232159  73.1731609  86.1472309  22.1438832
  73.7432966  86.5759578  21.5056316  73.7639721  85.8654894  22.8423017
  75.2176414  82.7223980  16.0148633  75.9200458  83.1745024  16.4822560
  74.8857043  82.0807799  16.6428527  73.6656776  81.3135737  30.3899843
  73.0355436  81.9952018  30.6235240  73.5592864  81.2018818  29.4452981
  68.9601748  80.9807533  21.3165767  68.1700802  81.2365061  20.8405878
  69.4512996  81.7955871  21.4217808  82.9765558  88.3212772  24.0671048
  83.7983002  87.9192959  23.7853729  82.9727961  88.2181006  25.0187164
  70.9116494  81.3452112  18.2749244  70.1147657  81.4570806  18.7932739
  70.6842086  81.6838764  17.4090134  76.7422161  87.8696815  26.2231758
  76.8066594  88.3317222  27.0589930  76.0333085  87.2394180  26.3514068
  67.2439451  81.2338023  23.7480758  67.4947490  82.1185033  24.0138334
  67.7799000  81.0542625  22.9755850  91.0671551  84.6651520  20.4156019
  90.3135259  84.0958919  20.2600024  91.2019092  84.6314185  21.3626654
  76.4570179  89.5364923  16.0910739  76.3215854  90.3816458  16.5195586
  76.9979991  89.7384200  15.3276672  69.9099576  87.0540361  16.6638664
  70.4224097  87.8483611  16.8144228  70.5622289  86.3566651  16.5972265
  71.7194461  90.1706117  18.7461417  71.8961089  91.0924082  18.5582401
  72.5151295  89.8564536  19.1755797  71.0046818  82.2170749  28.6223580
  70.8900333  81.3156006  28.9230679  70.1491335  82.4634446  28.2708397
  78.0838655  90.1588489  30.2211081  77.6402510  89.3724868  29.9031985
  78.7455869  90.3467640  29.5554972  72.8425777  91.6884291  24.7471759
  73.3933202  91.5601354  23.9748753  72.0037252  91.9879180  24.3966652
  80.1819893  90.4391289  28.2492482  80.1638369  91.2600170  27.7572751
  81.1039813  90.3145364  28.4742623  76.6392948  87.9535419  29.0915990
  77.1721284  87.1923707  28.8615298  76.1107029  87.6609070  29.8340145
  79.8062643  73.0595485  24.6209632  79.4626912  73.9497126  24.5448743
  80.1741605  72.8697142  23.7579217  67.8748493  85.3829015  17.4398234
  68.7123715  85.7926023  17.2231942  68.0526761  84.4428457  17.4098428
  79.7712925  83.0504096  13.1282067  79.2559549  83.8208700  13.3670455
  79.4990234  82.3769232  13.7515129  77.3560036  77.8953797  18.1867306
  76.5001633  77.5060647  18.0072944  77.7686988  77.9745757  17.3267091
  78.8859183  75.4300140  22.5858865  78.3823979  75.3930275  21.7726671
  79.1789790  76.3392883  22.6455522  75.1302069  75.5138870  21.5925047
  75.9955066  75.3181678  21.2330937  75.1979578  75.2849221  22.5194404
  84.7447199  85.8036450  15.0635241  83.9676642  85.4647610  14.6190403
  85.4238680  85.8089074  14.3890206  79.5599228  80.9231188  14.9541848
  79.2549364  81.2377337  15.8051992  80.5129671  81.0012608  14.9969181
  78.0045660  87.0821411  16.6034802  77.4767022  86.3474171  16.2908040
  77.5033163  87.8596087  16.3574771  82.9838506  85.2770432  21.7201849
  82.3262181  85.9669693  21.8081977  83.7878905  85.6666864  22.0635835
  72.7364388  77.7441077  18.9641414  73.3108140  77.5216259  18.2314607
  73.3235370  77.8129772  19.7170015  81.7943965  83.6314804  19.7705790
  82.3075847  84.2644796  20.2727500  82.4445189  83.0316000  19.4049150
  73.0633975  79.7745538  12.9837299  72.2271287  80.1120225  13.3046574
  72.9238745  79.6394518  12.0464436  75.0387056  74.6182326  17.6916483
  74.3851468  74.3031344  17.0673098  74.9967530  73.9958067  18.4176306
  76.1498260  84.9001621   9.6069775  75.2425322  84.6690875   9.8060924
  76.6469292  84.1039241   9.7943757  78.2724796  81.1064260  22.0164131
  77.3547357  81.3279207  21.8585819  78.6884940  81.1810570  21.1575838
  79.0559844  82.5055676  17.1466811  79.8031663  83.0177073  16.8373933
  79.3251433  82.1839728  18.0071205  77.3286494  85.0014216  14.1293766
  76.4197713  84.7173249  14.2266235  77.3581578  85.4213295  13.2697072
  82.5605761  88.6120806  17.8984933  82.1068088  87.7711716  17.9550124
  81.9299728  89.2482204  18.2359713  81.5038681  79.5412792  19.1285601
  80.7661438  79.0290178  19.4595843  81.7565454  79.1013173  18.3168877
  81.0038701  90.4497302  18.8334751  81.2961675  91.0102360  18.1147117
  81.5137321  90.7425863  19.5887910  81.6050308  72.3189044  19.7227370
  81.9109185  71.4586407  19.4353285  82.3302913  72.9106664  19.5226364
  67.8974664  82.7219730  18.1108968  67.6999064  82.1289091  17.3860034
  67.3421328  82.4171941  18.8284907  75.8771388  82.6142837  20.2303561
  75.9319998  81.6616673  20.1546037  75.0662590  82.7702276  20.7144859
  77.0262582  86.5422960  11.4681844  76.5882012  85.8258819  11.0087481
  77.7673023  86.7699075  10.9066935  73.8163748  81.2319897  17.9893940
  73.0031613  81.5314067  18.3959132  74.3122742  80.8375585  18.7068422
  75.9672326  91.2277654  19.9228204  75.9248505  91.4538500  18.9936736
  76.8835025  90.9941028  20.0714006  79.4137960  81.6961721  26.8208834
  79.7687347  81.9233194  27.6803299  80.0610091  82.0280098  26.1986089
  85.1435696  84.8180157  17.5258163  85.0053595  85.0081753  16.5979352
  84.7871915  85.5799540  17.9826214  73.3077823  78.8038252  23.6055175
  73.9477202  78.6627011  22.9078138  72.4755353  78.5172766  23.2293777
  85.1705076  86.8856684  22.5369434  85.6041583  86.7931973  23.3852488
  85.8836657  86.8614184  21.8989450  74.0838127  88.1040683  19.7190167
  74.8778725  87.6091003  19.5172742  73.3729819  87.5758546  19.3557873
  78.9032971  90.4858778  24.0702535  78.9569993  91.0549714  24.8380251
  78.0347752  90.6560663  23.7056572  70.3920890  82.2483764  15.7949920
  69.4618478  82.1868220  16.0119882  70.4878362  81.7259717  14.9986561
  70.3106439  78.7738577  18.3828161  70.5713256  79.6883910  18.2737322
  71.1323611  78.3063020  18.5324774  71.7831364  80.1876334  25.5526986
  72.4554418  79.9793696  24.9039635  70.9561151  79.9898420  25.1132218
  86.0320626  86.9280385  25.0702320  86.2256516  87.8326195  25.3161594
  85.9321244  86.4687804  25.9040905  77.6856936  76.8138275  27.5692647
  77.0384851  77.5128225  27.4757123  78.4557952  77.2474419  27.9368895
  81.0935734  87.0787127  30.6443200  80.9421241  86.8497679  29.7273284
  81.0840414  88.0357729  30.6574545  77.8621071  84.6519040  25.6289467
  78.7913131  84.8030200  25.4558434  77.4412101  84.7403061  24.7738113
  76.6609403  88.6769705  23.3988004  76.5220488  88.3088489  24.2713942
  75.8723999  89.1917344  23.2271962  77.2557554  93.7778801  14.7413541
  77.4309310  93.3066844  15.5559163  76.5690342  94.4044567  14.9694801
  78.2114618  88.0551307  20.7876842  77.8764450  88.0152077  21.6834492
  77.7118563  87.3896023  20.3147252  72.1858862  83.4618937  26.3129423
  72.0478660  82.7299176  26.9140962  73.0963785  83.3727837  26.0313611
  81.1473809  85.4007342  11.0613902  80.5302980  84.6754170  10.9646954
  80.6790298  86.1616702  10.7180976  74.8141162  83.1738897  25.8013103
  75.5240781  82.5332089  25.7599721  74.7710470  83.4251791  26.7239284
  82.8027941  90.1106250  28.7219682  82.7440487  89.4265470  28.0550265
  83.2047459  90.8525240  28.2700308  73.5270096  80.1604114  27.6208742
  72.9907453  79.7094853  28.2730339  72.9386805  80.2950023  26.8779207
  71.8218640  96.9268164  21.5153401  72.0615238  97.5586688  22.1932419
  70.9787836  96.5756204  21.8018760  72.9372355  79.6192766  10.1835206
  72.0601822  79.4981567   9.8197453  73.4130108  78.8278844   9.9314095
  82.8045348  88.0745834  26.9533662  81.9172127  87.7371756  27.0760061
  83.3743899  87.3428865  27.1902427  64.4574495  84.4069926  20.2776713
  65.1445535  84.0931656  19.6897728  64.3022624  85.3111290  20.0043965
  69.2609217  79.2960122  24.7061737  69.1767406  78.6885792  23.9712147
  68.4391924  79.7869141  24.7071233  76.3346502  92.7347286  23.9194905
  76.2616673  93.5402258  24.4314209  75.8923895  92.9339252  23.0942926
  76.1236281  91.9719056  17.4297726  75.3403803  92.5140736  17.5235951
  76.8229026  92.4893036  17.8291968  79.4332931  77.7813686  20.0731932
  79.9301631  77.0283648  19.7533002  78.6619913  77.8178002  19.5075141
  87.2862689  83.4854051  21.7150223  87.2752565  84.3678767  21.3444156
  86.4180068  83.1325602  21.5204760  78.7945185  92.6334120  26.0753064
  79.5073157  93.2681585  26.0028965  78.3035214  92.7297986  25.2593065
  80.5162712  86.5385373  17.6470355  79.5818991  86.6586835  17.4775060
  80.6939381  85.6357840  17.3830365  76.0167900  79.9231069  19.8003616
  75.6465688  79.3702109  20.4884522  76.5126993  79.3189202  19.2478616
  83.9035263  82.3802692  18.1820389  84.3695716  83.2130684  18.1080692
  84.3542764  81.9147674  18.8865648  73.8457099  90.3828564  26.8958634
  74.5466558  91.0165047  27.0488029  73.3752214  90.7243295  26.1354274
  81.9711495  88.7246514  15.1806541  82.2471338  88.6103108  16.0900416
  81.1015993  88.3263998  15.1418715  81.8751926  74.7483279  22.2211291
  80.9615006  74.9787506  22.3893498  82.3045028  74.8321723  23.0725323
  81.6458385  82.9373171  24.7211185  80.9929835  83.1849079  24.0663638
  82.0238765  82.1237309  24.3873662  78.6065559  92.9732864  18.8239355
  78.7887953  92.1554520  19.2867107  79.4298545  93.1900557  18.3864245
  78.9407724  91.9001049  16.0854404  79.4695490  91.3893504  15.4724566
  79.2035944  91.5843580  16.9499937  77.6945958  83.6792982  31.2077222
  77.0186595  83.5787112  31.8779597  78.5173592  83.5232196  31.6713219
  69.4424817  89.9164919  23.8289737  70.0278254  89.1708607  23.9617641
  69.2449655  90.2268875  24.7126401  72.2963472  92.9516166  18.8452179
  71.6273847  93.4362294  18.3616220  72.1576342  93.1985387  19.7595558
  64.0342471  82.4870519  22.5494180  64.0726571  81.9534110  23.3431298
  63.5282764  81.9605724  21.9305157  76.4368741  94.9859910  25.4434838
  76.9887049  95.1491531  26.2083923  76.7774934  95.5764348  24.7714863
  71.4133234  77.3335059  26.0456723  71.4774560  78.1949890  25.6334120
  71.3500354  76.7209061  25.3129081  70.8885506  79.4058192  29.6929757
  71.5157545  79.0235269  30.3067281  70.0313425  79.1872394  30.0585449
  81.2879615  89.8121167  31.2983492  81.8319519  90.4251125  30.8038447
  80.7066460  90.3700746  31.8150505  67.6651049  81.2134621  15.6248112
  67.9604490  80.3045300  15.5715165  66.7639085  81.1922361  15.3029114
  79.5737128  92.9341885  22.4298520  79.4488267  92.1331625  21.9209465
  80.2316219  93.4288079  21.9412490  71.1945296  79.2890618  21.6075660
  70.4731882  79.9026585  21.4683134  71.9838552  79.8248383  21.5292306
  81.6372036  90.7350905  24.0578070  80.6902372  90.6156256  23.9856397
  81.9854809  89.8473403  24.1404332  73.9971610  76.6245044  27.8816312
  74.5206011  76.8707341  28.6442621  73.7783943  77.4565079  27.4619449
  69.3938891  78.8948719  15.7487437  69.0651597  78.0146098  15.5662543
  69.7478261  78.8396387  16.6363826  78.6418470  90.5303622  20.2582422
  78.4943432  89.6020329  20.4389992  79.4671963  90.5523712  19.7739498
  72.5080714  79.1821689  16.1162914  72.8476786  79.7107610  15.3941523
  72.9552834  79.5202095  16.8921481  82.2452591  91.3532180  21.3447295
  83.1699139  91.1475042  21.2071746  82.0767895  91.1048581  22.2536637
  75.2024155  77.5658739  25.5665983  74.8620975  76.7666552  25.9686662
  74.4963161  77.8660450  24.9942816  75.8540626  74.6508052  24.0193306
  76.6766696  74.1768530  23.8972196  76.0978690  75.4298536  24.5191992
  74.4948861  77.6796310  14.3156207  75.2157223  78.0577563  13.8119924
  73.8714165  78.3985187  14.4191185  78.6379984  78.3841459  15.2514540
  78.8543598  79.2666097  14.9503368  78.1574051  77.9927673  14.5220182
  73.3779205  81.3427172  21.8285284  73.2323786  81.6567475  22.7209566
  72.9004409  81.9612073  21.2756183  75.2375588  78.3329720  21.8766174
  75.2237157  77.4370814  21.5398472  75.9548016  78.3400384  22.5104460
  77.0901719  78.7667061  23.9219301  76.8319497  79.6884131  23.9203632
  76.5586759  78.3697495  24.6119765  82.0347908  91.8717848  16.7009387
  82.2084785  91.3064270  15.9483239  82.5276799  92.6718743  16.5188876
  67.8524867  83.8832517  24.7672945  67.3078335  84.6592325  24.8993220
  68.7304217  84.2303321  24.6092067  74.6412484  77.2144101  17.1453744
  74.7628395  76.2860747  17.3444631  74.3514526  77.2282787  16.2332059
  77.5103674  74.8999011  20.2820464  77.5325371  74.9638344  19.3272443
  77.9271733  74.0603520  20.4760970  87.8887299  84.6354271  18.3199686
  88.3318445  83.8861596  17.9218810  87.0113809  84.6264407  17.9373418
  83.0223080  91.1884612  13.8006285  83.7173985  91.8091305  14.0193599
  83.3646230  90.3379963  14.0758663  68.6390889  83.0102413  27.6603102
  67.8972625  83.1585048  28.2467733  68.3183634  83.2710679  26.7969852
  84.9214503  88.6384318  15.3293616  85.4465827  88.9771590  14.6042936
  84.8336856  87.7031333  15.1456750  76.5834552  92.5518391  27.4583492
  76.8921678  92.3067538  28.3306192  77.3810034  92.7565030  26.9702362
  76.6055164  94.7056301  19.6888869  76.1660154  94.2132680  20.3821725
  77.3563281  94.1629269  19.4480944  69.0847503  90.8967842  19.6913497
  69.9105523  90.5971614  19.3112140  68.7341555  90.1275464  20.1403285
  74.0529036  90.2494310  21.7611170  73.4309045  89.5865015  21.4613398
  74.7233903  90.2755442  21.0784818  67.2856108  88.8154168  20.6502430
  66.4488016  88.3876343  20.4686432  67.2579753  89.0086612  21.5873222
  84.6108409  89.2717221  30.6344814  83.8203953  89.2541360  30.0949313
  84.3741764  89.8105515  31.3893850  84.7306284  86.1209688  27.9477542
  84.7804289  85.9559695  28.8893065  84.6220208  85.2536947  27.5575423
  73.6142543  88.7998233  15.2369631  73.7630663  89.4833698  14.5836304
  74.4208986  88.7803323  15.7519087  82.0210047  82.1040616  29.2636849
  82.9219909  81.9647081  28.9720847  82.0958021  82.2695071  30.2035026
  76.3552852  79.4807470  28.1090035  75.4856161  79.7741036  27.8372624
  76.5912332  80.0647915  28.8297299  86.2324481  88.5406629  28.1919564
  85.9409289  88.9036610  29.0283025  85.6196612  87.8273637  28.0132896
  87.4320163  86.1059509  20.7122134  88.2667055  86.5449313  20.8759694
  87.5679292  85.6298162  19.8930380  84.4811669  83.6639244  26.6599622
  84.9565791  83.8566890  25.8518473  83.5577235  83.7198430  26.4143005
  71.3695176  84.8263411  16.2430700  71.1241218  83.9225741  16.4410910
  71.5391090  84.8280561  15.3010178  79.0591886  75.6987087  25.6255455
  79.5773830  76.4348114  25.3001944  78.7047019  76.0051081  26.4602215
  70.6390823  80.5591769  13.7416861  69.9460068  80.6336124  13.0856897
  70.3942575  79.7952112  14.2638378  79.3104480  72.1187370  21.1456352
  79.5906234  71.4510559  21.7716779  80.0955087  72.3116465  20.6331016
  77.1137948  91.2946364  12.7081378  76.5411916  91.9136551  12.2551850
  77.6870742  91.8445725  13.2421300  83.1813338  80.5405004  24.8927927
  84.1330761  80.6403102  24.9140151  83.0116789  79.7483272  25.4026012
  81.2027718  77.6260587  25.0787328  80.6077650  77.9065600  24.3833817
  80.9177415  78.1154488  25.8504069  80.3335208  91.5783514  13.8389961
  81.2665881  91.5129076  14.0422836  80.2458421  92.4139781  13.3804493
  85.6601416  83.7611124  24.0070227  85.6277736  82.8227124  24.1929911
  86.2702040  83.8395160  23.2736052  77.4984747  82.6307177  10.0497431
  78.4443852  82.5013385  10.1185849  77.1198992  81.8921838  10.5266859
  85.8095905  80.5522167  24.0528510  85.2934953  79.7680624  23.8658439
  86.6935853  80.2240884  24.2175029  83.4706632  74.2963183  20.0124323
  83.2731453  73.9878271  20.8967655  84.0806337  75.0224821  20.1422253
  91.4777966  84.8227130  23.1476264  92.2081354  84.5612419  23.7083967
  90.8684911  84.0855852  23.1878332  89.5593263  82.9634993  23.7450715
  88.8326427  82.8290958  23.1367206  89.1440550  83.2711822  24.5507433
  77.3823440  86.6824923  31.5098088  78.3026449  86.8603522  31.7038134
  77.3473023  85.7380968  31.3577787  75.6827664  80.5557153   9.9852316
  74.7759120  80.2590266  10.0615030  75.9603645  80.2586971   9.1186602
  66.6005605  81.8763516  20.4351362  66.2808389  81.0228825  20.1425737
  66.0539033  82.0912094  21.1909330  70.3785512  84.5925957  24.1520869
  70.5971522  85.5243065  24.1708903  70.7911286  84.2333932  24.9375673
  77.2989730  75.0994043  16.1396557  76.4890458  74.7541128  16.5151803
  77.9874147  74.7901586  16.7284169  79.2280278  74.1772089  17.7620854
  79.7811317  74.5967543  18.4210877  79.4650365  73.2507838  17.8043810
  74.4526449  77.4144088  10.1264295  75.3145613  77.7398986  10.3860113
  74.6376793  76.6275584   9.6137361  66.4693865  85.4966428  22.4044484
  65.7757336  85.0820381  21.8914438  67.2166856  85.5386964  21.8077903
  82.6059085  76.2872615  17.2699518  82.0257754  76.9457419  16.8877571
  82.3395018  75.4649959  16.8586936  81.0562652  75.6877672  19.4720839
  81.5562430  75.7994207  18.6635157  81.6998260  75.3838725  20.1121647
  75.1144647  83.5956302  32.3588680  74.6311729  84.3956662  32.5652569
  75.2005586  83.6064247  31.4056124  68.3830607  85.4284682  20.2810499
  68.3601295  85.5272369  19.3292382  68.6931244  86.2749832  20.6027665
  71.0417985  87.4860837  24.3957113  71.9961238  87.4544779  24.3287045
  70.8430509  87.0251460  25.2107339  71.6317367  86.0561953  26.9627911
  72.4510256  86.5506031  26.9862748  71.9054175  85.1393921  26.9345479
  81.3883963  78.4472705  16.3255867  80.5009818  78.7322356  16.1076061
  81.8037952  78.2866468  15.4783143  84.7398499  78.4719226  20.0410206
  85.5158890  78.9615678  20.3134823  84.0146634  78.8977280  20.4982075
  87.1771058  79.1846845  21.0984146  87.7715549  78.9442581  20.3877455
  87.2497642  78.4653976  21.7257683  69.3968214  93.0280456  21.4127311
  69.2622682  92.2680857  20.8465309  68.9800276  93.7521356  20.9456100
  81.3624987  83.9627241  16.5406157  81.3060188  84.4195792  15.7013789
  81.9153329  83.2017926  16.3628999  85.1729793  79.7516973  17.3656276
  84.9166727  79.3513608  18.1964484  84.5482661  80.4660767  17.2406415
  89.4842131  82.4913046  19.8727568  88.9241689  82.5606235  20.6459130
  88.8785634  82.3154031  19.1527064  72.5537340  93.9249773  21.6245754
  72.4369724  94.8695206  21.5224444  71.7329786  93.6223335  22.0131553
  82.4413874  88.6499909  12.4702347  83.2759478  88.2181107  12.2879821
  82.2798217  88.4781923  13.3979241  82.0959766  85.1532022  13.8358686
  82.0408570  84.9876294  12.8947130  81.4705822  85.8608055  13.9920876
  66.8852281  80.3900087  27.6620108  67.5311145  79.8799041  28.1507333
  66.6769432  81.1268768  28.2363533  79.4105674  87.4580934  33.1612249
  80.2796833  87.6321586  32.7998884  78.9312425  88.2775351  33.0387978
  75.4055892  74.6540131  13.4144004  75.3934562  75.5981971  13.5712275
  76.2979314  74.4710277  13.1203465  73.5791854  94.5778035  24.8401682
  74.4819100  94.6101645  25.1568177  73.3529224  93.6478486  24.8548018
  75.3345456  93.3309022  21.5011761  74.3841087  93.3310883  21.3876133
  75.6377942  92.5841756  20.9847796  79.2208011  71.2482908  17.6689941
  78.4540407  70.6941395  17.8146623  79.6318716  71.3204777  18.5304093
  91.0698149  99.1669560  22.5657523  91.7076559  99.0476307  21.8620863
  90.9518992 100.1150404  22.6245475  87.8787856  99.1196988  22.5019048
  87.5406367  99.0038053  21.6139583  88.7477624  98.7188153  22.4820054
  88.3607639 100.2731840  28.4605254  88.3496279  99.8784638  27.5885757
  88.5228278  99.5397912  29.0539025  81.2839103 102.4683656  21.3300159
  82.0760395 102.1274481  20.9146459  81.5235753 102.5778631  22.2502313
  85.0814900 103.0568952  27.4084438  84.7904766 103.9614582  27.2931104
  85.7171884 103.0985479  28.1228507  86.0071107 100.4345800  23.9985797
  86.6034679 100.2101823  23.2842760  86.0646078  99.6930546  24.6011245
  93.5473265  90.5417821  25.0038318  93.2156590  91.4113232  24.7799533
  92.9518879  90.2254105  25.6832349  90.0404785 102.7430367  24.4034231
  89.7405508 103.6455406  24.2950038  89.6955844 102.4762550  25.2555384
  83.4917266  99.1944164  20.4370936  82.5667763  99.0620378  20.6448627
  83.7401679  99.9738383  20.9340878  93.4401929  95.2612907  22.0831669
  92.5318806  95.1928316  21.7890430  93.3889524  95.7384852  22.9113494
  80.8526077  98.8377438  21.2714725  80.9818458  99.0911916  22.1854136
  80.1723529  99.4305146  20.9519380  87.5142794  96.6802553  30.0266566
  86.7376128  97.2396473  30.0169430  88.1533357  97.1659336  30.5481436
  95.3063575  93.4629346  23.8609542  94.6637955  93.7561879  23.2149337
  94.8018503  93.3482266  24.6662739  85.7689167  99.4888006  29.5884533
  86.5103851 100.0273050  29.3119356  85.0626152 100.1154295  29.7456085
  91.2444506 101.6317147  28.1856694  91.6527862 101.1899557  27.4411327
  90.5221768 101.0569774  28.4390887  87.5975576  96.5689753  25.5590251
  88.4436771  96.9929167  25.7024900  87.5374214  95.9123378  26.2528814
  90.7475022  94.2294122  27.2171425  90.5035954  94.9836182  26.6805701
  91.0234952  94.6079469  28.0518672  92.7013484 100.7732734  25.8948690
  92.9130380 101.4164494  25.2183072  92.6543233  99.9395051  25.4270621
  90.3039713  93.3850555  22.7985263  89.4424192  93.6831808  23.0902000
  90.3302148  93.6020954  21.8666295  84.0125364 101.4764227  22.1438832
  84.5826721 101.9051495  21.5056316  84.6033476 101.1946812  22.8423017
  84.5050530  96.6427654  30.3899843  83.8749191  97.3243935  30.6235240
  84.3986618  96.5310736  29.4452981  79.7995503  96.3099450  21.3165767
  79.0094557  96.5656979  20.8405878  80.2906750  97.1247788  21.4217808
  81.7510248  96.6744030  18.2749244  80.9541411  96.7862724  18.7932739
  81.5235840  97.0130682  17.4090134  87.5815916 103.1988733  26.2231758
  87.6460348 103.6609140  27.0589930  86.8726840 102.5686098  26.3514068
  78.0833206  96.5629941  23.7480758  78.3341244  97.4476951  24.0138334
  78.6192754  96.3834542  22.9755850  83.7831273  90.9448420  32.7525094
  83.3898219  90.3914619  33.4272738  84.5997413  91.2558999  33.1431611
  86.6999234  92.3606299  30.3445350  87.4408947  92.9613453  30.2649813
  86.9317157  91.6183937  29.7863393  81.8440572  97.5462667  28.6223580
  81.7294087  96.6447924  28.9230679  80.9885090  97.7926363  28.2708397
  88.9232410 105.4880407  30.2211081  88.4796264 104.7016785  29.9031985
  89.5849623 105.6759557  29.5554972  83.6819531 107.0176209  24.7471759
  84.2326956 106.8893272  23.9748753  82.8431007 107.3171098  24.3966652
  91.0213648 105.7683207  28.2492482  91.0032123 106.5892088  27.7572751
  91.9433568 105.6437282  28.4742623  87.4786702 103.2827336  29.0915990
  88.0115039 102.5215625  28.8615298  86.9500783 102.9900988  29.8340145
  90.6456397  88.3887402  24.6209632  90.3020666  89.2789044  24.5448743
  91.0135360  88.1989060  23.7579217  88.1953791  93.2245714  18.1867306
  87.3395387  92.8352565  18.0072944  88.6080743  93.3037675  17.3267091
  89.7252937  90.7592057  22.5858865  89.2217733  90.7222193  21.7726671
  90.0183544  91.6684800  22.6455522  85.9695823  90.8430787  21.5925047
  86.8348820  90.6473596  21.2330937  86.0373332  90.6141139  22.5194404
  83.5758142  93.0732995  18.9641414  84.1501894  92.8508177  18.2314607
  84.1629125  93.1421690  19.7170015  85.8780810  89.9474244  17.6916483
  85.2245222  89.6323261  17.0673098  85.8361284  89.3249984  18.4176306
  89.1118550  96.4356178  22.0164131  88.1941112  96.6571125  21.8585819
  89.5278694  96.5102488  21.1575838  92.4444063  87.6480961  19.7227370
  92.7502939  86.7878325  19.4353285  93.1696667  88.2398582  19.5226364
  78.7368419  98.0511648  18.1108968  78.5392819  97.4581009  17.3860034
  78.1815083  97.7463858  18.8284907  86.7165142  97.9434755  20.2303561
  86.7713752  96.9908591  20.1546037  85.9056344  98.0994194  20.7144859
  84.6557502  96.5611814  17.9893940  83.8425368  96.8605985  18.3959132
  85.1516497  96.1667503  18.7068422  90.2531714  97.0253639  26.8208834
  90.6081102  97.2525112  27.6803299  90.9003845  97.3572016  26.1986089
  84.1471577  94.1330170  23.6055175  84.7870956  93.9918929  22.9078138
  83.3149108  93.8464683  23.2293777  81.1500194  94.1030495  18.3828161
  81.4107011  95.0175828  18.2737322  81.9717366  93.6354937  18.5324774
  82.6225119  95.5168252  25.5526986  83.2948172  95.3085614  24.9039635
  81.7954905  95.3190338  25.1132218  88.5250691  92.1430193  27.5692647
  87.8778606  92.8420143  27.4757123  89.2951706  92.5766337  27.9368895
  91.9329489 102.4079045  30.6443200  91.7814995 102.1789597  29.7273284
  91.9234168 103.3649646  30.6574545  88.7014825  99.9810958  25.6289467
  89.6306885 100.1322117  25.4558434  88.2805855 100.0694979  24.7738113
  87.5003157 104.0061622  23.3988004  87.3614243 103.6380407  24.2713942
  86.7117753 104.5209262  23.2271962  83.0252616  98.7910855  26.3129423
  82.8872414  98.0591094  26.9140962  83.9357540  98.7019755  26.0313611
  85.6534917  98.5030814  25.8013103  86.3634535  97.8624006  25.7599721
  85.6104225  98.7543709  26.7239284  93.6421695 105.4398168  28.7219682
  93.5834242 104.7557388  28.0550265  94.0441214 106.1817158  28.2700308
  84.3663851  95.4896032  27.6208742  83.8301208  95.0386771  28.2730339
  83.7780559  95.6241941  26.8779207  93.6439103 103.4037752  26.9533662
  92.7565881 103.0663673  27.0760061  94.2137654 102.6720783  27.1902427
  75.2968250  99.7361843  20.2776713  75.9839290  99.4223573  19.6897728
  75.1416379 100.6403208  20.0043965  80.1002972  94.6252040  24.7061737
  80.0161161  94.0177709  23.9712147  79.2785678  95.1161058  24.7071233
  90.2726686  93.1105603  20.0731932  90.7695385  92.3575566  19.7533002
  89.5013667  93.1469920  19.5075141  86.8561655  95.2522986  19.8003616
  86.4859442  94.6994027  20.4884522  87.3520747  94.6481120  19.2478616
  84.6850853 105.7120481  26.8958634  85.3860313 106.3456964  27.0488029
  84.2145968 106.0535213  26.1354274  92.7145681  90.0775197  22.2211291
  91.8008760  90.3079424  22.3893498  93.1438782  90.1613641  23.0725323
  92.4852139  98.2665089  24.7211185  91.8323589  98.5140996  24.0663638
  92.8632519  97.4529227  24.3873662  88.5339712  99.0084900  31.2077222
  87.8580349  98.9079029  31.8779597  89.3567346  98.8524114  31.6713219
  80.2818571 105.2456836  23.8289737  80.8672008 104.5000524  23.9617641
  80.0843410 105.5560793  24.7126401  74.8736226  97.8162437  22.5494180
  74.9120325  97.2826027  23.3431298  74.3676519  97.2897642  21.9305157
  82.2526988  92.6626977  26.0456723  82.3168315  93.5241808  25.6334120
  82.1894109  92.0500979  25.3129081  81.7279261  94.7350110  29.6929757
  82.3551300  94.3527187  30.3067281  80.8707180  94.5164312  30.0585449
  92.1273369 105.1413085  31.2983492  92.6713273 105.7543043  30.8038447
  91.5460214 105.6992663  31.8150505  78.5044804  96.5426539  15.6248112
  78.7998245  95.6337217  15.5715165  77.6032839  96.5214278  15.3029114
  82.0339051  94.6182535  21.6075660  81.3125636  95.2318503  21.4683134
  82.8232306  95.1540300  21.5292306  84.8365364  91.9536962  27.8816312
  85.3599766  92.1999258  28.6442621  84.6177697  92.7856997  27.4619449
  80.2332645  94.2240636  15.7487437  79.9045351  93.3438015  15.5662543
  80.5872016  94.1688305  16.6363826  86.0417909  92.8950657  25.5665983
  85.7014729  92.0958470  25.9686662  85.3356915  93.1952368  24.9942816
  86.6934381  89.9799969  24.0193306  87.5160450  89.5060448  23.8972196
  86.9372444  90.7590453  24.5191992  84.2172960  96.6719090  21.8285284
  84.0717540  96.9859393  22.7209566  83.7398163  97.2903990  21.2756183
  86.0769343  93.6621638  21.8766174  86.0630911  92.7662731  21.5398472
  86.7941771  93.6692302  22.5104460  87.9295473  94.0958978  23.9219301
  87.6713251  95.0176049  23.9203632  87.3980514  93.6989413  24.6119765
  78.6918622  99.2124434  24.7672945  78.1472090  99.9884242  24.8993220
  79.5697972  99.5595239  24.6092067  85.4806239  92.5436018  17.1453744
  85.6022150  91.6152665  17.3444631  85.1908281  92.5574704  16.2332059
  88.3497429  90.2290929  20.2820464  88.3719126  90.2930262  19.3272443
  88.7665488  89.3895437  20.4760970  79.4784644  98.3394331  27.6603102
  78.7366380  98.4876966  28.2467733  79.1577388  98.6002596  26.7969852
  87.4228306 107.8810309  27.4583492  87.7315433 107.6359456  28.3306192
  88.2203788 108.0856947  26.9702362  78.1249862 104.1446086  20.6502430
  77.2881771 103.7168260  20.4686432  78.0973508 104.3378529  21.5873222
  84.9647318  94.0568016  31.3543676  85.0135474  94.9330138  30.9721446
  85.5069832  93.5145409  30.7815320  95.4502164 104.6009139  30.6344814
  94.6597707 104.5833278  30.0949313  95.2135518 105.1397433  31.3893850
  95.5700039 101.4501605  27.9477542  95.6198044 101.2851613  28.8893065
  95.4613962 100.5828864  27.5575423  92.8603801  97.4332533  29.2636849
  93.7613664  97.2938998  28.9720847  92.9351776  97.5986988  30.2035026
  87.1946606  94.8099388  28.1090035  86.3249916  95.1032954  27.8372624
  87.4306087  95.3939833  28.8297299  97.0718236 103.8698547  28.1919564
  96.7803044 104.2328527  29.0283025  96.4590367 103.1565555  28.0132896
  95.3205424  98.9931161  26.6599622  95.7959545  99.1858808  25.8518473
  94.3970989  99.0490347  26.4143005  89.8985640  91.0279005  25.6255455
  90.4167584  91.7640032  25.3001944  89.5440773  91.3342998  26.4602215
  90.1498234  87.4479288  21.1456352  90.4299988  86.7802477  21.7716779
  90.9348841  87.6408383  20.6331016  94.0207093  95.8696922  24.8927927
  94.9724516  95.9695019  24.9140151  93.8510543  95.0775190  25.4026012
  92.0421472  92.9552505  25.0787328  91.4471404  93.2357517  24.3833817
  91.7571169  93.4446406  25.8504069  96.6489659  95.8814085  24.0528510
  96.1328708  95.0972541  23.8658439  97.5329608  95.5532801  24.2175029
  94.3100386  89.6255100  20.0124323  94.1125207  89.3170188  20.8967655
  94.9200092  90.3516739  20.1422253  88.2217194 102.0116840  31.5098088
  89.1420203 102.1895439  31.7038134  88.1866777 101.0672886  31.3577787
  77.4399359  97.2055434  20.4351362  77.1202143  96.3520742  20.1425737
  76.8932787  97.4204012  21.1909330  81.2179267  99.9217875  24.1520869
  81.4365276 100.8534983  24.1708903  81.6305040  99.5625849  24.9375673
  88.1383484  90.4285960  16.1396557  87.3284213  90.0833045  16.5151803
  88.8267901  90.1193504  16.7284169  90.0674033  89.5064007  17.7620854
  90.6205071  89.9259461  18.4210877  90.3044119  88.5799755  17.8043810
  86.0907132  95.4951081  33.5423618  85.9903859  96.4445438  33.4735709
  85.8728674  95.1669320  32.6699688  77.3087619 100.8258345  22.4044484
  76.6151090 100.4112298  21.8914438  78.0560610 100.8678882  21.8077903
  91.8956406  91.0169590  19.4720839  92.3956184  91.1286125  18.6635157
  92.5392014  90.7130643  20.1121647  85.9538402  98.9248220  32.3588680
  85.4705484  99.7248580  32.5652569  86.0399341  98.9356164  31.4056124
  79.2224362 100.7576599  20.2810499  79.1995050 100.8564287  19.3292382
  79.5324998 101.6041750  20.6027665  81.8811739 102.8152754  24.3957113
  82.8354993 102.7836697  24.3287045  81.6824263 102.3543378  25.2107339
  82.4711122 101.3853870  26.9627911  83.2904011 101.8797949  26.9862748
  82.7447929 100.4685838  26.9345479  77.7246036  95.7192004  27.6620108
  78.3704899  95.2090958  28.1507333  77.5163187  96.4560686  28.2363533
  90.2499428 102.7872852  33.1612249  91.1190588 102.9613504  32.7998884
  89.7706179 103.6067269  33.0387978  84.4185608 109.9069953  24.8401682
  85.3212855 109.9393563  25.1568177  84.1922978 108.9770404  24.8548018
  90.0601766  86.5774825  17.6689941  89.2934162  86.0233312  17.8146623
  90.4712471  86.6496694  18.5304093  82.0643527  92.8659621  31.7595122
  82.9274988  92.5096426  31.9698447  81.4908937  92.5273516  32.4470527
  94.6225028 106.2740338  32.7525094  94.2291973 105.7206537  33.4272738
  95.4391168 106.5850916  33.1431611  97.5392989 107.6898217  30.3445350
  98.2802702 108.2905370  30.2649813  97.7710911 106.9475855  29.7863393
  92.5673015 110.0642027  29.6929757  93.1945054 109.6819105  30.3067281
  91.7100934 109.8456229  30.0585449  95.8041073 109.3859933  31.3543676
  95.8529228 110.2622056  30.9721446  96.3463587 108.8437326  30.7815320
  96.9300886 110.8242998  33.5423618  96.8297613 111.7737355  33.4735709
  96.7122428 110.4961237  32.6699688  88.5639790 111.0483922  27.6620108
  89.2098654 110.5382876  28.1507333  88.3556941 111.7852604  28.2363533
  92.9037281 108.1951539  31.7595122  93.7668743 107.8388344  31.9698447
  92.3302692 107.8565434  32.4470527  50.2846679  21.1292620  15.4464989
  50.2259225  20.4451840  14.7795572  50.6866197  21.8711610  14.9945615
  48.7698353  20.8307537  18.0228799  49.3138257  21.4437495  17.5283754
  48.1885198  21.3887115  18.5395812  52.0927147  20.2903591  17.3590120
  51.3022691  20.2727730  16.8194620  51.8560502  20.8291885  18.1139157
  53.7143219  19.5592999  14.9164870  53.4228027  19.9222979  15.7528331
  53.1015350  18.8460007  14.7378202  46.8924411  18.4767304  19.8857555
  47.7615571  18.6507956  19.5244190  46.4131163  19.2961720  19.7633285
  58.5516887  30.1855930   9.2902830  59.1895297  30.0662677   8.5866170
  58.4337730  31.1336773   9.3490782  55.3606593  30.1383358   9.2264355
  55.0225105  30.0224422   8.3384890  56.2296361  29.7374523   9.2065361
  55.8426376  31.2918209  15.1850560  55.8315017  30.8971008  14.3131064
  56.0047016  30.5584282  15.7784332  48.7657841  33.4870026   8.0545466
  49.5579133  33.1460850   7.6391765  49.0054491  33.5965001   8.9747619
  52.5633637  34.0755321  14.1329744  52.2723503  34.9800952  14.0176411
  53.1990622  34.1171849  14.8473814  53.4889844  31.4532170  10.7231104
  54.0853417  31.2288192  10.0088067  53.5464816  30.7116915  11.3256552
  63.5066583  27.8482617   7.2689017  64.2391755  27.2781833   7.5026846
  62.7505938  27.4604217   7.7095522  61.0292003  21.5604191  11.7283625
  60.6975328  22.4299602  11.5044840  60.4337616  21.2440475  12.4077656
  57.5223523  33.7616737  11.1279538  57.2224246  34.6641775  11.0195345
  57.1774582  33.4948920  11.9800691  60.9220666  26.2799277   8.8076975
  60.0137544  26.2114685   8.5135736  60.8708262  26.7571222   9.6358801
  52.5044302  40.5261057   4.0950506  52.4268332  41.4768882   4.1738986
  51.9005946  40.1806930   4.7525432  54.9961532  27.6988922  16.7511872
  54.2194866  28.2582843  16.7414737  55.6352095  28.1845705  17.2726743
  62.7882313  24.4815715  10.5854849  62.1456693  24.7748248   9.9394644
  62.2837241  24.3668636  11.3908046  53.2507904  30.5074376  16.3129839
  53.9922589  31.0459420  16.0364663  52.5444890  31.1340665  16.4701391
  58.7263244  32.6503516  14.9102001  59.1346600  32.2085927  14.1656633
  58.0040506  32.0756144  15.1636194  55.0794314  27.5876123  12.2835558
  55.9255509  28.0115537  12.4270207  55.0192952  26.9309747  12.9774121
  59.0492059  33.2104707   8.6654290  58.4200921  33.3750421   7.9630358
  58.6617721  33.6246316   9.4365254  62.9281291  34.1459145   6.0198654
  62.2432329  34.5258046   5.4695687  63.0125140  34.7554471   6.7530601
  58.2293759  25.2480491  13.9416732  57.9854691  26.0022552  13.4051007
  58.5053690  25.6265839  14.7763979  60.1832222  31.7919104  12.6193997
  60.3949117  32.4350864  11.9428378  60.1361970  30.9581420  12.1515927
  51.4944102  32.4950597   8.8684138  52.0645459  32.9237865   8.2301623
  52.0852213  32.2133181   9.5668324  51.9869268  27.6614024  17.1145149
  51.3567929  28.3430305  17.3480546  51.8805356  27.5497106  16.1698288
  61.2978050  34.6691059  10.7916354  62.1195494  34.2671246  10.5099036
  61.2940453  34.5659293  11.7432470  55.0634654  34.2175103  12.9477065
  55.1279086  34.6795510  13.7835237  54.3545577  33.5872467  13.0759375
  69.3884043  31.0129808   7.1401326  68.6347752  30.4437206   6.9845330
  69.5231584  30.9792472   8.0871961  51.2650011  21.9634790  19.4770401
  50.8716956  21.4100988  20.1518045  52.0816151  22.2745368  19.8676918
  50.0406953  36.5184404   5.4706724  50.2173582  37.4402369   5.2827707
  50.8363787  36.2042824   5.9001103  54.1817972  23.3792669  17.0690657
  54.9227685  23.9799822  16.9895120  54.4135895  22.6370307  16.5108700
  49.3259310  28.5649036  15.3468887  49.2112825  27.6634293  15.6475986
  48.4703828  28.8112733  14.9953703  56.4051148  36.5066777  16.9456387
  55.9615002  35.7203155  16.6277292  57.0668361  36.6945927  16.2800278
  51.1638269  38.0362578  11.4717066  51.7145694  37.9079641  10.6994060
  50.3249745  38.3357467  11.1211959  58.5032386  36.7869576  14.9737789
  58.4850861  37.6078457  14.4818058  59.4252306  36.6623652  15.1987930
  54.9605440  34.3013706  15.8161297  55.4933777  33.5401994  15.5860605
  54.4319521  34.0087358  16.5585451  61.3050999  31.6248719   8.4447155
  60.6474673  32.3147980   8.5327284  62.1091398  32.0145151   8.7881142
  60.1156457  29.9793092   6.4951097  60.6288339  30.6123083   6.9972807
  60.7657681  29.3794287   6.1294457  56.5937288  27.4542547   8.7409438
  55.6759850  27.6757494   8.5831126  57.0097432  27.5288858   7.8821145
  60.8818254  34.9599093   4.6230240  60.4280581  34.1190003   4.6795430
  60.2512220  35.5960491   4.9605020  59.3251193  36.7975590   5.5580058
  59.6174167  37.3580647   4.8392423  59.8349813  37.0904151   6.3133217
  54.2884818  37.5755941   6.6473511  54.2460997  37.8016787   5.7182043
  55.2047517  37.3419315   6.7959312  57.7350452  28.0440008  13.5454140
  58.0899840  28.2711481  14.4048606  58.3822583  28.3758385  12.9231396
  63.4648189  31.1658444   4.2503469  63.3266087  31.3560040   3.3224659
  63.1084408  31.9277827   4.7071520  63.4917568  33.2334971   9.2614741
  63.9254075  33.1410260  10.1097795  64.2049149  33.2092472   8.6234757
  57.2245463  36.8337065  10.7947841  57.2782486  37.4028002  11.5625557
  56.3560245  37.0038950  10.4301879  50.1043857  26.5354622  12.2772293
  50.7766910  26.3271984  11.6284942  49.2773643  26.3376708  11.8377525
  64.3533118  33.2758672  11.7947626  64.5469008  34.1804482  12.0406901
  64.2533736  32.8166091  12.6286211  56.0069429  23.1616562  14.2937954
  55.3597344  23.8606512  14.2002430  56.7770444  23.5952706  14.6614202
  59.4148227  33.4265415  17.3688507  59.2633733  33.1975966  16.4518591
  59.4052906  34.3836016  17.3819852  56.1833563  30.9997327  12.3534773
  57.1125623  31.1508487  12.1803741  55.7624593  31.0881348  11.4983420
  54.9821895  35.0247992  10.1233311  54.8432980  34.6566776  10.9959249
  54.1936491  35.5395631   9.9517269  55.5770047  40.1257088   1.4658847
  55.7521802  39.6545131   2.2804470  54.8902835  40.7522854   1.6940108
  56.5327110  34.4029594   7.5122149  56.1976943  34.3630364   8.4079799
  56.0331056  33.7374310   7.0392559  50.5071354  29.8097225  13.0374730
  50.3691152  29.0777463  13.6386269  51.4176277  29.7206125  12.7558918
  53.1353655  29.5217184  12.5258409  53.8453273  28.8810376  12.4845028
  53.0922963  29.7730079  13.4484590  61.1240433  36.4584537  15.4464989
  61.0652979  35.7743757  14.7795572  61.5259952  37.2003527  14.9945615
  51.8482589  26.5082402  14.3454049  51.3119946  26.0573140  14.9975645
  51.2599297  26.6428311  13.6024513  50.1431132  43.2746451   8.2398708
  50.3827730  43.9064975   8.9177726  49.3000329  42.9234491   8.5264067
  61.1257841  34.4224121  13.6778968  60.2384619  34.0850043  13.8005367
  61.6956392  33.6907152  13.9147734  54.6558994  39.0825573  10.6440212
  54.5829165  39.8880545  11.1559516  54.2136387  39.2817539   9.8188233
  54.4448774  38.3197344   4.1543033  53.6616295  38.8619024   4.2481258
  55.1441519  38.8371323   4.5537274  65.6075181  29.8332338   8.4395530
  65.5965057  30.7157054   8.0689463  64.7392560  29.4803889   8.2450067
  57.1157677  38.9812408  12.7998370  57.8285650  39.6159872  12.7274272
  56.6247706  39.0776273  11.9838372  52.1669591  36.7306851  13.6203941
  52.8679050  37.3643334  13.7733335  51.6964706  37.0721583  12.8599580
  59.9670877  29.2851458  11.4456491  59.3142327  29.5327366  10.7908944
  60.3451257  28.4715597  11.1118969  56.9278051  39.3211152   5.5484662
  57.1100445  38.5032808   6.0112414  57.7511037  39.5378844   5.1109552
  57.2620216  38.2479337   2.8099710  57.7907983  37.7371791   2.1969872
  57.5248436  37.9321867   3.6745243  56.0158450  30.0271269  17.9322528
  55.3399087  29.9265399  18.6024904  56.8386084  29.8710483  18.3958526
  47.7637309  36.2643206  10.5535044  48.3490746  35.5186894  10.6862948
  47.5662147  36.5747163  11.4371708  50.6175964  39.2994453   5.5697486
  49.9486339  39.7840581   5.0861526  50.4788834  39.5463674   6.4840865
  54.7581233  41.3338197  12.1680144  55.3099541  41.4969818  12.9329230
  55.0987426  41.9242635  11.4960169  49.2097999  25.7536479  16.4175063
  49.8370037  25.3713557  17.0312588  48.3525917  25.5350681  16.7830756
  59.6092107  36.1599454  18.0228799  60.1532011  36.7729413  17.5283754
  59.0278952  36.7179033  18.5395812  57.8949620  39.2820172   9.1543827
  57.7700760  38.4809912   8.6454772  58.5528711  39.7766366   8.6657797
  59.9584528  37.0829193  10.7823377  59.0114864  36.9634544  10.7101703
  60.3067302  36.1951691  10.8649638  52.3184102  22.9723331  14.6061619
  52.8418504  23.2185628  15.3687928  52.0996435  23.8043366  14.1864756
  56.9630962  36.8781909   6.9827729  56.8155924  35.9498616   7.1635299
  57.7884455  36.9001999   6.4984804  60.5665084  37.7010467   8.0692602
  61.4911631  37.4953329   7.9317053  60.3980387  37.4526869   8.9781943
  53.5236647  23.9137027  12.2911289  53.1833467  23.1144840  12.6931969
  52.8175653  24.2138737  11.7188122  55.4114211  25.1145348  10.6464608
  55.1531989  26.0362418  10.6448938  54.8799251  24.7175782  11.3365072
  60.3560400  38.2196135   3.4254693  60.5297277  37.6542557   2.6728546
  60.8489291  39.0197030   3.2434183  46.1737360  30.2310804  11.4918252
  45.6290828  31.0070612  11.6238526  47.0516710  30.5781608  11.3337373
  66.2099791  30.9832558   5.0444993  66.6530937  30.2339883   4.6464116
  65.3326301  30.9742694   4.6618725  61.3435572  37.5362899   0.5251591
  62.0386477  38.1569592   0.7438906  61.6858722  36.6858251   0.8003969
  46.9603382  29.3580700  14.3848409  46.2185118  29.5063336  14.9713039
  46.6396126  29.6188966  13.5215158  63.2426995  34.9862605   2.0538922
  63.7678320  35.3249878   1.3288242  63.1549348  34.0509620   1.8702057
  54.9047044  38.8996679  14.1828799  55.2134171  38.6545825  15.0551498
  55.7022526  39.1043317  13.6947669  54.9267656  41.0534588   6.4134175
  54.4872646  40.5610967   7.1067032  55.6775773  40.5107556   6.1726251
  47.4059995  37.2446129   6.4158803  48.2318015  36.9449901   6.0357447
  47.0554047  36.4753751   6.8648592  52.3741528  36.5972597   8.4856477
  51.7521538  35.9343302   8.1858705  53.0446395  36.6233729   7.8030125
  52.4466056  25.0754385  18.0788983  52.4954211  25.9516508  17.6966753
  52.9888570  24.5331778  17.5060626  62.9320902  35.6195509  17.3590120
  62.1416445  35.6019647  16.8194620  62.6954256  36.1583802  18.1139157
  63.0518777  32.4687975  14.6722849  63.1016781  32.3037982  15.6138371
  62.9432700  31.6015234  14.2820729  60.3422539  28.4518903  15.9882155
  61.2432402  28.3125368  15.6966153  60.4170513  28.6173358  16.9280333
  54.6765344  25.8285758  14.8335342  53.8068654  26.1219324  14.5617930
  54.9124825  26.4126203  15.5542605  64.5536973  34.8884916  14.9164870
  64.2621782  35.2514897  15.7528331  63.9409105  34.1751925  14.7378202
  65.7532656  32.4537796   7.4367440  66.5879547  32.8927600   7.6005001
  65.8891785  31.9776449   6.6175686  62.8024162  30.0117531  13.3844928
  63.2778283  30.2045177  12.5763780  61.8789727  30.0676717  13.1388312
  57.3804378  22.0465375  12.3500762  57.8986322  22.7826402  12.0247251
  57.0259511  22.3529368  13.1847521  61.5025831  26.8883291  11.6173234
  62.4543254  26.9881389  11.6385458  61.3329281  26.0961560  12.1271318
  59.5240210  23.9738874  11.8032635  58.9290142  24.2543887  11.1079123
  59.2389907  24.4632775  12.5749376  63.9813908  30.1089411  10.7315533
  63.9490229  29.1705412  10.9175217  64.5914532  30.1873448   9.9981358
  64.1308397  26.9000454  10.7773817  63.6147446  26.1158911  10.5903746
  65.0148345  26.5719171  10.9420336  69.7990458  31.1705418   9.8721570
  70.5293847  30.9090706  10.4329274  69.1897404  30.4334140   9.9123638
  67.8805755  29.3113280  10.4696021  67.1538919  29.1769245   9.8612513
  67.4653042  29.6190109  11.2752740  55.7035932  33.0303210  18.2343394
  56.6238941  33.2081809  18.4283441  55.6685515  32.0859255  18.0823094
  48.6998004  30.9404245  10.8766176  48.9184014  31.8721352  10.8954209
  49.1123778  30.5812219  11.6620979  53.5725870  26.5137450  20.2668925
  53.4722597  27.4631807  20.1981016  53.3547412  26.1855689  19.3944995
  53.4357140  29.9434589  19.0833986  52.9524221  30.7434949  19.2897875
  53.5218079  29.9542534  18.1301430  49.3630477  33.8339124  11.1202420
  50.3173731  33.8023066  11.0532352  49.1643001  33.3729748  11.9352646
  49.9529859  32.4040240  13.6873218  50.7722748  32.8984319  13.7108055
  50.2266667  31.4872208  13.6590785  65.4983550  25.5325132   7.8229453
  66.0928041  25.2920868   7.1122761  65.5710134  24.8132263   8.4502989
  47.7180706  39.3758743   8.1372618  47.5835174  38.6159144   7.5710616
  47.3012768  40.0999643   7.6701407  67.8054623  28.8391333   6.5972874
  67.2454181  28.9084523   7.3704436  67.1998126  28.6632318   5.8772371
  50.8749832  40.2728060   8.3491061  50.7582216  41.2173493   8.2469751
  50.0542278  39.9701622   8.7376860  45.2064774  26.7378374  14.3865415
  45.8523637  26.2277328  14.8752640  44.9981925  27.4747055  14.9608840
  57.7318166  33.8059221  19.8857555  58.6009325  33.9799874  19.5244190
  57.2524917  34.6253638  19.7633285  51.9004346  40.9256322  11.5646989
  52.8031593  40.9579933  11.8813484  51.6741716  39.9956773  11.5793325
  53.6557948  39.6787309   8.2257068  52.7053579  39.6789170   8.1121440
  53.9590434  38.9320043   7.7093102  49.5462265  23.8845991  18.4840429
  50.4093726  23.5282796  18.6943754  48.9727675  23.5459886  19.1715833
  69.3910642  45.5147847   9.2902830  70.0289051  45.3954595   8.5866170
  69.2731484  46.4628691   9.3490782  66.2000348  45.4675275   9.2264355
  65.8618859  45.3516340   8.3384890  67.0690116  45.0666440   9.2065361
  62.0587163  47.3210752   5.2161246  61.4952029  47.2300689   4.4477533
  61.9439559  46.5010656   5.6963738  66.6820131  46.6210127  15.1850560
  66.6708772  46.2262925  14.3131064  66.8440770  45.8876200  15.7784332
  59.6051595  48.8161943   8.0545466  60.3972887  48.4752768   7.6391765
  59.8448246  48.9256918   8.9747619  67.6386722  50.9881719   0.5275711
  66.9874702  51.5735800   0.1409724  68.4331085  51.5187914   0.5870748
  61.5642349  48.0770857   0.9262845  62.3373225  47.5299844   0.7875721
  61.9167748  48.9415106   1.1377306  63.4027392  49.4047239  14.1329744
  63.1117258  50.3092870  14.0176411  64.0384376  49.4463766  14.8473814
  64.3283599  46.7824087  10.7231104  64.9247171  46.5580110  10.0088067
  64.3858570  46.0408833  11.3256552  63.9008627  44.2363523  -1.4418705
  64.1534148  43.7145044  -2.2035242  62.9633186  44.0729668  -1.3392022
  68.9451910  43.2399301   6.3656038  69.7314999  42.8218724   6.0146455
  69.2090614  44.1445393   6.5337686  69.1161987  48.6772151   1.0644695
  68.4807820  48.7506778   1.7765599  68.7859394  49.2665750   0.3863774
  74.3460337  43.1774534   7.2689017  75.0785509  42.6073751   7.5026846
  73.5899693  42.7896135   7.7095522  63.6204916  46.1391629   0.7605670
  63.5041174  45.4636532   1.4286754  63.7307176  45.6524003  -0.0562177
  65.9636457  45.6001776   4.4652359  65.5994664  45.0732397   5.1765280
  66.8203573  45.2100245   4.2918844  71.8685757  36.8896108  11.7283625
  71.5369082  37.7591519  11.5044840  71.2731371  36.5732392  12.4077656
  65.6041944  40.6291675  -0.5386292  65.7716346  41.4971912  -0.1715821
  65.4139113  40.7918957  -1.4625003  68.3617277  49.0908654  11.1279538
  68.0618000  49.9933693  11.0195345  68.0168337  48.8240838  11.9800691
  61.8129758  45.5422451   7.1616242  60.8880255  45.4098665   7.3693934
  62.0614172  46.3216670   7.6586185  71.7614421  41.6091195   8.8076975
  70.8531298  41.5406603   8.5135736  71.7102017  42.0863139   9.6358801
  65.5831165  43.0849333   0.4460374  65.4630790  43.5306384   1.2845855
  64.8883753  43.4334651  -0.1126088  59.1738570  45.1855725   7.9960031
  59.3030951  45.4390204   8.9099443  58.4936021  45.7783433   7.6764686
  63.3438057  55.8552975   4.0950506  63.2662087  56.8060800   4.1738986
  62.7399700  55.5098847   4.7525432  65.8355287  43.0280840  16.7511872
  65.0588621  43.5874760  16.7414737  66.4745850  43.5137623  17.2726743
  73.6276067  39.8107633  10.5854849  72.9850447  40.1040166   9.9394644
  73.1230996  39.6960553  11.3908046  71.2816231  43.5570806   1.2740708
  72.1934087  43.7898193   1.0988406  70.7725878  44.1407850   0.7115787
  64.0901659  45.8366293  16.3129839  64.8316343  46.3751337  16.0364663
  63.3838644  46.4632582  16.4701391  69.5656999  47.9795434  14.9102001
  69.9740355  47.5377844  14.1656633  68.8434260  47.4048061  15.1636194
  65.9188069  42.9168041  12.2835558  66.7649264  43.3407454  12.4270207
  65.8586706  42.2601665  12.9774121  69.8885813  48.5396625   8.6654290
  69.2594676  48.7042339   7.9630358  69.5011475  48.9538234   9.4365254
  73.7675045  49.4751062   6.0198654  73.0826083  49.8549964   5.4695687
  73.8518894  50.0846389   6.7530601  69.0687514  40.5772409  13.9416732
  68.8248446  41.3314470  13.4051007  69.3447444  40.9557757  14.7763979
  71.0225977  47.1211021  12.6193997  71.2342872  47.7642781  11.9428378
  70.9755725  46.2873338  12.1515927  68.6252206  39.7328842   9.5230569
  67.7636685  40.0310096   9.8147307  68.6514640  39.9499241   8.5911602
  65.4413775  48.2771033   5.9304375  65.9052121  48.5558736   5.1408997
  65.1770573  47.3754477   5.7477466  62.3337856  47.8242514   8.8684138
  62.9039213  48.2529783   8.2301623  62.9245968  47.5425099   9.5668324
  64.3782661  44.3994185   2.7393940  65.0806704  44.8515229   3.2067866
  64.0463290  43.7578004   3.3673833  62.8263023  42.9905942  17.1145149
  62.1961683  43.6722223  17.3480546  62.7199111  42.8789023  16.1698288
  58.1207995  42.6577738   8.0411074  57.3307049  42.9135266   7.5651184
  58.6119242  43.4726076   8.1463114  72.1371805  49.9982977  10.7916354
  72.9589248  49.5963164  10.5099036  72.1334207  49.8951211  11.7432470
  60.0722740  43.0222317   4.9994550  59.2753904  43.1341011   5.5178046
  59.8448333  43.3608969   4.1335441  65.9028408  49.5467020  12.9477065
  65.9672841  50.0087427  13.7835237  65.1939332  48.9164385  13.0759375
  56.4045698  42.9108228  10.4726064  56.6553736  43.7955238  10.7383640
  56.9405246  42.7312830   9.7001156  80.2277798  46.3421725   7.1401326
  79.4741506  45.7729123   6.9845330  80.3625339  46.3084390   8.0871961
  65.6176426  51.2135128   2.8156045  65.4822101  52.0586663   3.2440893
  66.1586238  51.4154405   2.0521979  62.1043765  37.2926708  19.4770401
  61.7110711  36.7392906  20.1518045  62.9209906  37.6037286  19.8676918
  59.0705823  48.7310566   3.3883970  59.5830344  49.5253816   3.5389535
  59.7228536  48.0336856   3.3217572  60.8800708  51.8476322   5.4706724
  61.0567336  52.7694287   5.2827707  61.6757541  51.5334741   5.9001103
  65.0211726  38.7084587  17.0690657  65.7621440  39.3091740  16.9895120
  65.2529649  37.9662224  16.5108700  60.1653064  43.8940954  15.3468887
  60.0506579  42.9926211  15.6475986  59.3097582  44.1404651  14.9953703
  67.2444902  51.8358694  16.9456387  66.8008756  51.0495073  16.6277292
  67.9062116  52.0237845  16.2800278  62.0032023  53.3654496  11.4717066
  62.5539448  53.2371559  10.6994060  61.1643499  53.6649385  11.1211959
  69.3426140  52.1161494  14.9737789  69.3244616  52.9370375  14.4818058
  70.2646060  51.9915569  15.1987930  65.7999194  49.6305624  15.8161297
  66.3327531  48.8693912  15.5860605  65.2713275  49.3379275  16.5585451
  68.9668889  34.7365690  11.3454939  68.6233159  35.6267331  11.2694049
  69.3347852  34.5467347  10.4824524  57.0354740  47.0599220   4.1643541
  57.8729962  47.4696228   3.9477249  57.2133008  46.1198662   4.1343735
  68.9319172  44.7274301  -0.1472626  68.4165795  45.4978905   0.0915761
  68.6596480  44.0539437   0.4760435  66.5166283  39.5724001   4.9112612
  65.6607879  39.1830852   4.7318251  66.9293235  39.6515962   4.0512398
  68.0465430  37.1070345   9.3104172  67.5430225  37.0700480   8.4971977
  68.3396037  38.0163087   9.3700829  64.2908316  37.1909074   8.3170354
  65.1561312  36.9951883   7.9576243  64.3585824  36.9619426   9.2439710
  73.9053446  47.4806655   1.7880547  73.1282889  47.1417815   1.3435709
  74.5844927  47.4859278   1.1135512  68.7205475  42.6001393   1.6787155
  68.4155611  42.9147542   2.5297298  69.6735917  42.6782813   1.7214488
  67.1651907  48.7591616   3.3280109  66.6373269  48.0244376   3.0153346
  66.6639410  49.5366292   3.0820077  72.1444753  46.9540637   8.4447155
  71.4868427  47.6439898   8.5327284  72.9485152  47.3437068   8.7881142
  61.8970635  39.4211282   5.6886721  62.4714387  39.1986464   4.9559914
  62.4841617  39.4899977   6.4415322  70.9550212  45.3085009   6.4951097
  71.4682094  45.9415001   6.9972807  71.6051436  44.7086205   6.1294457
  62.2240222  41.4515743  -0.2917394  61.3877534  41.7890430   0.0291881
  62.0844991  41.3164723  -1.2290257  64.1993302  36.2952531   4.4161790
  63.5457715  35.9801548   3.7918405  64.1573776  35.6728272   5.1421613
  65.3104507  46.5771826  -3.6684918  64.4031569  46.3461080  -3.4693769
  65.8075539  45.7809446  -3.4810936  68.2172586  55.2869334  -0.7488232
  67.5434285  55.5901030  -0.1403274  68.6038408  56.0898414  -1.0982775
  67.4331043  42.7834465   8.7409438  66.5153604  43.0049412   8.5831126
  67.8491186  42.8580775   7.8821145  68.2166090  44.1825880   3.8712118
  68.9637909  44.6947278   3.5619240  68.4857680  43.8609933   4.7316511
  66.4892741  46.6784421   0.8539072  65.5803960  46.3943454   0.9511542
  66.5187824  47.0983500  -0.0057621  71.7212008  50.2891011   4.6230240
  71.2674335  49.4481921   4.6795430  71.0905975  50.9252409   4.9605020
  70.6644928  41.2182997   5.8530907  69.9267684  40.7060383   6.1841150
  70.9171701  40.7783378   5.0414184  70.1644947  52.1267507   5.5580058
  70.4567922  52.6872564   4.8392423  70.6743568  52.4196068   6.3133217
  70.7656555  33.9959249   6.4472676  71.0715432  33.1356612   6.1598592
  71.4909160  34.5876869   6.2471670  57.0580911  44.3989935   4.8354274
  56.8605311  43.8059296   4.1105341  56.5027575  44.0942146   5.5530213
  65.0377635  44.2913042   6.9548868  65.0926244  43.3386878   6.8791344
  64.2268837  44.4472481   7.4390166  66.1868828  48.2193165  -1.8072849
  65.7488258  47.5029024  -2.2667212  66.9279269  48.4469280  -2.3687758
  62.9769995  42.9090102   4.7139246  62.1637860  43.2084272   5.1204439
  63.4728989  42.5145790   5.4313729  65.1278572  52.9047858   6.6473511
  65.0854751  53.1308705   5.7182043  66.0441271  52.6711233   6.7959312
  68.5744206  43.3731926  13.5454140  68.9293594  43.6003399  14.4048606
  69.2216338  43.7050303  12.9231396  74.3041943  46.4950362   4.2503469
  74.1659842  46.6851958   3.3224659  73.9478162  47.2569745   4.7071520
  62.4684069  40.4808457  10.3300481  63.1083449  40.3397216   9.6323445
  61.6361600  40.1942970   9.9539083  74.3311323  48.5626889   9.2614741
  74.7647830  48.4702178  10.1097795  75.0442904  48.5384389   8.6234757
  63.2444373  49.7810887   6.4435474  64.0384972  49.2861208   6.2418049
  62.5336066  49.2528751   6.0803179  68.0639218  52.1628983  10.7947841
  68.1176240  52.7319919  11.5625557  67.1953999  52.3330868  10.4301879
  59.5527137  43.9253969   2.5195226  58.6224725  43.8638425   2.7365189
  59.6484609  43.4029922   1.7231868  59.4712686  40.4508782   5.1073468
  59.7319503  41.3654115   4.9982629  60.2929858  39.9833225   5.2570081
  60.9437611  41.8646539  12.2772293  61.6160665  41.6563901  11.6284942
  60.1167398  41.6668625  11.8377525  75.1926872  48.6050590  11.7947626
  75.3862762  49.5096400  12.0406901  75.0927491  48.1458009  12.6286211
  66.8463183  38.4908480  14.2937954  66.1991098  39.1898430  14.2002430
  67.6164199  38.9244624  14.6614202  70.2541981  48.7557332  17.3688507
  70.1027487  48.5267884  16.4518591  70.2446661  49.7127934  17.3819852
  67.0227317  46.3289245  12.3534773  67.9519377  46.4800405  12.1803741
  66.6018348  46.4173266  11.4983420  65.8215649  50.3539909  10.1233311
  65.6826735  49.9858694  10.9959249  65.0330245  50.8687549   9.9517269
  66.4163801  55.4549006   1.4658847  66.5915557  54.9837049   2.2804470
  65.7296589  56.0814772   1.6940108  67.3720864  49.7321512   7.5122149
  67.0370697  49.6922282   8.4079799  66.8724810  49.0666228   7.0392559
  61.3465108  45.1389142  13.0374730  61.2084906  44.4069381  13.6386269
  62.2570032  45.0498042  12.7558918  70.3080056  47.0777547  -2.2140792
  69.6909227  46.3524375  -2.3107739  69.8396545  47.8386907  -2.5573717
  63.9747409  44.8509102  12.5258409  64.6847028  44.2102294  12.4845028
  63.9316717  45.1021996  13.4484590  71.9634188  51.7876455  15.4464989
  71.9046734  51.1035675  14.7795572  72.3653706  52.5295445  14.9945615
  62.6876343  41.8374319  14.3454049  62.1513700  41.3865058  14.9975645
  62.0993051  41.9720228  13.6024513  60.9824887  58.6038369   8.2398708
  61.2221485  59.2356893   8.9177726  60.1394083  58.2526409   8.5264067
  71.9651595  49.7516039  13.6778968  71.0778374  49.4141961  13.8005367
  72.5350146  49.0199070  13.9147734  53.6180742  46.0840131   7.0022020
  54.3051782  45.7701861   6.4143035  53.4628871  46.9881495   6.7289271
  58.4215464  40.9730327  11.4307043  58.3373653  40.3655997  10.6957453
  57.5998171  41.4639345  11.4316540  65.4952748  54.4117491  10.6440212
  65.4222920  55.2172463  11.1559516  65.0530141  54.6109457   9.8188233
  65.2842528  53.6489261   4.1543033  64.5010050  54.1910941   4.2481258
  65.9835273  54.1663241   4.5537274  68.5939178  39.4583891   6.7977239
  69.0907878  38.7053853   6.4778309  67.8226160  39.4948207   6.2320448
  76.4468936  45.1624256   8.4395530  76.4358812  46.0448972   8.0689463
  75.5786315  44.8095807   8.2450067  67.9551432  54.3104325  12.7998370
  68.6679404  54.9451790  12.7274272  67.4641461  54.4068191  11.9838372
  69.6768959  48.2155578   4.3715662  68.7425238  48.3357040   4.2020366
  69.8545627  47.3128045   4.1075672  65.1774147  41.6001274   6.5248923
  64.8071934  41.0472314   7.2129829  65.6733239  40.9959407   5.9723923
  73.0641510  44.0572897   4.9065696  73.5301962  44.8900889   4.8325999
  73.5149011  43.5917879   5.6110955  63.0063345  52.0598769  13.6203941
  63.7072805  52.6935252  13.7733335  62.5358460  52.4013500  12.8599580
  71.1317741  50.4016718   1.9051848  71.4077585  50.2873313   2.8145722
  70.2622240  50.0034203   1.8664021  71.0358173  36.4253484   8.9456597
  70.1221253  36.6557711   9.1138804  71.4651274  36.5091928   9.7970630
  70.8064631  44.6143376  11.4456491  70.1536082  44.8619284  10.7908944
  71.1845011  43.8007514  11.1118969  67.7671805  54.6503069   5.5484662
  67.9494200  53.8324725   6.0112414  68.5904791  54.8670762   5.1109552
  68.1013971  53.5771254   2.8099710  68.6301737  53.0663709   2.1969872
  68.3642190  53.2613785   3.6745243  66.8552204  45.3563187  17.9322528
  66.1792841  45.2557316  18.6024904  67.6779838  45.2002401  18.3958526
  58.6031064  51.5935124  10.5535044  59.1884500  50.8478812  10.6862948
  58.4055902  51.9039080  11.4371708  61.4569719  54.6286371   5.5697486
  60.7880094  55.1132499   5.0861526  61.3182588  54.8755592   6.4840865
  53.1948718  44.1640724   9.2739487  53.2332818  43.6304315  10.0676605
  52.6889011  43.6375929   8.6550464  65.5974987  56.6630115  12.1680144
  66.1493295  56.8261736  12.9329230  65.9381181  57.2534552  11.4960169
  60.5739481  39.0105264  12.7702029  60.6380807  39.8720095  12.3579427
  60.5106601  38.3979266  12.0374388  60.0491753  41.0828397  16.4175063
  60.6763792  40.7005474  17.0312588  59.1919672  40.8642599  16.7830756
  70.4485862  51.4891372  18.0228799  70.9925766  52.1021330  17.5283754
  69.8672706  52.0470951  18.5395812  56.8257296  42.8904826   2.3493418
  57.1210737  41.9815504   2.2960472  55.9245332  42.8692566   2.0274421
  68.7343375  54.6112090   9.1543827  68.6094514  53.8101830   8.6454772
  69.3922466  55.1058284   8.6657797  60.3551543  40.9660823   8.3320967
  59.6338129  41.5796790   8.1928440  61.1444799  41.5018587   8.2537613
  70.7978283  52.4121110  10.7823377  69.8508619  52.2926461  10.7101703
  71.1461056  51.5243608  10.8649638  63.1577856  38.3015249  14.6061619
  63.6812258  38.5477546  15.3687928  62.9390190  39.1335284  14.1864756
  58.5545137  40.5718924   2.4732743  58.2257844  39.6916303   2.2907849
  58.9084508  40.5166592   3.3609133  67.8024716  52.2073826   6.9827729
  67.6549679  51.2790534   7.1635299  68.6278210  52.2293917   6.4984804
  61.6686961  40.8591894   2.8408221  62.0083033  41.3877815   2.1186829
  62.1159081  41.1972300   3.6166788  71.4058838  53.0302385   8.0692602
  72.3305386  52.8245247   7.9317053  71.2374141  52.7818786   8.9781943
  64.3630401  39.2428944  12.2911289  64.0227222  38.4436757  12.6931969
  63.6569408  39.5430655  11.7188122  65.0146873  36.3278257  10.7438612
  65.8372943  35.8538735  10.6217502  65.2584937  37.1068740  11.2437298
  63.6555108  39.3566515   1.0401514  64.3763470  39.7347768   0.5365231
  63.0320412  40.0755392   1.1436492  67.7986231  40.0611664   1.9759846
  68.0149845  40.9436302   1.6748674  67.3180298  39.6697877   1.2465488
  62.5385452  43.0197377   8.5530591  62.3930033  43.3337680   9.4454872
  62.0610656  43.6382278   8.0001489  64.3981835  40.0099925   8.6011480
  64.3843404  39.1141019   8.2643778  65.1154263  40.0170589   9.2349766
  66.2507966  40.4437265  10.6464608  65.9925743  41.3654336  10.6448938
  65.7193006  40.0467700  11.3365072  71.1954154  53.5488053   3.4254693
  71.3691032  52.9834475   2.6728546  71.6883046  54.3488948   3.2434183
  57.0131114  45.5602722  11.4918252  56.4684582  46.3362530  11.6238526
  57.8910464  45.9073526  11.3337373  63.8018731  38.8914306   3.8699050
  63.9234642  37.9630952   4.0689938  63.5120773  38.9052992   2.9577366
  66.6709921  36.5769216   7.0065770  66.6931618  36.6408549   6.0517750
  67.0877980  35.7373725   7.2006276  77.0493545  46.3124476   5.0444993
  77.4924692  45.5631801   4.6464116  76.1720056  46.3034612   4.6618725
  72.1829327  52.8654817   0.5251591  72.8780231  53.4861510   0.7438906
  72.5252477  52.0150168   0.8003969  57.7997136  44.6872618  14.3848409
  57.0578872  44.8355253  14.9713039  57.4789880  44.9480884  13.5215158
  74.0820750  50.3154523   2.0538922  74.6072074  50.6541795   1.3288242
  73.9943102  49.3801538   1.8702057  65.7440799  54.2288596  14.1828799
  66.0527925  53.9837743  15.0551498  66.5416281  54.4335235  13.6947669
  65.7661411  56.3826506   6.4134175  65.3266401  55.8902885   7.1067032
  66.5169528  55.8399473   6.1726251  58.2453750  52.5738047   6.4158803
  59.0711770  52.2741819   6.0357447  57.8947802  51.8045669   6.8648592
  63.2135283  51.9264515   8.4856477  62.5915292  51.2635220   8.1858705
  63.8840150  51.9525647   7.8030125  56.4462355  50.4924373   7.3747737
  55.6094263  50.0646548   7.1931738  56.4186000  50.6856816   8.3118528
  63.2859810  40.4046303  18.0788983  63.3347966  41.2808426  17.6966753
  63.8282325  39.8623696  17.5060626  73.7714656  50.9487426  17.3590120
  72.9810200  50.9311565  16.8194620  73.5348011  51.4875720  18.1139157
  73.8912531  47.7979893  14.6722849  73.9410536  47.6329900  15.6138371
  73.7826454  46.9307152  14.2820729  62.7748790  50.4768438   1.9614938
  62.9236910  51.1603903   1.3081610  63.5815233  50.4573528   2.4764393
  71.1816293  43.7810821  15.9882155  72.0826156  43.6417285  15.6966153
  71.2564268  43.9465275  16.9280333  65.5159099  41.1577675  14.8335342
  64.6462408  41.4511241  14.5617930  65.7518579  41.7418120  15.5542605
  75.3930728  50.2176834  14.9164870  75.1015536  50.5806815  15.7528331
  74.7802859  49.5043842  14.7378202  76.5926410  47.7829714   7.4367440
  77.4273302  48.2219518   7.6005001  76.7285539  47.3068367   6.6175686
  73.6417916  45.3409449  13.3844928  74.1172038  45.5337095  12.5763780
  72.7183481  45.3968635  13.1388312  60.5301423  46.5033616   2.9676007
  60.2847465  45.5995946   3.1656217  60.6997337  46.5050766   2.0255485
  68.2198133  37.3757292  12.3500762  68.7380076  38.1118319  12.0247251
  67.8653265  37.6821286  13.1847521  59.7997070  42.2361973   0.4662168
  59.1066315  42.3106328  -0.1897796  59.5548822  41.4722317   0.9883685
  68.4710727  33.7957575   7.8701659  68.7512481  33.1280764   8.4962085
  69.2561334  33.9886670   7.3576323  66.2744195  52.9716569  -0.5673315
  65.7018162  53.5906756  -1.0202843  66.8476989  53.5215930  -0.0333393
  72.3419585  42.2175209  11.6173234  73.2937008  42.3173306  11.6385458
  72.1723036  41.4253477  12.1271318  70.3633965  39.3030792  11.8032635
  69.7683897  39.5835805  11.1079123  70.0783661  39.7924693  12.5749376
  69.4941455  53.2553719   0.5635267  70.4272128  53.1899281   0.7668143
  69.4064668  54.0909986   0.1049800  72.1229472  52.5719589  -2.4760785
  72.0443103  52.2379453  -1.5825027  72.9439139  53.0641357  -2.4769313
  74.8207663  45.4381328  10.7315533  74.7883983  44.4997329  10.9175217
  75.4308287  45.5165365   9.9981358  66.6590994  44.3077381  -3.2257262
  67.6050098  44.1783590  -3.1568844  66.2805239  43.5692043  -2.7487834
  74.9702151  42.2292372  10.7773817  74.4541200  41.4450829  10.5903746
  75.8542100  41.9011089  10.9420336  72.6312878  35.9733387   6.7369629
  72.4337699  35.6648476   7.6212961  73.2412584  36.6995026   6.8667559
  80.6384213  46.4997335   9.8721570  81.3687601  46.2382623  10.4329274
  80.0291158  45.7626057   9.9123638  78.7199510  44.6405198  10.4696021
  77.9932673  44.5061163   9.8612513  78.3046797  44.9482027  11.2752740
  66.5429686  48.3595128  18.2343394  67.4632696  48.5373727  18.4283441
  66.5079269  47.4151173  18.0823094  55.7611851  43.5533721   7.1596669
  55.4414636  42.6999029   6.8671043  55.2145279  43.7682299   7.9154636
  59.5391759  46.2696162  10.8766176  59.7577769  47.2013270  10.8954209
  59.9517533  45.9104137  11.6620979  66.4595977  36.7764248   2.8641864
  65.6496705  36.4311333   3.2397110  67.1480394  36.4671791   3.4529476
  68.3886525  35.8542294   4.4866161  68.9417564  36.2737748   5.1456184
  68.6256611  34.9278042   4.5289117  64.4119624  41.8429368  20.2668925
  64.3116351  42.7923725  20.1981016  64.1941166  41.5147607  19.3944995
  55.6300111  47.1736633   9.1289791  54.9363583  46.7590586   8.6159745
  56.3773102  47.2157169   8.5323210  71.7665332  37.9642820   3.9944825
  71.1864001  38.6227624   3.6122877  71.5001265  37.1420164   3.5832242
  70.2168898  37.3647877   6.1966145  70.7168677  37.4764412   5.3880464
  70.8604506  37.0608930   6.8366954  64.2750894  45.2726507  19.0833986
  63.7917976  46.0726867  19.2897875  64.3611833  45.2834452  18.1301430
  57.5436854  47.1054887   7.0055806  57.5207542  47.2042574   6.0537689
  57.8537490  47.9520037   7.3272972  60.2024232  49.1631042  11.1202420
  61.1567485  49.1314984  11.0532352  60.0036755  48.7021665  11.9352646
  60.7923614  47.7332158  13.6873218  61.6116503  48.2276236  13.7108055
  61.0660422  46.8164126  13.6590785  70.5490210  40.1242910   3.0501173
  69.6616065  40.4092561   2.8321368  70.9644199  39.9636673   2.2028450
  73.9004746  40.1489431   6.7655512  74.6765136  40.6385883   7.0380129
  73.1752880  40.5747485   7.2227382  76.3377305  40.8617050   7.8229453
  76.9321796  40.6212786   7.1122761  76.4103889  40.1424181   8.4502989
  58.5574460  54.7050661   8.1372618  58.4228928  53.9451062   7.5710616
  58.1406523  55.4291561   7.6701407  69.6933424  49.8887585  -2.8550807
  70.3969274  50.0937587  -2.2393151  68.9696072  50.4564346  -2.5901723
  70.5231234  45.6397446   3.2651463  70.4666435  46.0965997   2.4259096
  71.0759576  44.8788130   3.0874306  74.3336040  41.4287178   4.0901583
  74.0772974  41.0283813   4.9209791  73.7088908  42.1430972   3.9651722
  78.6448378  44.1683251   6.5972874  78.0847936  44.2376440   7.3704436
  78.0391881  43.9924236   5.8772371  61.7143586  55.6019978   8.3491061
  61.5975971  56.5465411   8.2469751  60.8936033  55.2993540   8.7376860
  71.6020121  50.3270114  -0.8052347  72.4365725  49.8951312  -0.9874872
  71.4404464  50.1552127   0.1224548  71.2566013  46.8302227   0.5603993
  71.2014817  46.6646499  -0.3807563  70.6312068  47.5378260   0.7166182
  56.0458528  42.0670291  14.3865415  56.6917392  41.5569245  14.8752640
  55.8375679  42.8038973  14.9608840  68.5711920  49.1351139  19.8857555
  69.4403080  49.3091791  19.5244190  68.0918672  49.9545556  19.7633285
  64.5662139  36.3310336   0.1389311  64.5540808  37.2752176   0.2957582
  65.4585560  36.1480482  -0.1551228  62.7398100  56.2548240  11.5646989
  63.6425347  56.2871850  11.8813484  62.5135471  55.3248691  11.5793325
  64.4951703  55.0079227   8.2257068  63.5447334  55.0081088   8.1121440
  64.7984189  54.2611961   7.7093102  68.3814258  32.9253113   4.3935248
  67.6146654  32.3711599   4.5391930  68.7924963  32.9974981   5.2549399
  60.3856019  39.2137909  18.4840429  61.2487481  38.8574713  18.6943754
  59.8121430  38.8751803  19.1715833  80.2304396  60.8439765   9.2902830
  80.8682806  60.7246512   8.5866170  80.1125239  61.7920609   9.3490782
  77.0394102  60.7967193   9.2264355  76.7012614  60.6808258   8.3384890
  77.9083870  60.3958358   9.2065361  72.8980918  62.6502669   5.2161246
  72.3345783  62.5592606   4.4477533  72.7833313  61.8302574   5.6963738
  77.5213885  61.9502045  15.1850560  77.5102526  61.5554843  14.3131064
  77.6834525  61.2168117  15.7784332  70.4445350  64.1453861   8.0545466
  71.2366642  63.8044686   7.6391765  70.6842000  64.2548836   8.9747619
  78.4780477  66.3173637   0.5275711  77.8268456  66.9027718   0.1409724
  79.2724839  66.8479832   0.5870748  72.4036104  63.4062774   0.9262845
  73.1766980  62.8591761   0.7875721  72.7561503  64.2707024   1.1377306
  74.2421146  64.7339157  14.1329744  73.9511012  65.6384787  14.0176411
  74.8778131  64.7755684  14.8473814  75.1677353  62.1116005  10.7231104
  75.7640926  61.8872027  10.0088067  75.2252325  61.3700751  11.3256552
  74.7402382  59.5655440  -1.4418705  74.9927902  59.0436962  -2.2035242
  73.8026941  59.4021586  -1.3392022  79.7845664  58.5691219   6.3656038
  80.5708754  58.1510642   6.0146455  80.0484369  59.4737311   6.5337686
  79.9555742  64.0064069   1.0644695  79.3201575  64.0798696   1.7765599
  79.6253148  64.5957668   0.3863774  85.1854092  58.5066452   7.2689017
  85.9179264  57.9365669   7.5026846  84.4293447  58.1188052   7.7095522
  74.4598670  61.4683546   0.7605670  74.3434929  60.7928450   1.4286754
  74.5700930  60.9815920  -0.0562177  76.8030211  60.9293693   4.4652359
  76.4388419  60.4024314   5.1765280  77.6597327  60.5392162   4.2918844
  82.7079512  52.2188026  11.7283625  82.3762837  53.0883437  11.5044840
  82.1125125  51.9024310  12.4077656  76.4435698  55.9583593  -0.5386292
  76.6110101  56.8263830  -0.1715821  76.2532867  56.1210875  -1.4625003
  79.2011031  64.4200572  11.1279538  78.9011755  65.3225611  11.0195345
  78.8562091  64.1532755  11.9800691  72.6523513  60.8714369   7.1616242
  71.7274009  60.7390583   7.3693934  72.9007926  61.6508588   7.6586185
  82.6008175  56.9383112   8.8076975  81.6925053  56.8698521   8.5135736
  82.5495771  57.4155057   9.6358801  76.4224919  58.4141251   0.4460374
  76.3024544  58.8598301   1.2845855  75.7277508  58.7626568  -0.1126088
  70.0132324  60.5147642   7.9960031  70.1424705  60.7682121   8.9099443
  69.3329775  61.1075350   7.6764686  74.1831811  71.1844892   4.0950506
  74.1055841  72.1352717   4.1738986  73.5793455  70.8390765   4.7525432
  76.6749041  58.3572758  16.7511872  75.8982375  58.9166678  16.7414737
  77.3139604  58.8429541  17.2726743  84.4669822  55.1399551  10.5854849
  83.8244202  55.4332084   9.9394644  83.9624750  55.0252471  11.3908046
  82.1209985  58.8862724   1.2740708  83.0327841  59.1190111   1.0988406
  81.6119632  59.4699768   0.7115787  74.9295413  61.1658211  16.3129839
  75.6710098  61.7043255  16.0364663  74.2232399  61.7924500  16.4701391
  80.4050753  63.3087352  14.9102001  80.8134109  62.8669762  14.1656633
  79.6828015  62.7339979  15.1636194  76.7581823  58.2459958  12.2835558
  77.6043018  58.6699372  12.4270207  76.6980461  57.5893583  12.9774121
  80.7279568  63.8688542   8.6654290  80.0988430  64.0334256   7.9630358
  80.3405230  64.2830152   9.4365254  84.6068800  64.8042980   6.0198654
  83.9219838  65.1841881   5.4695687  84.6912649  65.4138307   6.7530601
  79.9081268  55.9064327  13.9416732  79.6642200  56.6606387  13.4051007
  80.1841199  56.2849674  14.7763979  81.8619731  62.4502939  12.6193997
  82.0736626  63.0934699  11.9428378  81.8149479  61.6165256  12.1515927
  79.4645960  55.0620760   9.5230569  78.6030439  55.3602013   9.8147307
  79.4908395  55.2791159   8.5911602  76.2807530  63.6062950   5.9304375
  76.7445875  63.8850653   5.1408997  76.0164328  62.7046395   5.7477466
  73.1731611  63.1534432   8.8684138  73.7432968  63.5821700   8.2301623
  73.7639722  62.8717017   9.5668324  75.2176416  59.7286103   2.7393940
  75.9200459  60.1807146   3.2067866  74.8857044  59.0869922   3.3673833
  73.6656777  58.3197859  17.1145149  73.0355438  59.0014140  17.3480546
  73.5592865  58.2080941  16.1698288  68.9601750  57.9869655   8.0411074
  68.1700804  58.2427184   7.5651184  69.4512997  58.8017993   8.1463114
  82.9765559  65.3274895  10.7916354  83.7983003  64.9255082  10.5099036
  82.9727962  65.2243129  11.7432470  70.9116495  58.3514235   4.9994550
  70.1147658  58.4632929   5.5178046  70.6842087  58.6900887   4.1335441
  76.7422163  64.8758938  12.9477065  76.8066595  65.3379345  13.7835237
  76.0333086  64.2456303  13.0759375  67.2439453  58.2400146  10.4726064
  67.4947491  59.1247156  10.7383640  67.7799001  58.0604747   9.7001156
  91.0671552  61.6713643   7.1401326  90.3135261  61.1021041   6.9845330
  91.2019093  61.6376308   8.0871961  76.4570180  66.5427045   2.8156045
  76.3215855  67.3878581   3.2440893  76.9979993  66.7446323   2.0521979
  72.9437520  52.6218625  19.4770401  72.5504465  52.0684824  20.1518045
  73.7603660  52.9329204  19.8676918  69.9099578  64.0602483   3.3883970
  70.4224098  64.8545734   3.5389535  70.5622290  63.3628774   3.3217572
  71.7194462  67.1768240   5.4706724  71.8961091  68.0986204   5.2827707
  72.5151296  66.8626659   5.9001103  75.8605481  54.0376504  17.0690657
  76.6015194  54.6383657  16.9895120  76.0923404  53.2954142  16.5108700
  71.0046819  59.2232872  15.3468887  70.8900334  58.3218129  15.6475986
  70.1491337  59.4696568  14.9953703  78.0838657  67.1650612  16.9456387
  77.6402511  66.3786990  16.6277292  78.7455870  67.3529762  16.2800278
  72.8425778  68.6946413  11.4717066  73.3933203  68.5663477  10.6994060
  72.0037254  68.9941302  11.1211959  80.1819895  67.4453412  14.9737789
  80.1638370  68.2662293  14.4818058  81.1039815  67.3207487  15.1987930
  76.6392949  64.9597541  15.8161297  77.1721286  64.1985829  15.5860605
  76.1107030  64.6671193  16.5585451  79.8062644  50.0657607  11.3454939
  79.4626913  50.9559249  11.2694049  80.1741606  49.8759265  10.4824524
  67.8748494  62.3891138   4.1643541  68.7123716  62.7988146   3.9477249
  68.0526762  61.4490580   4.1343735  79.7712927  60.0566218  -0.1472626
  79.2559550  60.8270823   0.0915761  79.4990235  59.3831354   0.4760435
  77.3560038  54.9015919   4.9112612  76.5001634  54.5122770   4.7318251
  77.7686989  54.9807880   4.0512398  78.8859184  52.4362262   9.3104172
  78.3823980  52.3992398   8.4971977  79.1789791  53.3455005   9.3700829
  75.1302070  52.5200992   8.3170354  75.9955067  52.3243801   7.9576243
  75.1979579  52.2911344   9.2439710  84.7447201  62.8098573   1.7880547
  83.9676643  62.4709732   1.3435709  85.4238682  62.8151196   1.1135512
  79.5599230  57.9293310   1.6787155  79.2549365  58.2439460   2.5297298
  80.5129672  58.0074730   1.7214488  78.0045662  64.0883534   3.3280109
  77.4767023  63.3536293   3.0153346  77.5033164  64.8658210   3.0820077
  82.9838508  62.2832554   8.4447155  82.3262182  62.9731816   8.5327284
  83.7878907  62.6728986   8.7881142  72.7364389  54.7503200   5.6886721
  73.3108141  54.5278382   4.9559914  73.3235372  54.8191895   6.4415322
  81.7943966  60.6376927   6.4951097  82.3075848  61.2706919   6.9972807
  82.4445190  60.0378122   6.1294457  73.0633976  56.7807661  -0.2917394
  72.2271288  57.1182348   0.0291881  72.9238746  56.6456641  -1.2290257
  75.0387057  51.6244449   4.4161790  74.3851469  51.3093466   3.7918405
  74.9967531  51.0020189   5.1421613  76.1498262  61.9063744  -3.6684918
  75.2425323  61.6752997  -3.4693769  76.6469294  61.1101363  -3.4810936
  78.2724797  58.1126382   8.7409438  77.3547359  58.3341329   8.5831126
  78.6884941  58.1872693   7.8821145  79.0559845  59.5117798   3.8712118
  79.8031664  60.0239195   3.5619240  79.3251435  59.1901851   4.7316511
  77.3286495  62.0076339   0.8539072  76.4197714  61.7235372   0.9511542
  77.3581579  62.4275417  -0.0057621  82.5605763  65.6182928   4.6230240
  82.1068090  64.7773838   4.6795430  81.9299729  66.2544327   4.9605020
  81.5038682  56.5474914   5.8530907  80.7661439  56.0352301   6.1841150
  81.7565456  56.1075296   5.0414184  81.0038702  67.4559425   5.5580058
  81.2961676  68.0164482   4.8392423  81.5137322  67.7487986   6.3133217
  81.6050309  49.3251166   6.4472676  81.9109186  48.4648530   6.1598592
  82.3302914  49.9168787   6.2471670  67.8974666  59.7281853   4.8354274
  67.6999065  59.1351214   4.1105341  67.3421330  59.4234063   5.5530213
  75.8771389  59.6204959   6.9548868  75.9319999  58.6678796   6.8791344
  75.0662591  59.7764399   7.4390166  77.0262583  63.5485083  -1.8072849
  76.5882013  62.8320941  -2.2667212  77.7673024  63.7761197  -2.3687758
  73.8163749  58.2382019   4.7139246  73.0031615  58.5376190   5.1204439
  74.3122743  57.8437708   5.4313729  75.9672327  68.2339776   6.6473511
  75.9248506  68.4600622   5.7182043  76.8835026  68.0003151   6.7959312
  79.4137961  58.7023844  13.5454140  79.7687349  58.9295317  14.4048606
  80.0610092  59.0342220  12.9231396  85.1435698  61.8242280   4.2503469
  85.0053596  62.0143876   3.3224659  84.7871917  62.5861662   4.7071520
  73.3077824  55.8100375  10.3300481  73.9477203  55.6689134   9.6323445
  72.4755354  55.5234888   9.9539083  85.1705077  63.8918807   9.2614741
  85.6041584  63.7994096  10.1097795  85.8836658  63.8676307   8.6234757
  74.0838128  65.1102805   6.4435474  74.8778726  64.6153125   6.2418049
  73.3729820  64.5820668   6.0803179  78.9032972  67.4920901  10.7947841
  78.9569995  68.0611837  11.5625557  78.0347754  67.6622786  10.4301879
  70.3920891  59.2545887   2.5195226  69.4618479  59.1930342   2.7365189
  70.4878363  58.7321840   1.7231868  70.3106440  55.7800700   5.1073468
  70.5713258  56.6946033   4.9982629  71.1323613  55.3125142   5.2570081
  71.7831366  57.1938457  12.2772293  72.4554419  56.9855819  11.6284942
  70.9561152  56.9960543  11.8377525  86.0320627  63.9342507  11.7947626
  86.2256517  64.8388318  12.0406901  85.9321245  63.4749926  12.6286211
  77.6856938  53.8200398  14.2937954  77.0384853  54.5190347  14.2002430
  78.4557953  54.2536542  14.6614202  81.0935736  64.0849250  17.3688507
  80.9421242  63.8559802  16.4518591  81.0840415  65.0419851  17.3819852
  77.8621072  61.6581163  12.3534773  78.7913132  61.8092322  12.1803741
  77.4412102  61.7465184  11.4983420  76.6609404  65.6831827  10.1233311
  76.5220489  65.3150612  10.9959249  75.8724000  66.1979467   9.9517269
  77.2557556  70.7840924   1.4658847  77.4309311  70.3128967   2.2804470
  76.5690344  71.4106690   1.6940108  78.2114619  65.0613430   7.5122149
  77.8764452  65.0214200   8.4079799  77.7118565  64.3958146   7.0392559
  72.1858863  60.4681060  13.0374730  72.0478661  59.7361299  13.6386269
  73.0963786  60.3789960  12.7558918  81.1473811  62.4069464  -2.2140792
  80.5302981  61.6816292  -2.3107739  80.6790299  63.1678824  -2.5573717
  74.8141164  60.1801019  12.5258409  75.5240782  59.5394211  12.4845028
  74.7710472  60.4313914  13.4484590  82.8027942  67.1168373  15.4464989
  82.7440488  66.4327593  14.7795572  83.2047461  67.8587363  14.9945615
  73.5270098  57.1666237  14.3454049  72.9907455  56.7156976  14.9975645
  72.9386806  57.3012146  13.6024513  71.8218641  73.9330286   8.2398708
  72.0615239  74.5648811   8.9177726  70.9787837  73.5818326   8.5264067
  72.9372356  56.6254888  -3.0919487  72.0601823  56.5043689  -3.4557241
  73.4130110  55.8340967  -3.3440599  82.8045349  65.0807956  13.6778968
  81.9172128  64.7433878  13.8005367  83.3743901  64.3490988  13.9147734
  64.4574497  61.4132048   7.0022020  65.1445536  61.0993778   6.4143035
  64.3022625  62.3173413   6.7289271  69.2609219  56.3022245  11.4307043
  69.1767407  55.6947914  10.6957453  68.4391925  56.7931263  11.4316540
  76.3346503  69.7409409  10.6440212  76.2616674  70.5464380  11.1559516
  75.8923896  69.9401375   9.8188233  76.1236282  68.9781179   4.1543033
  75.3403804  69.5202859   4.2481258  76.8229028  69.4955158   4.5537274
  79.4332933  54.7875808   6.7977239  79.9301632  54.0345771   6.4778309
  78.6619914  54.8240125   6.2320448  87.2862690  60.4916174   8.4395530
  87.2752566  61.3740889   8.0689463  86.4180069  60.1387725   8.2450067
  78.7945186  69.6396243  12.7998370  79.5073159  70.2743708  12.7274272
  78.3035215  69.7360109  11.9838372  80.5162713  63.5447496   4.3715662
  79.5818992  63.6648958   4.2020366  80.6939382  62.6419962   4.1075672
  76.0167901  56.9293191   6.5248923  75.6465689  56.3764232   7.2129829
  76.5126994  56.3251325   5.9723923  83.9035265  59.3864815   4.9065696
  84.3695717  60.2192806   4.8325999  84.3542765  58.9209796   5.6110955
  73.8457100  67.3890686  13.6203941  74.5466559  68.0227169  13.7733335
  73.3752215  67.7305418  12.8599580  81.9711496  65.7308636   1.9051848
  82.2471340  65.6165231   2.8145722  81.1015994  65.3326121   1.8664021
  81.8751927  51.7545402   8.9456597  80.9615007  51.9849629   9.1138804
  82.3045029  51.8383846   9.7970630  81.6458386  59.9435294  11.4456491
  80.9929836  60.1911201  10.7908944  82.0238766  59.1299432  11.1118969
  78.6065560  69.9794987   5.5484662  78.7887954  69.1616643   6.0112414
  79.4298546  70.1962679   5.1109552  78.9407725  68.9063172   2.8099710
  79.4695492  68.3955627   2.1969872  79.2035945  68.5905702   3.6745243
  77.6945959  60.6855105  17.9322528  77.0186596  60.5849234  18.6024904
  78.5173593  60.5294319  18.3958526  69.4424818  66.9227041  10.5535044
  70.0278255  66.1770729  10.6862948  69.2449656  67.2330998  11.4371708
  72.2963473  69.9578289   5.5697486  71.6273848  70.4424416   5.0861526
  72.1576343  70.2047509   6.4840865  64.0342473  59.4932642   9.2739487
  64.0726572  58.9596232  10.0676605  63.5282766  58.9667847   8.6550464
  76.4368742  71.9922032  12.1680144  76.9887050  72.1553654  12.9329230
  76.7774935  72.5826470  11.4960169  71.4133235  54.3397182  12.7702029
  71.4774562  55.2012013  12.3579427  71.3500355  53.7271184  12.0374388
  70.8885508  56.4120315  16.4175063  71.5157546  56.0297392  17.0312588
  70.0313426  56.1934517  16.7830756  81.2879616  66.8183290  18.0228799
  81.8319520  67.4313248  17.5283754  80.7066461  67.3762868  18.5395812
  67.6651050  58.2196744   2.3493418  67.9604491  57.3107422   2.2960472
  66.7639086  58.1984483   2.0274421  79.5737129  69.9404008   9.1543827
  79.4488269  69.1393748   8.6454772  80.2316220  70.4350201   8.6657797
  71.1945297  56.2952740   8.3320967  70.4731883  56.9088708   8.1928440
  71.9838553  56.8310505   8.2537613  81.6372037  67.7413028  10.7823377
  80.6902373  67.6218379  10.7101703  81.9854811  66.8535526  10.8649638
  73.9971611  53.6307167  14.6061619  74.5206013  53.8769463  15.3687928
  73.7783944  54.4627202  14.1864756  69.3938892  55.9010841   2.4732743
  69.0651598  55.0208220   2.2907849  69.7478263  55.8458510   3.3609133
  78.6418471  67.5365744   6.9827729  78.4943433  66.6082452   7.1635299
  79.4671964  67.5585835   6.4984804  72.5080715  56.1883811   2.8408221
  72.8476788  56.7169732   2.1186829  72.9552836  56.5264217   3.6166788
  82.2452593  68.3594303   8.0692602  83.1699140  68.1537164   7.9317053
  82.0767896  68.1110704   8.9781943  75.2024156  54.5720862  12.2911289
  74.8620976  53.7728675  12.6931969  74.4963162  54.8722573  11.7188122
  75.8540628  51.6570174  10.7438612  76.6766697  51.1830653  10.6217502
  76.0978691  52.4360658  11.2437298  74.4948862  54.6858433   1.0401514
  75.2157225  55.0639686   0.5365231  73.8714166  55.4047310   1.1436492
  78.6379985  55.3903582   1.9759846  78.8543599  56.2728220   1.6748674
  78.1574052  54.9989795   1.2465488  73.3779206  58.3489295   8.5530591
  73.2323787  58.6629598   9.4454872  72.9004410  58.9674195   8.0001489
  75.2375589  55.3391843   8.6011480  75.2237158  54.4432936   8.2643778
  75.9548017  55.3462507   9.2349766  77.0901720  55.7729183  10.6464608
  76.8319498  56.6946254  10.6448938  76.5586760  55.3759618  11.3365072
  82.0347909  68.8779970   3.4254693  82.2084786  68.3126393   2.6728546
  82.5276800  69.6780865   3.2434183  67.8524869  60.8894639  11.4918252
  67.3078337  61.6654447  11.6238526  68.7304218  61.2365444  11.3337373
  74.6412485  54.2206223   3.8699050  74.7628396  53.2922869   4.0689938
  74.3514528  54.2344909   2.9577366  77.5103676  51.9061134   7.0065770
  77.5325372  51.9700467   6.0517750  77.9271735  51.0665642   7.2006276
  87.8887300  61.6416393   5.0444993  88.3318446  60.8923718   4.6464116
  87.0113810  61.6326530   4.6618725  83.0223081  68.1946735   0.5251591
  83.7173986  68.8153427   0.7438906  83.3646231  67.3442086   0.8003969
  68.6390890  60.0164536  14.3848409  67.8972627  60.1647171  14.9713039
  68.3183635  60.2772801  13.5215158  84.9214504  65.6446440   2.0538922
  85.4465829  65.9833713   1.3288242  84.8336857  64.7093456   1.8702057
  76.5834553  69.5580514  14.1828799  76.8921680  69.3129661  15.0551498
  77.3810035  69.7627152  13.6947669  76.6055165  71.7118424   6.4134175
  76.1660155  71.2194802   7.1067032  77.3563282  71.1691391   6.1726251
  69.0847504  67.9029964   6.4158803  69.9105524  67.6033736   6.0357447
  68.7341556  67.1337587   6.8648592  74.0529037  67.2556433   8.4856477
  73.4309047  66.5927138   8.1858705  74.7233904  67.2817564   7.8030125
  67.2856109  65.8216291   7.3747737  66.4488018  65.3938465   7.1931738
  67.2579755  66.0148734   8.3118528  74.1253565  55.7338221  18.0788983
  74.1741720  56.6100343  17.6966753  74.6676079  55.1915614  17.5060626
  84.6108410  66.2779344  17.3590120  83.8203954  66.2603483  16.8194620
  84.3741765  66.8167638  18.1139157  84.7306286  63.1271810  14.6722849
  84.7804290  62.9621818  15.6138371  84.6220209  62.2599069  14.2820729
  73.6142544  65.8060356   1.9614938  73.7630665  66.4895820   1.3081610
  74.4208988  65.7865446   2.4764393  82.0210048  59.1102738  15.9882155
  82.9219911  58.9709203  15.6966153  82.0958022  59.2757193  16.9280333
  76.3552853  56.4869593  14.8335342  75.4856163  56.7803159  14.5617930
  76.5912334  57.0710038  15.5542605  86.2324482  65.5468752  14.9164870
  85.9409291  65.9098732  15.7528331  85.6196614  64.8335760  14.7378202
  87.4320165  63.1121632   7.4367440  88.2667056  63.5511436   7.6005001
  87.5679293  62.6360285   6.6175686  84.4811671  60.6701366  13.3844928
  84.9565792  60.8629013  12.5763780  83.5577236  60.7260552  13.1388312
  71.3695177  61.8325534   2.9676007  71.1241219  60.9287864   3.1656217
  71.5391092  61.8342684   2.0255485  79.0591887  52.7049210  12.3500762
  79.5773831  53.4410237  12.0247251  78.7047020  53.0113203  13.1847521
  70.6390825  57.5653891   0.4662168  69.9460070  57.6398246  -0.1897796
  70.3942577  56.8014235   0.9883685  79.3104481  49.1249492   7.8701659
  79.5906235  48.4572682   8.4962085  80.0955088  49.3178588   7.3576323
  77.1137950  68.3008486  -0.5673315  76.5411917  68.9198674  -1.0202843
  77.6870743  68.8507848  -0.0333393  83.1813340  57.5467126  11.6173234
  84.1330762  57.6465224  11.6385458  83.0116790  56.7545395  12.1271318
  81.2027719  54.6322710  11.8032635  80.6077651  54.9127722  11.1079123
  80.9177416  55.1216611  12.5749376  80.3335210  68.5845637   0.5635267
  81.2665883  68.5191198   0.7668143  80.2458422  69.4201903   0.1049800
  85.6601417  60.7673246  10.7315533  85.6277737  59.8289247  10.9175217
  86.2702041  60.8457283   9.9981358  77.4984748  59.6369299  -3.2257262
  78.4443853  59.5075507  -3.1568844  77.1198993  58.8983961  -2.7487834
  85.8095906  57.5584290  10.7773817  85.2934955  56.7742746  10.5903746
  86.6935854  57.2303006  10.9420336  83.4706633  51.3025305   6.7369629
  83.2731454  50.9940393   7.6212961  84.0806338  52.0286944   6.8667559
  91.4777967  61.8289253   9.8721570  92.2081356  61.5674541  10.4329274
  90.8684913  61.0917975   9.9123638  89.5593264  59.9697116  10.4696021
  88.8326428  59.8353081   9.8612513  89.1440551  60.2773944  11.2752740
  77.3823441  63.6887045  18.2343394  78.3026450  63.8665644  18.4283441
  77.3473024  62.7443091  18.0823094  75.6827665  57.5619276  -3.2902377
  74.7759121  57.2652388  -3.2139664  75.9603646  57.2649094  -4.1568091
  66.6005606  58.8825639   7.1596669  66.2808390  58.0290947   6.8671043
  66.0539034  59.0974217   7.9154636  70.3785513  61.5988080  10.8766176
  70.5971523  62.5305188  10.8954209  70.7911287  61.2396054  11.6620979
  77.2989731  52.1056165   2.8641864  76.4890459  51.7603250   3.2397110
  77.9874148  51.7963709   3.4529476  79.2280279  51.1834212   4.4866161
  79.7811318  51.6029665   5.1456184  79.4650366  50.2569960   4.5289117
  75.2513379  57.1721286  20.2668925  75.1510106  58.1215643  20.1981016
  75.0334921  56.8439525  19.3944995  74.4526450  54.4206211  -3.1490398
  75.3145614  54.7461109  -2.8894581  74.6376794  53.6337707  -3.6617332
  66.4693866  62.5028550   9.1289791  65.7757337  62.0882503   8.6159745
  67.2166857  62.5449087   8.5323210  82.6059087  53.2934737   3.9944825
  82.0257756  53.9519541   3.6122877  82.3395019  52.4712082   3.5832242
  81.0562653  52.6939795   6.1966145  81.5562431  52.8056329   5.3880464
  81.6998261  52.3900848   6.8366954  75.1144649  60.6018425  19.0833986
  74.6311730  61.4018785  19.2897875  75.2005588  60.6126369  18.1301430
  68.3830608  62.4346804   7.0055806  68.3601296  62.5334491   6.0537689
  68.6931245  63.2811955   7.3272972  71.0417986  64.4922959  11.1202420
  71.9961240  64.4606902  11.0532352  70.8430510  64.0313583  11.9352646
  71.6317368  63.0624075  13.6873218  72.4510257  63.5568154  13.7108055
  71.9054176  62.1456043  13.6590785  81.3883965  55.4534828   3.0501173
  80.5009820  55.7384478   2.8321368  81.8037954  55.2928591   2.2028450
  84.7398501  55.4781349   6.7655512  85.5158891  55.9677801   7.0380129
  84.0146635  55.9039403   7.2227382  87.1771059  56.1908968   7.8229453
  87.7715550  55.9504704   7.1122761  87.2497643  55.4716098   8.4502989
  69.3968215  70.0342579   8.1372618  69.2622683  69.2742980   7.5710616
  68.9800277  70.7583479   7.6701407  81.3624988  60.9689364   3.2651463
  81.3060190  61.4257915   2.4259096  81.9153331  60.2080048   3.0874306
  85.1729794  56.7579095   4.0901583  84.9166728  56.3575731   4.9209791
  84.5482662  57.4722889   3.9651722  89.4842132  59.4975169   6.5972874
  88.9241690  59.5668358   7.3704436  88.8785635  59.3216153   5.8772371
  72.5537341  70.9311896   8.3491061  72.4369725  71.8757328   8.2469751
  71.7329787  70.6285457   8.7376860  82.4413875  65.6562031  -0.8052347
  83.2759479  65.2243230  -0.9874872  82.2798218  65.4844045   0.1224548
  82.0959768  62.1594145   0.5603993  82.0408571  61.9938416  -0.3807563
  81.4705823  62.8670178   0.7166182  66.8852283  57.3962209  14.3865415
  67.5311146  56.8861163  14.8752640  66.6769434  58.1330891  14.9608840
  79.4105675  64.4643057  19.8857555  80.2796834  64.6383709  19.5244190
  78.9312426  65.2837473  19.7633285  75.4055893  51.6602254   0.1389311
  75.3934563  52.6044094   0.2957582  76.2979315  51.4772399  -0.1551228
  73.5791855  71.5840158  11.5646989  74.4819102  71.6163768  11.8813484
  73.3529225  70.6540609  11.5793325  75.3345457  70.3371144   8.2257068
  74.3841088  70.3373006   8.1121440  75.6377943  69.5903879   7.7093102
  79.2208012  48.2545030   4.3935248  78.4540408  47.7003517   4.5391930
  79.6318717  48.3266899   5.2549399  71.2249774  54.5429826  18.4840429
  72.0881235  54.1866631  18.6943754  70.6515184  54.2043721  19.1715833
  91.0698150  76.1731683   9.2902830  91.7076560  76.0538430   8.5866170
  90.9518993  77.1212527   9.3490782  87.8787857  76.1259111   9.2264355
  87.5406368  76.0100175   8.3384890  88.7477625  75.7250276   9.2065361
  88.3607640  77.2793962  15.1850560  88.3496281  76.8846761  14.3131064
  88.5228279  76.5460035  15.7784332  81.2839104  79.4745779   8.0545466
  82.0760396  79.1336603   7.6391765  81.5235755  79.5840754   8.9747619
  85.0814901  80.0631074  14.1329744  84.7904767  80.9676705  14.0176411
  85.7171885  80.1047602  14.8473814  86.0071108  77.4407923  10.7231104
  86.6034680  77.2163945  10.0088067  86.0646079  76.6992668  11.3256552
  93.5473266  67.5479944  11.7283625  93.2156591  68.4175355  11.5044840
  92.9518880  67.2316228  12.4077656  90.0404786  79.7492490  11.1279538
  89.7405509  80.6517529  11.0195345  89.6955846  79.4824673  11.9800691
  83.4917267  76.2006287   7.1616242  82.5667764  76.0682501   7.3693934
  83.7401681  76.9800506   7.6586185  93.4401930  72.2675030   8.8076975
  92.5318807  72.1990438   8.5135736  93.3889526  72.7446975   9.6358801
  80.8526079  75.8439560   7.9960031  80.9818460  76.0974039   8.9099443
  80.1723530  76.4367268   7.6764686  87.5142796  73.6864675  16.7511872
  86.7376130  74.2458596  16.7414737  88.1533359  74.1721458  17.2726743
  95.3063576  70.4691468  10.5854849  94.6637956  70.7624001   9.9394644
  94.8018505  70.3544389  11.3908046  85.7689168  76.4950129  16.3129839
  86.5103852  77.0335173  16.0364663  85.0626153  77.1216418  16.4701391
  91.2444508  78.6379269  14.9102001  91.6527864  78.1961680  14.1656633
  90.5221769  78.0631897  15.1636194  87.5975578  73.5751876  12.2835558
  88.4436773  73.9991290  12.4270207  87.5374215  72.9185500  12.9774121
  90.7475023  71.2356244  13.9416732  90.5035955  71.9898305  13.4051007
  91.0234953  71.6141592  14.7763979  92.7013486  77.7794857  12.6193997
  92.9130381  78.4226617  11.9428378  92.6543234  76.9457173  12.1515927
  90.3039715  70.3912677   9.5230569  89.4424194  70.6893931   9.8147307
  90.3302149  70.6083076   8.5911602  84.0125365  78.4826350   8.8684138
  84.5826722  78.9113618   8.2301623  84.6033477  78.2008934   9.5668324
  84.5050532  73.6489777  17.1145149  83.8749192  74.3306058  17.3480546
  84.3986619  73.5372859  16.1698288  79.7995504  73.3161573   8.0411074
  79.0094558  73.5719102   7.5651184  80.2906751  74.1309911   8.1463114
  81.7510249  73.6806152   4.9994550  80.9541413  73.7924847   5.5178046
  81.5235842  74.0192805   4.1335441  87.5815917  80.2050856  12.9477065
  87.6460350  80.6671263  13.7835237  86.8726841  79.5748220  13.0759375
  78.0833207  73.5692064  10.4726064  78.3341245  74.4539073  10.7383640
  78.6192755  73.3896665   9.7001156  83.7831274  67.9510543  19.4770401
  83.3898220  67.3976741  20.1518045  84.5997415  68.2621121  19.8676918
  86.6999235  69.3668422  17.0690657  87.4408949  69.9675575  16.9895120
  86.9317158  68.6246060  16.5108700  81.8440573  74.5524789  15.3468887
  81.7294088  73.6510046  15.6475986  80.9885091  74.7988486  14.9953703
  88.9232411  82.4942530  16.9456387  88.4796265  81.7078908  16.6277292
  89.5849625  82.6821680  16.2800278  83.6819532  84.0238331  11.4717066
  84.2326957  83.8955394  10.6994060  82.8431008  84.3233220  11.1211959
  91.0213649  82.7745329  14.9737789  91.0032125  83.5954211  14.4818058
  91.9433569  82.6499405  15.1987930  87.4786703  80.2889459  15.8161297
  88.0115040  79.5277747  15.5860605  86.9500784  79.9963111  16.5585451
  90.6456398  65.3949525  11.3454939  90.3020668  66.2851167  11.2694049
  91.0135361  65.2051183  10.4824524  88.1953792  70.2307837   4.9112612
  87.3395388  69.8414687   4.7318251  88.6080744  70.3099798   4.0512398
  89.7252939  67.7654180   9.3104172  89.2217734  67.7284315   8.4971977
  90.0183546  68.6746923   9.3700829  85.9695825  67.8492910   8.3170354
  86.8348821  67.6535718   7.9576243  86.0373333  67.6203262   9.2439710
  83.5758144  70.0795118   5.6886721  84.1501896  69.8570299   4.9559914
  84.1629126  70.1483812   6.4415322  85.8780811  66.9536367   4.4161790
  85.2245224  66.6385384   3.7918405  85.8361285  66.3312107   5.1421613
  89.1118552  73.4418300   8.7409438  88.1941113  73.6633247   8.5831126
  89.5278695  73.5164611   7.8821145  92.4444064  64.6543084   6.4472676
  92.7502941  63.7940448   6.1598592  93.1696669  65.2460704   6.2471670
  78.7368420  75.0573771   4.8354274  78.5392820  74.4643131   4.1105341
  78.1815084  74.7525981   5.5530213  86.7165144  74.9496877   6.9548868
  86.7713753  73.9970714   6.8791344  85.9056346  75.1056316   7.4390166
  84.6557504  73.5673937   4.7139246  83.8425369  73.8668107   5.1204439
  85.1516498  73.1729626   5.4313729  90.2531715  74.0315761  13.5454140
  90.6081103  74.2587235  14.4048606  90.9003846  74.3634138  12.9231396
  84.1471578  71.1392292  10.3300481  84.7870958  70.9981052   9.6323445
  83.3149109  70.8526806   9.9539083  81.1500195  71.1092617   5.1073468
  81.4107012  72.0237951   4.9982629  81.9717367  70.6417060   5.2570081
  82.6225120  72.5230375  12.2772293  83.2948174  72.3147737  11.6284942
  81.7954907  72.3252461  11.8377525  88.5250692  69.1492316  14.2937954
  87.8778607  69.8482265  14.2002430  89.2951708  69.5828459  14.6614202
  91.9329490  79.4141168  17.3688507  91.7814996  79.1851719  16.4518591
  91.9234170  80.3711769  17.3819852  88.7014826  76.9873080  12.3534773
  89.6306886  77.1384240  12.1803741  88.2805856  77.0757101  11.4983420
  87.5003158  81.0123745  10.1233311  87.3614244  80.6442529  10.9959249
  86.7117754  81.5271384   9.9517269  83.0252617  75.7972978  13.0374730
  82.8872415  75.0653216  13.6386269  83.9357541  75.7081878  12.7558918
  85.6534918  75.5092937  12.5258409  86.3634537  74.8686129  12.4845028
  85.6104226  75.7605832  13.4484590  93.6421697  82.4460290  15.4464989
  93.5834243  81.7619510  14.7795572  94.0441215  83.1879280  14.9945615
  84.3663852  72.4958155  14.3454049  83.8301209  72.0448893  14.9975645
  83.7780560  72.6304064  13.6024513  93.6439104  80.4099874  13.6778968
  92.7565883  80.0725796  13.8005367  94.2137655  79.6782905  13.9147734
  75.2968251  76.7423966   7.0022020  75.9839291  76.4285696   6.4143035
  75.1416380  77.6465331   6.7289271  80.1002973  71.6314162  11.4307043
  80.0161162  71.0239832  10.6957453  79.2785680  72.1223181  11.4316540
  90.2726687  70.1167726   6.7977239  90.7695387  69.3637688   6.4778309
  89.5013669  70.1532043   6.2320448  86.8561656  72.2585109   6.5248923
  86.4859443  71.7056149   7.2129829  87.3520748  71.6543242   5.9723923
  84.6850854  82.7182604  13.6203941  85.3860314  83.3519087  13.7733335
  84.2145969  83.0597336  12.8599580  92.7145682  67.0837319   8.9456597
  91.8008762  67.3141546   9.1138804  93.1438783  67.1675764   9.7970630
  92.4852140  75.2727211  11.4456491  91.8323591  75.5203119  10.7908944
  92.8632520  74.4591350  11.1118969  88.5339713  76.0147023  17.9322528
  87.8580350  75.9141152  18.6024904  89.3567347  75.8586236  18.3958526
  80.2818572  82.2518959  10.5535044  80.8672009  81.5062647  10.6862948
  80.0843411  82.5622916  11.4371708  74.8736227  74.8224559   9.2739487
  74.9120327  74.2888150  10.0676605  74.3676520  74.2959765   8.6550464
  82.2526990  69.6689100  12.7702029  82.3168316  70.5303931  12.3579427
  82.1894110  69.0563101  12.0374388  81.7279262  71.7412232  16.4175063
  82.3551301  71.3589310  17.0312588  80.8707181  71.5226434  16.7830756
  92.1273371  82.1475207  18.0228799  92.6713275  82.7605166  17.5283754
  91.5460215  82.7054786  18.5395812  78.5044805  73.5488661   2.3493418
  78.7998246  72.6399340   2.2960472  77.6032841  73.5276401   2.0274421
  82.0339052  71.6244658   8.3320967  81.3125638  72.2380626   8.1928440
  82.8232308  72.1602423   8.2537613  84.8365365  68.9599084  14.6061619
  85.3599767  69.2061381  15.3687928  84.6177699  69.7919119  14.1864756
  80.2332646  71.2302759   2.4732743  79.9045353  70.3500138   2.2907849
  80.5872017  71.1750428   3.3609133  86.0417910  69.9012780  12.2911289
  85.7014731  69.1020593  12.6931969  85.3356917  70.2014490  11.7188122
  86.6934382  66.9862092  10.7438612  87.5160452  66.5122570  10.6217502
  86.9372446  67.7652576  11.2437298  84.2172961  73.6781213   8.5530591
  84.0717542  73.9921516   9.4454872  83.7398165  74.2966113   8.0001489
  86.0769344  70.6683761   8.6011480  86.0630913  69.7724854   8.2643778
  86.7941772  70.6754424   9.2349766  87.9295475  71.1021101  10.6464608
  87.6713252  72.0238171  10.6448938  87.3980515  70.7051535  11.3365072
  78.6918623  76.2186557  11.4918252  78.1472091  76.9946365  11.6238526
  79.5697973  76.5657362  11.3337373  85.4806240  69.5498141   3.8699050
  85.6022151  68.6214787   4.0689938  85.1908282  69.5636827   2.9577366
  88.3497430  67.2353051   7.0065770  88.3719127  67.2992384   6.0517750
  88.7665489  66.3957560   7.2006276  79.4784645  75.3456453  14.3848409
  78.7366381  75.4939089  14.9713039  79.1577389  75.6064719  13.5215158
  87.4228308  84.8872432  14.1828799  87.7315434  84.6421578  15.0551498
  88.2203790  85.0919070  13.6947669  78.1249864  81.1508208   7.3747737
  77.2881772  80.7230383   7.1931738  78.0973509  81.3440652   8.3118528
  84.9647319  71.0630138  18.0788983  85.0135475  71.9392261  17.6966753
  85.5069834  70.5207531  17.5060626  95.4502165  81.6071262  17.3590120
  94.6597709  81.5895400  16.8194620  95.2135520  82.1459555  18.1139157
  95.5700040  78.4563728  14.6722849  95.6198045  78.2913735  15.6138371
  95.4613963  77.5890987  14.2820729  92.8603802  74.4394656  15.9882155
  93.7613665  74.3001121  15.6966153  92.9351777  74.6049111  16.9280333
  87.1946608  71.8161511  14.8335342  86.3249917  72.1095077  14.5617930
  87.4306088  72.4001956  15.5542605  97.0718237  80.8760669  14.9164870
  96.7803045  81.2390650  15.7528331  96.4590368  80.1627678  14.7378202
  95.3205425  75.9993284  13.3844928  95.7959547  76.1920930  12.5763780
  94.3970990  76.0552470  13.1388312  89.8985642  68.0341128  12.3500762
  90.4167585  68.7702155  12.0247251  89.5440774  68.3405121  13.1847521
  90.1498236  64.4541410   7.8701659  90.4299990  63.7864599   8.4962085
  90.9348843  64.6470506   7.3576323  94.0207094  72.8759044  11.6173234
  94.9724517  72.9757142  11.6385458  93.8510545  72.0837313  12.1271318
  92.0421474  69.9614627  11.8032635  91.4471406  70.2419640  11.1079123
  91.7571170  70.4508528  12.5749376  96.6489660  72.8876207  10.7773817
  96.1328709  72.1034664  10.5903746  97.5329609  72.5594924  10.9420336
  94.3100387  66.6317223   6.7369629  94.1125208  66.3232311   7.6212961
  94.9200093  67.3578862   6.8667559  88.2217195  79.0178963  18.2343394
  89.1420205  79.1957562  18.4283441  88.1866778  78.0735008  18.0823094
  77.4399360  74.2117557   7.1596669  77.1202145  73.3582865   6.8671043
  76.8932788  74.4266135   7.9154636  81.2179268  76.9279998  10.8766176
  81.4365278  77.8597105  10.8954209  81.6305042  76.5687972  11.6620979
  88.1383486  67.4348083   2.8641864  87.3284214  67.0895168   3.2397110
  88.8267903  67.1255627   3.4529476  90.0674034  66.5126130   4.4866161
  90.6205073  66.9321583   5.1456184  90.3044120  65.5861878   4.5289117
  86.0907133  72.5013203  20.2668925  85.9903860  73.4507560  20.1981016
  85.8728675  72.1731442  19.3944995  77.3087620  77.8320468   9.1289791
  76.6151092  77.4174421   8.6159745  78.0560611  77.8741005   8.5323210
  91.8956407  68.0231713   6.1966145  92.3956186  68.1348247   5.3880464
  92.5392015  67.7192765   6.8366954  85.9538403  75.9310342  19.0833986
  85.4705485  76.7310702  19.2897875  86.0399342  75.9418287  18.1301430
  79.2224363  77.7638722   7.0055806  79.1995051  77.8626409   6.0537689
  79.5324999  78.6103873   7.3272972  81.8811741  79.8214877  11.1202420
  82.8354994  79.7898819  11.0532352  81.6824264  79.3605501  11.9352646
  82.4711123  78.3915993  13.6873218  83.2904012  78.8860072  13.7108055
  82.7447931  77.4747961  13.6590785  77.7246037  72.7254127  14.3865415
  78.3704901  72.2153081  14.8752640  77.5163188  73.4622808  14.9608840
  90.2499429  79.7934974  19.8857555  91.1190589  79.9675627  19.5244190
  89.7706181  80.6129391  19.7633285  84.4185609  86.9132075  11.5646989
  85.3212856  86.9455686  11.8813484  84.1922980  85.9832526  11.5793325
  90.0601767  63.5836948   4.3935248  89.2934163  63.0295435   4.5391930
  90.4712472  63.6558817   5.2549399  82.0643528  69.8721744  18.4840429
  82.9274990  69.5158549  18.6943754  81.4908939  69.5335639  19.1715833
  94.6225029  83.2802461  19.4770401  94.2291974  82.7268659  20.1518045
  95.4391169  83.5913039  19.8676918  97.5392990  84.6960340  17.0690657
  98.2802703  85.2967493  16.9895120  97.7710913  83.9537977  16.5108700
  92.5673017  87.0704150  16.4175063  93.1945055  86.6881227  17.0312588
  91.7100935  86.8518352  16.7830756  95.8041074  86.3922056  18.0788983
  95.8529229  87.2684179  17.6966753  96.3463588  85.8499449  17.5060626
  96.9300888  87.8305121  20.2668925  96.8297615  88.7799478  20.1981016
  96.7122430  87.5023360  19.3944995  88.5639792  88.0546044  14.3865415
  89.2098655  87.5444998  14.8752640  88.3556943  88.7914726  14.9608840
  92.9037283  85.2013662  18.4840429  93.7668744  84.8450466  18.6943754
  92.3302693  84.8627556  19.1715833  71.9634189  28.7938577   2.1710295
  71.9046735  28.1097798   1.5040878  72.3653707  29.5357567   1.7190921
  70.4485863  28.4953495   4.7474106  70.9925767  29.1083453   4.2529060
  69.8672708  29.0533073   5.2641119  73.7714657  27.9549549   4.0835427
  72.9810201  27.9373688   3.5439926  73.5348012  28.4937842   4.8384463
  75.3930729  27.2238957   1.6410177  75.1015537  27.5868937   2.4773638
  74.7802860  26.5105965   1.4623509  68.5711922  26.1413262   6.6102862
  69.4403081  26.3153914   6.2489497  68.0918673  26.9607678   6.4878591
  80.2304397  37.8501887  -3.9851863  80.8682807  37.7308635  -4.6888523
  80.1125240  38.7982731  -3.9263911  77.0394104  37.8029316  -4.0490339
  76.7012615  37.6870380  -4.9369804  77.9083872  37.4020481  -4.0689333
  77.5213887  38.9564167   1.9095867  77.5102527  38.5616966   1.0376371
  77.6834526  38.2230240   2.5029638  70.4445351  41.1515984  -5.2209227
  71.2366643  40.8106808  -5.6362928  70.6842001  41.2610959  -4.3007074
  74.2421148  41.7401279   0.8575051  73.9511014  42.6446910   0.7421717
  74.8778132  41.7817807   1.5719120  75.1677355  39.1178128  -2.5523590
  75.7640927  38.8934150  -3.2666627  75.2252326  38.3762873  -1.9498142
  82.7079513  29.2250149  -1.5471068  82.3762838  30.0945560  -1.7709853
  82.1125127  28.9086433  -0.8677038  79.2011033  41.4262695  -2.1475155
  78.9011756  42.3287733  -2.2559348  78.8562092  41.1594878  -1.2954003
  82.6008177  33.9445235  -4.4677718  81.6925054  33.8760643  -4.7618957
  82.5495772  34.4217180  -3.6395893  74.1831813  48.1907015  -9.1804188
  74.1055842  49.1414840  -9.1015707  73.5793456  47.8452887  -8.5229261
  76.6749042  35.3634880   3.4757179  75.8982376  35.9228801   3.4660044
  77.3139605  35.8491663   3.9972049  74.9295415  38.1720334   3.0375146
  75.6710099  38.7105378   2.7609970  74.2232400  38.7986623   3.1946698
  80.4050754  40.3149474   1.6347308  80.8134110  39.8731885   0.8901940
  79.6828016  39.7402102   1.8881500  76.7581824  35.2522081  -0.9919135
  77.6043020  35.6761495  -0.8484486  76.6980462  34.5955705  -0.2980572
  80.7279569  40.8750665  -4.6100404  80.0988431  41.0396379  -5.3124336
  80.3405231  41.2892274  -3.8389439  84.6068801  41.8105103  -7.2556040
  83.9219839  42.1904004  -7.8059006  84.6912650  42.4200429  -6.5224092
  79.9081270  32.9126449   0.6662038  79.6642202  33.6668510   0.1296314
  80.1841200  33.2911797   1.5009285  81.8619732  39.4565062  -0.6560696
  82.0736628  40.0996822  -1.3326315  81.8149481  38.6227378  -1.1238766
  73.1731612  40.1596554  -4.4070555  73.7432969  40.5883823  -5.0453071
  73.7639724  39.8779139  -3.7086369  73.6656778  35.3259982   3.8390456
  73.0355439  36.0076263   4.0725853  73.5592866  35.2143064   2.8943594
  82.9765560  42.3337017  -2.4838339  83.7983004  41.9317204  -2.7655657
  82.9727963  42.2305251  -1.5322223  76.7422164  41.8821060  -0.3277628
  76.8066596  42.3441468   0.5080543  76.0333088  41.2518425  -0.1995319
  72.9437521  29.6280748   6.2015707  72.5504467  29.0746946   6.8763351
  73.7603661  29.9391326   6.5922225  71.7194464  44.1830362  -7.8047970
  71.8961092  45.1048327  -7.9926986  72.5151297  43.8688781  -7.3753590
  75.8605482  31.0438627   3.7935964  76.6015195  31.6445780   3.7140426
  76.0923405  30.3016265   3.2354006  71.0046820  36.2294994   2.0714193
  70.8900335  35.3280251   2.3721292  70.1491338  36.4758691   1.7199010
  78.0838658  44.1712734   3.6701694  77.6402512  43.3849113   3.3522599
  78.7455871  44.3591885   3.0045585  72.8425779  45.7008536  -1.8037627
  73.3933204  45.5725599  -2.5760634  72.0037255  46.0003425  -2.1542735
  80.1819896  44.4515534   1.6983095  80.1638371  45.2724415   1.2063364
  81.1039816  44.3269610   1.9233236  76.6392950  41.9659664   2.5406604
  77.1721287  41.2047952   2.3105912  76.1107031  41.6733316   3.2830758
  82.9838509  39.2894677  -4.8307538  82.3262183  39.9793938  -4.7427409
  83.7878908  39.6791109  -4.4873552  78.2724798  35.1188505  -4.5345256
  77.3547360  35.3403452  -4.6923568  78.6884942  35.1934816  -5.3933548
  82.5605764  42.6245051  -8.6524454  82.1068091  41.7835961  -8.5959263
  81.9299731  43.2606449  -8.3149673  81.0038703  44.4621548  -7.7174635
  81.2961677  45.0226605  -8.4362270  81.5137324  44.7550109  -6.9621476
  75.9672328  45.2401899  -6.6281182  75.9248507  45.4662745  -7.5572650
  76.8835027  45.0065273  -6.4795381  79.4137962  35.7085966   0.2699447
  79.7687350  35.9357439   1.1293913  80.0610093  36.0404343  -0.3523298
  85.1705079  40.8980929  -4.0139953  85.6041585  40.8056218  -3.1656899
  85.8836659  40.8738430  -4.6519937  78.9032973  44.4983023  -2.4806852
  78.9569996  45.0673960  -1.7129136  78.0347755  44.6684908  -2.8452815
  71.7831367  34.2000580  -0.9982401  72.4554420  33.9917942  -1.6469752
  70.9561153  34.0022665  -1.4377168  86.0320628  40.9404630  -1.4807067
  86.2256518  41.8450440  -1.2347792  85.9321246  40.4812049  -0.6468482
  77.6856939  30.8262520   1.0183260  77.0384854  31.5252470   0.9247737
  78.4557954  31.2598664   1.3859508  81.0935737  41.0911373   4.0933813
  80.9421243  40.8621924   3.1763897  81.0840416  42.0481974   4.1065158
  77.8621073  38.6643285  -0.9219920  78.7913133  38.8154445  -1.0950953
  77.4412103  38.7527306  -1.7771274  76.6609405  42.6893950  -3.1521382
  76.5220491  42.3212734  -2.2795444  75.8724001  43.2041589  -3.3237425
  77.2557557  47.7903046 -11.8095846  77.4309313  47.3191089 -10.9950223
  76.5690345  48.4168812 -11.5814585  78.2114620  42.0675552  -5.7632545
  77.8764453  42.0276322  -4.8674895  77.7118566  41.4020268  -6.2362134
  72.1858864  37.4743182  -0.2379964  72.0478662  36.7423421   0.3631576
  73.0963788  37.3852083  -0.5195776  74.8141165  37.1863142  -0.7496284
  75.5240783  36.5456334  -0.7909665  74.7710473  37.4376037   0.1729897
  82.8027943  44.1230495   2.1710295  82.7440490  43.4389715   1.5040878
  83.2047462  44.8649485   1.7190921  73.5270099  34.1728360   1.0699356
  72.9907456  33.7219098   1.7220952  72.9386807  34.3074269   0.3269820
  71.8218642  50.9392409  -5.0355986  72.0615240  51.5710933  -4.3576967
  70.9787839  50.5880449  -4.7490627  82.8045351  42.0870079   0.4024275
  81.9172130  41.7496001   0.5250674  83.3743902  41.3553110   0.6393040
  76.3346504  46.7471531  -2.6314482  76.2616676  47.5526503  -2.1195177
  75.8923897  46.9463497  -3.4566460  76.1236284  45.9843301  -9.1211660
  75.3403806  46.5264982  -9.0273436  76.8229029  46.5017281  -8.7217419
  78.7945188  46.6458365  -0.4756323  79.5073160  47.2805830  -0.5480422
  78.3035216  46.7422231  -1.2916321  73.8457101  44.3952809   0.3449248
  74.5466561  45.0289292   0.4978642  73.3752216  44.7367540  -0.4155113
  81.6458387  36.9497416  -1.8298202  80.9929837  37.1973324  -2.4845749
  82.0238767  36.1361555  -2.1635725  78.6065561  46.9857110  -7.7270032
  78.7887956  46.1678765  -7.2642279  79.4298547  47.2024802  -8.1645142
  78.9407727  45.9125295 -10.4654983  79.4695493  45.4017749 -11.0784821
  79.2035946  45.5967825  -9.6009450  77.6945960  37.6917227   4.6567835
  77.0186597  37.5911357   5.3270210  78.5173594  37.5356441   5.1203832
  69.4424819  43.9289164  -2.7219650  70.0278256  43.1832852  -2.5891745
  69.2449658  44.2393121  -1.8382986  72.2963474  46.9640411  -7.7057207
  71.6273850  47.4486539  -8.1893167  72.1576344  47.2109632  -6.7913829
  76.4368743  48.9984155  -1.1074549  76.9887051  49.1615776  -0.3425464
  76.7774937  49.5888593  -1.7794524  70.8885509  33.4182437   3.1420370
  71.5157548  33.0359515   3.7557894  70.0313428  33.1996639   3.5076063
  81.2879617  43.8245412   4.7474106  81.8319521  44.4375371   4.2529060
  80.7066462  44.3824991   5.2641119  79.5737130  46.9466130  -4.1210867
  79.4488270  46.1455870  -4.6299921  80.2316221  47.4412324  -4.6096897
  81.6372039  44.7475150  -2.4931317  80.6902374  44.6280502  -2.5652990
  81.9854812  43.8597649  -2.4105055  73.9971612  30.6369289   1.3306925
  74.5206014  30.8831586   2.0933235  73.7783945  31.4689324   0.9110063
  78.6418472  44.5427867  -6.2926964  78.4943434  43.6144574  -6.1119394
  79.4671966  44.5647957  -6.7769889  82.2452594  45.3656425  -5.2062092
  83.1699141  45.1599287  -5.3437641  82.0767897  45.1172827  -4.2972750
  75.2024157  31.5782985  -0.9843404  74.8620977  30.7790798  -0.5822724
  74.4963163  31.8784695  -1.5566571  77.0901721  32.7791306  -2.6290086
  76.8319499  33.7008376  -2.6305755  76.5586762  32.3821740  -1.9389621
  82.0347910  45.8842093  -9.8500000  82.2084788  45.3188515 -10.6026148
  82.5276801  46.6842988 -10.0320510  67.8524870  37.8956762  -1.7836441
  67.3078338  38.6716570  -1.6516167  68.7304220  38.2427566  -1.9417320
  68.6390892  37.0226658   1.1093715  67.8972628  37.1709294   1.6958346
  68.3183636  37.2834924   0.2460465  76.5834554  46.5642636   0.9074105
  76.8921681  46.3191783   1.7796805  77.3810036  46.7689275   0.4192976
  76.6055166  48.7180546  -6.8620518  76.1660157  48.2256925  -6.1687661
  77.3563283  48.1753514  -7.1028443  69.0847505  44.9092087  -6.8595890
  69.9105525  44.6095859  -7.2397246  68.7341557  44.1399709  -6.4106101
  74.0529039  44.2618555  -4.7898216  73.4309048  43.5989260  -5.0895988
  74.7233905  44.2879687  -5.4724569  74.1253566  32.7400343   4.8034290
  74.1741722  33.6162466   4.4212059  74.6676080  32.1977736   4.2305933
  84.6108412  43.2841466   4.0835427  83.8203955  43.2665605   3.5439926
  84.3741766  43.8229760   4.8384463  84.7306287  40.1333933   1.3968155
  84.7804292  39.9683940   2.3383678  84.6220210  39.2661192   1.0066036
  82.0210049  36.1164861   2.7127462  82.9219912  35.9771326   2.4211460
  82.0958024  36.2819316   3.6525639  76.3552855  33.4931716   1.5580648
  75.4856164  33.7865282   1.2863237  76.5912335  34.0772161   2.2787912
  86.2324484  42.5530874   1.6410177  85.9409292  42.9160855   2.4773638
  85.6196615  41.8397883   1.4623509  84.4811672  37.6763489   0.1090235
  84.9565793  37.8691135  -0.6990914  83.5577237  37.7322675  -0.1366381
  79.0591888  29.7111333  -0.9253931  79.5773832  30.4472359  -1.2507443
  78.7047021  30.0175326  -0.0907172  83.1813341  34.5529249  -1.6581460
  84.1330764  34.6527347  -1.6369235  83.0116791  33.7607518  -1.1483375
  81.2027720  31.6384832  -1.4722059  80.6077652  31.9189845  -2.1675570
  80.9177417  32.1278733  -0.7005318  85.6601419  37.7735369  -2.5439160
  85.6277739  36.8351369  -2.3579476  86.2702042  37.8519405  -3.2773335
  77.3823442  40.6949168   4.9588701  78.3026452  40.8727767   5.1528748
  77.3473025  39.7505213   4.8068400  70.3785515  38.6050203  -2.3988518
  70.5971524  39.5367310  -2.3800484  70.7911288  38.2458177  -1.6133714
  75.2513380  34.1783408   6.9914231  75.1510107  35.1277765   6.9226322
  75.0334922  33.8501647   6.1190301  75.1144650  37.6080547   5.8079293
  74.6311732  38.4080907   6.0143182  75.2005589  37.6188492   4.8546737
  71.0417987  41.4985082  -2.1552273  71.9961241  41.4669024  -2.2222342
  70.8430511  41.0375706  -1.3402047  71.6317370  40.0686198   0.4118524
  72.4510259  40.5630277   0.4353362  71.9054177  39.1518166   0.3836092
  69.3968216  47.0404701  -5.1382075  69.2622684  46.2805102  -5.7044077
  68.9800279  47.7645601  -5.6053287  72.5537342  47.9374018  -4.9263633
  72.4369726  48.8819451  -5.0284943  71.7329788  47.6347580  -4.5377834
  66.8852284  34.4024332   1.1110721  67.5311147  33.8923286   1.5997947
  66.6769435  35.1393013   1.6854147  79.4105676  41.4705179   6.6102862
  80.2796836  41.6445832   6.2489497  78.9312427  42.2899596   6.4878591
  73.5791856  48.5902280  -1.7107704  74.4819103  48.6225891  -1.3941209
  73.3529226  47.6602731  -1.6961369  75.3345458  47.3433267  -5.0497626
  74.3841089  47.3435128  -5.1633253  75.6377944  46.5966001  -5.5661591
  71.2249775  31.5491949   5.2085736  72.0881236  31.1928754   5.4189060
  70.6515185  31.2105844   5.8961140  91.0698152  53.1793805  -3.9851863
  91.7076562  53.0600553  -4.6888523  90.9518995  54.1274649  -3.9263911
  87.8787858  53.1321233  -4.0490339  87.5406370  53.0162298  -4.9369804
  88.7477626  52.7312398  -4.0689333  88.3607641  54.2856085   1.9095867
  88.3496282  53.8908883   1.0376371  88.5228280  53.5522158   2.5029638
  81.2839106  56.4807901  -5.2209227  82.0760398  56.1398726  -5.6362928
  81.5235756  56.5902876  -4.3007074  85.0814902  57.0693197   0.8575051
  84.7904768  57.9738828   0.7421717  85.7171887  57.1109724   1.5719120
  86.0071109  54.4470045  -2.5523590  86.6034681  54.2226068  -3.2666627
  86.0646081  53.7054791  -1.9498142  93.5473268  44.5542066  -1.5471068
  93.2156593  45.4237477  -1.7709853  92.9518881  44.2378350  -0.8677038
  90.0404787  56.7554612  -2.1475155  89.7405510  57.6579651  -2.2559348
  89.6955847  56.4886796  -1.2954003  83.4917269  53.2068409  -6.1138451
  82.5667765  53.0744623  -5.9060759  83.7401682  53.9862628  -5.6168509
  93.4401931  49.2737153  -4.4677718  92.5318808  49.2052561  -4.7618957
  93.3889527  49.7509097  -3.6395893  80.8526080  52.8501683  -5.2794662
  80.9818461  53.1036162  -4.3655250  80.1723531  53.4429391  -5.5990007
  87.5142797  50.6926798   3.4757179  86.7376131  51.2520718   3.4660044
  88.1533360  51.1783581   3.9972049  85.7689169  53.5012251   3.0375146
  86.5103853  54.0397295   2.7609970  85.0626155  54.1278540   3.1946698
  91.2444509  55.6441392   1.6347308  91.6527865  55.2023802   0.8901940
  90.5221770  55.0694019   1.8881500  87.5975579  50.5813999  -0.9919135
  88.4436774  51.0053412  -0.8484486  87.5374216  49.9247623  -0.2980572
  90.7475024  48.2418367   0.6662038  90.5035956  48.9960428   0.1296314
  91.0234955  48.6203715   1.5009285  92.7013487  54.7856979  -0.6560696
  92.9130382  55.4288739  -1.3326315  92.6543235  53.9519296  -1.1238766
  90.3039716  47.3974800  -3.7524124  89.4424195  47.6956054  -3.4607387
  90.3302151  47.6145199  -4.6843091  84.0125366  55.4888472  -4.4070555
  84.5826723  55.9175741  -5.0453071  84.6033478  55.2071057  -3.7086369
  84.5050533  50.6551900   3.8390456  83.8749193  51.3368180   4.0725853
  84.3986621  50.5434981   2.8943594  79.7995505  50.3223696  -5.2343620
  79.0094559  50.5781224  -5.7103509  80.2906753  51.1372034  -5.1291579
  81.7510251  50.6868275  -8.2760143  80.9541414  50.7986969  -7.7576647
  81.5235843  51.0254927  -9.1419252  87.5815918  57.2112978  -0.3277628
  87.6460351  57.6733385   0.5080543  86.8726842  56.5810343  -0.1995319
  78.0833208  50.5754186  -2.8028629  78.3341247  51.4601196  -2.5371053
  78.6192757  50.3958788  -3.5753537  83.7831276  44.9572665   6.2015707
  83.3898221  44.4038864   6.8763351  84.5997416  45.2683244   6.5922225
  86.6999237  46.3730545   3.7935964  87.4408950  46.9737698   3.7140426
  86.9317159  45.6308182   3.2354006  81.8440575  51.5586912   2.0714193
  81.7294090  50.6572169   2.3721292  80.9885092  51.8050609   1.7199010
  88.9232412  59.5004652   3.6701694  88.4796267  58.7141031   3.3522599
  89.5849626  59.6883803   3.0045585  83.6819534  61.0300454  -1.8037627
  84.2326959  60.9017517  -2.5760634  82.8431009  61.3295343  -2.1542735
  91.0213650  59.7807452   1.6983095  91.0032126  60.6016333   1.2063364
  91.9433570  59.6561527   1.9233236  87.4786705  57.2951582   2.5406604
  88.0115041  56.5339870   2.3105912  86.9500786  57.0025233   3.2830758
  89.7252940  44.7716303  -3.9650521  89.2217736  44.7346438  -4.7782716
  90.0183547  45.6809045  -3.9053865  85.9695826  44.8555032  -4.9584340
  86.8348823  44.6597841  -5.3178450  86.0373335  44.6265384  -4.0314983
  83.5758145  47.0857240  -7.5867973  84.1501897  46.8632422  -8.3194780
  84.1629127  47.1545935  -6.8339372  89.1118553  50.4480423  -4.5345256
  88.1941114  50.6695370  -4.6923568  89.5278697  50.5226733  -5.3933548
  78.7368421  52.0635893  -8.4400419  78.5392821  51.4705254  -9.1649352
  78.1815085  51.7588103  -7.7224480  86.7165145  51.9559000  -6.3205826
  86.7713755  51.0032836  -6.3963349  85.9056347  52.1118439  -5.8364527
  84.6557505  50.5736059  -8.5615447  83.8425370  50.8730230  -8.1550255
  85.1516499  50.1791748  -7.8440965  90.2531717  51.0377884   0.2699447
  90.6081104  51.2649357   1.1293913  90.9003848  51.3696261  -0.3523298
  84.1471580  48.1454415  -2.9454212  84.7870959  48.0043174  -3.6431249
  83.3149110  47.8588928  -3.3215610  81.1500196  48.1154740  -8.1681225
  81.4107013  49.0300073  -8.2772065  81.9717368  47.6479183  -8.0184612
  82.6225121  49.5292497  -0.9982401  83.2948175  49.3209859  -1.6469752
  81.7954908  49.3314583  -1.4377168  88.5250693  46.1554438   1.0183260
  87.8778608  46.8544388   0.9247737  89.2951709  46.5890582   1.3859508
  91.9329491  56.4203290   4.0933813  91.7814998  56.1913842   3.1763897
  91.9234171  57.3773892   4.1065158  88.7014828  53.9935203  -0.9219920
  89.6306888  54.1446363  -1.0950953  88.2805858  54.0819224  -1.7771274
  87.5003160  58.0185867  -3.1521382  87.3614245  57.6504652  -2.2795444
  86.7117756  58.5333507  -3.3237425  83.0252619  52.8035100  -0.2379964
  82.8872417  52.0715339   0.3631576  83.9357542  52.7144000  -0.5195776
  85.6534919  52.5155059  -0.7496284  86.3634538  51.8748252  -0.7909665
  85.6104227  52.7667954   0.1729897  93.6421698  59.4522413   2.1710295
  93.5834244  58.7681633   1.5040878  94.0441216  60.1941403   1.7190921
  84.3663853  49.5020277   1.0699356  83.8301210  49.0511016   1.7220952
  83.7780562  49.6366186   0.3269820  93.6439105  57.4161997   0.4024275
  92.7565884  57.0787919   0.5250674  94.2137656  56.6845028   0.6393040
  75.2968252  53.7486088  -6.2732674  75.9839292  53.4347819  -6.8611658
  75.1416381  54.6527453  -6.5465422  80.1002974  48.6376285  -1.8447650
  80.0161163  48.0301955  -2.5797240  79.2785681  49.1285303  -1.8438154
  86.8561657  49.2647232  -6.7505770  86.4859445  48.7118272  -6.0624865
  87.3520750  48.6605365  -7.3030770  84.6850856  59.7244727   0.3449248
  85.3860315  60.3581210   0.4978642  84.2145971  60.0659458  -0.4155113
  92.4852142  52.2789334  -1.8298202  91.8323592  52.5265241  -2.4845749
  92.8632522  51.4653472  -2.1635725  88.5339715  53.0209145   4.6567835
  87.8580352  52.9203274   5.3270210  89.3567349  52.8648359   5.1203832
  80.2818574  59.2581082  -2.7219650  80.8672011  58.5124770  -2.5891745
  80.0843412  59.5685038  -1.8382986  74.8736228  51.8286682  -4.0015206
  74.9120328  51.2950273  -3.2078088  74.3676521  51.3021887  -4.6204229
  82.2526991  46.6751222  -0.5052664  82.3168317  47.5366053  -0.9175266
  82.1894111  46.0625224  -1.2380306  81.7279263  48.7474355   3.1420370
  82.3551302  48.3651432   3.7557894  80.8707182  48.5288557   3.5076063
  92.1273372  59.1537330   4.7474106  92.6713276  59.7667288   4.2529060
  91.5460217  59.7116908   5.2641119  78.5044806  50.5550784 -10.9261275
  78.7998247  49.6461462 -10.9794221  77.6032842  50.5338523 -11.2480273
  82.0339053  48.6306781  -4.9433726  81.3125639  49.2442748  -5.0826253
  82.8232309  49.1664545  -5.0217081  84.8365367  45.9661207   1.3306925
  85.3599768  46.2123504   2.0933235  84.6177700  46.7981242   0.9110063
  80.2332648  48.2364882 -10.8021950  79.9045354  47.3562261 -10.9846844
  80.5872018  48.1812550  -9.9145561  86.0417912  46.9074902  -0.9843404
  85.7014732  46.1082715  -0.5822724  85.3356918  47.2076613  -1.5566571
  86.6934383  43.9924215  -2.5316081  87.5160453  43.5184693  -2.6537191
  86.9372447  44.7714698  -2.0317395  84.2172962  50.6843335  -4.7224103
  84.0717543  50.9983638  -3.8299821  83.7398166  51.3028236  -5.2753204
  86.0769345  47.6745883  -4.6743213  86.0630914  46.7786977  -5.0110915
  86.7941773  47.6816547  -4.0404927  87.9295476  48.1083223  -2.6290086
  87.6713254  49.0300294  -2.6305755  87.3980516  47.7113658  -1.9389621
  78.6918624  53.2248680  -1.7836441  78.1472092  54.0008488  -1.6516167
  79.5697974  53.5719484  -1.9417320  79.4784646  52.3518576   1.1093715
  78.7366382  52.5001211   1.6958346  79.1577391  52.6126842   0.2460465
  87.4228309  61.8934554   0.9074105  87.7315435  61.6483701   1.7796805
  88.2203791  62.0981193   0.4192976  78.1249865  58.1570331  -5.9006956
  77.2881773  57.7292505  -6.0822955  78.0973510  58.3502774  -4.9636165
  84.9647321  48.0692261   4.8034290  85.0135476  48.9454384   4.4212059
  85.5069835  47.5269654   4.2305933  95.4502166  58.6133384   4.0835427
  94.6597710  58.5957523   3.5439926  95.2135521  59.1521678   4.8384463
  95.5700041  55.4625851   1.3968155  95.6198046  55.2975858   2.3383678
  95.4613965  54.5953110   1.0066036  92.8603804  51.4456779   2.7127462
  93.7613666  51.3063243   2.4211460  92.9351778  51.6111233   3.6525639
  87.1946609  48.8223633   1.5580648  86.3249918  49.1157199   1.2863237
  87.4306089  49.4064078   2.2787912  97.0718238  57.8822792   1.6410177
  96.7803046  58.2452773   2.4773638  96.4590369  57.1689800   1.4623509
  95.3205426  53.0055407   0.1090235  95.7959548  53.1983053  -0.6990914
  94.3970992  53.0614592  -0.1366381  89.8985643  45.0403250  -0.9253931
  90.4167587  45.7764277  -1.2507443  89.5440776  45.3467244  -0.0907172
  94.0207095  49.8821167  -1.6581460  94.9724518  49.9819264  -1.6369235
  93.8510546  49.0899435  -1.1483375  92.0421475  46.9676750  -1.4722059
  91.4471407  47.2481763  -2.1675570  91.7571172  47.4570651  -0.7005318
  88.2217197  56.0241086   4.9588701  89.1420206  56.2019685   5.1528748
  88.1866780  55.0797131   4.8068400  77.4399362  51.2179679  -6.1158024
  77.1202146  50.3644987  -6.4083650  76.8932790  51.4328257  -5.3600057
  81.2179269  53.9342120  -2.3988518  81.4365279  54.8659228  -2.3800484
  81.6305043  53.5750095  -1.6133714  86.0907134  49.5075326   6.9914231
  85.9903861  50.4569683   6.9226322  85.8728676  49.1793565   6.1190301
  77.3087622  54.8382591  -4.1464903  76.6151093  54.4236543  -4.6594948
  78.0560613  54.8803127  -4.7431484  85.9538404  52.9372465   5.8079293
  85.4705486  53.7372825   6.0143182  86.0399343  52.9480410   4.8546737
  79.2224364  54.7700844  -6.2698888  79.1995052  54.8688532  -7.2217005
  79.5325001  55.6165995  -5.9481722  81.8811742  56.8276999  -2.1552273
  82.8354995  56.7960942  -2.2222342  81.6824266  56.3667623  -1.3402047
  82.4711124  55.3978116   0.4118524  83.2904013  55.8922194   0.4353362
  82.7447932  54.4810084   0.3836092  77.7246038  49.7316249   1.1110721
  78.3704902  49.2215203   1.5997947  77.5163189  50.4684931   1.6854147
  90.2499431  56.7997097   6.6102862  91.1190590  56.9737749   6.2489497
  89.7706182  57.6191514   6.4878591  84.4185611  63.9194198  -1.7107704
  85.3212857  63.9517808  -1.3941209  84.1922981  62.9894649  -1.6961369
  82.0643529  46.8783866   5.2085736  82.9274991  46.5220671   5.4189060
  81.4908940  46.5397761   5.8961140  94.6225030  60.2864583   6.2015707
  94.2291976  59.7330782   6.8763351  95.4391170  60.5975162   6.5922225
  97.5392991  61.7022462   3.7935964  98.2802704  62.3029615   3.7140426
  97.7710914  60.9600100   3.2354006  92.5673018  64.0766273   3.1420370
  93.1945057  63.6943350   3.7557894  91.7100937  63.8580475   3.5076063
  95.8041075  63.3984179   4.8034290  95.8529231  64.2746301   4.4212059
  96.3463589  62.8561572   4.2305933  96.9300889  64.8367244   6.9914231
  96.8297616  65.7861601   6.9226322  96.7122431  64.5085483   6.1190301
  88.5639793  65.0608167   1.1110721  89.2098656  64.5507121   1.5997947
  88.3556944  65.7976849   1.6854147  92.9037284  62.2075784   5.2085736
  93.7668745  61.8512589   5.4189060  92.3302694  61.8689679   5.8961140
   4.3521510  99.9943442  73.5174790   3.5985218  99.4250840  73.3618794
   4.4869051  99.9606106  74.4645424   0.7170122 101.4351430  73.8140904
   1.5517014 101.8741234  73.9778465   0.8529251 100.9590083  72.9949150
   4.7627925 100.1519052  76.2495034   5.4931314  99.8904340  76.8102737
   4.1534871  99.4147774  76.2897102   2.8443222  98.2926914  76.8469485
   2.1176386  98.1582879  76.2385977   2.4290509  98.6003743  77.6526203
   0.4621017  94.5138766  74.2002917   1.0565508  94.2734502  73.4896225
   0.5347601  93.7945897  74.8276453   2.7692090  97.8204967  72.9746338
   2.2091648  97.8898157  73.7477900   2.1635593  97.6445952  72.2545834
   3.9306356 103.7179324  77.7228402   3.5870625 104.6080965  77.6467513
   4.2985319 103.5280981  76.8597988   5.7294022 102.9772883  72.8246140
   6.0352899 102.1170246  72.5372055   6.4546627 103.5690503  72.6245134
   3.4348194 102.7771209  74.2475122   3.7149947 102.1094398  74.8735549
   4.2198800 102.9700304  73.7349786   7.5950345 104.9547021  73.1143093
   7.3975166 104.6462110  73.9986425   8.2050051 105.6808660  73.2441023
   3.3451725 101.9066747  70.7708711   2.5784121 101.3525233  70.9165394
   3.7562430 101.9788615  71.6322863   4.3521511  77.0005564  60.2420096
   3.5985220  76.4312962  60.0864101   4.4869052  76.9668229  61.1890731
   0.7170124  78.4413553  60.5386211   1.5517015  78.8803357  60.7023771
   0.8529253  77.9652206  59.7194457   4.7627926  77.1581174  62.9740341
   5.4931315  76.8966462  63.5348044   4.1534872  76.4209896  63.0142409
   2.8443223  75.2989037  63.5714792   2.1176387  75.1645002  62.9631283
   2.4290510  75.6065865  64.3771510   0.4621018  71.5200889  60.9248223
   1.0565509  71.2796625  60.2141532   0.5347602  70.8008020  61.5521760
   2.7692091  74.8267090  59.6991645   2.2091649  74.8960279  60.4723207
   2.1635594  74.6508074  58.9791141   4.3548110  91.5023604  62.3921600
   4.9926519  91.3830351  61.6884940   4.2368952  92.4504448  62.4509553
   1.1637816  91.4551032  62.3283125   0.8256327  91.3392097  61.4403660
   2.0327584  91.0542197  62.3084131   1.6457599  92.6085884  68.2869331
   1.6346240  92.2138682  67.4149834   1.8078238  91.8751956  68.8803102
   2.6024190  96.9757476  53.6294481   1.9512170  97.5611556  53.2428495
   3.3968553  97.5063671  53.6889518   3.9089378  89.2275058  59.4674808
   4.6952467  88.8094481  59.1165225   4.1728082  90.1321150  59.6356457
   4.0799455  94.6647908  54.1663465   3.4445288  94.7382534  54.8784370
   3.7496862  95.2541507  53.4882544   9.3097805  89.1650291  60.3707787
  10.0422977  88.5949508  60.6045616   8.5537161  88.7771891  60.8114292
   0.9273925  91.5877532  57.5671129   0.5632132  91.0608153  58.2784051
   1.7841041  91.1976001  57.3937615   6.8323225  82.8771865  64.8302395
   6.5006550  83.7467276  64.6063610   6.2368839  82.5608149  65.5096426
   3.3254745  95.0784411  64.2298308   3.0255468  95.9809450  64.1214115
   2.9805805  94.8116594  65.0819461   6.7251889  87.5966951  61.9095746
   5.8168766  87.5282360  61.6154507   6.6739485  88.0738896  62.7377571
   8.5913535  85.7983390  63.6873619   7.9487915  86.0915923  63.0413414
   8.0868464  85.6836310  64.4926816   6.2453699  89.5446563  54.3759479
   7.1571555  89.7773949  54.2007176   5.7363346  90.1283607  53.8134557
   4.5294467  93.9671191  68.0120771   4.9377823  93.5253601  67.2675404
   3.8071728  93.3923818  68.2654964   0.8825537  88.9043797  65.3854328
   1.7286732  89.3283211  65.5288977   0.8224174  88.2477422  66.0792891
   4.8523281  94.5272381  61.7673060   4.2232144  94.6918095  61.0649128
   4.4648943  94.9413991  62.5384024   8.7312513  95.4626819  59.1217424
   8.0463551  95.8425720  58.5714457   8.8156362  96.0722146  59.8549372
   4.0324982  86.5648166  67.0435502   3.7885914  87.3190226  66.5069778
   4.3084912  86.9433513  67.8782749   5.9863445  93.1086778  65.7212767
   6.1980340  93.7518538  65.0447149   5.9393193  92.2749095  65.2534698
   3.5889674  85.7204599  62.6249340   2.7274153  86.0185852  62.9166077
   3.6152108  85.9374998  61.6930372   7.1009273  95.9858733  63.8935125
   7.9226716  95.5838921  63.6117806   7.0971676  95.8826968  64.8451241
  15.1915266  92.3297482  60.2420096  14.4378974  91.7604880  60.0864101
  15.3262807  92.2960146  61.1890731   0.5813894  97.2010884  55.9174816
   0.4459569  98.0462420  56.3459663   1.1223706  97.4030162  55.1540749
   2.2082370  97.8234451  70.0475158   1.7646224  97.0370829  69.7296062
   2.8699584  98.0113601  69.3819049   4.3063608  98.1037251  68.0756559
   4.2882084  98.9246132  67.5836828   5.2283528  97.9791326  68.3006700
   3.9306357  80.7241446  64.4473709   3.5870627  81.6143088  64.3712820
   4.2985320  80.5343104  63.5843294   3.8956640  90.7150057  52.9546144
   3.3803263  91.4854662  53.1934532   3.6233948  90.0415193  53.5779206
   1.4803751  85.5599758  58.0131383   0.6245347  85.1706608  57.8337021
   1.8930703  85.6391719  57.1531168   3.0102898  83.0946101  62.4122942
   2.5067693  83.0576236  61.5990748   3.3033505  84.0038844  62.4719599
   8.8690914  93.4682412  54.8899318   8.0920357  93.1293571  54.4454480
   9.5482395  93.4735035  54.2154283   3.6842943  88.5877149  54.7805925
   3.3793079  88.9023299  55.6316069   4.6373385  88.6658569  54.8233258
   2.1289375  94.7467373  56.4298879   1.6010737  94.0120132  56.1172117
   1.6276878  95.5242049  56.1838848   7.1082221  92.9416393  61.5465926
   6.4505896  93.6315655  61.6346054   7.9122620  93.3312825  61.8899912
   5.9187680  91.2960766  59.5969867   6.4319562  91.9290758  60.0991577
   6.5688904  90.6961961  59.2313227   3.1810054 101.2745090  52.3530539
   2.5071753 101.5776787  52.9615496   3.5675876 102.0774170  52.0035996
   2.3968511  88.7710221  61.8428208   1.4791072  88.9925168  61.6849896
   2.8128654  88.8456532  60.9839915   3.1803558  90.1701637  56.9730888
   3.9275377  90.6823034  56.6638010   3.4495148  89.8485690  57.8335282
   1.4530209  92.6660178  53.9557843   0.5441428  92.3819211  54.0530312
   1.4825292  93.0859256  53.0961149   6.6849476  96.2766767  57.7249010
   6.2311803  95.4357677  57.7814201   6.0543443  96.9128166  58.0623790
   5.6282396  87.2058753  58.9549678   4.8905152  86.6936140  59.2859920
   5.8809169  86.7659135  58.1432954   5.1282415  98.1143264  58.6598828
   5.4205390  98.6748321  57.9411194   5.6381036  98.4071825  59.4151987
   5.7294023  79.9835005  59.5491447   6.0352900  79.1232369  59.2617362
   6.4546628  80.5752626  59.3490441   1.1506296  94.2068921  51.2945921
   0.7125726  93.4904780  50.8351558   1.8916737  94.4345036  50.7331012
   3.5381674  89.3607683  66.6472911   3.8931062  89.5879156  67.5067376
   4.1853806  89.6926059  66.0250166   9.2679411  92.4826118  57.3522240
   9.1297310  92.6727714  56.4243429   8.9115630  93.2445501  57.8090291
   9.2948791  94.5502645  62.3633511   9.7285298  94.4577935  63.2116565
  10.0080372  94.5260146  61.7253527   3.0276686  98.1504740  63.8966612
   3.0813708  98.7195676  64.6644328   2.1591467  98.3206625  63.5320649
  10.1564340  94.5926346  64.8966397  10.3500231  95.4972157  65.1425671
  10.0564959  94.1333765  65.7304982   1.8100651  84.4784237  67.3956724
   1.1628566  85.1774186  67.3021200   2.5801667  84.9120381  67.7632972
   5.2179449  94.7433089  70.4707277   5.0664956  94.5143641  69.5537361
   5.2084129  95.7003690  70.4838622   1.9864786  92.3165002  65.4553544
   2.9156846  92.4676161  65.2822511   1.5655816  92.4049022  64.6002190
   1.3801269 101.4424763  54.5677618   1.5553025 100.9712806  55.3823240
   0.6934057 102.0690529  54.7958878   2.3358332  95.7197269  60.6140919
   2.0008165  95.6798039  61.5098569   1.8362278  95.0541985  60.1411329
   5.2717524  93.0653303  50.8877979   4.6546695  92.3400131  50.7911031
   4.8034013  93.8262663  50.5445053   6.9271656  97.7752211  68.5483759
   6.8684202  97.0911432  67.8814342   7.3291174  98.5171201  68.0964385
   6.9289063  95.7391795  66.7797739   6.0415842  95.4017717  66.9024138
   7.4987614  95.0074827  67.0166504   3.5576646  85.4459647  59.8996009
   4.0545346  84.6929610  59.5797079   2.7863628  85.4823964  59.3339218
  11.4106404  91.1500013  61.5414300  11.3996280  92.0324728  61.1708233
  10.5423783  90.7971564  61.3468837   2.9188900 100.2980082  65.9017141
   3.6316872 100.9327547  65.8293042   2.4278929 100.3943948  65.0857142
   4.6406427  94.2031334  57.4734432   3.7062706  94.3232797  57.3039137
   4.8183095  93.3003801  57.2094442   8.0278978  90.0448654  58.0084466
   8.4939430  90.8776645  57.9344769   8.4786479  89.5793635  58.7129725
   6.0955209  96.3892475  55.0070618   6.3715053  96.2749070  55.9164493
   5.2259708  95.9909960  54.9682792   5.9995641  82.4129241  62.0475368
   5.0858721  82.6433468  62.2157575   6.4288742  82.4967685  62.8989400
   5.7702099  90.6019133  64.5475262   5.1173550  90.8495040  63.8927715
   6.1482479  89.7883271  64.2137739   2.7309273 100.6378826  58.6503432
   2.9131668  99.8200482  59.1131184   3.5542259 100.8546518  58.2128322
   3.0651439  99.5647011  55.9118481   3.5939205  99.0539466  55.2988643
   3.3279658  99.2489541  56.7764014   1.8189672  91.3438944  71.0341299
   1.1430309  91.2433073  71.7043674   2.6417306  91.1878157  71.4977296
   0.5612455 102.6505871  65.2698915   1.1130763 102.8137493  66.0348000
   0.9018649 103.2410309  64.5978940   5.4123330  97.4767129  71.1247569
   5.9563234  98.0897087  70.6302524   4.8310175  98.0346707  71.6414582
   3.6980843 100.5987847  62.2562597   3.5731982  99.7977587  61.7473542
   4.3559934 101.0934040  61.7676567   5.7615751  98.3996867  63.8842147
   4.8146087  98.2802218  63.8120474   6.1098524  97.5119365  63.9668409
   2.7662184  98.1949583  60.0846499   2.6187147  97.2666290  60.2654069
   3.5915678  98.2169674  59.6003575   6.3696306  99.0178142  61.1711372
   7.2942854  98.8121003  61.0335823   6.2011610  98.7694543  62.0800714
   2.7623699  86.0487421  55.0778617   2.9787313  86.9312059  54.7767445
   2.2817766  85.6573634  54.3484259   1.2145434  86.4313022  63.7483378
   0.9563211  87.3530093  63.7467709   0.6830474  86.0343457  64.4383842
   6.1591622  99.5363809  56.5273464   6.3328500  98.9710232  55.7747316
   6.6520514 100.3364704  56.3452953   1.6347389  82.5644973  60.1084541
   1.6569086  82.6284306  59.1536520   2.0515448  81.7249481  60.3025047
  12.0131014  92.3000232  58.1463763  12.4562160  91.5507557  57.7482887
  11.1357524  92.2910369  57.7637495   7.1466795  98.8530574  53.6270362
   7.8417699  99.4737266  53.8457676   7.4889945  98.0025925  53.9022740
   9.0458218  96.3030279  55.1557693   9.5709542  96.6417552  54.4307013
   8.9580571  95.3677294  54.9720827   0.7078267 100.2164353  67.2847569
   1.0165393  99.9713500  68.1570269   1.5053749 100.4210991  66.7966439
   8.7352124  96.9363183  70.4608891   7.9447668  96.9187322  69.9213390
   8.4985479  97.4751476  71.2157927   8.8549999  93.7855649  67.7741619
   8.9048004  93.6205657  68.7157142   8.7463922  92.9182908  67.3839500
   6.1453761  89.7686577  69.0900926   7.0463624  89.6293042  68.7984924
   6.2201736  89.9341032  70.0299103  10.3568196  96.2052591  68.0183641
  10.0653004  96.5682571  68.8547102   9.7440327  95.4919599  67.8396973
  11.5563878  93.7705470  60.5386211  12.3910770  94.2095275  60.7023771
  11.6923007  93.2944124  59.7194457   8.6055384  91.3285205  66.4863699
   9.0809506  91.5212852  65.6782550   7.6820950  91.3844391  66.2407082
   3.1835601  83.3633049  65.4519532   3.7017544  84.0994076  65.1266021
   2.8290733  83.6697042  66.2866292   3.4348195  79.7833331  60.9720429
   3.7149949  79.1156520  61.5980856   4.2198802  79.9762427  60.4595093
   1.2381663  98.9592325  52.5345455   0.6655630  99.5782512  52.0815927
   1.8114457  99.5091687  53.0685377   7.3057053  88.2050965  64.7192004
   8.2574476  88.3049063  64.7404228   7.1360504  87.4129234  65.2290089
   5.3271433  85.2906549  64.9051405   4.7321365  85.5711561  64.2097894
   5.0421129  85.7800450  65.6768146   4.4578923  99.2429475  53.6654038
   5.3909596  99.1775037  53.8686913   4.3702136 100.0785742  53.2068570
   7.0866940  98.5595346  50.6257985   7.0080571  98.2255209  51.5193743
   7.9076607  99.0517114  50.6249458   9.7845131  91.4257085  63.8334304
   9.7521451  90.4873086  64.0193988  10.3945755  91.5041122  63.1000129
   1.6228462  90.2953138  49.8761508   2.5687567  90.1659346  49.9449926
   1.2442707  89.5567800  50.3530936   9.9339619  88.2168128  63.8792587
   9.4178668  87.4326585  63.6922516  10.8179568  87.8886845  64.0439107
   7.5950346  81.9609144  59.8388400   7.3975167  81.6524232  60.7231732
   8.2050052  82.6870783  59.9686330  15.6021681  92.4873092  62.9740341
  16.3325069  92.2258380  63.5348044  14.9928626  91.7501814  63.0142409
  13.6836978  90.6280954  63.5714792  12.9570141  90.4936919  62.9631283
  13.2684265  90.9357783  64.3771510   1.5067154  94.3470884  71.3362165
   2.4270164  94.5249483  71.5302211   1.4716737  93.4026930  71.1841864
   1.4233445  82.7640004  55.9660634   0.6134173  82.4187089  56.3415880
   2.1117862  82.4547548  56.5548246   3.3523993  81.8418051  57.5884931
   3.9055032  82.2613504  58.2474954   3.5894079  80.9153799  57.6307887
   6.7302800  83.9518576  57.0963595   6.1501469  84.6103380  56.7141648
   6.4638733  83.1295921  56.6851013   5.1806366  83.3523634  59.2984916
   5.6806145  83.4640168  58.4899234   5.8241974  83.0484687  59.9385724
   5.5127678  86.1118666  56.1519944   4.6253533  86.3968317  55.9340138
   5.9281667  85.9512430  55.3047220   8.8642214  86.1365187  59.8674283
   9.6402604  86.6261640  60.1398900   8.1390348  86.5623242  60.3246152
  11.3014773  86.8492807  60.9248223  11.8959264  86.6088543  60.2141532
  11.3741357  86.1299937  61.5521760   4.6570892  95.8763341  50.2467964
   5.3606742  96.0813344  50.8625619   3.9333540  96.4440103  50.5117047
   5.4868702  91.6273202  56.3670234   5.4303903  92.0841754  55.5277866
   6.0397044  90.8663887  56.1893076   9.2973508  87.4162934  57.1920353
   9.0410442  87.0159570  58.0228561   8.6726376  88.1306728  57.0670492
  13.6085846  90.1559008  59.6991645  13.0485404  90.2252197  60.4723207
  13.0029349  89.9799992  58.9791141   6.5657589  96.3145870  52.2966424
   7.4003193  95.8827069  52.1143898   6.4041932  96.1427884  53.2243318
   6.2203481  92.8177984  53.6622763   6.1652285  92.6522255  52.7211207
   5.5949536  93.5254017  53.8184953   3.5349388  95.1226896  72.9876326
   4.4040548  95.2967548  72.6262961   3.0556140  95.9421312  72.8652055
   3.3451726  78.9128869  57.4954018   2.5784122  78.3587356  57.6410700
   3.7562431  78.9850738  58.3568170  15.1941864 106.8315521  62.3921600
  15.8320274 106.7122269  61.6884940  15.0762707 107.7796365  62.4509553
  12.0031570 106.7842950  62.3283125  11.6650082 106.6684014  61.4403660
  12.8721339 106.3834115  62.3084131  12.4851353 107.9377801  68.2869331
  12.4739994 107.5430600  67.4149834  12.6471993 107.2043874  68.8803102
   9.7039850 105.5531197  51.6600065   9.9565370 105.0312718  50.8983528
   8.7664409 105.3897342  51.7626749  14.7483133 104.5566975  59.4674808
  15.5346222 104.1386398  59.1165225  15.0121837 105.4613068  59.6356457
  20.1491560 104.4942209  60.3707787  20.8816732 103.9241425  60.6045616
  19.3930915 104.1063809  60.8114292  11.7667679 106.9169450  57.5671129
  11.4025887 106.3900071  58.2784051  12.6234795 106.5267919  57.3937615
  17.6716980  98.2063783  64.8302395  17.3400305  99.0759194  64.6063610
  17.0762593  97.8900067  65.5096426  11.4073166 101.9459350  52.5632478
  11.5747569 102.8139586  52.9302949  11.2170335 102.1086631  51.6393767
  17.5645643 102.9258869  61.9095746  16.6562521 102.8574277  61.6154507
  17.5133239 103.4030814  62.7377571  11.3862387 104.4017007  53.5479145
  11.2662012 104.8474058  54.3864625  10.6914976 104.7502325  52.9892683
  11.6386509 104.3448514  69.8530643  10.8619843 104.9042435  69.8433507
  12.2777072 104.8305297  70.3745513  19.4307290 101.1275307  63.6873619
  18.7881670 101.4207840  63.0413414  18.9262218 101.0128228  64.4926816
  17.0847453 104.8738480  54.3759479  17.9965309 105.1065867  54.2007176
  16.5757100 105.4575525  53.8134557  11.7219291 104.2335715  65.3854328
  12.5680486 104.6575129  65.5288977  11.6617929 103.5769339  66.0792891
  14.8718736 101.8940083  67.0435502  14.6279668 102.6482144  66.5069778
  15.1478667 102.2725431  67.8782749  16.8257199 108.4378696  65.7212767
  17.0374094 109.0810456  65.0447149  16.7786947 107.6041012  65.2534698
  14.4283428 101.0496516  62.6249340  13.5667907 101.3477770  62.9166077
  14.4545863 101.2666915  61.6930372  10.1813884 105.7161859  55.8412710
  10.8837927 106.1682903  56.3086637   9.8494512 105.0745678  56.4692604
   8.6294245 104.3073616  70.2163920   7.9992906 104.9889897  70.4499317
   8.5230333 104.1956698  69.2717058   3.9239218 103.9745412  61.1429844
   3.1338272 104.2302941  60.6669955   4.4150465 104.7893750  61.2481885
   5.8753963 104.3389991  58.1013321   5.0785126 104.4508685  58.6196816
   5.6479555 104.6776643  57.2354211  26.0309020 107.6589400  60.2420096
  25.2772729 107.0896798  60.0864101  26.1656561 107.6252064  61.1890731
   7.9074988  98.6094382  72.5789171   7.5141933  98.0560580  73.2536815
   8.7241128  98.9204960  72.9695688  10.8242949 100.0252261  70.1709427
  11.5652662 100.6259414  70.0913890  11.0560872  99.2829899  69.6127470
  14.7700112  96.0533364  64.4473709  14.4264381  96.9435005  64.3712820
  15.1379074  95.8635021  63.5843294  14.7350395 106.0441975  52.9546144
  14.2197018 106.8146580  53.1934532  14.4627703 105.3707111  53.5779206
  12.3197506 100.8891676  58.0131383  11.4639102 100.4998526  57.8337021
  12.7324457 100.9683637  57.1531168  13.8496652  98.4238019  62.4122942
  13.3461448  98.3868154  61.5990748  14.1427259  99.3330762  62.4719599
  10.0939538  98.5076749  61.4189124  10.9592535  98.3119557  61.0595014
  10.1617047  98.2787100  62.3458481  19.7084669 108.7974330  54.8899318
  18.9314111 108.4585489  54.4454480  20.3876150 108.8026953  54.2154283
  14.5236698 103.9169067  54.7805925  14.2186833 104.2315216  55.6316069
  15.4767140 103.9950487  54.8233258  17.9475976 108.2708311  61.5465926
  17.2899650 108.9607572  61.6346054  18.7516375 108.6604743  61.8899912
   7.7001857 100.7378957  58.7905491   8.2745609 100.5154138  58.0578684
   8.2872840 100.8067651  59.5434092  16.7581434 106.6252684  59.5969867
  17.2713316 107.2582675  60.0991577  17.4082658 106.0253879  59.2313227
   8.0271444 102.7683418  52.8101376   7.1908757 103.1058104  53.1310651
   7.8876214 102.6332397  51.8728513  10.0024525  97.6120206  57.5180560
   9.3488937  97.2969223  56.8937175   9.9604999  96.9895946  58.2440383
  13.2362265 104.1002139  61.8428208  12.3184827 104.3217086  61.6849896
  13.6522409 104.1748450  60.9839915  14.0197313 105.4993555  56.9730888
  14.7669132 106.0114952  56.6638010  14.2888903 105.1777607  57.8335282
  16.4676150 102.5350671  58.9549678  15.7298907 102.0228057  59.2859920
  16.7202924 102.0951053  58.1432954  16.5687777  95.3126923  59.5491447
  16.8746654  94.4524286  59.2617362  17.2940382  95.9044543  59.3490441
  10.8408857 105.6080716  60.0567638  10.8957467 104.6554552  59.9810114
  10.0300059 105.7640155  60.5408936   8.7801217 104.2257776  57.8158017
   7.9669083 104.5251946  58.2223209   9.2760211 103.8313465  58.5332499
  14.3775429 104.6899600  66.6472911  14.7324817 104.9171073  67.5067376
  15.0247560 105.0217977  66.0250166  20.1073166 107.8118036  57.3522240
  19.9691064 108.0019632  56.4243429  19.7509385 108.5737419  57.8090291
   8.2715292 101.7976131  63.4319252   8.9114671 101.6564890  62.7342215
   7.4392822 101.5110645  63.0557854  20.1342545 109.8794563  62.3633511
  20.5679052 109.7869852  63.2116565  20.8474126 109.8552064  61.7253527
   5.3558359 105.2421643  55.6213997   4.4255947 105.1806099  55.8383959
   5.4515831 104.7197596  54.8250638   5.2743908 101.7676456  58.2092238
   5.5350726 102.6821790  58.1001399   6.0961081 101.3000899  58.3588851
   6.7468834 103.1814213  65.3791063   7.4191887 102.9731576  64.7303712
   5.9198620 102.9836299  64.9396295  20.9958095 109.9218264  64.8966397
  21.1893985 110.8264074  65.1425671  20.8958713 109.4625683  65.7304982
  12.6494406  99.8076154  67.3956724  12.0022321 100.5066104  67.3021200
  13.4195421 100.2412298  67.7632972  12.8258540 107.6456919  65.4553544
  13.7550600 107.7968079  65.2822511  12.4049570 107.7340940  64.6002190
  16.1111279 108.3945221  50.8877979  15.4940449 107.6692049  50.7911031
  15.6427767 109.1554581  50.5445053   9.7778632 106.1676776  65.6277180
  10.4878250 105.5269968  65.5863798   9.7347940 106.4189671  66.5503361
   8.4907566 103.1541994  67.4472819   7.9544923 102.7032732  68.0994416
   7.9024274 103.2887903  66.7043284   7.9009824 102.6130645  50.0099283
   7.0239291 102.4919446  49.6461530   8.3767578 101.8216723  49.7578172
   4.2246687 102.2898001  64.5325814   4.1404876 101.6823671  63.7976224
   3.4029393 102.7807020  64.5335310  14.3970401 100.7751565  59.8996009
  14.8939100 100.0221527  59.5797079  13.6257382 100.8115882  59.3339218
  22.2500158 106.4791930  61.5414300  22.2390034 107.3616646  61.1708233
  21.3817537 106.1263481  61.3468837  10.9805369 102.9168948  59.6267693
  10.6103157 102.3639988  60.3148599  11.4764462 102.3127081  59.0742693
  18.8672733 105.3740571  58.0084466  19.3333185 106.2068563  57.9344769
  19.3180233 104.9085553  58.7129725  16.8389395  97.7421158  62.0475368
  15.9252475  97.9725385  62.2157575  17.2682497  97.8259602  62.8989400
  16.6095854 105.9311050  64.5475262  15.9567304 106.1786958  63.8927715
  16.9876234 105.1175189  64.2137739  12.6583427 106.6730861  71.0341299
  11.9824064 106.5724991  71.7043674  13.4811061 106.5170075  71.4977296
   6.3770703 100.3272939  65.8720800   6.4412030 101.1887770  65.4598197
   6.3137823  99.7146940  65.1393158   5.8522976 102.3996071  69.5193834
   6.4795014 102.0173149  70.1331358   4.9950894 102.1810273  69.8849526
   2.6288518 104.2072500  55.4512189   2.9241959 103.2983179  55.3979242
   1.7276554 104.1860240  55.1293191   6.1582765 102.2828497  61.4339737
   5.4369351 102.8964465  61.2947211   6.9476021 102.8186262  61.3556383
   8.9609079  99.6182923  67.7080389   9.4843481  99.8645220  68.4706698
   8.7421412 100.4502958  67.2883526   4.3576360 101.8886598  55.5751514
   4.0289066 101.0083977  55.3926620   4.7115731 101.8334267  56.4627903
   7.4718183 102.1759568  55.9426991   7.8114256 102.7045489  55.2205600
   7.9190304 102.5139974  56.7185558  10.1661624 100.5596619  65.3930060
   9.8258444  99.7604432  65.7950739   9.4600630 100.8598329  64.8206893
  10.8178096  97.6445931  63.8457383  11.6404165  97.1706409  63.7236273
  11.0616159  98.4236415  64.3456069   9.4586330 100.6734189  54.1420284
  10.1794693 101.0515442  53.6384001   8.8351634 101.3923066  54.2455262
  13.6017453 101.3779338  55.0778617  13.8181067 102.2603976  54.7767445
  13.1211520 100.9865552  54.3484259   8.3416674 104.3365052  61.6549361
   8.1961255 104.6505355  62.5473643   7.8641878 104.9549952  61.1020260
  10.2013057 101.3267600  61.7030251  10.1874626 100.4308693  61.3662549
  10.9185485 101.3338263  62.3368537  12.0539188 101.7604940  63.7483378
  11.7956966 102.6822010  63.7467709  11.5224228 101.3635374  64.4383842
   9.6049953 100.2081980  56.9717821   9.7265864  99.2798626  57.1708708
   9.3151996 100.2220666  56.0596136  12.4741144  97.8936890  60.1084541
  12.4962841  97.9576223  59.1536520  12.8909203  97.0541399  60.3025047
  22.8524768 107.6292150  58.1463763  23.2955914 106.8799475  57.7482887
  21.9751278 107.6202286  57.7637495   9.0891033 101.7213977  71.1807753
   9.1379188 102.5976100  70.7985523   9.6313547 101.1791370  70.6079397
  19.6943754 109.1147567  67.7741619  19.7441758 108.9497574  68.7157142
  19.5857677 108.2474826  67.3839500  16.9847516 105.0978495  69.0900926
  17.8857379 104.9584960  68.7984924  17.0595490 105.2632950  70.0299103
  11.3190321 102.4745350  67.9354112  10.4493631 102.7678916  67.6636701
  11.5549802 103.0585795  68.6561376  22.3957633 109.0997388  60.5386211
  23.2304524 109.5387192  60.7023771  22.5316762 108.6236041  59.7194457
  19.4449139 106.6577123  66.4863699  19.9203260 106.8504769  65.6782550
  18.5214704 106.7136309  66.2407082  14.0229355  98.6924967  65.4519532
  14.5411299  99.4285993  65.1266021  13.6684488  98.9988960  66.2866292
   5.6028293 103.5529648  53.5680938   4.9097538 103.6274003  52.9120974
   5.3580045 102.7889991  54.0902455  14.2741949  95.1125249  60.9720429
  14.5543703  94.4448438  61.5980856  15.0592556  95.3054345  60.4595093
  18.1450808 103.5342883  64.7192004  19.0968231 103.6340981  64.7404228
  17.9754258 102.7421152  65.2290089  16.1665187 100.6198466  64.9051405
  15.5715119 100.9003479  64.2097894  15.8814884 101.1092367  65.6768146
  20.6238885 106.7549003  63.8334304  20.5915206 105.8165003  64.0193988
  21.2339509 106.8333039  63.1000129  12.4622216 105.6245056  49.8761508
  13.4081321 105.4951264  49.9449926  12.0836461 104.8859718  50.3530936
  20.7733374 103.5460046  63.8792587  20.2572423 102.7618503  63.6922516
  21.6573322 103.2178763  64.0439107  18.4344101  97.2901062  59.8388400
  18.2368922  96.9816150  60.7231732  19.0443806  98.0162701  59.9686330
  26.4415435 107.8165010  62.9740341  27.1718824 107.5550298  63.5348044
  25.8322381 107.0793732  63.0142409  24.5230732 105.9572872  63.5714792
  23.7963896 105.8228837  62.9631283  24.1078019 106.2649701  64.3771510
  10.6465133 103.5495032  49.8116393   9.7396589 103.2528145  49.8879107
  10.9241114 103.2524850  48.9450679  12.2627199  98.0931922  55.9660634
  11.4527927  97.7479007  56.3415880  12.9511616  97.7839466  56.5548246
  14.1917747  97.1709969  57.5884931  14.7448786  97.5905422  58.2474954
  14.4287834  96.2445717  57.6307887  10.2150847 103.1597042  73.3687695
  10.1147574 104.1091399  73.2999786   9.9972389 102.8315281  72.4963765
   9.4163918 100.4081967  49.9528372  10.2783082 100.7336866  50.2124190
   9.6014262  99.6213463  49.4401438  17.5696555  99.2810494  57.0963595
  16.9895224  99.9395298  56.7141648  17.3032487  98.4587838  56.6851013
  16.0200121  98.6815551  59.2984916  16.5199899  98.7932086  58.4899234
  16.6635729  98.3776604  59.9385724  16.3521433 101.4410584  56.1519944
  15.4647288 101.7260235  55.9340138  16.7675422 101.2804348  55.3047220
  19.7035969 101.4657105  59.8674283  20.4796359 101.9553558  60.1398900
  18.9784103 101.8915159  60.3246152  22.1408527 102.1784724  60.9248223
  22.7353018 101.9380460  60.2141532  22.2135111 101.4591855  61.5521760
  16.3262456 106.9565120  56.3670234  16.2697658 107.4133672  55.5277866
  16.8790799 106.1955805  56.1893076  20.1367262 102.7454852  57.1920353
  19.8804196 102.3451488  58.0228561  19.5120130 103.4598646  57.0670492
  24.4479600 105.4850925  59.6991645  23.8879158 105.5544115  60.4723207
  23.8423103 105.3091910  58.9791141  17.0597236 108.1469901  53.6622763
  17.0046039 107.9814173  52.7211207  16.4343291 108.8545934  53.8184953
   1.8489751 103.3837966  67.4884185   2.4948614 102.8736920  67.9771410
   1.6406902 104.1206647  68.0627610  10.3693361  97.6478010  53.2408081
  10.3572031  98.5919850  53.3976352  11.2616783  97.4648156  52.9467543
  14.1845481  94.2420787  57.4954018  13.4177876  93.6879274  57.6410700
  14.5956185  94.3142656  58.3568170   6.1887242 100.5305583  71.5859199
   7.0518703 100.1742388  71.7962524   5.6152652 100.1919478  72.2734604
  25.6093866 111.3825281  64.4473709  25.2658136 112.2726923  64.3712820
  25.9772829 111.1926939  63.5843294  27.4081532 110.6418841  59.5491447
  27.7140409 109.7816204  59.2617362  28.1334137 111.2336461  59.3490441
  25.1135704 110.4417167  60.9720429  25.3937458 109.7740356  61.5980856
  25.8986311 110.6346262  60.4595093  29.2737855 112.6192979  59.8388400
  29.0762676 112.3108068  60.7231732  29.8837561 113.3454618  59.9686330
  25.0239235 109.5712705  57.4954018  24.2571631 109.0171191  57.6410700
  25.4349940 109.6434573  58.3568170   4.3521512  54.0067687  46.9665403
   3.5985221  53.4375085  46.8109407   4.4869054  53.9730351  47.9136038
   0.7170125  55.4475675  47.2631517   1.5517016  55.8865479  47.4269078
   0.8529254  54.9714329  46.4439763   4.7627928  54.1643297  49.6985647
   5.4931316  53.9028585  50.2593351   4.1534873  53.4272019  49.7387715
   2.8443225  52.3051159  50.2960098   2.1176388  52.1707124  49.6876590
   2.4290512  52.6127988  51.1016817   0.4621020  48.5263012  47.6493530
   1.0565510  48.2858748  46.9386838   0.5347603  47.8070142  48.2767066
   2.7692092  51.8329212  46.4236951   2.2091650  51.9022402  47.1968513
   2.1635596  51.6570197  45.7036448   4.3548111  68.5085726  49.1166907
   4.9926521  68.3892474  48.4130247   4.2368954  69.4566570  49.1754859
   1.1637817  68.4613155  49.0528432   0.8256329  68.3454219  48.1648967
   2.0327585  68.0604320  49.0329438   1.6457600  69.6148006  55.0114637
   1.6346241  69.2200805  54.1395141   1.8078240  68.8814079  55.6048409
   2.6024192  73.9819599  40.3539788   1.9512171  74.5673679  39.9673801
   3.3968554  74.5125794  40.4134825   3.9089379  66.2337180  46.1920115
   4.6952469  65.8156603  45.8410532   4.1728084  67.1383272  46.3601763
   4.0799457  71.6710031  40.8908772   3.4445290  71.7444657  41.6029676
   3.7496863  72.2603629  40.2127851   9.3097806  66.1712413  47.0953094
  10.0422978  65.6011630  47.3290923   8.5537162  65.7834014  47.5359599
   0.9273926  68.5939655  44.2916436   0.5632133  68.0670276  45.0029357
   1.7841042  68.2038124  44.1182921   6.8323227  59.8833988  51.5547702
   6.5006552  60.7529399  51.3308917   6.2368840  59.5670272  52.2341733
   3.3254746  72.0846534  50.9543615   3.0255469  72.9871572  50.8459422
   2.9805806  71.8178717  51.8064768   6.7251890  64.6029074  48.6341052
   5.8168767  64.5344482  48.3399813   6.6739486  65.0801019  49.4622878
   8.5913536  62.8045512  50.4118926   7.9487917  63.0978045  49.7658721
   8.0868465  62.6898432  51.2172123   6.2453700  66.5508685  41.1004785
   7.1571556  66.7836072  40.9252483   5.7363347  67.1345730  40.5379864
   4.5294468  70.9733313  54.7366078   4.9377824  70.5315724  53.9920710
   3.8071729  70.3985941  54.9900271   0.8825538  65.9105920  52.1099635
   1.7286733  66.3345333  52.2534284   0.8224176  65.2539544  52.8038198
   4.8523282  71.5334504  48.4918367   4.2232145  71.6980218  47.7894435
   4.4648945  71.9476113  49.2629331   8.7312514  72.4688942  45.8462731
   8.0463553  72.8487843  45.2959764   8.8156364  73.0784268  46.5794678
   4.0324983  63.5710288  53.7680809   3.7885915  64.3252349  53.2315084
   4.3084914  63.9495636  54.6028056   5.9863446  70.1148901  52.4458074
   6.1980341  70.7580661  51.7692455   5.9393194  69.2811217  51.9780004
   3.5889675  62.7266721  49.3494646   2.7274154  63.0247975  49.6411384
   3.6152110  62.9437120  48.4175679   7.1009274  72.9920856  50.6180431
   7.9226718  72.5901043  50.3363113   7.0971677  72.8889090  51.5696547
  15.1915267  69.3359605  46.9665403  14.4378975  68.7667003  46.8109407
  15.3262808  69.3022269  47.9136038   0.5813895  74.2073007  42.6420122
   0.4459570  75.0524543  43.0704970   1.1223708  74.4092284  41.8786056
   2.2082371  74.8296573  56.7720464   1.7646226  74.0432952  56.4541369
   2.8699585  75.0175724  56.1064355   4.3063609  75.1099373  54.8001866
   4.2882085  75.9308254  54.3082135   5.2283530  74.9853449  55.0252007
   3.9306359  57.7303569  51.1719016   3.5870628  58.6205210  51.0958126
   4.2985321  57.5405226  50.3088601   3.8956641  67.7212180  39.6791451
   3.3803265  68.4916784  39.9179838   3.6233950  67.0477316  40.3024512
   1.4803752  62.5661881  44.7376689   0.6245349  62.1768731  44.5582328
   1.8930704  62.6453841  43.8776475   3.0102899  60.1008224  49.1368249
   2.5067695  60.0638359  48.3236054   3.3033506  61.0100967  49.1964906
   8.8690915  70.4744534  41.6144624   8.0920358  70.1355694  41.1699786
   9.5482396  70.4797158  40.9399589   3.6842944  65.5939272  41.5051232
   3.3793080  65.9085421  42.3561375   4.6373387  65.6720692  41.5478565
   2.1289376  71.7529495  43.1544186   1.6010738  71.0182255  42.8417423
   1.6276879  72.5304172  42.9084154   7.1082222  69.9478516  48.2711232
   6.4505897  70.6377777  48.3591361   7.9122622  70.3374948  48.6145219
   5.9187681  68.3022888  46.3215174   6.4319563  68.9352880  46.8236884
   6.5688905  67.7024084  45.9558534   3.1810055  78.2807213  39.0775845
   2.5071754  78.5838909  39.6860803   3.5675877  79.0836293  38.7281302
   2.3968512  65.7772344  48.5673515   1.4791073  65.9987291  48.4095203
   2.8128656  65.8518654  47.7085222   3.1803560  67.1763760  43.6976195
   3.9275379  67.6885157  43.3883317   3.4495149  66.8547812  44.5580588
   1.4530210  69.6722300  40.6803149   0.5441429  69.3881333  40.7775619
   1.4825294  70.0921379  39.8206456   6.6849477  73.2828890  44.4494317
   6.2311804  72.4419800  44.5059507   6.0543444  73.9190288  44.7869097
   5.6282397  64.2120876  45.6794984   4.8905154  63.6998262  46.0105227
   5.8809170  63.7721258  44.8678261   5.1282417  75.1205387  45.3844135
   5.4205391  75.6810444  44.6656500   5.6381037  75.4133948  46.1397294
   5.7294024  56.9897128  46.2736753   6.0352901  56.1294491  45.9862669
   6.4546629  57.5814748  46.0735747   1.1506298  71.2131044  38.0191228
   0.7125728  70.4966903  37.5596865   1.8916739  71.4407159  37.4576319
   3.5381676  66.3669805  53.3718217   3.8931063  66.5941278  54.2312683
   4.1853807  66.6988182  52.7495473   9.2679413  69.4888241  44.0767546
   9.1297311  69.6789837  43.1488736   8.9115631  70.2507624  44.5335597
   9.2948792  71.5564768  49.0878818   9.7285299  71.4640057  49.9361872
  10.0080373  71.5322269  48.4498834   3.0276687  75.1566862  50.6211918
   3.0813709  75.7257799  51.3889634   2.1591468  75.3268747  50.2565956
  10.1564342  71.5988469  51.6211703  10.3500232  72.5034279  51.8670978
  10.0564960  71.1395888  52.4550288   1.8100652  61.4846359  54.1202031
   1.1628567  62.1836309  54.0266507   2.5801668  61.9182503  54.4878279
   5.2179450  71.7495212  57.1952584   5.0664957  71.5205763  56.2782668
   5.2084130  72.7065813  57.2083929   1.9864787  69.3227124  52.1798850
   2.9156847  69.4738284  52.0067818   1.5655817  69.4111145  51.3247497
   1.3801271  78.4486885  41.2922924   1.5553026  77.9774928  42.1068547
   0.6934059  79.0752651  41.5204185   2.3358334  72.7259391  47.3386226
   2.0008166  72.6860161  48.2343876   1.8362279  72.0604107  46.8656636
   5.2717525  70.0715426  37.6123285   4.6546696  69.3462254  37.5156338
   4.8034014  70.8324786  37.2690360   6.9271657  74.7814334  55.2729066
   6.8684203  74.0973554  54.6059649   7.3291175  75.5233324  54.8209692
   6.9289064  72.7453918  53.5043045   6.0415843  72.4079840  53.6269444
   7.4987615  72.0136949  53.7411811   3.5576647  62.4521770  46.6241316
   4.0545347  61.6991732  46.3042386   2.7863629  62.4886086  46.0584525
  11.4106405  68.1562135  48.2659607  11.3996281  69.0386851  47.8953540
  10.5423784  67.8033686  48.0714144   2.9188901  77.3042204  52.6262447
   3.6316873  77.9389669  52.5538349   2.4278930  77.4006070  51.8102449
   4.6406428  71.2093457  44.1979739   3.7062707  71.3294920  44.0284443
   4.8183097  70.3065924  43.9339749   8.0278979  67.0510776  44.7329773
   8.4939432  67.8838768  44.6590076   8.4786480  66.5855758  45.4375032
   6.0955211  73.3954598  41.7315925   6.3715054  73.2811192  42.6409799
   5.2259709  72.9972082  41.6928098   5.9995642  59.4191363  48.7720674
   5.0858722  59.6495590  48.9402881   6.4288744  59.5029807  49.6234707
   5.7702101  67.6081255  51.2720568   5.1173551  67.8557163  50.6173021
   6.1482481  66.7945393  50.9383046   2.7309275  77.6440948  45.3748739
   2.9131669  76.8262604  45.8376491   3.5542261  77.8608641  44.9373629
   3.0651440  76.5709134  42.6363787   3.5939206  76.0601588  42.0233949
   3.3279660  76.2551664  43.5009320   1.8189674  68.3501066  57.7586605
   1.1430311  68.2495196  58.4288981   2.6417308  68.1940280  58.2222603
   0.5612457  79.6567994  51.9944221   1.1130765  79.8199615  52.7593307
   0.9018650  80.2472432  51.3224246   5.4123331  74.4829251  57.8492876
   5.9563235  75.0959210  57.3547831   4.8310176  75.0408830  58.3659889
   3.6980844  77.6049969  48.9807904   3.5731983  76.8039709  48.4718849
   4.3559935  78.0996163  48.4921874   5.7615752  75.4058989  50.6087454
   4.8146088  75.2864341  50.5365780   6.1098525  74.5181487  50.6913715
   2.7662186  75.2011706  46.8091806   2.6187148  74.2728413  46.9899376
   3.5915679  75.2231796  46.3248881   6.3696307  76.0240264  47.8956679
   7.2942855  75.8183126  47.7581130   6.2011611  75.7756666  48.8046020
   2.7623700  63.0549543  41.8023923   2.9787314  63.9374181  41.5012751
   2.2817767  62.6635757  41.0729565   1.2145435  63.4375145  50.4728685
   0.9563213  64.3592215  50.4713015   0.6830475  63.0405579  51.1629149
   6.1591624  76.5425932  43.2518770   6.3328501  75.9772354  42.4992623
   6.6520515  77.3426827  43.0698260   1.6347390  59.5707095  46.8329847
   1.6569087  59.6346428  45.8781827   2.0515449  58.7311604  47.0270353
  12.0131015  69.3062355  44.8709070  12.4562161  68.5569680  44.4728193
  11.1357525  69.2972491  44.4882802   7.1466796  75.8592696  40.3515668
   7.8417701  76.4799389  40.5702983   7.4889946  75.0088047  40.6268046
   9.0458219  73.3092402  41.8802999   9.5709543  73.6479674  41.1552319
   8.9580572  72.3739417  41.6966134   0.7078268  77.2226475  54.0092876
   1.0165394  76.9775622  54.8815575   1.5053750  77.4273114  53.5211746
   8.7352125  73.9425305  57.1854197   7.9447669  73.9249444  56.6458697
   8.4985480  74.4813599  57.9403234   8.8550000  70.7917772  54.4986926
   8.9048005  70.6267779  55.4402448   8.7463924  69.9245031  54.1084806
   6.1453763  66.7748700  55.8146232   7.0463625  66.6355165  55.5230230
   6.2201737  66.9403155  56.7544410  10.3568197  73.2114713  54.7428947
  10.0653005  73.5744694  55.5792408   9.7440328  72.4981722  54.5642279
  11.5563879  70.7767593  47.2631517  12.3910771  71.2157397  47.4269078
  11.6923008  70.3006246  46.4439763   8.6055385  68.3347328  53.2109005
   9.0809507  68.5274974  52.4027857   7.6820951  68.3906514  52.9652389
   3.1835602  60.3695171  52.1764839   3.7017546  61.1056198  51.8511328
   2.8290735  60.6759165  53.0111598   3.4348196  56.7895454  47.6965736
   3.7149950  56.1218643  48.3226162   4.2198803  56.9824550  47.1840400
   1.2381665  75.9654448  39.2590762   0.6655632  76.5844635  38.8061234
   1.8114458  76.5153810  39.7930684   7.3057054  65.2113088  51.4437311
   8.2574477  65.3111186  51.4649535   7.1360505  64.4191357  51.9535395
   5.3271434  62.2968671  51.6296712   4.7321366  62.5773684  50.9343200
   5.0421131  62.7862572  52.4013453   4.4578924  76.2491598  40.3899344
   5.3909597  76.1837160  40.5932220   4.3702137  77.0847865  39.9313877
   7.0866941  75.5657468  37.3503292   7.0080573  75.2317332  38.2439050
   7.9076608  76.0579236  37.3494764   9.7845132  68.4319208  50.5579610
   9.7521452  67.4935208  50.7439294  10.3945756  68.5103244  49.8245435
   1.6228463  67.3015261  36.6006815   2.5687568  67.1721469  36.6695233
   1.2442708  66.5629923  37.0776243   9.9339621  65.2230251  50.6037894
   9.4178669  64.4388708  50.4167823  10.8179569  64.8948968  50.7684413
   7.5950348  58.9671267  46.5633706   7.3975169  58.6586355  47.4477038
   8.2050053  59.6932906  46.6931636  15.6021682  69.4935215  49.6985647
  16.3325071  69.2320503  50.2593351  14.9928628  68.7563936  49.7387715
  13.6836979  67.6343077  50.2960098  12.9570143  67.4999042  49.6876590
  13.2684266  67.9419906  51.1016817   1.5067156  71.3533007  58.0607472
   2.4270165  71.5311606  58.2547518   1.4716739  70.4089052  57.9087171
   1.4233446  59.7702127  42.6905941   0.6134174  59.4249212  43.0661187
   2.1117863  59.4609670  43.2793553   3.3523994  58.8480174  44.3130238
   3.9055033  59.2675627  44.9720261   3.5894081  57.9215922  44.3553194
   6.7302801  60.9580699  43.8208902   6.1501470  61.6165503  43.4386954
   6.4638734  60.1358043  43.4096319   5.1806368  60.3585756  46.0230222
   5.6806146  60.4702291  45.2144541   5.8241976  60.0546809  46.6631031
   5.5127679  63.1180789  42.8765250   4.6253534  63.4030440  42.6585445
   5.9281668  62.9574552  42.0292527   8.8642215  63.1427310  46.5919589
   9.6402606  63.6323763  46.8644206   8.1390350  63.5685364  47.0491459
  11.3014774  63.8554929  47.6493530  11.8959265  63.6150665  46.9386838
  11.3741358  63.1362060  48.2767066   4.6570893  72.8825464  36.9713270
   5.3606743  73.0875466  37.5870926   3.9333542  73.4502226  37.2362354
   5.4868703  68.6335325  43.0915540   5.4303904  69.0903876  42.2523173
   6.0397046  67.8726010  42.9138383   9.2973509  64.4225057  43.9165660
   9.0410443  64.0221693  44.7473868   8.6726377  65.1368851  43.7915799
  13.6085847  67.1621130  46.4236951  13.0485405  67.2314319  47.1968513
  13.0029350  66.9862115  45.7036448   6.5657590  73.3207993  39.0211730
   7.4003194  72.8889191  38.8389205   6.4041933  73.1490007  39.9488625
   6.2203482  69.8240106  40.3868070   6.1652286  69.6584378  39.4456514
   5.5949538  70.5316139  40.5430259   3.5349390  72.1289018  59.7121632
   4.4040549  72.3029670  59.3508267   3.0556141  72.9483435  59.5897362
   3.3451727  55.9190992  44.2199325   2.5784123  55.3649479  44.3656007
   3.7562432  55.9912861  45.0813476  15.1941865  83.8377644  49.1166907
  15.8320275  83.7184391  48.4130247  15.0762708  84.7858488  49.1754859
  12.0031572  83.7905072  49.0528432  11.6650083  83.6746137  48.1648967
  12.8721340  83.3896237  49.0329438   7.8618387  85.6440549  45.0425323
   7.2983252  85.5530486  44.2741610   7.7470782  84.8240453  45.5227815
  12.4851355  84.9439924  55.0114637  12.4739995  84.5492722  54.1395141
  12.6471994  84.2105997  55.6048409   5.4082819  87.1391740  47.8809543
   6.2004111  86.7982565  47.4655842   5.6479469  87.2486715  48.8011696
  13.4417946  89.3111516  40.3539788  12.7905926  89.8965597  39.9673801
  14.2362309  89.8417711  40.4134825   7.3673573  86.4000653  40.7526922
   8.1404449  85.8529641  40.6139798   7.7198972  87.2644903  40.9641383
   9.2058616  87.7277036  53.9593821   8.9148482  88.6322667  53.8440488
   9.8415600  87.7693563  54.6737891  10.1314823  85.1053884  50.5495181
  10.7278395  84.8809907  49.8352144  10.1889794  84.3638630  51.1520629
   9.7039851  82.5593320  38.3845372   9.9565372  82.0374841  37.6228835
   8.7664410  82.3959465  38.4872055  14.7483134  81.5629098  46.1920115
  15.5346223  81.1448521  45.8410532  15.0121838  82.4675190  46.3601763
  14.9193211  87.0001948  40.8908772  14.2839044  87.0736575  41.6029676
  14.5890618  87.5895547  40.2127851  20.1491561  81.5004331  47.0953094
  20.8816733  80.9303548  47.3290923  19.3930917  81.1125932  47.5359599
   9.4236140  84.4621426  40.5869747   9.3072398  83.7866329  41.2550831
   9.5338400  83.9753799  39.7701900  11.7667681  83.9231573  44.2916436
  11.4025888  83.3962194  45.0029357  12.6234797  83.5330042  44.1182921
  17.6716981  75.2125905  51.5547702  17.3400306  76.0821316  51.3308917
  17.0762595  74.8962189  52.2341733  11.4073168  78.9521472  39.2877785
  11.5747570  79.8201709  39.6548256  11.2170337  79.1148754  38.3639074
  14.1648501  87.4138451  50.9543615  13.8649224  88.3163490  50.8459422
  13.8199560  87.1470634  51.8064768   7.6160982  83.8652248  46.9880319
   6.6911479  83.7328462  47.1958011   7.8645395  84.6446467  47.4850262
  17.5645645  79.9320991  48.6341052  16.6562522  79.8636400  48.3399813
  17.5133240  80.4092936  49.4622878  11.3862388  81.4079130  40.2724451
  11.2662014  81.8536181  41.1109932  10.6914977  81.7564447  39.7137989
   4.9769793  83.5085522  47.8224108   5.1062174  83.7620001  48.7363520
   4.2967245  84.1013230  47.5028763   9.1469281  94.1782772  43.9214583
   9.0693310  95.1290597  44.0003063   8.5430924  93.8328644  44.5789509
  11.6386510  81.3510637  56.5775949  10.8619844  81.9104557  56.5678814
  12.2777073  81.8367420  57.0990820  19.4307291  78.1337430  50.4118926
  18.7881671  78.4269963  49.7658721  18.9262219  78.0190350  51.2172123
  17.0847455  81.8800603  41.1004785  17.9965311  82.1127990  40.9252483
  16.5757102  82.4637647  40.5379864   9.8932883  84.1596090  56.1393916
  10.6347567  84.6981134  55.8628740   9.1869868  84.7862379  56.2965468
  15.3688222  86.3025231  54.7366078  15.7771578  85.8607641  53.9920710
  14.6465484  85.7277858  54.9900271  11.7219292  81.2397838  52.1099635
  12.5680488  81.6637251  52.2534284  11.6617930  80.5831462  52.8038198
  15.6917037  86.8626421  48.4918367  15.0625899  87.0272136  47.7894435
  15.3042699  87.2768031  49.2629331  19.5706269  87.7980859  45.8462731
  18.8857307  88.1779761  45.2959764  19.6550118  88.4076186  46.5794678
  14.8718738  78.9002206  53.7680809  14.6279670  79.6544266  53.2315084
  15.1478668  79.2787554  54.6028056  16.8257200  85.4440818  52.4458074
  17.0374096  86.0872578  51.7692455  16.7786949  84.6103135  51.9780004
  14.4283429  78.0558639  49.3494646  13.5667908  78.3539893  49.6411384
  14.4545864  78.2729038  48.4175679  11.2444999  86.6000830  45.7568452
  11.7083344  86.8788533  44.9673074  10.9801797  85.6984274  45.5741543
   8.1369080  86.1472311  48.6948215   8.7070437  86.5759579  48.0565700
   8.7277192  85.8654896  49.3932401  10.1813885  82.7223982  42.5658017
  10.8837928  83.1745026  43.0331943   9.8494513  82.0807801  43.1937910
   8.6294246  81.3135739  56.9409226   7.9992907  81.9952019  57.1744623
   8.5230334  81.2018820  55.9962365   3.9239219  80.9807535  47.8675151
   3.1338273  81.2365063  47.3915261   4.4150466  81.7955872  47.9727191
  17.9403028  88.3212774  50.6180431  18.7620472  87.9192961  50.3363113
  17.9365431  88.2181008  51.5696547   5.8753964  81.3452114  44.8258627
   5.0785127  81.4570808  45.3442123   5.6479556  81.6838766  43.9599518
  11.7059632  87.8696817  52.7741142  11.7704064  88.3317224  53.6099314
  10.9970556  87.2394182  52.9023452   2.2076922  81.2338025  50.2990141
   2.4584960  82.1185035  50.5647717   2.7436470  81.0542627  49.5265233
  26.0309021  84.6651522  46.9665403  25.2772730  84.0958920  46.8109407
  26.1656563  84.6314187  47.9136038  11.4207649  89.5364925  42.6420122
  11.2853324  90.3816460  43.0704970  11.9617462  89.7384202  41.8786056
   7.9074989  75.6156504  59.3034478   7.5141935  75.0622703  59.9782122
   8.7241129  75.9267083  59.6940995   4.8737047  87.0540363  43.2148047
   5.3861567  87.8483613  43.3653612   5.5259760  86.3566653  43.1481649
   6.6831932  90.1706119  45.2970801   6.8598560  91.0924084  45.1091784
   7.4788765  89.8564538  45.7265180  10.8242950  77.0314383  56.8954734
  11.5652663  77.6321537  56.8159197  11.0560873  76.2892021  56.3372777
   5.9684288  82.2170751  55.1732964   5.8537803  81.3156008  55.4740063
   5.1128806  82.4634447  54.8217780  13.0476126  90.1588491  56.7720464
  12.6039980  89.3724870  56.4541369  13.7093339  90.3467642  56.1064355
   7.8063247  91.6884293  51.2981143   8.3570672  91.5601356  50.5258137
   6.9674723  91.9879182  50.9476036  15.1457364  90.4391291  54.8001866
  15.1275839  91.2600172  54.3082135  16.0677284  90.3145366  55.0252007
  11.6030418  87.9535420  55.6425374  12.1358755  87.1923709  55.4124682
  11.0744499  87.6609072  56.3849529  14.7700113  73.0595486  51.1719016
  14.4264382  73.9497128  51.0958126  15.1379076  72.8697144  50.3088601
   2.8385964  85.3829017  43.9907618   3.6761186  85.7926025  43.7741326
   3.0164231  84.4428459  43.9607812  14.7350396  83.0504098  39.6791451
  14.2197019  83.8208702  39.9179838  14.4627704  82.3769234  40.3024512
  12.3197507  77.8953798  44.7376689  11.4639103  77.5060649  44.5582328
  12.7324459  77.9745759  43.8776475  13.8496653  75.4300142  49.1368249
  13.3461449  75.3930277  48.3236054  14.1427260  76.3392884  49.1964906
  10.0939539  75.5138871  48.1434431  10.9592536  75.3181680  47.7840320
  10.1617048  75.2849223  49.0703788  19.7084670  85.8036452  41.6144624
  18.9314113  85.4647612  41.1699786  20.3876151  85.8089075  40.9399589
  14.5236699  80.9231190  41.5051232  14.2186835  81.2377339  42.3561375
  15.4767141  81.0012610  41.5478565  12.9683131  87.0821413  43.1544186
  12.4404492  86.3474173  42.8417423  12.4670634  87.8596089  42.9084154
  17.9475977  85.2770433  48.2711232  17.2899651  85.9669695  48.3591361
  18.7516376  85.6666865  48.6145219   7.7001858  77.7441079  45.5150798
   8.2745610  77.5216261  44.7823991   8.2872841  77.8129774  46.2679399
  16.7581436  83.6314806  46.3215174  17.2713317  84.2644798  46.8236884
  17.4082660  83.0316002  45.9558534   8.0271446  79.7745540  39.5346683
   7.1908758  80.1120227  39.8555958   7.8876215  79.6394520  38.5973820
  10.0024526  74.6182328  44.2425867   9.3488938  74.3031345  43.6182482
   9.9605000  73.9958069  44.9685690  11.1135731  84.9001623  36.1579159
  10.2062793  84.6690877  36.3570308  11.6106763  84.1039242  36.3453141
  14.0203810  93.6099130  39.0775845  13.3465509  93.9130827  39.6860803
  14.4069632  94.4128211  38.7281302  13.2362266  81.1064262  48.5673515
  12.3184828  81.3279209  48.4095203  13.6522410  81.1810572  47.7085222
  14.0197314  82.5055677  43.6976195  14.7669133  83.0177075  43.3883317
  14.2888904  82.1839730  44.5580588  12.2923964  85.0014218  40.6803149
  11.3835184  84.7173251  40.7775619  12.3219048  85.4213297  39.8206456
  17.5243232  88.6120808  44.4494317  17.0705559  87.7711717  44.5059507
  16.8937199  89.2482206  44.7869097  16.4676151  79.5412794  45.6794984
  15.7298908  79.0290180  46.0105227  16.7202925  79.1013175  44.8678261
  15.9676171  90.4497304  45.3844135  16.2599145  91.0102361  44.6656500
  16.4774792  90.7425865  46.1397294  16.5687779  72.3189046  46.2736753
  16.8746656  71.4586409  45.9862669  17.2940384  72.9106666  46.0735747
   2.8612135  82.7219732  44.6618351   2.6636535  82.1289093  43.9369418
   2.3058799  82.4171942  45.3794290  10.8408858  82.6142839  46.7812945
  10.8957468  81.6616675  46.7055421  10.0300060  82.7702278  47.2654243
  11.9900052  86.5422962  38.0191228  11.5519482  85.8258821  37.5596865
  12.7310493  86.7699077  37.4576319   8.7801218  81.2319898  44.5403323
   7.9669084  81.5314069  44.9468516   9.2760213  80.8375587  45.2577806
  10.9309796  91.2277655  46.4737588  10.8885975  91.4538502  45.5446120
  11.8472495  90.9941030  46.6223389  14.3775430  81.6961723  53.3718217
  14.7324818  81.9233196  54.2312683  15.0247561  82.0280100  52.7495473
  20.1073167  84.8180159  44.0767546  19.9691066  85.0081755  43.1488736
  19.7509386  85.5799542  44.5335597   8.2715293  78.8038254  50.1564558
   8.9114672  78.6627013  49.4587522   7.4392824  78.5172767  49.7803160
  20.1342547  86.8856686  49.0878818  20.5679053  86.7931975  49.9361872
  20.8474127  86.8614186  48.4498834   9.0475597  88.1040684  46.2699551
   9.8416196  87.6091004  46.0682126   8.3367289  87.5758547  45.9067256
  13.8670442  90.4858780  50.6211918  13.9207464  91.0549716  51.3889634
  12.9985223  90.6560665  50.2565956   5.3558361  82.2483766  42.3459303
   4.4255949  82.1868222  42.5629266   5.4515833  81.7259719  41.5495945
   5.2743910  78.7738579  44.9337545   5.5350727  79.6883912  44.8246706
   6.0961082  78.3063021  45.0834158   6.7468835  80.1876336  52.1036370
   7.4191888  79.9793698  51.4549019   5.9198621  79.9898422  51.6641602
  20.9958096  86.9280386  51.6211703  21.1893986  87.8326197  51.8670978
  20.8958714  86.4687806  52.4550288  12.6494407  76.8138277  54.1202031
  12.0022322  77.5128227  54.0266507  13.4195422  77.2474421  54.4878279
  16.0573205  87.0787129  57.1952584  15.9058711  86.8497681  56.2782668
  16.0477884  88.0357731  57.2083929  12.8258541  84.6519042  52.1798850
  13.7550601  84.8030202  52.0067818  12.4049571  84.7403063  51.3247497
  11.6246873  88.6769706  49.9497388  11.4857959  88.3088491  50.8223326
  10.8361469  89.1917346  49.7781346  12.2195025  93.7778803  41.2922924
  12.3946781  93.3066846  42.1068547  11.5327813  94.4044569  41.5204185
  13.1752088  88.0551309  47.3386226  12.8401921  88.0152079  48.2343876
  12.6756034  87.3896025  46.8656636   7.1496332  83.4618939  52.8638807
   7.0116130  82.7299178  53.4650346   8.0601256  83.3727839  52.5822995
  16.1111280  85.4007343  37.6123285  15.4940450  84.6754172  37.5156338
  15.6427768  86.1616704  37.2690360   9.7778633  83.1738898  52.3522486
  10.4878251  82.5332091  52.3109105   9.7347941  83.4251793  53.2748667
  17.7665411  90.1106252  55.2729066  17.7077958  89.4265472  54.6059649
  18.1684930  90.8525242  54.8209692   8.4907567  80.1604116  54.1718126
   7.9544924  79.7094855  54.8239722   7.9024275  80.2950025  53.4288590
   6.7856110  96.9268166  48.0662785   7.0252709  97.5586690  48.7441803
   5.9425307  96.5756206  48.3528144   7.9009826  79.6192768  36.7344590
   7.0239292  79.4981568  36.3706836   8.3767579  78.8278846  36.4823478
  17.7682819  88.0745836  53.5043045  16.8809598  87.7371757  53.6269444
  18.3381370  87.3428867  53.7411811   4.2246688  79.2960124  51.2571120
   4.1404877  78.6885794  50.5221530   3.4029394  79.7869142  51.2580617
  11.2983972  92.7347288  50.4704289  11.2254144  93.5402260  50.9823593
  10.8561365  92.9339254  49.6452310  11.0873752  91.9719058  43.9807110
  10.3041274  92.5140738  44.0745335  11.7866497  92.4893038  44.3801351
  14.3970402  77.7813688  46.6241316  14.8939101  77.0283650  46.3042386
  13.6257383  77.8178004  46.0584525  22.2500159  83.4854053  48.2659607
  22.2390036  84.3678768  47.8953540  21.3817539  83.1325604  48.0714144
  13.7582656  92.6334122  52.6262447  14.4710628  93.2681587  52.5538349
  13.2672684  92.7297988  51.8102449  15.4800183  86.5385375  44.1979739
  14.5456461  86.6586837  44.0284443  15.6576851  85.6357841  43.9339749
  10.9805371  79.9231070  46.3513000  10.6103158  79.3702111  47.0393906
  11.4764463  79.3189204  45.7988000  18.8672734  82.3802694  44.7329773
  19.3333186  83.2130686  44.6590076  19.3180234  81.9147676  45.4375032
   8.8094569  90.3828566  53.4468018   9.5104029  91.0165048  53.5997412
   8.3389684  90.7243297  52.6863657  16.9348965  88.7246515  41.7315925
  17.2108809  88.6103110  42.6409799  16.0653464  88.3264000  41.6928098
  16.8389397  74.7483281  48.7720674  15.9252476  74.9787508  48.9402881
  17.2682498  74.8321725  49.6234707  16.6095855  82.9373173  51.2720568
  15.9567305  83.1849080  50.6173021  16.9876235  82.1237311  50.9383046
  13.5703029  92.9732866  45.3748739  13.7525424  92.1554522  45.8376491
  14.3936015  93.1900558  44.9373629  13.9045195  91.9001051  42.6363787
  14.4332961  91.3893506  42.0233949  14.1673414  91.5843581  43.5009320
  12.6583428  83.6792984  57.7586605  11.9824065  83.5787113  58.4288981
  13.4811062  83.5232198  58.2222603   4.4062287  89.9164921  50.3799121
   4.9915724  89.1708608  50.5127025   4.2087126  90.2268877  51.2635785
   7.2600942  92.9516168  45.3961563   6.5911318  93.4362296  44.9125603
   7.1213812  93.1985388  46.3104942  11.4006211  94.9859911  51.9944221
  11.9524519  95.1491533  52.7593307  11.7412405  95.5764349  51.3224246
   6.3770704  77.3335061  52.5966106   6.4412031  78.1949892  52.1843504
   6.3137825  76.7209063  51.8638465   5.8522977  79.4058194  56.2439140
   6.4795016  79.0235271  56.8576665   4.9950896  79.1872396  56.6094833
  16.2517085  89.8121169  57.8492876  16.7956989  90.4251127  57.3547831
  15.6703930  90.3700747  58.3659889   2.6288520  81.2134623  42.1757495
   2.9241961  80.3045301  42.1224549   1.7276555  81.1922362  41.8538498
  14.5374598  92.9341887  48.9807904  14.4125738  92.1331627  48.4718849
  15.1953689  93.4288080  48.4921874   6.1582767  79.2890619  48.1585044
   5.4369352  79.9026587  48.0192517   6.9476022  79.8248384  48.0801690
  16.6009507  90.7350907  50.6087454  15.6539842  90.6156258  50.5365780
  16.9492280  89.8473405  50.6913715   8.9609080  76.6245046  54.4325696
   9.4843482  76.8707343  55.1952005   8.7421413  77.4565081  54.0128833
   4.3576361  78.8948721  42.2996820   4.0289067  78.0146100  42.1171926
   4.7115732  78.8396389  43.1873210  13.6055940  90.5303623  46.8091806
  13.4580902  89.6020331  46.9899376  14.4309434  90.5523714  46.3248881
   7.4718184  79.1821690  42.6672298   7.8114257  79.7107612  41.9450906
   7.9190305  79.5202096  43.4430865  17.2090062  91.3532182  47.8956679
  18.1336609  91.1475043  47.7581130  17.0405365  91.1048583  48.8046020
  10.1661625  77.5658741  52.1175366   9.8258446  76.7666554  52.5196046
   9.4600631  77.8660452  51.5452199  10.8178097  74.6508054  50.5702689
  11.6404166  74.1768532  50.4481580  11.0616161  75.4298537  51.0701375
   9.4586331  77.6796312  40.8665591  10.1794694  78.0577565  40.3629308
   8.8351636  78.3985189  40.9700569  13.6017454  78.3841461  41.8023923
  13.8181069  79.2666099  41.5012751  13.1211522  77.9927674  41.0729565
   8.3416676  81.3427174  48.3794668   8.1961256  81.6567477  49.2718949
   7.8641879  81.9612074  47.8265566  10.2013059  78.3329722  48.4275557
  10.1874627  77.4370815  48.0907855  10.9185487  78.3400386  49.0613843
  12.0539189  78.7667062  50.4728685  11.7956967  79.6884133  50.4713015
  11.5224230  78.3697497  51.1629149  16.9985378  91.8717849  43.2518770
  17.1722256  91.3064272  42.4992623  17.4914269  92.6718744  43.0698260
   2.8162338  83.8832519  51.3182329   2.2715806  84.6592327  51.4502603
   3.6941688  84.2303323  51.1601450   9.6049955  77.2144102  43.6963127
   9.7265866  76.2860749  43.8954015   9.3151997  77.2282788  42.7841443
  12.4741145  74.8999013  46.8329847  12.4962842  74.9638346  45.8781827
  12.8909204  74.0603522  47.0270353  22.8524769  84.6354272  44.8709070
  23.2955915  83.8861598  44.4728193  21.9751280  84.6264409  44.4882802
  17.9860551  91.1884614  40.3515668  18.6811455  91.8091307  40.5702983
  18.3283701  90.3379965  40.6268046   3.6028360  83.0102415  54.2112486
   2.8610096  83.1585050  54.7977116   3.2821104  83.2710680  53.3479235
  19.8851974  88.6384319  41.8802999  20.4103298  88.9771592  41.1552319
  19.7974326  87.7031335  41.6966134  11.5472022  92.5518393  54.0092876
  11.8559149  92.3067540  54.8815575  12.3447504  92.7565032  53.5211746
  11.5692634  94.7056303  46.2398252  11.1297625  94.2132681  46.9331109
  12.3200751  94.1629270  45.9990328   4.0484973  90.8967844  46.2422880
   4.8742993  90.5971615  45.8621524   3.6979025  90.1275466  46.6912669
   9.0166507  90.2494312  48.3120554   8.3946516  89.5865017  48.0122782
   9.6871374  90.2755444  47.6294202   2.2493578  88.8154170  47.2011814
   1.4125487  88.3876344  47.0195815   2.2217224  89.0086613  48.1382605
   9.0891034  78.7276100  57.9053060   9.1379190  79.6038223  57.5230830
   9.6313548  78.1853493  57.3324703  19.5745880  89.2717223  57.1854197
  18.7841423  89.2541362  56.6458697  19.3379234  89.8105517  57.9403234
  19.6943755  86.1209689  54.4986926  19.7441760  85.9559697  55.4402448
  19.5857678  85.2536948  54.1084806   8.5780014  88.7998235  41.7879015
   8.7268134  89.4833700  41.1345687   9.3846457  88.7803325  42.3028470
  16.9847517  82.1040617  55.8146232  17.8857380  81.9647082  55.5230230
  17.0595492  82.2695072  56.7544410  11.3190323  79.4807472  54.6599419
  10.4493632  79.7741038  54.3882007  11.5549803  80.0647917  55.3806682
  21.1961952  88.5406631  54.7428947  20.9046760  88.9036611  55.5792408
  20.5834083  87.8273639  54.5642279  22.3957634  86.1059511  47.2631517
  23.2304525  86.5449315  47.4269078  22.5316763  85.6298164  46.4439763
  19.4449140  83.6639246  53.2109005  19.9203261  83.8566892  52.4027857
  18.5214705  83.7198431  52.9652389   6.3332646  84.8263413  42.7940084
   6.0878688  83.9225743  42.9920294   6.5028561  84.8280563  41.8519562
  14.0229356  75.6987089  52.1764839  14.5411300  76.4348116  51.8511328
  13.6684489  76.0051082  53.0111598   5.6028294  80.5591770  40.2926245
   4.9097539  80.6336125  39.6366281   5.3580046  79.7952114  40.8147762
  14.2741951  72.1187372  47.6965736  14.5543704  71.4510561  48.3226162
  15.0592557  72.3116467  47.1840400  12.0775419  91.2946366  39.2590762
  11.5049386  91.9136553  38.8061234  12.6508213  91.8445727  39.7930684
  18.1450809  80.5405006  51.4437311  19.0968232  80.6403103  51.4649535
  17.9754259  79.7483274  51.9535395  16.1665188  77.6260589  51.6296712
  15.5715120  77.9065602  50.9343200  15.8814885  78.1154490  52.4013453
  15.2972679  91.5783516  40.3899344  16.2303352  91.5129077  40.5932220
  15.2095892  92.4139783  39.9313877  17.9260695  90.8949386  37.3503292
  17.8474327  90.5609250  38.2439050  18.7470362  91.3871154  37.3494764
  20.6238887  83.7611125  50.5579610  20.5915207  82.8227126  50.7439294
  21.2339510  83.8395162  49.8245435  12.4622218  82.6307178  36.6006815
  13.4081322  82.5013386  36.6695233  12.0836462  81.8921840  37.0776243
  20.7733375  80.5522169  50.6037894  20.2572424  79.7680625  50.4167823
  21.6573324  80.2240885  50.7684413  18.4344102  74.2963184  46.5633706
  18.2368923  73.9878273  47.4477038  19.0443808  75.0224823  46.6931636
  26.4415437  84.8227132  49.6985647  27.1718825  84.5612420  50.2593351
  25.8322382  84.0855854  49.7387715  24.5230734  82.9634995  50.2960098
  23.7963897  82.8290960  49.6876590  24.1078021  83.2711823  51.1016817
  12.3460910  86.6824924  58.0607472  13.2663920  86.8603523  58.2547518
  12.3110493  85.7380970  57.9087171  10.6465135  80.5557155  36.5361700
   9.7396590  80.2590267  36.6124413  10.9241116  80.2586973  35.6695986
   1.5643075  81.8763518  46.9860746   1.2445859  81.0228826  46.6935120
   1.0176503  82.0912096  47.7418713   5.3422983  84.5925959  50.7030253
   5.5608992  85.5243067  50.7218286   5.7548756  84.2333934  51.4885056
  12.2627200  75.0994044  42.6905941  11.4527929  74.7541129  43.0661187
  12.9511617  74.7901588  43.2793553  14.1917749  74.1772091  44.3130238
  14.7448787  74.5967545  44.9720261  14.4287835  73.2507839  44.3553194
  10.2150848  80.1659165  60.0933002  10.1147575  81.1153522  60.0245093
   9.9972390  79.8377404  59.2209072   9.4163919  77.4144090  36.6773679
  10.2783083  77.7398988  36.9369496   9.6014263  76.6275586  36.1646745
   1.4331335  85.4966430  48.9553868   0.7394807  85.0820382  48.4423822
   2.1804326  85.5386966  48.3587287  17.5696556  76.2872616  43.8208902
  16.9895225  76.9457420  43.4386954  17.3032488  75.4649961  43.4096319
  16.0200122  75.6877674  46.0230222  16.5199901  75.7994209  45.2144541
  16.6635730  75.3838727  46.6631031  10.0782118  83.5956304  58.9098063
   9.5949200  84.3956664  59.1161952  10.1643057  83.6064249  57.9565507
   3.3468078  85.4284683  46.8319883   3.3238766  85.5272371  45.8801766
   3.6568714  86.2749834  47.1537049   6.0055455  87.4860838  50.9466497
   6.9598709  87.4544781  50.8796429   5.8067979  87.0251462  51.7616723
   6.5954838  86.0561954  53.5137295   7.4147727  86.5506033  53.5372132
   6.8691645  85.1393923  53.4854862  16.3521434  78.4472707  42.8765250
  15.4647289  78.7322357  42.6585445  16.7675423  78.2866470  42.0292527
  19.7035970  78.4719228  46.5919589  20.4796360  78.9615680  46.8644206
  18.9784104  78.8977282  47.0491459  22.1408529  79.1846847  47.6493530
  22.7353019  78.9442583  46.9386838  22.2135112  78.4653978  48.2767066
   4.3605684  93.0280458  47.9636695   4.2260152  92.2680859  47.3974693
   3.9437747  93.7521358  47.4965484  15.4964647  88.2117381  36.9713270
  16.2000497  88.4167384  37.5870926  14.7727296  88.7794143  37.2362354
  16.3262458  83.9627243  43.0915540  16.2697659  84.4195794  42.2523173
  16.8790800  83.2017927  42.9138383  20.1367263  79.7516975  43.9165660
  19.8804198  79.3513610  44.7473868  19.5120132  80.4660769  43.7915799
  24.4479601  82.4913048  46.4236951  23.8879159  82.5606237  47.1968513
  23.8423105  82.3154032  45.7036448   7.5174810  93.9249775  48.1755138
   7.4007194  94.8695207  48.0733828   6.6967256  93.6223336  48.5640937
  17.4051345  88.6499911  39.0211730  18.2396949  88.2181109  38.8389205
  17.2435688  88.4781924  39.9488625  17.0597237  85.1532024  40.3868070
  17.0046041  84.9876295  39.4456514  16.4343292  85.8608057  40.5430259
   1.8489752  80.3900088  54.2129492   2.4948615  79.8799042  54.7016717
   1.6406903  81.1268770  54.7872917  14.3743144  87.4580936  59.7121632
  15.2434304  87.6321588  59.3508267  13.8949896  88.2775353  59.5897362
  10.3693362  74.6540133  39.9653388  10.3572032  75.5981973  40.1221659
  11.2616784  74.4710278  39.6712849   8.5429324  94.5778037  51.3911066
   9.4456571  94.6101647  51.7077561   8.3166694  93.6478488  51.4057402
  10.2982926  93.3309023  48.0521145   9.3478557  93.3310885  47.9385517
  10.6015412  92.5841758  47.5357179  14.1845482  71.2482910  44.2199325
  13.4177878  70.6941396  44.3656007  14.5956187  71.3204778  45.0813476
   6.1887243  77.5367705  58.3104506   7.0518704  77.1804510  58.5207831
   5.6152654  77.1981600  58.9979910  26.0335620  99.1669562  49.1166907
  26.6714030  99.0476309  48.4130247  25.9156463 100.1150406  49.1754859
  22.8425326  99.1196990  49.0528432  22.5043838  99.0038055  48.1648967
  23.7115094  98.7188155  49.0329438  18.7012142 100.9732466  45.0425323
  18.1377007 100.8822403  44.2741610  18.5864537 100.1532371  45.5227815
  23.3245109 100.2731842  55.0114637  23.3133750  99.8784640  54.1395141
  23.4865749  99.5397914  55.6048409  16.2476574 102.4683658  47.8809543
  17.0397866 102.1274483  47.4655842  16.4873224 102.5778633  48.8011696
  24.2811700 104.6403434  40.3539788  23.6299680 105.2257514  39.9673801
  25.0756063 105.1709629  40.4134825  18.2067328 101.7292571  40.7526922
  18.9798204 101.1821558  40.6139798  18.5592726 102.5936820  40.9641383
  20.0452370 103.0568953  53.9593821  19.7542236 103.9614584  53.8440488
  20.6809355 103.0985481  54.6737891  20.9708577 100.4345802  50.5495181
  21.5672149 100.2101824  49.8352144  21.0283549  99.6930547  51.1520629
  20.5433605  97.8885237  38.3845372  20.7959126  97.3666759  37.6228835
  19.6058165  97.7251383  38.4872055  25.5876888  96.8921016  46.1920115
  26.3739977  96.4740439  45.8410532  25.8515593  97.7967108  46.3601763
  25.7586966 102.3293866  40.8908772  25.1232799 102.4028492  41.6029676
  25.4284372 102.9187465  40.2127851  30.9885315  96.8296249  47.0953094
  31.7210487  96.2595466  47.3290923  30.2324671  96.4417849  47.5359599
  20.2629894  99.7913343  40.5869747  20.1466152  99.1158247  41.2550831
  20.3732154  99.3045717  39.7701900  22.6061435  99.2523490  44.2916436
  22.2419642  98.7254111  45.0029357  23.4628551  98.8621959  44.1182921
  28.5110736  90.5417823  51.5547702  28.1794061  91.4113234  51.3308917
  27.9156349  90.2254107  52.2341733  22.2466922  94.2813390  39.2877785
  22.4141324  95.1493626  39.6548256  22.0564091  94.4440672  38.3639074
  25.0042255 102.7430369  50.9543615  24.7042978 103.6455408  50.8459422
  24.6593315 102.4762552  51.8064768  18.4554737  99.1944166  46.9880319
  17.5305233  99.0620380  47.1958011  18.7039150  99.9738385  47.4850262
  28.4039399  95.2612909  48.6341052  27.4956276  95.1928318  48.3399813
  28.3526995  95.7384854  49.4622878  22.2256143  96.7371047  40.2724451
  22.1055768  97.1828098  41.1109932  21.5308731  97.0856365  39.7137989
  15.8163548  98.8377439  47.8224108  15.9455929  99.0911918  48.7363520
  15.1360999  99.4305147  47.5028763  19.9863035 109.5074689  43.9214583
  19.9087065 110.4582514  44.0003063  19.3824679 109.1620562  44.5789509
  22.4780265  96.6802555  56.5775949  21.7013599  97.2396475  56.5678814
  23.1170828  97.1659338  57.0990820  30.2701045  93.4629347  50.4118926
  29.6275426  93.7561881  49.7658721  29.7655974  93.3482268  51.2172123
  27.9241209  97.2092521  41.1004785  28.8359065  97.4419907  40.9252483
  27.4150856  97.7929565  40.5379864  20.7326637  99.4888008  56.1393916
  21.4741322 100.0273052  55.8628740  20.0263623 100.1154297  56.2965468
  26.2081977 101.6317149  54.7366078  26.6165333 101.1899559  53.9920710
  25.4859238 101.0569776  54.9900271  22.5613047  96.5689755  52.1099635
  23.4074242  96.9929169  52.2534284  22.5011685  95.9123380  52.8038198
  26.5310791 102.1918339  48.4918367  25.9019654 102.3564053  47.7894435
  26.1436454 102.6059949  49.2629331  30.4100023 103.1272777  45.8462731
  29.7251061 103.5071678  45.2959764  30.4943873 103.7368104  46.5794678
  25.7112492  94.2294124  53.7680809  25.4673424  94.9836184  53.2315084
  25.9872423  94.6079471  54.6028056  27.6650955 100.7732736  52.4458074
  27.8767850 101.4164496  51.7692455  27.6180703  99.9395053  51.9780004
  25.2677184  93.3850557  49.3494646  24.4061663  93.6831810  49.6411384
  25.2939619  93.6020956  48.4175679  22.0838753 101.9292747  45.7568452
  22.5477099 102.2080450  44.9673074  21.8195551 101.0276192  45.5741543
  18.9762834 101.4764229  48.6948215  19.5464191 101.9051497  48.0565700
  19.5670946 101.1946813  49.3932401  21.0207639  98.0515900  42.5658017
  21.7231683  98.5036943  43.0331943  20.6888268  97.4099718  43.1937910
  19.4688001  96.6427656  56.9409226  18.8386661  97.3243937  57.1744623
  19.3624089  96.5310738  55.9962365  14.7632973  96.3099452  47.8675151
  13.9732027  96.5656981  47.3915261  15.2544221  97.1247790  47.9727191
  28.7796783 103.6504691  50.6180431  29.6014227 103.2484879  50.3363113
  28.7759186 103.5472926  51.5696547  16.7147719  96.6744031  44.8258627
  15.9178882  96.7862726  45.3442123  16.4873311  97.0130684  43.9599518
  22.5453386 103.1988735  52.7741142  22.6097819 103.6609142  53.6099314
  21.8364310 102.5686100  52.9023452  13.0470676  96.5629943  50.2990141
  13.2978715  97.4476953  50.5647717  13.5830225  96.3834544  49.5265233
  36.8702776  99.9943440  46.9665403  36.1166484  99.4250838  46.8109407
  37.0050317  99.9606104  47.9136038  22.2601404 104.8656842  42.6420122
  22.1247079 105.7108378  43.0704970  22.8011216 105.0676120  41.8786056
  18.7468744  90.9448422  59.3034478  18.3535689  90.3914621  59.9782122
  19.5634884  91.2559001  59.6940995  15.7130801 102.3832280  43.2148047
  16.2255322 103.1775530  43.3653612  16.3653514 101.6858571  43.1481649
  17.5225686 105.4998037  45.2970801  17.6992314 106.4216001  45.1091784
  18.3182520 105.1856456  45.7265180  21.6636705  92.3606301  56.8954734
  22.4046418  92.9613454  56.8159197  21.8954627  91.6183939  56.3372777
  16.8078043  97.5462668  55.1732964  16.6931558  96.6447926  55.4740063
  15.9522560  97.7926365  54.8217780  23.8869880 105.4880409  56.7720464
  23.4433735 104.7016787  56.4541369  24.5487094 105.6759559  56.1064355
  18.6457002 107.0176210  51.2981143  19.1964427 106.8893274  50.5258137
  17.8068477 107.3171099  50.9476036  25.9851118 105.7683209  54.8001866
  25.9669594 106.5892090  54.3082135  26.9071038 105.6437284  55.0252007
  22.4424173 103.2827338  55.6425374  22.9752509 102.5215626  55.4124682
  21.9138254 102.9900990  56.3849529  25.6093868  88.3887404  51.1719016
  25.2658137  89.2789046  51.0958126  25.9772830  88.1989062  50.3088601
  13.6779718 100.7120935  43.9907618  14.5154940 101.1217943  43.7741326
  13.8557986  99.7720377  43.9607812  25.5744150  98.3796015  39.6791451
  25.0590774  99.1500620  39.9179838  25.3021459  97.7061151  40.3024512
  23.1591261  93.2245716  44.7376689  22.3032858  92.8352566  44.5582328
  23.5718213  93.3037677  43.8776475  24.6890408  90.7592059  49.1368249
  24.1855204  90.7222194  48.3236054  24.9821015  91.6684802  49.1964906
  20.9333294  90.8430789  48.1434431  21.7986291  90.6473598  47.7840320
  21.0010803  90.6141141  49.0703788  30.5478424 101.1328370  41.6144624
  29.7707867 100.7939529  41.1699786  31.2269905 101.1380993  40.9399589
  25.3630453  96.2523107  41.5051232  25.0580589  96.5669256  42.3561375
  26.3160896  96.3304527  41.5478565  23.8076885 102.4113331  43.1544186
  23.2798247 101.6766090  42.8417423  23.3064388 103.1888007  42.9084154
  28.7869731 100.6062351  48.2711232  28.1293406 101.2961612  48.3591361
  29.5910131 100.9958783  48.6145219  18.5395613  93.0732997  45.5150798
  19.1139365  92.8508178  44.7823991  19.1266595  93.1421691  46.2679399
  27.5975190  98.9606724  46.3215174  28.1107072  99.5936716  46.8236884
  28.2476414  98.3607919  45.9558534  18.8665200  95.1037458  39.5346683
  18.0302512  95.4412144  39.8555958  18.7269970  94.9686438  38.5973820
  20.8418281  89.9474246  44.2425867  20.1882693  89.6323263  43.6182482
  20.7998755  89.3249986  44.9685690  21.9529485 100.2293541  36.1579159
  21.0456547  99.9982794  36.3570308  22.4500517  99.4331160  36.3453141
  24.8597564 108.9391048  39.0775845  24.1859263 109.2422745  39.6860803
  25.2463386 109.7420128  38.7281302  24.0756021  96.4356179  48.5673515
  23.1578582  96.6571126  48.4095203  24.4916165  96.5102490  47.7085222
  24.8591069  97.8347595  43.6976195  25.6062888  98.3468992  43.3883317
  25.1282658  97.5131648  44.5580588  23.1317719 100.3306136  40.6803149
  22.2228938 100.0465169  40.7775619  23.1612803 100.7505214  39.8206456
  28.3636986 103.9412725  44.4494317  27.9099313 103.1003635  44.5059507
  27.7330953 104.5774124  44.7869097  27.3069906  94.8704711  45.6794984
  26.5692663  94.3582097  46.0105227  27.5596679  94.4305093  44.8678261
  26.8069926 105.7789222  45.3844135  27.0992900 106.3394279  44.6656500
  27.3168546 106.0717783  46.1397294  27.4081533  87.6480963  46.2736753
  27.7140410  86.7878327  45.9862669  28.1334138  88.2398583  46.0735747
  13.7005889  98.0511650  44.6618351  13.5030289  97.4581011  43.9369418
  13.1452553  97.7463860  45.3794290  21.6802613  97.9434756  46.7812945
  21.7351223  96.9908593  46.7055421  20.8693815  98.0994195  47.2654243
  22.8293807 101.8714879  38.0191228  22.3913237 101.1550738  37.5596865
  23.5704248 102.0990994  37.4576319  19.6194973  96.5611816  44.5403323
  18.8062838  96.8605987  44.9468516  20.1153967  96.1667505  45.2577806
  21.7703551 106.5569573  46.4737588  21.7279730 106.7830419  45.5446120
  22.6866250 106.3232948  46.6223389  25.2169185  97.0253641  53.3718217
  25.5718572  97.2525114  54.2312683  25.8641316  97.3572017  52.7495473
  30.9466921 100.1472076  44.0767546  30.8084820 100.3373672  43.1488736
  30.5903140 100.9091459  44.5335597  19.1109048  94.1330172  50.1564558
  19.7508427  93.9918931  49.4587522  18.2786578  93.8464685  49.7803160
  30.9736301 102.2148603  49.0878818  31.4072808 102.1223893  49.9361872
  31.6867882 102.1906104  48.4498834  19.8869352 103.4332602  46.2699551
  20.6809950 102.9382922  46.0682126  19.1761044 102.9050465  45.9067256
  24.7064196 105.8150698  50.6211918  24.7601218 106.3841634  51.3889634
  23.8378977 105.9852583  50.2565956  16.1952115  97.5775684  42.3459303
  15.2649703  97.5160139  42.5629266  16.2909587  97.0551637  41.5495945
  16.1137664  94.1030497  44.9337545  16.3744481  95.0175830  44.8246706
  16.9354836  93.6354939  45.0834158  17.5862589  95.5168254  52.1036370
  18.2585643  95.3085616  51.4549019  16.7592376  95.3190340  51.6641602
  31.8351851 102.2572304  51.6211703  32.0287741 103.1618115  51.8670978
  31.7352469 101.7979723  52.4550288  23.4888161  92.1430195  54.1202031
  22.8416076  92.8420144  54.0266507  24.2589177  92.5766339  54.4878279
  26.8966959 102.4079047  57.1952584  26.7452466 102.1789599  56.2782668
  26.8871639 103.3649648  57.2083929  23.6652296  99.9810960  52.1798850
  24.5944356 100.1322119  52.0067818  23.2443326 100.0694980  51.3247497
  22.4640628 104.0061624  49.9497388  22.3251713 103.6380408  50.8223326
  21.6755224 104.5209263  49.7781346  23.0588780 109.1070720  41.2922924
  23.2340535 108.6358764  42.1068547  22.3721568 109.7336487  41.5204185
  24.0145843 103.3843227  47.3386226  23.6795675 103.3443997  48.2343876
  23.5149788 102.7187943  46.8656636  17.9890087  98.7910857  52.8638807
  17.8509885  98.0591096  53.4650346  18.8995010  98.7019757  52.5822995
  26.9505034 100.7299261  37.6123285  26.3334205 100.0046089  37.5156338
  26.4821523 101.4908621  37.2690360  20.6172387  98.5030816  52.3522486
  21.3272006  97.8624008  52.3109105  20.5741695  98.7543711  53.2748667
  28.6059166 105.4398169  55.2729066  28.5471712 104.7557390  54.6059649
  29.0078684 106.1817159  54.8209692  19.3301321  95.4896034  54.1718126
  18.7938678  95.0386772  54.8239722  18.7418030  95.6241943  53.4288590
  18.7403580  94.9484685  36.7344590  17.8633047  94.8273486  36.3706836
  19.2161333  94.1570764  36.4823478  28.6076573 103.4037753  53.5043045
  27.7203352 103.0663675  53.6269444  29.1775124 102.6720785  53.7411811
  10.2605720  99.7361845  46.8286097  10.9476760  99.4223575  46.2407112
  10.1053849 100.6403210  46.5553348  15.0640443  94.6252042  51.2571120
  14.9798631  94.0177711  50.5221530  14.2423149  95.1161060  51.2580617
  22.1377727 108.0639206  50.4704289  22.0647898 108.8694177  50.9823593
  21.6955120 108.2631172  49.6452310  21.9267506 107.3010976  43.9807110
  21.1435028 107.8432656  44.0745335  22.6260251 107.8184955  44.3801351
  25.2364156  93.1105605  46.6241316  25.7332856  92.3575568  46.3042386
  24.4651138  93.1469922  46.0584525  33.0893914  98.8145971  48.2659607
  33.0783790  99.6970686  47.8953540  32.2211293  98.4617522  48.0714144
  24.5976410 107.9626040  52.6262447  25.3104382 108.5973505  52.5538349
  24.1066439 108.0589906  51.8102449  26.3193937 101.8677292  44.1979739
  25.3850216 101.9878755  44.0284443  26.4970606 100.9649759  43.9339749
  21.8199125  95.2522988  46.3513000  21.4496913  94.6994029  47.0393906
  22.3158218  94.6481122  45.7988000  29.7066488  97.7094612  44.7329773
  30.1726941  98.5422603  44.6590076  30.1573989  97.2439593  45.4375032
  19.6488324 105.7120483  53.4468018  20.3497783 106.3456966  53.5997412
  19.1783439 106.0535215  52.6863657  27.7742720 104.0538433  41.7315925
  28.0502563 103.9395028  42.6409799  26.9047218 103.6555918  41.6928098
  27.6783151  90.0775199  48.7720674  26.7646231  90.3079426  48.9402881
  28.1076253  90.1613643  49.6234707  27.4489610  98.2665091  51.2720568
  26.7961060  98.5140998  50.6173021  27.8269990  97.4529229  50.9383046
  24.4096784 108.3024784  45.3748739  24.5919178 107.4846440  45.8376491
  25.2329770 108.5192476  44.9373629  24.7438949 107.2292969  42.6363787
  25.2726715 106.7185424  42.0233949  25.0067169 106.9135499  43.5009320
  23.4977183  99.0084902  57.7586605  22.8217820  98.9079031  58.4288981
  24.3204817  98.8524115  58.2222603  15.2456042 105.2456838  50.3799121
  15.8309479 104.5000526  50.5127025  15.0480880 105.5560795  51.2635785
  18.0994697 108.2808086  45.3961563  17.4305072 108.7654213  44.9125603
  17.9607567 108.5277306  46.3104942   9.8373697  97.8162438  49.1003564
   9.8757796  97.2826029  49.8940682   9.3313989  97.2897644  48.4814541
  22.2399966 110.3151829  51.9944221  22.7918274 110.4783451  52.7593307
  22.5806159 110.9056267  51.3224246  17.2164459  92.6626979  52.5966106
  17.2805785  93.5241810  52.1843504  17.1531579  92.0500981  51.8638465
  16.6916731  94.7350111  56.2439140  17.3188770  94.3527189  56.8576665
  15.8344650  94.5164313  56.6094833  27.0910840 105.1413087  57.8492876
  27.6350744 105.7543045  57.3547831  26.5097685 105.6992665  58.3659889
  13.4682274  96.5426541  42.1757495  13.7635715  95.6337219  42.1224549
  12.5670310  96.5214280  41.8538498  25.3768353 108.2633805  48.9807904
  25.2519492 107.4623545  48.4718849  26.0347444 108.7579998  48.4921874
  16.9976521  94.6182537  48.1585044  16.2763107  95.2318505  48.0192517
  17.7869777  95.1540302  48.0801690  27.4403261 106.0642825  50.6087454
  26.4933597 105.9448176  50.5365780  27.7886034 105.1765323  50.6913715
  19.8002835  91.9536964  54.4325696  20.3237236  92.1999260  55.1952005
  19.5815168  92.7856998  54.0128833  15.1970116  94.2240638  42.2996820
  14.8682822  93.3438017  42.1171926  15.5509486  94.1688307  43.1873210
  24.4449695 105.8595541  46.8091806  24.2974657 104.9312248  46.9899376
  25.2703188 105.8815632  46.3248881  18.3111939  94.5113608  42.6672298
  18.6508011  95.0399529  41.9450906  18.7584059  94.8494014  43.4430865
  28.0483816 106.6824100  47.8956679  28.9730364 106.4766961  47.7581130
  27.8799120 106.4340501  48.8046020  21.0055380  92.8950659  52.1175366
  20.6652200  92.0958472  52.5196046  20.2994386  93.1952370  51.5452199
  21.6571851  89.9799971  50.5702689  22.4797921  89.5060449  50.4481580
  21.9009915  90.7590455  51.0701375  20.2980086  93.0088230  40.8665591
  21.0188448  93.3869482  40.3629308  19.6745390  93.7277106  40.9700569
  24.4411209  93.7133379  41.8023923  24.6574823  94.5958016  41.5012751
  23.9605276  93.3219592  41.0729565  19.1810430  96.6719092  48.3794668
  19.0355011  96.9859395  49.2718949  18.7035634  97.2903992  47.8265566
  21.0406813  93.6621640  48.4275557  21.0268382  92.7662733  48.0907855
  21.7579241  93.6692304  49.0613843  22.8932944  94.0958980  50.4728685
  22.6350722  95.0176051  50.4713015  22.3617984  93.6989415  51.1629149
  27.8379133 107.2009767  43.2518770  28.0116010 106.6356190  42.4992623
  28.3308024 108.0010662  43.0698260  13.6556092  99.2124436  51.3182329
  13.1109560  99.9884244  51.4502603  14.5335442  99.5595241  51.1601450
  20.4443709  92.5436020  43.6963127  20.5659620  91.6152666  43.8954015
  20.1545751  92.5574706  42.7841443  23.3134899  90.2290931  46.8329847
  23.3356596  90.2930264  45.8781827  23.7302958  89.3895439  47.0270353
  33.6918524  99.9646190  44.8709070  34.1349670  99.2153515  44.4728193
  32.8145034  99.9556326  44.4882802  28.8254305 106.5176532  40.3515668
  29.5205210 107.1383224  40.5702983  29.1677455 105.6671883  40.6268046
  14.4422114  98.3394333  54.2112486  13.7003850  98.4876968  54.7977116
  14.1214859  98.6002598  53.3479235  30.7245728 103.9676237  41.8802999
  31.2497052 104.3063510  41.1552319  30.6368081 103.0323252  41.6966134
  22.3865777 107.8810311  54.0092876  22.6952903 107.6359457  54.8815575
  23.1841259 108.0856949  53.5211746  22.4086389 110.0348220  46.2398252
  21.9691379 109.5424599  46.9331109  23.1594506 109.4921188  45.9990328
  14.8878728 106.2259761  46.2422880  15.7136748 105.9263533  45.8621524
  14.5372780 105.4567384  46.6912669  19.8560261 105.5786229  48.3120554
  19.2340270 104.9156934  48.0122782  20.5265128 105.6047361  47.6294202
  13.0887333 104.1446088  47.2011814  12.2519241 103.7168262  47.0195815
  13.0610978 104.3378531  48.1382605  19.9284789  94.0568017  57.9053060
  19.9772944  94.9330140  57.5230830  20.4707303  93.5145411  57.3324703
  30.4139634 104.6009141  57.1854197  29.6235178 104.5833280  56.6458697
  30.1772989 105.1397434  57.9403234  30.5337509 101.4501607  54.4986926
  30.5835514 101.2851615  55.4402448  30.4251433 100.5828866  54.1084806
  19.4173768 104.1290153  41.7879015  19.5661888 104.8125617  41.1345687
  20.2240211 104.1095243  42.3028470  27.8241272  97.4332535  55.8146232
  28.7251134  97.2939000  55.5230230  27.8989246  97.5986990  56.7544410
  22.1584077  94.8099390  54.6599419  21.2887386  95.1032956  54.3882007
  22.3943557  95.3939835  55.3806682  32.0355706 103.8698549  54.7428947
  31.7440514 104.2328529  55.5792408  31.4227837 103.1565557  54.5642279
  33.2351388 101.4351428  47.2631517  34.0698280 101.8741232  47.4269078
  33.3710517 100.9590082  46.4439763  30.2842894  98.9931163  53.2109005
  30.7597016  99.1858810  52.4027857  29.3608460  99.0490349  52.9652389
  17.1726401 100.1555330  42.7940084  16.9272443  99.2517660  42.9920294
  17.3422316 100.1572481  41.8519562  24.8623111  91.0279007  52.1764839
  25.3805055  91.7640034  51.8511328  24.5078244  91.3343000  53.0111598
  16.4422049  95.8883688  40.2926245  15.7491293  95.9628043  39.6366281
  16.1973800  95.1244032  40.8147762  25.1135705  87.4479289  47.6965736
  25.3937459  86.7802478  48.3226162  25.8986312  87.6408385  47.1840400
  22.9169174 106.6238283  39.2590762  22.3443141 107.2428470  38.8061234
  23.4901967 107.1737645  39.7930684  28.9844563  95.8696923  51.4437311
  29.9361986  95.9695021  51.4649535  28.8148014  95.0775192  51.9535395
  27.0058943  92.9552507  51.6296712  26.4108875  93.2357519  50.9343200
  26.7208640  93.4446407  52.4013453  26.1366433 106.9075433  40.3899344
  27.0697106 106.8420995  40.5932220  26.0489646 107.7431700  39.9313877
  28.7654450 106.2241304  37.3503292  28.6868082 105.8901167  38.2439050
  29.5864117 106.7163072  37.3494764  31.4632641  99.0903043  50.5579610
  31.4308961  98.1519044  50.7439294  32.0733265  99.1687080  49.8245435
  23.3015972  97.9599096  36.6006815  24.2475077  97.8305304  36.6695233
  22.9230217  97.2213758  37.0776243  31.6127130  95.8814086  50.6037894
  31.0966178  95.0972543  50.4167823  32.4967078  95.5532803  50.7684413
  29.2737857  89.6255102  46.5633706  29.0762678  89.3170190  47.4477038
  29.8837562  90.3516741  46.6931636  37.2809191 100.1519050  49.6985647
  38.0112579  99.8904338  50.2593351  36.6716136  99.4147772  49.7387715
  35.3624488  98.2926912  50.2960098  34.6357652  98.1582877  49.6876590
  34.9471775  98.6003741  51.1016817  23.1854665 102.0116842  58.0607472
  24.1057674 102.1895441  58.2547518  23.1504248 101.0672887  57.9087171
  21.4858889  95.8849072  36.5361700  20.5790345  95.5882185  36.6124413
  21.7634870  95.5878890  35.6695986  12.4036830  97.2055436  46.9860746
  12.0839614  96.3520744  46.6935120  11.8570258  97.4204014  47.7418713
  16.1816737  99.9217877  50.7030253  16.4002747 100.8534985  50.7218286
  16.5942511  99.5625851  51.4885056  23.1020955  90.4285962  42.6905941
  22.2921683  90.0833047  43.0661187  23.7905372  90.1193506  43.2793553
  25.0311503  89.5064009  44.3130238  25.5842542  89.9259462  44.9720261
  25.2681590  88.5799757  44.3553194  21.0544602  95.4951083  60.0933002
  20.9541329  96.4445440  60.0245093  20.8366144  95.1669321  59.2209072
  20.2557674  92.7436008  36.6773679  21.1176838  93.0690906  36.9369496
  20.4408018  91.9567504  36.1646745  12.2725090 100.8258347  48.9553868
  11.5788561 100.4112300  48.4423822  13.0198081 100.8678884  48.3587287
  28.4090310  91.6164534  43.8208902  27.8288979  92.2749338  43.4386954
  28.1426243  90.7941879  43.4096319  26.8593877  91.0169592  46.0230222
  27.3593655  91.1286126  45.2144541  27.5029485  90.7130645  46.6631031
  20.9175872  98.9248221  58.9098063  20.4342954  99.7248581  59.1161952
  21.0036812  98.9356166  57.9565507  14.1861832 100.7576601  46.8319883
  14.1632520 100.8564288  45.8801766  14.4962469 101.6041752  47.1537049
  16.8449210 102.8152756  50.9466497  17.7992464 102.7836698  50.8796429
  16.6461734 102.3543380  51.7616723  17.4348592 101.3853872  53.5137295
  18.2541481 101.8797951  53.5372132  17.7085400 100.4685840  53.4854862
  27.1915188  93.7764624  42.8765250  26.3041043  94.0614275  42.6585445
  27.6069177  93.6158388  42.0292527  30.5429724  93.8011145  46.5919589
  31.3190115  94.2907598  46.8644206  29.8177859  94.2269200  47.0491459
  32.9802283  94.5138765  47.6493530  33.5746774  94.2734501  46.9386838
  33.0528867  93.7945895  48.2767066  26.3358402 103.5409299  36.9713270
  27.0394252 103.7459302  37.5870926  25.6121051 104.1086061  37.2362354
  27.1656212  99.2919160  43.0915540  27.1091413  99.7487712  42.2523173
  27.7184555  98.5309845  42.9138383  30.9761018  95.0808892  43.9165660
  30.7197952  94.6805528  44.7473868  30.3513886  95.7952686  43.7915799
  35.2873356  97.8204965  46.4236951  34.7272914  97.8898155  47.1968513
  34.6816859  97.6445950  45.7036448  28.2445099 103.9791828  39.0211730
  29.0790703 103.5473027  38.8389205  28.0829442 103.8073842  39.9488625
  27.8990991 100.4823942  40.3868070  27.8439795 100.3168213  39.4456514
  27.2737047 101.1899975  40.5430259  12.6883506  95.7192006  54.2129492
  13.3342370  95.2090960  54.7016717  12.4800657  96.4560688  54.7872917
  25.2136899 102.7872853  59.7121632  26.0828058 102.9613506  59.3508267
  24.7343650 103.6067270  59.5897362  21.2087117  89.9832051  39.9653388
  21.1965787  90.9273891  40.1221659  22.1010539  89.8002196  39.6712849
  19.3823079 109.9069954  51.3911066  20.2850325 109.9393565  51.7077561
  19.1560449 108.9770405  51.4057402  21.1376681 108.6600941  48.0521145
  20.1872312 108.6602803  47.9385517  21.4409167 107.9133676  47.5357179
  25.0239236  86.5774827  44.2199325  24.2571632  86.0233314  44.3656007
  25.4349941  86.6496696  45.0813476  17.0280997  92.8659623  58.3104506
  17.8912459  92.5096428  58.5207831  16.4546408  92.5273518  58.9979910
  36.8729374 114.4961479  49.1166907  37.5107784 114.3768227  48.4130247
  36.7550217 115.4442323  49.1754859  33.6819081 114.4488908  49.0528432
  33.3437592 114.3329972  48.1648967  34.5508849 114.0480073  49.0329438
  34.1638864 115.6023759  55.0114637  34.1527504 115.2076558  54.1395141
  34.3259503 114.8689832  55.6048409  31.3827360 113.2177155  38.3845372
  31.6352881 112.6958676  37.6228835  30.4451919 113.0543300  38.4872055
  36.4270643 112.2212933  46.1920115  37.2133732 111.8032356  45.8410532
  36.6909347 113.1259025  46.3601763  41.8279070 112.1588166  47.0953094
  42.5604242 111.5887383  47.3290923  41.0718426 111.7709767  47.5359599
  33.4455190 114.5815408  44.2916436  33.0813397 114.0546029  45.0029357
  34.3022306 114.1913877  44.1182921  39.3504490 105.8709741  51.5547702
  39.0187815 106.7405152  51.3308917  38.7550104 105.5546025  52.2341733
  33.0860677 109.6105308  39.2877785  33.2535079 110.4785544  39.6548256
  32.8957846 109.7732589  38.3639074  39.2433154 110.5904827  48.6341052
  38.3350031 110.5220235  48.3399813  39.1920749 111.0676772  49.4622878
  33.0649897 112.0662965  40.2724451  32.9449523 112.5120016  41.1109932
  32.3702486 112.4148283  39.7137989  33.3174019 112.0094472  56.5775949
  32.5407353 112.5688392  56.5678814  33.9564582 112.4951255  57.0990820
  41.1094800 108.7921265  50.4118926  40.4669180 109.0853798  49.7658721
  40.6049728 108.6774185  51.2172123  38.7634964 112.5384438  41.1004785
  39.6752820 112.7711825  40.9252483  38.2544611 113.1221483  40.5379864
  33.4006801 111.8981673  52.1099635  34.2467997 112.3221087  52.2534284
  33.3405439 111.2415297  52.8038198  36.5506247 109.5586041  53.7680809
  36.3067179 110.3128102  53.2315084  36.8266177 109.9371389  54.6028056
  38.5044709 116.1024654  52.4458074  38.7161605 116.7456414  51.7692455
  38.4574458 115.2686970  51.9780004  36.1070938 108.7142474  49.3494646
  35.2455417 109.0123728  49.6411384  36.1333373 108.9312873  48.4175679
  31.8601394 113.3807817  42.5658017  32.5625437 113.8328861  43.0331943
  31.5282022 112.7391636  43.1937910  30.3081755 111.9719574  56.9409226
  29.6780416 112.6535855  57.1744623  30.2017843 111.8602655  55.9962365
  25.6026728 111.6391370  47.8675151  24.8125782 111.8948898  47.3915261
  26.0937975 112.4539708  47.9727191  27.5541473 112.0035949  44.8258627
  26.7572636 112.1154643  45.3442123  27.3267065 112.3422601  43.9599518
  47.7096530 115.3235358  46.9665403  46.9560239 114.7542756  46.8109407
  47.8444072 115.2898022  47.9136038  29.5862498 106.2740340  59.3034478
  29.1929444 105.7206538  59.9782122  30.4028638 106.5850918  59.6940995
  32.5030459 107.6898219  56.8954734  33.2440172 108.2905372  56.8159197
  32.7348382 106.9475857  56.3372777  36.4487622 103.7179322  51.1719016
  36.1051891 104.6080963  51.0958126  36.8166585 103.5280979  50.3088601
  36.4137905 113.7087933  39.6791451  35.8984528 114.4792538  39.9179838
  36.1415213 113.0353069  40.3024512  33.9985016 108.5537634  44.7376689
  33.1426612 108.1644484  44.5582328  34.4111968 108.6329594  43.8776475
  35.5284162 106.0883977  49.1368249  35.0248958 106.0514112  48.3236054
  35.8214769 106.9976720  49.1964906  31.7727048 106.1722707  48.1434431
  32.6380045 105.9765515  47.7840320  31.8404557 105.9433058  49.0703788
  41.3872179 116.4620288  41.6144624  40.6101622 116.1231447  41.1699786
  42.0663660 116.4672911  40.9399589  36.2024208 111.5815025  41.5051232
  35.8974344 111.8961174  42.3561375  37.1554650 111.6596445  41.5478565
  39.6263486 115.9354269  48.2711232  38.9687160 116.6253530  48.3591361
  40.4303885 116.3250701  48.6145219  29.3789367 108.4024915  45.5150798
  29.9533119 108.1800096  44.7823991  29.9660350 108.4713609  46.2679399
  38.4368945 114.2898641  46.3215174  38.9500826 114.9228633  46.8236884
  39.0870168 113.6899837  45.9558534  29.7058955 110.4329376  39.5346683
  28.8696267 110.7704062  39.8555958  29.5663724 110.2978355  38.5973820
  31.6812035 105.2766163  44.2425867  31.0276447 104.9615181  43.6182482
  31.6392509 104.6541904  44.9685690  34.9149775 111.7648097  48.5673515
  33.9972337 111.9863044  48.4095203  35.3309919 111.8394407  47.7085222
  35.6984823 113.1639513  43.6976195  36.4456642 113.6760910  43.3883317
  35.9676413 112.8423565  44.5580588  38.1463660 110.1996629  45.6794984
  37.4086417 109.6874015  46.0105227  38.3990434 109.7597011  44.8678261
  38.2475288 102.9772881  46.2736753  38.5534165 102.1170244  45.9862669
  38.9727893 103.5690501  46.0735747  32.5196367 113.2726674  46.7812945
  32.5744977 112.3200510  46.7055421  31.7087569 113.4286113  47.2654243
  30.4588727 111.8903734  44.5403323  29.6456593 112.1897904  44.9468516
  30.9547722 111.4959423  45.2577806  36.0562939 112.3545558  53.3718217
  36.4112327 112.5817031  54.2312683  36.7035070 112.6863935  52.7495473
  41.7860676 115.4763994  44.0767546  41.6478575 115.6665590  43.1488736
  41.4296895 116.2383377  44.5335597  29.9502802 109.4622089  50.1564558
  30.5902181 109.3210848  49.4587522  29.1180333 109.1756603  49.7803160
  41.8130056 117.5440521  49.0878818  42.2466562 117.4515810  49.9361872
  42.5261636 117.5198022  48.4498834  27.0345869 112.9067601  42.3459303
  26.1043458 112.8452057  42.5629266  27.1303341 112.3843554  41.5495945
  26.9531419 109.4322414  44.9337545  27.2138236 110.3467748  44.8246706
  27.7748591 108.9646857  45.0834158  28.4256344 110.8460171  52.1036370
  29.0979397 110.6377534  51.4549019  27.5986130 110.6482257  51.6641602
  42.6745605 117.5864222  51.6211703  42.8681495 118.4910032  51.8670978
  42.5746223 117.1271641  52.4550288  34.3281916 107.4722112  54.1202031
  33.6809831 108.1712062  54.0266507  35.0982931 107.9058256  54.4878279
  34.5046050 115.3102877  52.1798850  35.4338110 115.4614037  52.0067818
  34.0837080 115.3986898  51.3247497  37.7898789 116.0591179  37.6123285
  37.1727959 115.3338007  37.5156338  37.3215277 116.8200539  37.2690360
  31.4566142 113.8322734  52.3522486  32.1665760 113.1915926  52.3109105
  31.4135450 114.0835629  53.2748667  30.1695076 110.8187952  54.1718126
  29.6332433 110.3678690  54.8239722  29.5811784 110.9533860  53.4288590
  29.5797335 110.2776603  36.7344590  28.7026801 110.1565404  36.3706836
  30.0555088 109.4862681  36.4823478  25.9034197 109.9543959  51.2571120
  25.8192386 109.3469629  50.5221530  25.0816903 110.4452978  51.2580617
  36.0757911 108.4397523  46.6241316  36.5726610 107.6867485  46.3042386
  35.3044892 108.4761840  46.0584525  43.9287668 114.1437888  48.2659607
  43.9177545 115.0262604  47.8953540  43.0605048 113.7909439  48.0714144
  32.6592880 110.5814906  46.3513000  32.2890667 110.0285946  47.0393906
  33.1551972 109.9773039  45.7988000  40.5460243 113.0386529  44.7329773
  41.0120695 113.8714521  44.6590076  40.9967743 112.5731511  45.4375032
  38.5176906 105.4067116  48.7720674  37.6039985 105.6371343  48.9402881
  38.9470007 105.4905560  49.6234707  38.2883364 113.5957008  51.2720568
  37.6354814 113.8432916  50.6173021  38.6663744 112.7821147  50.9383046
  34.3370937 114.3376819  57.7586605  33.6611574 114.2370949  58.4288981
  35.1598571 114.1816033  58.2222603  28.0558213 107.9918897  52.5966106
  28.1199540 108.8533728  52.1843504  27.9925334 107.3792898  51.8638465
  27.5310486 110.0642029  56.2439140  28.1582525 109.6819106  56.8576665
  26.6738405 109.8456231  56.6094833  24.3076029 111.8718458  42.1757495
  24.6029470 110.9629137  42.1224549  23.4064064 111.8506198  41.8538498
  27.8370276 109.9474455  48.1585044  27.1156861 110.5610423  48.0192517
  28.6263531 110.4832220  48.0801690  30.6396589 107.2828881  54.4325696
  31.1630991 107.5291178  55.1952005  30.4208922 108.1148916  54.0128833
  26.0363870 109.5532556  42.2996820  25.7076576 108.6729935  42.1171926
  26.3903241 109.4980225  43.1873210  29.1505693 109.8405526  42.6672298
  29.4901766 110.3691447  41.9450906  29.5977814 110.1785932  43.4430865
  31.8449134 108.2242576  52.1175366  31.5045954 107.4250390  52.5196046
  31.1388140 108.5244287  51.5452199  32.4965606 105.3091889  50.5702689
  33.3191675 104.8352367  50.4481580  32.7403669 106.0882373  51.0701375
  31.1373840 108.3380147  40.8665591  31.8582203 108.7161400  40.3629308
  30.5139145 109.0569024  40.9700569  35.2804963 109.0425296  41.8023923
  35.4968578 109.9249934  41.5012751  34.7999030 108.6511510  41.0729565
  30.0204185 112.0011010  48.3794668  29.8748765 112.3151313  49.2718949
  29.5429388 112.6195910  47.8265566  31.8800568 108.9913558  48.4275557
  31.8662136 108.0954651  48.0907855  32.5972996 108.9984221  49.0613843
  33.7326698 109.4250898  50.4728685  33.4744476 110.3467968  50.4713015
  33.2011739 109.0281332  51.1629149  31.2837464 107.8727938  43.6963127
  31.4053375 106.9444584  43.8954015  30.9939506 107.8866624  42.7841443
  34.1528654 105.5582848  46.8329847  34.1750351 105.6222181  45.8781827
  34.5696713 104.7187357  47.0270353  44.5312278 115.2938108  44.8709070
  44.9743424 114.5445433  44.4728193  43.6538789 115.2848244  44.4882802
  30.7678543 109.3859935  57.9053060  30.8166699 110.2622058  57.5230830
  31.3101057 108.8437328  57.3324703  41.3731264 116.7793525  54.4986926
  41.4229269 116.6143532  55.4402448  41.2645187 115.9120784  54.1084806
  38.6635026 112.7624453  55.8146232  39.5644889 112.6230918  55.5230230
  38.7383001 112.9278908  56.7544410  32.9977832 110.1391308  54.6599419
  32.1281141 110.4324874  54.3882007  33.2337312 110.7231753  55.3806682
  44.0745143 116.7643346  47.2631517  44.9092034 117.2033150  47.4269078
  44.2104272 116.2881999  46.4439763  41.1236649 114.3223081  53.2109005
  41.5990770 114.5150727  52.4027857  40.2002214 114.3782267  52.9652389
  35.7016865 106.3570924  52.1764839  36.2198809 107.0931951  51.8511328
  35.3471998 106.6634918  53.0111598  27.2815803 111.2175606  40.2926245
  26.5885048 111.2919961  39.6366281  27.0367555 110.4535949  40.8147762
  35.9529460 102.7771207  47.6965736  36.2331213 102.1094396  48.3226162
  36.7380066 102.9700303  47.1840400  39.8238318 111.1988841  51.4437311
  40.7755741 111.2986939  51.4649535  39.6541768 110.4067110  51.9535395
  37.8452697 108.2844424  51.6296712  37.2502629 108.5649437  50.9343200
  37.5602394 108.7738325  52.4013453  42.3026396 114.4194961  50.5579610
  42.2702716 113.4810961  50.7439294  42.9127019 114.4978997  49.8245435
  34.1409727 113.2891014  36.6006815  35.0868831 113.1597222  36.6695233
  33.7623971 112.5505676  37.0776243  42.4520884 111.2106004  50.6037894
  41.9359933 110.4264461  50.4167823  43.3360833 110.8824721  50.7684413
  40.1131611 104.9547020  46.5633706  39.9156432 104.6462108  47.4477038
  40.7231317 105.6808659  46.6931636  48.1202946 115.4810968  49.6985647
  48.8506334 115.2196256  50.2593351  47.5109891 114.7439689  49.7387715
  46.2018243 113.6218830  50.2960098  45.4751406 113.4874795  49.6876590
  45.7865530 113.9295659  51.1016817  32.3252644 111.2140990  36.5361700
  31.4184099 110.9174103  36.6124413  32.6028625 110.9170808  35.6695986
  33.9414709 105.7577880  42.6905941  33.1315438 105.4124965  43.0661187
  34.6299126 105.4485424  43.2793553  35.8705258 104.8355927  44.3130238
  36.4236296 105.2551380  44.9720261  36.1075344 103.9091675  44.3553194
  31.8938357 110.8243000  60.0933002  31.7935084 111.7737357  60.0245093
  31.6759899 110.4961239  59.2209072  31.0951428 108.0727925  36.6773679
  31.9570592 108.3982824  36.9369496  31.2801772 107.2859421  36.1646745
  39.2484065 106.9456452  43.8208902  38.6682734 107.6041256  43.4386954
  38.9819997 106.1233796  43.4096319  37.6987631 106.3461509  46.0230222
  38.1987410 106.4578044  45.2144541  38.3423239 106.0422562  46.6631031
  38.0308943 109.1056542  42.8765250  37.1434798 109.3906193  42.6585445
  38.4462932 108.9450305  42.0292527  41.3823479 109.1303063  46.5919589
  42.1583869 109.6199516  46.8644206  40.6571613 109.5561117  47.0491459
  43.8196038 109.8430682  47.6493530  44.4140528 109.6026418  46.9386838
  43.8922621 109.1237813  48.2767066  38.0049967 114.6211078  43.0915540
  37.9485168 115.0779629  42.2523173  38.5578309 113.8601763  42.9138383
  41.8154772 110.4100810  43.9165660  41.5591707 110.0097446  44.7473868
  41.1907640 111.1244604  43.7915799  46.1267110 113.1496883  46.4236951
  45.5666668 113.2190072  47.1968513  45.5210614 112.9737868  45.7036448
  38.7384746 115.8115859  40.3868070  38.6833550 115.6460131  39.4456514
  38.1130801 116.5191892  40.5430259  23.5277261 111.0483924  54.2129492
  24.1736124 110.5382878  54.7016717  23.3194412 111.7852605  54.7872917
  32.0480871 105.3123968  39.9653388  32.0359541 106.2565808  40.1221659
  32.9404293 105.1294114  39.6712849  35.8632991 101.9066745  44.2199325
  35.0965387 101.3525232  44.3656007  36.2743696 101.9788614  45.0813476
  27.8674752 108.1951541  58.3104506  28.7306213 107.8388346  58.5207831
  27.2940162 107.8565436  58.9979910  47.2881377 119.0471239  51.1719016
  46.9445646 119.9372881  51.0958126  47.6560339 118.8572897  50.3088601
  49.0869042 118.3064799  46.2736753  49.3927919 117.4462162  45.9862669
  49.8121647 118.8982419  46.0735747  46.7923214 118.1063125  47.6965736
  47.0724968 117.4386314  48.3226162  47.5773821 118.2992220  47.1840400
  50.9525366 120.2838937  46.5633706  50.7550187 119.9754026  47.4477038
  51.5625071 121.0100576  46.6931636  46.7026745 117.2358663  44.2199325
  45.9359141 116.6817149  44.3656007  47.1137450 117.3080531  45.0813476
   4.3521514  31.0129809  33.6910710   3.5985222  30.4437208  33.5354714
   4.4869055  30.9792474  34.6381344   0.7170126  32.4537798  33.9876824
   1.5517018  32.8927602  34.1514384   0.8529255  31.9776451  33.1685070
   4.7627929  31.1705419  36.4230954   5.4931317  30.9090708  36.9838657
   4.1534874  30.4334141  36.4633022   2.8443226  29.3113282  37.0205405
   2.1176390  29.1769247  36.4121897   2.4290513  29.6190111  37.8262123
   0.4621021  25.5325134  34.3738837   1.0565512  25.2920870  33.6632145
   0.5347605  24.8132265  35.0012373   2.7692094  28.8391335  33.1482258
   2.2091652  28.9084524  33.9213820   2.1635597  28.6632320  32.4281754
   4.3548112  45.5147849  35.8412214   4.9926522  45.3954596  35.1375554
   4.2368955  46.4628693  35.9000166   1.1637818  45.4675277  35.7773738
   0.8256330  45.3516342  34.8894273   2.0327587  45.0666442  35.7574744
   1.6457601  46.6210129  41.7359944   1.6346242  46.2262927  40.8640448
   1.8078241  45.8876201  42.3293715   2.6024193  50.9881721  27.0785094
   1.9512173  51.5735802  26.6919108   3.3968556  51.5187916  27.1380132
   3.9089381  43.2399303  32.9165422   4.6952470  42.8218726  32.5655839
   4.1728085  44.1445395  33.0847070   4.0799458  48.6772153  27.6154078
   3.4445291  48.7506780  28.3274983   3.7496864  49.2665752  26.9373158
   9.3097808  43.1774536  33.8198400  10.0422980  42.6073753  34.0536230
   8.5537163  42.7896136  34.2604906   0.9273927  45.6001778  31.0161743
   0.5632135  45.0732399  31.7274664   1.7841043  45.2100247  30.8428228
   6.8323228  36.8896110  38.2793009   6.5006553  37.7591521  38.0554224
   6.2368841  36.5732394  38.9587039   3.3254748  49.0908656  37.6788922
   3.0255471  49.9933695  37.5704729   2.9805807  48.8240839  38.5310074
   6.7251891  41.6091196  35.3586359   5.8168769  41.5406605  35.0645120
   6.6739487  42.0863141  36.1868184   8.5913538  39.8107635  37.1364233
   7.9487918  40.1040168  36.4904027   8.0868466  39.6960555  37.9417429
   6.2453701  43.5570808  27.8250092   7.1571558  43.7898195  27.6497790
   5.7363348  44.1407852  27.2625171   4.5294469  47.9795436  41.4611385
   4.9377825  47.5377846  40.7166017   3.8071731  47.4048063  41.7145578
   0.8825539  42.9168043  38.8344942   1.7286734  43.3407456  38.9779591
   0.8224177  42.2601667  39.5283505   4.8523284  48.5396626  35.2163673
   4.2232146  48.7042340  34.5139741   4.4648946  48.9538236  35.9874638
   8.7312516  49.4751064  32.5708037   8.0463554  49.8549966  32.0205071
   8.8156365  50.0846391  33.3039985   4.0324984  40.5772411  40.4926115
   3.7885916  41.3314471  39.9560391   4.3084915  40.9557758  41.3273362
   5.9863447  47.1211023  39.1703381   6.1980342  47.7642783  38.4937762
   5.9393195  46.2873340  38.7025311   3.5889676  39.7328844  36.0739953
   2.7274155  40.0310097  36.3656690   3.6152111  39.9499243  35.1420986
   7.1009275  49.9982979  37.3425738   7.9226719  49.5963166  37.0608420
   7.0971678  49.8951213  38.2941854  15.1915268  46.3421727  33.6910710
  14.4378977  45.7729125  33.5354714  15.3262809  46.3084392  34.6381344
   0.5813896  51.2135129  29.3665429   0.4459571  52.0586665  29.7950277
   1.1223709  51.4154407  28.6031363   2.2082373  51.8358696  43.4965771
   1.7646227  51.0495075  43.1786676   2.8699586  52.0237846  42.8309662
   4.3063611  52.1161496  41.5247172   4.2882086  52.9370377  41.0327441
   5.2283531  51.9915571  41.7497313   3.9306360  34.7365691  37.8964322
   3.5870629  35.6267333  37.8203433   4.2985322  34.5467349  37.0333907
   3.8956643  44.7274302  26.4036758   3.3803266  45.4978907  26.6425145
   3.6233951  44.0539439  27.0269819   1.4803754  39.5724003  31.4621996
   0.6245350  39.1830854  31.2827635   1.8930705  39.6515964  30.6021781
   3.0102900  37.1070346  35.8613556   2.5067696  37.0700482  35.0481361
   3.3033507  38.0163089  35.9210212   8.8690917  47.4806657  28.3389931
   8.0920359  47.1417817  27.8945093   9.5482398  47.4859280  27.6644896
   3.6842946  42.6001395  28.2296539   3.3793081  42.9147544  29.0806682
   4.6373388  42.6782814  28.2723872   2.1289378  48.7591618  29.8789493
   1.6010739  48.0244377  29.5662730   1.6276880  49.5366294  29.6329461
   7.1082224  46.9540638  34.9956539   6.4505898  47.6439900  35.0836668
   7.9122623  47.3437070  35.3390525   5.9187682  45.3085011  33.0460481
   6.4319564  45.9415003  33.5482190   6.5688906  44.7086207  32.6803841
   3.1810057  55.2869335  25.8021152   2.5071755  55.5901032  26.4106110
   3.5675879  56.0898416  25.4526609   2.3968513  42.7834467  35.2918821
   1.4791075  43.0049414  35.1340509   2.8128657  42.8580777  34.4330529
   3.1803561  44.1825882  30.4221502   3.9275380  44.6947279  30.1128624
   3.4495151  43.8609935  31.2825895   1.4530211  46.6784423  27.4048456
   0.5441430  46.3943456  27.5020926   1.4825295  47.0983502  26.5451763
   6.6849479  50.2891012  31.1739623   6.2311806  49.4481922  31.2304814
   6.0543445  50.9252411  31.5114404   5.6282398  41.2182999  32.4040291
   4.8905155  40.7060385  32.7350533   5.8809172  40.7783380  31.5923568
   5.1282418  52.1267509  32.1089442   5.4205392  52.6872566  31.3901807
   5.6381038  52.4196070  32.8642601   5.7294025  33.9959251  32.9982060
   6.0352902  33.1356614  32.7107975   6.4546630  34.5876871  32.7981054
   1.1506299  48.2193167  24.7436534   0.7125729  47.5029026  24.2842172
   1.8916740  48.4469281  24.1821626   3.5381677  43.3731928  40.0963524
   3.8931065  43.6003401  40.9557990   4.1853808  43.7050305  39.4740779
   9.2679414  46.4950364  30.8012853   9.1297312  46.6851960  29.8734042
   8.9115633  47.2569747  31.2580904   9.2948793  48.5626891  35.8124124
   9.7285300  48.4702180  36.6607178  10.0080374  48.5384391  35.1744140
   3.0276688  52.1628985  37.3457225   3.0813711  52.7319921  38.1134941
   2.1591470  52.3330870  36.9811262  10.1564343  48.6050591  38.3457010
  10.3500233  49.5096402  38.5916285  10.0564961  48.1458010  39.1795595
   1.8100654  38.4908482  40.8447337   1.1628569  39.1898432  40.7511814
   2.5801669  38.9244626  41.2123585   5.2179452  48.7557334  43.9197890
   5.0664958  48.5267886  43.0027974   5.2084131  49.7127936  43.9329235
   1.9864788  46.3289247  38.9044157   2.9156848  46.4800406  38.7313124
   1.5655818  46.4173268  38.0492803   1.3801272  55.4549008  28.0168231
   1.5553027  54.9837051  28.8313854   0.6934060  56.0814774  28.2449492
   2.3358335  49.7321514  34.0631532   2.0008168  49.6922284  34.9589182
   1.8362281  49.0666230  33.5901943   5.2717527  47.0777548  24.3368592
   4.6546697  46.3524376  24.2401645   4.8034015  47.8386909  23.9935666
   6.9271658  51.7876457  41.9974372   6.8684204  51.1035677  41.3304955
   7.3291177  52.5295447  41.5454998   6.9289066  49.7516041  40.2288352
   6.0415844  49.4141962  40.3514751   7.4987617  49.0199072  40.4657117
   3.5576649  39.4583892  33.3486622   4.0545348  38.7053855  33.0287692
   2.7863630  39.4948209  32.7829831  11.4106406  45.1624258  34.9904914
  11.3996282  46.0448973  34.6198847  10.5423786  44.8095809  34.7959451
   2.9188902  54.3104327  39.3507754   3.6316875  54.9451792  39.2783655
   2.4278931  54.4068193  38.5347756   4.6406429  48.2155580  30.9225046
   3.7062708  48.3357042  30.7529750   4.8183098  47.3128046  30.6585055
   8.0278981  44.0572899  31.4575080   8.4939433  44.8900891  31.3835382
   8.4786481  43.5917880  32.1620338   6.0955212  50.4016720  28.4561232
   6.3715056  50.2873315  29.3655106   5.2259711  50.0034205  28.4173405
   5.9995643  36.4253486  35.4965981   5.0858723  36.6557713  35.6648188
   6.4288745  36.5091930  36.3480013   5.7702102  44.6143378  37.9965875
   5.1173552  44.8619285  37.3418328   6.1482482  43.8007516  37.6628352
   2.7309276  54.6503071  32.0994045   2.9131670  53.8324727  32.5621798
   3.5542262  54.8670763  31.6618935   3.0651441  53.5771256  29.3609094
   3.5939208  53.0663711  28.7479256   3.3279661  53.2613786  30.2254627
   1.8189675  45.3563189  44.4831912   1.1430312  45.2557318  45.1534287
   2.6417309  45.2002403  44.9467909   0.5612458  56.6630116  38.7189528
   1.1130766  56.8261738  39.4838613   0.9018651  57.2534554  38.0469553
   5.4123332  51.4891374  44.5738183   5.9563236  52.1021332  44.0793137
   4.8310177  52.0470952  45.0905196   3.6980845  54.6112092  35.7053210
   3.5731985  53.8101832  35.1964156   4.3559936  55.1058285  35.2167180
   5.7615754  52.4121112  37.3332760   4.8146089  52.2926463  37.2611087
   6.1098527  51.5243610  37.4159022   2.7662187  52.2073828  33.5337113
   2.6187149  51.2790536  33.7144683   3.5915680  52.2293919  33.0494188
   6.3696309  53.0302387  34.6201985   7.2942856  52.8245248  34.4826436
   6.2011612  52.7818788  35.5291327   2.7623701  40.0611666  28.5269230
   2.9787316  40.9436304  28.2258058   2.2817768  39.6697879  27.7974872
   1.2145436  40.4437267  37.1973991   0.9563214  41.3654338  37.1958322
   0.6830476  40.0467702  37.8874456   6.1591625  53.5488054  29.9764077
   6.3328502  52.9834477  29.2237929   6.6520516  54.3488949  29.7943567
   1.6347392  36.5769218  33.5575154   1.6569089  36.6408551  32.6027134
   2.0515451  35.7373726  33.7515660  12.0131016  46.3124477  31.5954377
  12.4562162  45.5631803  31.1973500  11.1357526  46.3034614  31.2128109
   7.1466797  52.8654819  27.0760975   7.8417702  53.4861511  27.2948290
   7.4889947  52.0150170  27.3513353   9.0458220  50.3154524  28.6048306
   9.5709545  50.6541797  27.8797626   8.9580573  49.3801540  28.4211440
   0.7078269  54.2288598  40.7338182   1.0165396  53.9837745  41.6060882
   1.5053751  54.4335236  40.2457053   8.7352127  50.9487428  43.9099504
   7.9447670  50.9311567  43.3704003   8.4985481  51.4875722  44.6648540
   8.8550002  47.7979894  41.2232232   8.9048007  47.6329902  42.1647755
   8.7463925  46.9307153  40.8330113   6.1453764  43.7810822  42.5391539
   7.0463627  43.6417287  42.2475537   6.2201738  43.9465277  43.4789716
  10.3568198  50.2176836  41.4674254  10.0653007  50.5806816  42.3037715
   9.7440330  49.5043844  41.2887586  11.5563881  47.7829716  33.9876824
  12.3910772  48.2219520  34.1514384  11.6923010  47.3068369  33.1685070
   8.6055387  45.3409450  39.9354312   9.0809508  45.5337097  39.1273163
   7.6820952  45.3968636  39.6897696   3.1835603  37.3757294  38.9010146
   3.7017547  38.1118321  38.5756634   2.8290736  37.6821287  39.7356905
   3.4348197  33.7957577  34.4211042   3.7149951  33.1280766  35.0471469
   4.2198804  33.9886672  33.9085706   1.2381666  52.9716570  25.9836069
   0.6655633  53.5906758  25.5306541   1.8114459  53.5215932  26.5175991
   7.3057056  42.2175211  38.1682617   8.2574479  42.3173308  38.1894842
   7.1360506  41.4253479  38.6780702   5.3271435  39.3030794  38.3542018
   4.7321367  39.5835807  37.6588507   5.0421132  39.7924695  39.1258759
   4.4578926  53.2553721  27.1144651   5.3909599  53.1899282  27.3177526
   4.3702138  54.0909987  26.6559184   7.0866942  52.5719591  24.0748599
   7.0080574  52.2379455  24.9684356   7.9076609  53.0641359  24.0740071
   9.7845133  45.4381330  37.2824917   9.7521454  44.4997331  37.4684601
  10.3945757  45.5165367  36.5490742   1.6228464  44.3077383  23.3252121
   2.5687569  44.1783591  23.3940539   1.2442709  43.5692045  23.8021549
   9.9339622  42.2292374  37.3283200   9.4178671  41.4450830  37.1413129
  10.8179570  41.9011090  37.4929720   7.5950349  35.9733389  33.2879013
   7.3975170  35.6648477  34.1722345   8.2050054  36.6995028  33.4176943
  15.6021683  46.4997337  36.4230954  16.3325072  46.2382625  36.9838657
  14.9928629  45.7626059  36.4633022  13.6836980  44.6405200  37.0205405
  12.9570144  44.5061165  36.4121897  13.2684267  44.9482028  37.8262123
   1.5067157  48.3595129  44.7852778   2.4270166  48.5373728  44.9792825
   1.4716740  47.4151175  44.6332477   1.4233447  36.7764249  29.4151248
   0.6134176  36.4311334  29.7906494   2.1117864  36.4671793  30.0038859
   3.3523995  35.8542296  31.0375544   3.9055034  36.2737750  31.6965567
   3.5894082  34.9278044  31.0798500   6.7302803  37.9642821  30.5454209
   6.1501472  38.6227625  30.1632261   6.4638735  37.1420166  30.1341626
   5.1806369  37.3647879  32.7475529   5.6806147  37.4764414  31.9389848
   5.8241977  37.0608932  33.3876337   5.5127681  40.1242912  29.6010557
   4.6253536  40.4092562  29.3830752   5.9281670  39.9636675  28.7537834
   8.8642217  40.1489433  33.3164896   9.6402607  40.6385885  33.5889513
   8.1390351  40.5747487  33.7736766  11.3014775  40.8617052  34.3738837
  11.8959266  40.6212788  33.6632145  11.3741359  40.1424182  35.0012373
   4.6570894  49.8887586  23.6958577   5.3606744  50.0937589  24.3116232
   3.9333543  50.4564348  23.9607660   5.4868704  45.6397448  29.8160847
   5.4303906  46.0965999  28.9768479   6.0397047  44.8788132  29.6383690
   9.2973510  41.4287179  30.6410967   9.0410444  41.0283815  31.4719174
   8.6726378  42.1430973  30.5161106  13.6085848  44.1683253  33.1482258
  13.0485406  44.2376442  33.9213820  13.0029351  43.9924237  32.4281754
   6.5657591  50.3270116  25.7457037   7.4003195  49.8951314  25.5634512
   6.4041934  50.1552129  26.6733931   6.2203484  46.8302229  27.1113376
   6.1652287  46.6646500  26.1701820   5.5949539  47.5378262  27.2675566
   3.5349391  49.1351141  46.4366939   4.4040550  49.3091793  46.0753574
   3.0556142  49.9545558  46.3142668   3.3451729  32.9253115  30.9444631
   2.5784124  32.3711601  31.0901314   3.7562434  32.9974983  31.8058783
  15.1941867  60.8439767  35.8412214  15.8320276  60.7246514  35.1375554
  15.0762709  61.7920611  35.9000166  12.0031573  60.7967195  35.7773738
  11.6650084  60.6808259  34.8894273  12.8721341  60.3958360  35.7574744
   7.8618389  62.6502671  31.7670629   7.2983254  62.5592608  30.9986917
   7.7470784  61.8302576  32.2473122  12.4851356  61.9502047  41.7359944
  12.4739997  61.5554845  40.8640448  12.6471995  61.2168119  42.3293715
   5.4082820  64.1453863  34.6054850   6.2004112  63.8044687  34.1901149
   5.6479471  64.2548838  35.5257003  13.4417947  66.3173639  27.0785094
  12.7905927  66.9027719  26.6919108  14.2362310  66.8479834  27.1380132
   7.3673574  63.4062776  27.4772229   8.1404450  62.8591763  27.3385104
   7.7198973  64.2707025  27.6886690   9.2058617  64.7339158  40.6839128
   8.9148483  65.6384789  40.5685794   9.8415601  64.7755686  41.3983197
  10.1314824  62.1116007  37.2740487  10.7278396  61.8872029  36.5597450
  10.1889795  61.3700752  37.8765935   9.7039852  59.5655442  25.1090678
   9.9565373  59.0436963  24.3474141   8.7664411  59.4021588  25.2117362
  14.7483135  58.5691221  32.9165422  15.5346224  58.1510644  32.5655839
  15.0121839  59.4737313  33.0847070  14.9193212  64.0064071  27.6154078
  14.2839045  64.0798697  28.3274983  14.5890619  64.5957670  26.9373158
  20.1491562  58.5066454  33.8198400  20.8816734  57.9365671  34.0536230
  19.3930918  58.1188054  34.2604906   9.4236141  61.4683548  27.3115053
   9.3072399  60.7928451  27.9796138   9.5338401  60.9815922  26.4947206
  11.7667682  60.9293695  31.0161743  11.4025889  60.4024316  31.7274664
  12.6234798  60.5392164  30.8428228  17.6716982  52.2188028  38.2793009
  17.3400307  53.0883439  38.0554224  17.0762596  51.9024312  38.9587039
  11.4073169  55.9583595  26.0123091  11.5747571  56.8263831  26.3793562
  11.2170338  56.1210877  25.0884380  14.1648502  64.4200574  37.6788922
  13.8649225  65.3225613  37.5704729  13.8199562  64.1532757  38.5310074
   7.6160984  60.8714371  33.7125626   6.6911480  60.7390585  33.9203318
   7.8645397  61.6508590  34.2095568  17.5645646  56.9383114  35.3586359
  16.6562523  56.8698522  35.0645120  17.5133242  57.4155059  36.1868184
  11.3862390  58.4141252  26.9969758  11.2662015  58.8598303  27.8355238
  10.6914978  58.7626570  26.4383296   4.9769795  60.5147644  34.5469415
   5.1062176  60.7682123  35.4608827   4.2967246  61.1075352  34.2274070
   9.1469282  71.1844894  30.6459889   9.0693312  72.1352719  30.7248370
   8.5430925  70.8390767  31.3034816  11.6386512  58.3572760  43.3021256
  10.8619846  58.9166680  43.2924121  12.2777075  58.8429543  43.8236126
  19.4307292  55.1399552  37.1364233  18.7881672  55.4332086  36.4904027
  18.9262221  55.0252473  37.9417429  17.0847456  58.8862726  27.8250092
  17.9965312  59.1190112  27.6497790  16.5757103  59.4699770  27.2625171
   9.8932884  61.1658213  42.8639223  10.6347568  61.7043257  42.5874047
   9.1869869  61.7924502  43.0210775  15.3688224  63.3087353  41.4611385
  15.7771580  62.8669764  40.7166017  14.6465485  62.7339981  41.7145578
  11.7219294  58.2459960  38.8344942  12.5680489  58.6699374  38.9779591
  11.6617931  57.5893585  39.5283505  15.6917038  63.8688544  35.2163673
  15.0625901  64.0334258  34.5139741  15.3042700  64.2830154  35.9874638
  19.5706270  64.8042982  32.5708037  18.8857308  65.1841883  32.0205071
  19.6550119  65.4138309  33.3039985  14.8718739  55.9064329  40.4926115
  14.6279671  56.6606389  39.9560391  15.1478669  56.2849676  41.3273362
  16.8257202  62.4502941  39.1703381  17.0374097  63.0934701  38.4937762
  16.7786950  61.6165257  38.7025311  14.4283431  55.0620762  36.0739953
  13.5667910  55.3602015  36.3656690  14.4545865  55.2791160  35.1420986
  11.2445000  63.6062952  32.4813759  11.7083346  63.8850655  31.6918381
  10.9801798  62.7046397  32.2986849   8.1369081  63.1534434  35.4193522
   8.7070438  63.5821702  34.7811006   8.7277193  62.8717018  36.1177708
  10.1813886  59.7286105  29.2903324  10.8837929  60.1807148  29.7577250
   9.8494515  59.0869923  29.9183217   8.6294248  58.3197861  43.6654533
   7.9992908  59.0014142  43.8989930   8.5230336  58.2080943  42.7207671
   3.9239220  57.9869657  34.5920457   3.1338274  58.2427186  34.1160568
   4.4150467  58.8017995  34.6972498  17.9403030  65.3274896  37.3425738
  18.7620473  64.9255084  37.0608420  17.9365433  65.2243131  38.2941854
   5.8753965  58.3514236  31.5503934   5.0785129  58.4632931  32.0687430
   5.6479558  58.6900889  30.6844825  11.7059633  64.8758940  39.4986449
  11.7704066  65.3379347  40.3344620  10.9970557  64.2456305  39.6268758
   2.2076923  58.2400148  37.0235448   2.4584961  59.1247158  37.2893024
   2.7436471  58.0604749  36.2510540  26.0309023  61.6713645  33.6910710
  25.2772731  61.1021043  33.5354714  26.1656564  61.6376309  34.6381344
  11.4207651  66.5427047  29.3665429  11.2853326  67.3878583  29.7950277
  11.9617463  66.7446325  28.6031363   7.9074990  52.6218627  46.0279784
   7.5141936  52.0684826  46.7027428   8.7241131  52.9329205  46.4186302
   4.8737048  64.0602485  29.9393354   5.3861569  64.8545735  30.0898919
   5.5259761  63.3628776  29.8726955   6.6831933  67.1768241  32.0216107
   6.8598561  68.0986206  31.8337091   7.4788766  66.8626661  32.4510487
  10.8242951  54.0376506  43.6200041  11.5652665  54.6383659  43.5404503
  11.0560874  53.2954144  43.0618083   5.9684289  59.2232873  41.8978270
   5.8537805  58.3218131  42.1985369   5.1128807  59.4696570  41.5463087
  13.0476127  67.1650614  43.4965771  12.6039981  66.3786992  43.1786676
  13.7093341  67.3529764  42.8309662   7.8063248  68.6946415  38.0226450
   8.3570673  68.5663479  37.2503443   6.9674724  68.9941304  37.6721342
  15.1457365  67.4453414  41.5247172  15.1275841  68.2662295  41.0327441
  16.0677285  67.3207489  41.7497313  11.6030419  64.9597543  42.3670681
  12.1358756  64.1985831  42.1369989  11.0744500  64.6671195  43.1094835
  14.7700114  50.0657609  37.8964322  14.4264384  50.9559251  37.8203433
  15.1379077  49.8759267  37.0333907   2.8385965  62.3891139  30.7152925
   3.6761187  62.7988148  30.4986632   3.0164233  61.4490582  30.6853118
  14.7350397  60.0566220  26.4036758  14.2197020  60.8270825  26.6425145
  14.4627705  59.3831356  27.0269819  12.3197508  54.9015921  31.4621996
  11.4639104  54.5122771  31.2827635  12.7324460  54.9807882  30.6021781
  13.8496655  52.4362264  35.8613556  13.3461450  52.3992399  35.0481361
  14.1427262  53.3455007  35.9210212  10.0939541  52.5200994  34.8679737
  10.9592537  52.3243803  34.5085627  10.1617050  52.2911346  35.7949094
  19.7084671  62.8098575  28.3389931  18.9314114  62.4709734  27.8945093
  20.3876152  62.8151198  27.6644896  14.5236700  57.9293312  28.2296539
  14.2186836  58.2439461  29.0806682  15.4767142  58.0074732  28.2723872
  12.9683132  64.0883536  29.8789493  12.4404494  63.3536295  29.5662730
  12.4670635  64.8658212  29.6329461  17.9475978  62.2832556  34.9956539
  17.2899653  62.9731817  35.0836668  18.7516377  62.6728988  35.3390525
   7.7001860  54.7503202  32.2396104   8.2745612  54.5278383  31.5069297
   8.2872842  54.8191896  32.9924706  16.7581437  60.6376929  33.0460481
  17.2713319  61.2706921  33.5482190  17.4082661  60.0378124  32.6803841
   8.0271447  56.7807663  26.2591989   7.1908759  57.1182349  26.5801264
   7.8876216  56.6456643  25.3219126  10.0024527  51.6244451  30.9671174
   9.3488940  51.3093468  30.3427788   9.9605002  51.0020191  31.6930997
  11.1135732  61.9063746  22.8824466  10.2062794  61.6752999  23.0815615
  11.6106764  61.1101365  23.0698447  14.0203811  70.6161253  25.8021152
  13.3465510  70.9192950  26.4106110  14.4069633  71.4190333  25.4526609
  13.2362268  58.1126384  35.2918821  12.3184829  58.3341331  35.1340509
  13.6522411  58.1872695  34.4330529  14.0197316  59.5117800  30.4221502
  14.7669134  60.0239197  30.1128624  14.2888905  59.1901853  31.2825895
  12.2923966  62.0076341  27.4048456  11.3835185  61.7235373  27.5020926
  12.3219049  62.4275419  26.5451763  17.5243233  65.6182930  31.1739623
  17.0705560  64.7773840  31.2304814  16.8937200  66.2544329  31.5114404
  16.4676153  56.5474916  32.4040291  15.7298909  56.0352302  32.7350533
  16.7202926  56.1075298  31.5923568  15.9676172  67.4559427  32.1089442
  16.2599147  68.0164484  31.3901807  16.4774793  67.7487988  32.8642601
  16.5687780  49.3251168  32.9982060  16.8746657  48.4648532  32.7107975
  17.2940385  49.9168788  32.7981054   2.8612136  59.7281855  31.3863658
   2.6636536  59.1351215  30.6614725   2.3058800  59.4234065  32.1039597
  10.8408860  59.6204961  33.5058251  10.8957470  58.6678798  33.4300728
  10.0300062  59.7764400  33.9899550  11.9900053  63.5485084  24.7436534
  11.5519483  62.8320943  24.2842172  12.7310494  63.7761199  24.1821626
   8.7801220  58.2382021  31.2648630   7.9669085  58.5376192  31.6713822
   9.2760214  57.8437710  31.9823112  10.9309798  68.2339778  33.1982895
  10.8885976  68.4600624  32.2691427  11.8472496  68.0003153  33.3468696
  14.3775431  58.7023845  40.0963524  14.7324819  58.9295319  40.9557990
  15.0247563  59.0342222  39.4740779  20.1073168  61.8242281  30.8012853
  19.9691067  62.0143877  29.8734042  19.7509387  62.5861664  31.2580904
   8.2715294  55.8100377  36.8809865   8.9114674  55.6689136  36.1832828
   7.4392825  55.5234890  36.5048467  20.1342548  63.8918808  35.8124124
  20.5679055  63.7994097  36.6607178  20.8474129  63.8676309  35.1744140
   9.0475598  65.1102807  32.9944857   9.8416197  64.6153127  32.7927432
   8.3367291  64.5820670  32.6312563  13.8670443  67.4920902  37.3457225
  13.9207465  68.0611839  38.1134941  12.9985224  67.6622788  36.9811262
   5.3558362  59.2545889  29.0704610   4.4255950  59.1930344  29.2874572
   5.4515834  58.7321841  28.2741251   5.2743911  55.7800702  31.6582852
   5.5350728  56.6946035  31.5492012   6.0961083  55.3125144  31.8079465
   6.7468836  57.1938459  38.8281676   7.4191890  56.9855821  38.1794325
   5.9198623  56.9960545  38.3886909  20.9958097  63.9342509  38.3457010
  21.1893988  64.8388320  38.5916285  20.8958716  63.4749928  39.1795595
  12.6494408  53.8200400  40.8447337  12.0022323  54.5190349  40.7511814
  13.4195424  54.2536544  41.2123585  16.0573206  64.0849252  43.9197890
  15.9058713  63.8559803  43.0027974  16.0477886  65.0419853  43.9329235
  12.8258543  61.6581165  38.9044157  13.7550603  61.8092324  38.7313124
  12.4049573  61.7465185  38.0492803  11.6246874  65.6831829  36.6742695
  11.4857960  65.3150613  37.5468633  10.8361471  66.1979468  36.5026652
  12.2195026  70.7840925  28.0168231  12.3946782  70.3128969  28.8313854
  11.5327814  71.4106692  28.2449492  13.1752089  65.0613432  34.0631532
  12.8401922  65.0214202  34.9589182  12.6756035  64.3958148  33.5901943
   7.1496333  60.4681062  39.5884113   7.0116131  59.7361300  40.1895653
   8.0601257  60.3789962  39.3068301  16.1111281  62.4069466  24.3368592
  15.4940452  61.6816294  24.2401645  15.6427770  63.1678826  23.9935666
   9.7778634  60.1801021  39.0767793  10.4878253  59.5394213  39.0354412
   9.7347942  60.4313916  39.9993974  17.7665413  67.1168374  41.9974372
  17.7077959  66.4327594  41.3304955  18.1684931  67.8587364  41.5454998
   8.4907568  57.1666239  40.8963433   7.9544925  56.7156977  41.5485029
   7.9024277  57.3012148  40.1533897   6.7856112  73.9330288  34.7908091
   7.0252710  74.5648812  35.4687110   5.9425308  73.5818328  35.0773450
   7.9009827  56.6254890  23.4589896   7.0239293  56.5043691  23.0952143
   8.3767580  55.8340969  23.2068785  17.7682820  65.0807958  40.2288352
  16.8809599  64.7433880  40.3514751  18.3381371  64.3490989  40.4657117
   4.2246689  56.3022247  37.9816427   4.1404878  55.6947916  37.2466837
   3.4029396  56.7931265  37.9825923  11.2983973  69.7409411  37.1949595
  11.2254145  70.5464382  37.7068900  10.8561367  69.9401376  36.3697617
  11.0873753  68.9781181  30.7052417  10.3041275  69.5202861  30.7990641
  11.7866498  69.4955160  31.1046658  14.3970403  54.7875810  33.3486622
  14.8939103  54.0345772  33.0287692  13.6257385  54.8240127  32.7829831
  22.2500161  60.4916176  34.9904914  22.2390037  61.3740891  34.6198847
  21.3817540  60.1387726  34.7959451  13.7582657  69.6396245  39.3507754
  14.4710629  70.2743709  39.2783655  13.2672686  69.7360111  38.5347756
  15.4800184  63.5447497  30.9225046  14.5456463  63.6648960  30.7529750
  15.6576852  62.6419964  30.6585055  10.9805372  56.9293193  33.0758307
  10.6103159  56.3764233  33.7639212  11.4764464  56.3251327  32.5233307
  18.8672735  59.3864817  31.4575080  19.3333187  60.2192808  31.3835382
  19.3180236  58.9209798  32.1620338   8.8094570  67.3890688  40.1713325
   9.5104030  68.0227171  40.3242719   8.3389685  67.7305420  39.4108964
  16.9348966  65.7308638  28.4561232  17.2108810  65.6165232  29.3655106
  16.0653465  65.3326123  28.4173405  16.8389398  51.7545404  35.4965981
  15.9252478  51.9849630  35.6648188  17.2682499  51.8383848  36.3480013
  16.6095856  59.9435296  37.9965875  15.9567307  60.1911203  37.3418328
  16.9876236  59.1299434  37.6628352  13.5703030  69.9794989  32.0994045
  13.7525425  69.1616645  32.5621798  14.3936016  70.1962681  31.6618935
  13.9045196  68.9063174  29.3609094  14.4332962  68.3955628  28.7479256
  14.1673415  68.5905704  30.2254627  12.6583429  60.6855107  44.4831912
  11.9824066  60.5849236  45.1534287  13.4811063  60.5294320  44.9467909
   4.4062289  66.9227043  37.1044427   4.9915725  66.1770731  37.2372332
   4.2087127  67.2331000  37.9881091   7.2600944  69.9578291  32.1206870
   6.5911319  70.4424418  31.6370910   7.1213813  70.2047511  33.0350248
  11.4006212  71.9922034  38.7189528  11.9524520  72.1553656  39.4838613
  11.7412406  72.5826472  38.0469553   6.3770706  54.3397184  39.3211413
   6.4412032  55.2012015  38.9088811   6.3137826  53.7271186  38.5883771
   5.8522978  56.4120316  42.9684447   6.4795017  56.0297394  43.5821971
   4.9950897  56.1934518  43.3340140  16.2517087  66.8183292  44.5738183
  16.7956991  67.4313250  44.0793137  15.6703932  67.3762870  45.0905196
   2.6288521  58.2196746  28.9002802   2.9241962  57.3107424  28.8469856
   1.7276557  58.1984485  28.5783804  14.5374600  69.9404010  35.7053210
  14.4125739  69.1393749  35.1964156  15.1953691  70.4350203  35.2167180
   6.1582768  56.2952742  34.8830351   5.4369354  56.9088710  34.7437824
   6.9476024  56.8310507  34.8046996  16.6009508  67.7413030  37.3332760
  15.6539844  67.6218381  37.2611087  16.9492281  66.8535528  37.4159022
   8.9609081  53.6307169  41.1571002   9.4843483  53.8769465  41.9197312
   8.7421415  54.4627203  40.7374140   4.3576362  55.9010843  29.0242127
   4.0289069  55.0208222  28.8417233   4.7115733  55.8458512  29.9118516
  13.6055941  67.5365746  33.5337113  13.4580904  66.6082453  33.7144683
  14.4309435  67.5585837  33.0494188   7.4718186  56.1883813  29.3917605
   7.8114258  56.7169734  28.6696213   7.9190306  56.5264219  30.1676171
  17.2090063  68.3594305  34.6201985  18.1336611  68.1537166  34.4826436
  17.0405367  68.1110706  35.5291327  10.1661626  54.5720864  38.8420673
   9.8258447  53.7728677  39.2441353   9.4600633  54.8722575  38.2697506
  10.8178098  51.6570176  37.2947996  11.6404168  51.1830654  37.1726886
  11.0616162  52.4360660  37.7946682   9.4586333  54.6858435  27.5910898
  10.1794695  55.0639687  27.0874614   8.8351637  55.4047311  27.6945875
  13.6017456  55.3903584  28.5269230  13.8181070  56.2728221  28.2258058
  13.1211523  54.9989797  27.7974872   8.3416677  58.3489297  35.1039974
   8.1961258  58.6629600  35.9964256   7.8641881  58.9674197  34.5510873
  10.2013060  55.3391845  35.1520864  10.1874629  54.4432938  34.8153162
  10.9185488  55.3462508  35.7859150  12.0539191  55.7729185  37.1973991
  11.7956968  56.6946256  37.1958322  11.5224231  55.3759619  37.8874456
  16.9985379  68.8779972  29.9764077  17.1722257  68.3126395  29.2237929
  17.4914271  69.6780867  29.7943567   2.8162339  60.8894641  38.0427636
   2.2715807  61.6654449  38.1747910   3.6941689  61.2365446  37.8846757
   9.6049956  54.2206225  30.4208434   9.7265867  53.2922871  30.6199322
   9.3151998  54.2344911  29.5086750  12.4741146  51.9061135  33.5575154
  12.4962843  51.9700469  32.6027134  12.8909205  51.0665644  33.7515660
  22.8524771  61.6416395  31.5954377  23.2955917  60.8923720  31.1973500
  21.9751281  61.6326531  31.2128109  17.9860552  68.1946736  27.0760975
  18.6811456  68.8153429  27.2948290  18.3283702  67.3442088  27.3513353
   3.6028361  60.0164537  40.9357792   2.8610097  60.1647173  41.5222423
   3.2821105  60.2772803  40.0724542  19.8851975  65.6446442  28.6048306
  20.4103299  65.9833715  27.8797626  19.7974328  64.7093457  28.4211440
  11.5472024  69.5580516  40.7338182  11.8559150  69.3129662  41.6060882
  12.3447506  69.7627154  40.2457053  11.5692636  71.7118425  32.9643559
  11.1297626  71.2194804  33.6576416  12.3200753  71.1691393  32.7235634
   4.0484975  67.9029966  32.9668187   4.8742995  67.6033738  32.5866831
   3.6979027  67.1337589  33.4157976   9.0166508  67.2556434  35.0365861
   8.3946517  66.5927139  34.7368089   9.6871375  67.2817566  34.3539508
   2.2493580  65.8216293  33.9257121   1.4125488  65.3938467  33.7441122
   2.2217225  66.0148736  34.8627912   9.0891035  55.7338222  44.6298367
   9.1379191  56.6100345  44.2476136   9.6313550  55.1915615  44.0570010
  19.5745881  66.2779346  43.9099504  18.7841425  66.2603484  43.3704003
  19.3379236  66.8167639  44.6648540  19.6943756  63.1271812  41.2232232
  19.7441761  62.9621819  42.1647755  19.5857679  62.2599071  40.8330113
   8.5780015  65.8060358  28.5124321   8.7268135  66.4895822  27.8590994
   9.3846458  65.7865448  29.0273777  16.9847518  59.1102740  42.5391539
  17.8857381  58.9709205  42.2475537  17.0595493  59.2757195  43.4789716
  11.3190324  56.4869595  41.3844725  10.4493633  56.7803161  41.1127314
  11.5549804  57.0710040  42.1051989  21.1961953  65.5468754  41.4674254
  20.9046761  65.9098734  42.3037715  20.5834084  64.8335762  41.2887586
  22.3957635  63.1121633  33.9876824  23.2304527  63.5511437  34.1514384
  22.5316764  62.6360287  33.1685070  19.4449141  60.6701368  39.9354312
  19.9203263  60.8629014  39.1273163  18.5214707  60.7260554  39.6897696
   6.3332648  61.8325535  29.5185390   6.0878690  60.9287865  29.7165600
   6.5028562  61.8342686  28.5764868  14.0229358  52.7049212  38.9010146
  14.5411302  53.4410239  38.5756634  13.6684490  53.0113205  39.7356905
   5.6028295  57.5653893  27.0171552   4.9097540  57.6398248  26.3611588
   5.3580047  56.8014237  27.5393069  14.2741952  49.1249494  34.4211042
  14.5543706  48.4572683  35.0471469  15.0592559  49.3178590  33.9085706
  12.0775420  68.3008488  25.9836069  11.5049387  68.9198675  25.5306541
  12.6508214  68.8507850  26.5175991  18.1450810  57.5467128  38.1682617
  19.0968233  57.6465226  38.1894842  17.9754261  56.7545397  38.6780702
  16.1665190  54.6322711  38.3542018  15.5715122  54.9127724  37.6588507
  15.8814886  55.1216612  39.1258759  15.2972680  68.5845638  27.1144651
  16.2303353  68.5191200  27.3177526  15.2095893  69.4201905  26.6559184
  17.9260697  67.9011509  24.0748599  17.8474328  67.5671372  24.9684356
  18.7470364  68.3933277  24.0740071  20.6238888  60.7673248  37.2824917
  20.5915208  59.8289249  37.4684601  21.2339512  60.8457285  36.5490742
  12.4622219  59.6369301  23.3252121  13.4081324  59.5075509  23.3940539
  12.0836464  58.8983963  23.8021549  20.7733376  57.5584291  37.3283200
  20.2572425  56.7742748  37.1413129  21.6573325  57.2303008  37.4929720
  18.4344103  51.3025307  33.2879013  18.2368924  50.9940395  34.1722345
  19.0443809  52.0286946  33.4176943  26.4415438  61.8289255  36.4230954
  27.1718826  61.5674543  36.9838657  25.8322383  61.0917977  36.4633022
  24.5230735  59.9697117  37.0205405  23.7963898  59.8353082  36.4121897
  24.1078022  60.2773946  37.8262123  12.3460911  63.6887047  44.7852778
  13.2663921  63.8665646  44.9792825  12.3110494  62.7443092  44.6332477
  10.6465136  57.5619277  23.2607006   9.7396591  57.2652390  23.3369720
  10.9241117  57.2649095  22.3941293   1.5643076  58.8825641  33.7106053
   1.2445861  58.0290949  33.4180427   1.0176505  59.0974219  34.4664020
   5.3422984  61.5988082  37.4275559   5.5608994  62.5305190  37.4463593
   5.7548758  61.2396056  38.2130363  12.2627202  52.1056167  29.4151248
  11.4527930  51.7603252  29.7906494  12.9511619  51.7963711  30.0038859
  14.1917750  51.1834214  31.0375544  14.7448789  51.6029667  31.6965567
  14.4287836  50.2569962  31.0798500  10.2150849  57.1721287  46.8178308
  10.1147576  58.1215644  46.7490399   9.9972391  56.8439526  45.9454378
   9.4163921  54.4206213  23.4018986  10.2783085  54.7461111  23.6614803
   9.6014265  53.6337708  22.8892051   1.4331336  62.5028552  35.6799174
   0.7394808  62.0882505  35.1669129   2.1804327  62.5449089  35.0832593
  17.5696557  53.2934739  30.5454209  16.9895226  53.9519543  30.1632261
  17.3032490  52.4712084  30.1341626  16.0200123  52.6939797  32.7475529
  16.5199902  52.8056331  31.9389848  16.6635731  52.3900850  33.3876337
  10.0782119  60.6018426  45.6343370   9.5949201  61.4018786  45.8407259
  10.1643058  60.6126371  44.6810814   3.3468079  62.4346806  33.5565189
   3.3238767  62.5334493  32.6047072   3.6568715  63.2811957  33.8782355
   6.0055457  64.4922961  37.6711804   6.9598710  64.4606903  37.6041735
   5.8067980  64.0313585  38.4862030   6.5954839  63.0624077  40.2382601
   7.4147728  63.5568156  40.2617439   6.8691647  62.1456045  40.2100169
  16.3521435  55.4534829  29.6010557  15.4647290  55.7384480  29.3830752
  16.7675424  55.2928593  28.7537834  19.7035971  55.4781350  33.3164896
  20.4796361  55.9677803  33.5889513  18.9784105  55.9039405  33.7736766
  22.1408530  56.1908970  34.3738837  22.7353021  55.9504706  33.6632145
  22.2135114  55.4716100  35.0012373   4.3605686  70.0342581  34.6882002
   4.2260153  69.2742981  34.1220000   3.9437748  70.7583480  34.2210790
  15.4964649  65.2179504  23.6958577  16.2000499  65.4229507  24.3116232
  14.7727297  65.7856266  23.9607660  16.3262459  60.9689365  29.8160847
  16.2697660  61.4257917  28.9768479  16.8790801  60.2080050  29.6383690
  20.1367265  56.7579097  30.6410967  19.8804199  56.3575733  31.4719174
  19.5120133  57.4722891  30.5161106  24.4479603  59.4975170  33.1482258
  23.8879161  59.5668360  33.9213820  23.8423106  59.3216155  32.4281754
   7.5174811  70.9311898  34.9000444   7.4007196  71.8757330  34.7979134
   6.6967258  70.6285459  35.2886243  17.4051346  65.6562033  25.7457037
  18.2396950  65.2243232  25.5634512  17.2435689  65.4844047  26.6733931
  17.0597238  62.1594147  27.1113376  17.0046042  61.9938418  26.1701820
  16.4343293  62.8670179  27.2675566   1.8489753  57.3962211  40.9374798
   2.4948617  56.8861165  41.4262024   1.6406904  58.1330893  41.5118224
  14.3743145  64.4643058  46.4366939  15.2434305  64.6383711  46.0753574
  13.8949897  65.2837475  46.3142668  10.3693364  51.6602256  26.6898695
  10.3572033  52.6044095  26.8466965  11.2616785  51.4772401  26.3958156
   8.5429326  71.5840159  38.1156373   9.4456572  71.6163770  38.4322868
   8.3166696  70.6540610  38.1302708  10.2982928  70.3371146  34.7766451
   9.3478559  70.3373008  34.6630824  10.6015414  69.5903881  34.2602486
  14.1845483  48.2545032  30.9444631  13.4177879  47.7003519  31.0901314
  14.5956188  48.3266901  31.8058783   6.1887244  54.5429828  45.0349813
   7.0518706  54.1866633  45.2453137   5.6152655  54.2043723  45.7225217
  26.0335621  76.1731684  35.8412214  26.6714031  76.0538432  35.1375554
  25.9156464  77.1212528  35.9000166  22.8425327  76.1259112  35.7773738
  22.5043839  76.0100177  34.8894273  23.7115096  75.7250278  35.7574744
  18.7012143  77.9794589  31.7670629  18.1377008  77.8884526  30.9986917
  18.5864538  77.1594493  32.2473122  23.3245110  77.2793964  41.7359944
  23.3133751  76.8846762  40.8640448  23.4865750  76.5460037  42.3293715
  16.2476575  79.4745780  34.6054850  17.0397867  79.1336605  34.1901149
  16.4873225  79.5840756  35.5257003  24.2811702  81.6465557  27.0785094
  23.6299681  82.2319637  26.6919108  25.0756065  82.1771751  27.1380132
  18.2067329  78.7354694  27.4772229  18.9798205  78.1883681  27.3385104
  18.5592728  79.5998943  27.6886690  20.0452371  80.0631076  40.6839128
  19.7542237  80.9676707  40.5685794  20.6809356  80.1047604  41.3983197
  20.9708578  77.4407925  37.2740487  21.5672151  77.2163947  36.5597450
  21.0283550  76.6992670  37.8765935  20.5433607  74.8947360  25.1090678
  20.7959127  74.3728881  24.3474141  19.6058166  74.7313505  25.2117362
  25.5876890  73.8983138  32.9165422  26.3739979  73.4802561  32.5655839
  25.8515594  74.8029230  33.0847070  25.7586967  79.3355989  27.6154078
  25.1232800  79.4090615  28.3274983  25.4284373  79.9249587  26.9373158
  30.9885317  73.8358371  33.8198400  31.7210489  73.2657588  34.0536230
  30.2324672  73.4479972  34.2604906  20.2629895  76.7975466  27.3115053
  20.1466154  76.1220369  27.9796138  20.3732155  76.3107840  26.4947206
  22.6061436  76.2585613  31.0161743  22.2419644  75.7316234  31.7274664
  23.4628552  75.8684082  30.8428228  28.5110737  67.5479946  38.2793009
  28.1794062  68.4175356  38.0554224  27.9156350  67.2316230  38.9587039
  22.2466923  71.2875513  26.0123091  22.4141326  72.1555749  26.3793562
  22.0564092  71.4502794  25.0884380  25.0042257  79.7492491  37.6788922
  24.7042980  80.6517530  37.5704729  24.6593316  79.4824675  38.5310074
  18.4554738  76.2006288  33.7125626  17.5305234  76.0682502  33.9203318
  18.7039151  76.9800508  34.2095568  28.4039400  72.2675032  35.3586359
  27.4956278  72.1990440  35.0645120  28.3526996  72.7446977  36.1868184
  22.2256144  73.7433170  26.9969758  22.1055769  74.1890221  27.8355238
  21.5308733  74.0918488  26.4383296  15.8163549  75.8439562  34.5469415
  15.9455930  76.0974041  35.4608827  15.1361000  76.4367270  34.2274070
  19.9863036  86.5136812  30.6459889  19.9087066  87.4644637  30.7248370
  19.3824680  86.1682684  31.3034816  22.4780266  73.6864677  43.3021256
  21.7013600  74.2458597  43.2924121  23.1170829  74.1721460  43.8236126
  30.2701047  70.4691470  37.1364233  29.6275427  70.7624003  36.4904027
  29.7655975  70.3544390  37.9417429  27.9241210  74.2154643  27.8250092
  28.8359066  74.4482030  27.6497790  27.4150857  74.7991687  27.2625171
  20.7326638  76.4950131  42.8639223  21.4741323  77.0335175  42.5874047
  20.0263624  77.1216419  43.0210775  26.2081978  78.6379271  41.4611385
  26.6165334  78.1961682  40.7166017  25.4859240  78.0631899  41.7145578
  22.5613048  73.5751878  38.8344942  23.4074243  73.9991291  38.9779591
  22.5011686  72.9185502  39.5283505  26.5310793  79.1980462  35.2163673
  25.9019655  79.3626176  34.5139741  26.1436455  79.6122071  35.9874638
  30.4100025  80.1334900  32.5708037  29.7251063  80.5133801  32.0205071
  30.4943874  80.7430226  33.3039985  25.7112493  71.2356246  40.4926115
  25.4673425  71.9898307  39.9560391  25.9872424  71.6141594  41.3273362
  27.6650956  77.7794859  39.1703381  27.8767851  78.4226618  38.4937762
  27.6180704  76.9457175  38.7025311  25.2677185  70.3912679  36.0739953
  24.4061664  70.6893933  36.3656690  25.2939620  70.6083078  35.1420986
  22.0838755  78.9354870  32.4813759  22.5477100  79.2142573  31.6918381
  21.8195553  78.0338314  32.2986849  18.9762836  78.4826351  35.4193522
  19.5464193  78.9113620  34.7811006  19.5670947  78.2008936  36.1177708
  21.0207641  75.0578022  29.2903324  21.7231684  75.5099066  29.7577250
  20.6888269  74.4161841  29.9183217  19.4688002  73.6489779  43.6654533
  18.8386663  74.3306060  43.8989930  19.3624090  73.5372860  42.7207671
  14.7632975  73.3161575  34.5920457  13.9732029  73.5719103  34.1160568
  15.2544222  74.1309913  34.6972498  28.7796784  80.6566814  37.3425738
  29.6014228  80.2547001  37.0608420  28.7759187  80.5535048  38.2941854
  16.7147720  73.6806154  31.5503934  15.9178883  73.7924848  32.0687430
  16.4873312  74.0192806  30.6844825  22.5453388  80.2050857  39.4986449
  22.6097820  80.6671265  40.3344620  21.8364311  79.5748222  39.6268758
  13.0470678  73.5692065  37.0235448  13.2978716  74.4539075  37.2893024
  13.5830226  73.3896667  36.2510540  36.8702777  77.0005562  33.6910710
  36.1166486  76.4312961  33.5354714  37.0050318  76.9668227  34.6381344
  22.2601405  81.8718965  29.3665429  22.1247080  82.7170501  29.7950277
  22.8011218  82.0738242  28.6031363  18.7468745  67.9510545  46.0279784
  18.3535690  67.3976743  46.7027428  19.5634885  68.2621123  46.4186302
  15.7130803  79.3894403  29.9393354  16.2255323  80.1837653  30.0898919
  16.3653515  78.6920693  29.8726955  17.5225687  82.5060159  32.0216107
  17.6992316  83.4278124  31.8337091  18.3182521  82.1918578  32.4510487
  21.6636706  69.3668424  43.6200041  22.4046419  69.9675577  43.5404503
  21.8954629  68.6246062  43.0618083  16.8078044  74.5524791  41.8978270
  16.6931559  73.6510048  42.1985369  15.9522562  74.7988488  41.5463087
  23.8869882  82.4942531  43.4965771  23.4433736  81.7078910  43.1786676
  24.5487095  82.6821682  42.8309662  18.6457003  84.0238333  38.0226450
  19.1964428  83.8955396  37.2503443  17.8068479  84.3233222  37.6721342
  25.9851120  82.7745331  41.5247172  25.9669595  83.5954212  41.0327441
  26.9071040  82.6499406  41.7497313  22.4424174  80.2889461  42.3670681
  22.9752511  79.5277749  42.1369989  21.9138255  79.9963113  43.1094835
  25.6093869  65.3949527  37.8964322  25.2658138  66.2851168  37.8203433
  25.9772831  65.2051184  37.0333907  13.6779719  77.7183057  30.7152925
  14.5154941  78.1280066  30.4986632  13.8557987  76.7782499  30.6853118
  25.5744152  75.3858138  26.4036758  25.0590775  76.1562742  26.6425145
  25.3021460  74.7123274  27.0269819  23.1591263  70.2307839  31.4621996
  22.3032859  69.8414689  31.2827635  23.5718214  70.3099799  30.6021781
  24.6890409  67.7654182  35.8613556  24.1855205  67.7284317  35.0481361
  24.9821016  68.6746925  35.9210212  20.9333295  67.8492912  34.8679737
  21.7986292  67.6535720  34.5085627  21.0010804  67.6203263  35.7949094
  30.5478426  78.1390492  28.3389931  29.7707868  77.8001652  27.8945093
  31.2269907  78.1443116  27.6644896  25.3630455  73.2585230  28.2296539
  25.0580590  73.5731379  29.0806682  26.3160897  73.3366650  28.2723872
  23.8076887  79.4175453  29.8789493  23.2798248  78.6828213  29.5662730
  23.3064389  80.1950130  29.6329461  28.7869733  77.6124474  34.9956539
  28.1293407  78.3023735  35.0836668  29.5910132  78.0020906  35.3390525
  18.5395614  70.0795119  32.2396104  19.1139366  69.8570301  31.5069297
  19.1266597  70.1483814  32.9924706  27.5975191  75.9668846  33.0460481
  28.1107073  76.5998838  33.5482190  28.2476415  75.3670042  32.6803841
  18.8665201  72.1099581  26.2591989  18.0302514  72.4474267  26.5801264
  18.7269971  71.9748560  25.3219126  20.8418282  66.9536368  30.9671174
  20.1882694  66.6385386  30.3427788  20.7998756  66.3312109  31.6930997
  21.9529487  77.2355663  22.8824466  21.0456548  77.0044917  23.0815615
  22.4500519  76.4393283  23.0698447  24.8597566  85.9453171  25.8021152
  24.1859264  86.2484867  26.4106110  25.2463388  86.7482251  25.4526609
  24.0756022  73.4418302  35.2918821  23.1578584  73.6633249  35.1340509
  24.4916166  73.5164612  34.4330529  24.8591070  74.8409718  30.4221502
  25.6062889  75.3531115  30.1128624  25.1282660  74.5193770  31.2825895
  23.1317720  77.3368258  27.4048456  22.2228939  77.0527291  27.5020926
  23.1612804  77.7567337  26.5451763  28.3636988  80.9474848  31.1739623
  27.9099315  80.1065758  31.2304814  27.7330954  81.5836246  31.5114404
  27.3069907  71.8766834  32.4040291  26.5692664  71.3644220  32.7350533
  27.5596681  71.4367215  31.5923568  26.8069927  82.7851345  32.1089442
  27.0992901  83.3456402  31.3901807  27.3168547  83.0779906  32.8642601
  27.4081534  64.6543086  32.9982060  27.7140411  63.7940449  32.7107975
  28.1334139  65.2460706  32.7981054  13.7005891  75.0573772  31.3863658
  13.5030290  74.4643133  30.6614725  13.1452555  74.7525983  32.1039597
  21.6802614  74.9496879  33.5058251  21.7351224  73.9970715  33.4300728
  20.8693816  75.1056318  33.9899550  22.8293808  78.8777002  24.7436534
  22.3913238  78.1612861  24.2842172  23.5704249  79.1053117  24.1821626
  19.6194974  73.5673939  31.2648630  18.8062840  73.8668109  31.6713822
  20.1153968  73.1729627  31.9823112  21.7703552  83.5631696  33.1982895
  21.7279731  83.7892542  32.2691427  22.6866251  83.3295070  33.3468696
  25.2169186  74.0315763  40.0963524  25.5718574  74.2587236  40.9557990
  25.8641317  74.3634140  39.4740779  30.9466923  77.1534199  30.8012853
  30.8084821  77.3435795  29.8734042  30.5903142  77.9153582  31.2580904
  19.1109049  71.1392294  36.8809865  19.7508428  70.9981053  36.1832828
  18.2786579  70.8526808  36.5048467  30.9736302  79.2210726  35.8124124
  31.4072809  79.1286015  36.6607178  31.6867883  79.1968227  35.1744140
  19.8869353  80.4394725  32.9944857  20.6809951  79.9445045  32.7927432
  19.1761045  79.9112588  32.6312563  24.7064197  82.8212820  37.3457225
  24.7601220  83.3903756  38.1134941  23.8378979  82.9914705  36.9811262
  16.1952116  74.5837806  29.0704610  15.2649704  74.5222262  29.2874572
  16.2909588  74.0613759  28.2741251  16.1137665  71.1092619  31.6582852
  16.3744483  72.0237952  31.5492012  16.9354838  70.6417062  31.8079465
  17.5862591  72.5230376  38.8281676  18.2585644  72.3147738  38.1794325
  16.7592377  72.3252462  38.3886909  31.8351852  79.2634427  38.3457010
  32.0287742  80.1680237  38.5916285  31.7352470  78.8041846  39.1795595
  23.4888163  69.1492317  40.8447337  22.8416078  69.8482267  40.7511814
  24.2589178  69.5828461  41.2123585  26.8966961  79.4141169  43.9197890
  26.7452467  79.1851721  43.0027974  26.8871640  80.3711771  43.9329235
  23.6652297  76.9873082  38.9044157  24.5944357  77.1384242  38.7313124
  23.2443327  77.0757103  38.0492803  22.4640629  81.0123747  36.6742695
  22.3251714  80.6442531  37.5468633  21.6755225  81.5271386  36.5026652
  23.0588781  86.1132843  28.0168231  23.2340536  85.6420886  28.8313854
  22.3721569  86.7398609  28.2449492  24.0145844  80.3905349  34.0631532
  23.6795677  80.3506119  34.9589182  23.5149790  79.7250065  33.5901943
  17.9890088  75.7972979  39.5884113  17.8509886  75.0653218  40.1895653
  18.8995011  75.7081879  39.3068301  26.9505036  77.7361384  24.3368592
  26.3334206  77.0108212  24.2401645  26.4821524  78.4970744  23.9935666
  20.6172389  75.5092939  39.0767793  21.3272007  74.8686131  39.0354412
  20.5741697  75.7605834  39.9993974  28.6059167  82.4460292  41.9974372
  28.5471713  81.7619512  41.3304955  29.0078686  83.1879282  41.5454998
  19.3301323  72.4958157  40.8963433  18.7938680  72.0448895  41.5485029
  18.7418031  72.6304065  40.1533897  17.6249866  89.2622206  34.7908091
  17.8646464  89.8940730  35.4687110  16.7819063  88.9110246  35.0773450
  18.7403582  71.9546808  23.4589896  17.8633048  71.8335609  23.0952143
  19.2161335  71.1632886  23.2068785  28.6076575  80.4099876  40.2288352
  27.7203353  80.0725798  40.3514751  29.1775126  79.6782907  40.4657117
  10.2605722  76.7423968  33.5531403  10.9476761  76.4285698  32.9652419
  10.1053850  77.6465332  33.2798655  15.0640444  71.6314164  37.9816427
  14.9798633  71.0239834  37.2466837  14.2423150  72.1223183  37.9825923
  22.1377728  85.0701328  37.1949595  22.0647899  85.8756300  37.7068900
  21.6955121  85.2693294  36.3697617  21.9267508  84.3073098  30.7052417
  21.1435029  84.8494779  30.7990641  22.6260253  84.8247078  31.1046658
  25.2364158  70.1167728  33.3486622  25.7332857  69.3637690  33.0287692
  24.4651139  70.1532044  32.7829831  33.0893915  75.8208093  34.9904914
  33.0783791  76.7032809  34.6198847  32.2211294  75.4679644  34.7959451
  24.5976411  84.9688162  39.3507754  25.3104384  85.6035627  39.2783655
  24.1066440  85.0652028  38.5347756  26.3193938  78.8739415  30.9225046
  25.3850217  78.9940877  30.7529750  26.4970607  77.9711882  30.6585055
  21.8199126  72.2585111  33.0758307  21.4496914  71.7056151  33.7639212
  22.3158219  71.6543244  32.5233307  29.7066490  74.7156734  31.4575080
  30.1726942  75.5484726  31.3835382  30.1573990  74.2501716  32.1620338
  19.6488325  82.7182606  40.1713325  20.3497784  83.3519089  40.3242719
  19.1783440  83.0597337  39.4108964  27.7742721  81.0600556  28.4561232
  28.0502565  80.9457150  29.3655106  26.9047220  80.6618040  28.4173405
  27.6783152  67.0837321  35.4965981  26.7646232  67.3141548  35.6648188
  28.1076254  67.1675765  36.3480013  27.4489611  75.2727213  37.9965875
  26.7961061  75.5203121  37.3418328  27.8269991  74.4591351  37.6628352
  24.4096785  85.3086906  32.0994045  24.5919179  84.4908562  32.5621798
  25.2329771  85.5254599  31.6618935  24.7438950  84.2355092  29.3609094
  25.2726717  83.7247546  28.7479256  25.0067170  83.9197622  30.2254627
  23.4977184  76.0147024  44.4831912  22.8217821  75.9141154  45.1534287
  24.3204818  75.8586238  44.9467909  15.2456043  82.2518961  37.1044427
  15.8309480  81.5062649  37.2372332  15.0480881  82.5622918  37.9881091
  18.0994698  85.2870208  32.1206870  17.4305074  85.7716336  31.6370910
  17.9607568  85.5339429  33.0350248   9.8373698  74.8224561  35.8248871
   9.8757797  74.2888152  36.6185989   9.3313991  74.2959767  35.2059848
  22.2399967  87.3213952  38.7189528  22.7918275  87.4845573  39.4838613
  22.5806160  87.9118390  38.0469553  17.2164460  69.6689102  39.3211413
  17.2805787  70.5303932  38.9088811  17.1531580  69.0563103  38.5883771
  16.6916733  71.7412234  42.9684447  17.3188771  71.3589311  43.5821971
  15.8344651  71.5226436  43.3340140  27.0910841  82.1475209  44.5738183
  27.6350745  82.7605168  44.0793137  26.5097686  82.7054788  45.0905196
  13.4682275  73.5488663  28.9002802  13.7635716  72.6399342  28.8469856
  12.5670311  73.5276403  28.5783804  25.3768354  85.2695927  35.7053210
  25.2519494  84.4685667  35.1964156  26.0347445  85.7642121  35.2167180
  16.9976522  71.6244660  34.8830351  16.2763108  72.2380627  34.7437824
  17.7869778  72.1602425  34.8046996  27.4403262  83.0704947  37.3332760
  26.4933598  82.9510299  37.2611087  27.7886036  82.1827445  37.4159022
  19.8002836  68.9599086  41.1571002  20.3237238  69.2061383  41.9197312
  19.5815169  69.7919121  40.7374140  15.1970117  71.2302761  29.0242127
  14.8682823  70.3500140  28.8417233  15.5509488  71.1750430  29.9118516
  24.4449696  82.8657664  33.5337113  24.2974658  81.9374371  33.7144683
  25.2703189  82.8877754  33.0494188  18.3111940  71.5175731  29.3917605
  18.6508013  72.0461652  28.6696213  18.7584061  71.8556137  30.1676171
  28.0483818  83.6886222  34.6201985  28.9730365  83.4829084  34.4826436
  27.8799121  83.4402623  35.5291327  21.0055381  69.9012781  38.8420673
  20.6652201  69.1020594  39.2441353  20.2994387  70.2014492  38.2697506
  21.6571853  66.9862094  37.2947996  22.4797922  66.5122572  37.1726886
  21.9009916  67.7652578  37.7946682  20.2980087  70.0150352  27.5910898
  21.0188450  70.3931605  27.0874614  19.6745391  70.7339229  27.6945875
  24.4411210  70.7195501  28.5269230  24.6574824  71.6020139  28.2258058
  23.9605277  70.3281715  27.7974872  19.1810431  73.6781214  35.1039974
  19.0355012  73.9921518  35.9964256  18.7035635  74.2966115  34.5510873
  21.0406814  70.6683762  35.1520864  21.0268383  69.7724856  34.8153162
  21.7579242  70.6754426  35.7859150  22.8932945  71.1021103  37.1973991
  22.6350723  72.0238173  37.1958322  22.3617985  70.7051537  37.8874456
  27.8379134  84.2071890  29.9764077  28.0116011  83.6418312  29.2237929
  28.3308025  85.0072785  29.7943567  13.6556094  76.2186559  38.0427636
  13.1109562  76.9946367  38.1747910  14.5335444  76.5657363  37.8846757
  20.4443710  69.5498143  30.4208434  20.5659622  68.6214789  30.6199322
  20.1545753  69.5636829  29.5086750  23.3134901  67.2353053  33.5575154
  23.3356598  67.2992386  32.6027134  23.7302960  66.3957562  33.7515660
  33.6918525  76.9708313  31.5954377  34.1349671  76.2215638  31.1973500
  32.8145035  76.9618449  31.2128109  28.8254306  83.5238654  27.0760975
  29.5205211  84.1445347  27.2948290  29.1677456  82.6734005  27.3513353
  14.4422116  75.3456455  40.9357792  13.7003852  75.4939090  41.5222423
  14.1214860  75.6064721  40.0724542  30.7245729  80.9738360  28.6048306
  31.2497054  81.3125632  27.8797626  30.6368082  80.0385375  28.4211440
  22.3865778  84.8872433  40.7338182  22.6952905  84.6421580  41.6060882
  23.1841260  85.0919072  40.2457053  22.4086390  87.0410343  32.9643559
  21.9691380  86.5486722  33.6576416  23.1594507  86.4983311  32.7235634
  14.8878729  83.2321884  32.9668187  15.7136749  82.9325656  32.5866831
  14.5372781  82.4629506  33.4157976  19.8560262  82.5848352  35.0365861
  19.2340272  81.9219057  34.7368089  20.5265129  82.6109484  34.3539508
  13.0887334  81.1508210  33.9257121  12.2519243  80.7230385  33.7441122
  13.0610980  81.3440654  34.8627912  19.9284790  71.0630140  44.6298367
  19.9772945  71.9392263  44.2476136  20.4707304  70.5207533  44.0570010
  30.4139636  81.6071263  43.9099504  29.6235179  81.5895402  43.3704003
  30.1772990  82.1459557  44.6648540  30.5337511  78.4563730  41.2232232
  30.5835516  78.2913737  42.1647755  30.4251434  77.5890989  40.8330113
  19.4173769  81.1352275  28.5124321  19.5661890  81.8187740  27.8590994
  20.2240213  81.1157365  29.0273777  27.8241273  74.4394658  42.5391539
  28.7251136  74.3001123  42.2475537  27.8989247  74.6049113  43.4789716
  22.1584078  71.8161512  41.3844725  21.2887388  72.1095079  41.1127314
  22.3943559  72.4001957  42.1051989  32.0355707  80.8760671  41.4674254
  31.7440516  81.2390652  42.3037715  31.4227839  80.1627679  41.2887586
  33.2351390  78.4413551  33.9876824  34.0698281  78.8803355  34.1514384
  33.3710519  77.9652204  33.1685070  30.2842896  75.9993286  39.9354312
  30.7597017  76.1920932  39.1273163  29.3608461  76.0552472  39.6897696
  17.1726402  77.1617453  29.5185390  16.9272444  76.2579783  29.7165600
  17.3422317  77.1634603  28.5764868  24.8623112  68.0341129  38.9010146
  25.3805056  68.7702156  38.5756634  24.5078245  68.3405123  39.7356905
  16.4422050  72.8945811  27.0171552  15.7491295  72.9690166  26.3611588
  16.1973802  72.1306154  27.5393069  25.1135706  64.4541412  34.4211042
  25.3937460  63.7864601  35.0471469  25.8986313  64.6470508  33.9085706
  22.9169175  83.6300406  25.9836069  22.3443142  84.2490593  25.5306541
  23.4901968  84.1799768  26.5175991  28.9844565  72.8759046  38.1682617
  29.9361988  72.9757144  38.1894842  28.8148015  72.0837314  38.6780702
  27.0058944  69.9614629  38.3542018  26.4108876  70.2419642  37.6588507
  26.7208641  70.4508530  39.1258759  26.1366435  83.9137556  27.1144651
  27.0697108  83.8483118  27.3177526  26.0489647  84.7493823  26.6559184
  28.7654451  83.2303426  24.0748599  28.6868083  82.8963290  24.9684356
  29.5864118  83.7225194  24.0740071  31.4632642  76.0965166  37.2824917
  31.4308963  75.1581166  37.4684601  32.0733266  76.1749202  36.5490742
  23.3015973  74.9661219  23.3252121  24.2475078  74.8367427  23.3940539
  22.9230218  74.2275880  23.8021549  31.6127131  72.8876209  37.3283200
  31.0966180  72.1034666  37.1413129  32.4967079  72.5594926  37.4929720
  29.2737858  66.6317225  33.2879013  29.0762679  66.3232313  34.1722345
  29.8837563  67.3578864  33.4176943  37.2809192  77.1581172  36.4230954
  38.0112581  76.8966461  36.9838657  36.6716138  76.4209894  36.4633022
  35.3624489  75.2989035  37.0205405  34.6357653  75.1645000  36.4121897
  34.9471776  75.6065864  37.8262123  23.1854666  79.0178965  44.7852778
  24.1057675  79.1957564  44.9792825  23.1504249  78.0735010  44.6332477
  21.4858890  72.8911195  23.2607006  20.5790346  72.5944308  23.3369720
  21.7634871  72.5941013  22.3941293  12.4036831  74.2117558  33.7106053
  12.0839615  73.3582867  33.4180427  11.8570259  74.4266137  34.4664020
  16.1816738  76.9279999  37.4275559  16.4002748  77.8597107  37.4463593
  16.5942512  76.5687974  38.2130363  23.1020956  67.4348085  29.4151248
  22.2921684  67.0895170  29.7906494  23.7905373  67.1255628  30.0038859
  25.0311504  66.5126132  31.0375544  25.5842543  66.9321585  31.6965567
  25.2681591  65.5861880  31.0798500  21.0544604  72.5013205  46.8178308
  20.9541331  73.4507562  46.7490399  20.8366146  72.1731444  45.9454378
  20.2557675  69.7498130  23.4018986  21.1176839  70.0753029  23.6614803
  20.4408019  68.9629626  22.8892051  12.2725091  77.8320470  35.6799174
  11.5788562  77.4174423  35.1669129  13.0198082  77.8741006  35.0832593
  28.4090312  68.6226657  30.5454209  27.8288981  69.2811461  30.1632261
  28.1426244  67.8004001  30.1341626  26.8593878  68.0231714  32.7475529
  27.3593656  68.1348249  31.9389848  27.5029486  67.7192767  33.3876337
  20.9175874  75.9310344  45.6343370  20.4342955  76.7310704  45.8407259
  21.0036813  75.9418289  44.6810814  14.1861833  77.7638724  33.5565189
  14.1632521  77.8626411  32.6047072  14.4962470  78.6103874  33.8782355
  16.8449211  79.8214879  37.6711804  17.7992465  79.7898821  37.6041735
  16.6461735  79.3605502  38.4862030  17.4348593  78.3915995  40.2382601
  18.2541482  78.8860073  40.2617439  17.7085401  77.4747963  40.2100169
  27.1915190  70.7826747  29.6010557  26.3041045  71.0676398  29.3830752
  27.6069179  70.6220510  28.7537834  30.5429726  70.8073268  33.3164896
  31.3190116  71.2969720  33.5889513  29.8177860  71.2331322  33.7736766
  32.9802284  71.5200887  34.3738837  33.5746775  71.2796623  33.6632145
  33.0528868  70.8008018  35.0012373  15.1999440  85.3634498  34.6882002
  15.0653908  84.6034899  34.1220000  14.7831502  86.0875398  34.2210790
  26.3358403  80.5471422  23.6958577  27.0394253  80.7521424  24.3116232
  25.6121052  81.1148184  23.9607660  27.1656213  76.2981283  29.8160847
  27.1091415  76.7549834  28.9768479  27.7184556  75.5371968  29.6383690
  30.9761019  72.0871015  30.6410967  30.7197953  71.6867651  31.4719174
  30.3513887  72.8014809  30.5161106  35.2873357  74.8267088  33.1482258
  34.7272915  74.8960277  33.9213820  34.6816860  74.6508073  32.4281754
  18.3568566  86.2603815  34.9000444  18.2400950  87.2049248  34.7979134
  17.5361012  85.9577377  35.2886243  28.2445100  80.9853951  25.7457037
  29.0790704  80.5535149  25.5634512  28.0829443  80.8135965  26.6733931
  27.8990993  77.4886064  27.1113376  27.8439796  77.3230336  26.1701820
  27.2737048  78.1962097  27.2675566  12.6883508  72.7254129  40.9374798
  13.3342371  72.2153083  41.4262024  12.4800659  73.4622810  41.5118224
  25.2136900  79.7934976  46.4366939  26.0828059  79.9675628  46.0753574
  24.7343651  80.6129393  46.3142668  21.2087118  66.9894173  26.6898695
  21.1965788  67.9336013  26.8466965  22.1010540  66.8064319  26.3958156
  19.3823080  86.9132077  38.1156373  20.2850327  86.9455687  38.4322868
  19.1560450  85.9832528  38.1302708  21.1376682  85.6663064  34.7766451
  20.1872313  85.6664925  34.6630824  21.4409168  84.9195798  34.2602486
  25.0239238  63.5836950  30.9444631  24.2571633  63.0295437  31.0901314
  25.4349942  63.6558819  31.8058783  17.0280999  69.8721746  45.0349813
  17.8912460  69.5158551  45.2453137  16.4546409  69.5335640  45.7225217
  36.8729376  91.5023602  35.8412214  37.5107785  91.3830349  35.1375554
  36.7550218  92.4504446  35.9000166  33.6819082  91.4551030  35.7773738
  33.3437593  91.3392095  34.8894273  34.5508850  91.0542195  35.7574744
  29.5405897  93.3086507  31.7670629  28.9770763  93.2176443  30.9986917
  29.4258293  92.4886411  32.2473122  34.1638865  92.6085882  41.7359944
  34.1527506  92.2138680  40.8640448  34.3259504  91.8751954  42.3293715
  27.0870329  94.8037698  34.6054850  27.8791621  94.4628523  34.1901149
  27.3266980  94.9132673  35.5257003  35.1205456  96.9757474  27.0785094
  34.4693436  97.5611555  26.6919108  35.9149819  97.5063669  27.1380132
  29.0461083  94.0646611  27.4772229  29.8191959  93.5175598  27.3385104
  29.3986482  94.9290861  27.6886690  30.8846126  95.3922994  40.6839128
  30.5935992  96.2968625  40.5685794  31.5203110  95.4339521  41.3983197
  31.8102333  92.7699842  37.2740487  32.4065905  92.5455865  36.5597450
  31.8677304  92.0284588  37.8765935  31.3827361  90.2239278  25.1090678
  31.6352882  89.7020799  24.3474141  30.4451920  90.0605423  25.2117362
  36.4270644  89.2275056  32.9165422  37.2133733  88.8094479  32.5655839
  36.6909348  90.1321148  33.0847070  36.5980721  94.6647906  27.6154078
  35.9626554  94.7382533  28.3274983  36.2678128  95.2541505  26.9373158
  41.8279071  89.1650289  33.8198400  42.5604243  88.5949506  34.0536230
  41.0718427  88.7771890  34.2604906  31.1023650  92.1267383  27.3115053
  30.9859908  91.4512287  27.9796138  31.2125910  91.6399757  26.4947206
  33.4455191  91.5877531  31.0161743  33.0813398  91.0608152  31.7274664
  34.3022307  91.1976000  30.8428228  39.3504491  82.8771863  38.2793009
  39.0187816  83.7467274  38.0554224  38.7550105  82.5608147  38.9587039
  33.0860678  86.6167430  26.0123091  33.2535080  87.4847667  26.3793562
  32.8957847  86.7794712  25.0884380  35.8436011  95.0784409  37.6788922
  35.5436734  95.9809448  37.5704729  35.4987071  94.8116592  38.5310074
  29.2948492  91.5298206  33.7125626  28.3698989  91.3974420  33.9203318
  29.5432906  92.3092425  34.2095568  39.2433155  87.5966949  35.3586359
  38.3350032  87.5282358  35.0645120  39.1920751  88.0738894  36.1868184
  33.0649899  89.0725088  26.9969758  32.9449524  89.5182139  27.8355238
  32.3702487  89.4210405  26.4383296  26.6557304  91.1731480  34.5469415
  26.7849685  91.4265958  35.4608827  25.9754755  91.7659188  34.2274070
  30.8256791 101.8428730  30.6459889  30.7480821 102.7936555  30.7248370
  30.2218434 101.4974602  31.3034816  33.3174021  89.0156595  43.3021256
  32.5407355  89.5750515  43.2924121  33.9564584  89.5013378  43.8236126
  41.1094801  85.7983388  37.1364233  40.4669181  86.0915921  36.4904027
  40.6049730  85.6836308  37.9417429  38.7634965  89.5446561  27.8250092
  39.6752821  89.7773948  27.6497790  38.2544612  90.1283605  27.2625171
  31.5720393  91.8242048  42.8639223  32.3135077  92.3627092  42.5874047
  30.8657378  92.4508337  43.0210775  37.0475733  93.9671189  41.4611385
  37.4559089  93.5253599  40.7166017  36.3252994  93.3923816  41.7145578
  33.4006803  88.9043796  38.8344942  34.2467998  89.3283209  38.9779591
  33.3405440  88.2477420  39.5283505  37.3704547  94.5272379  35.2163673
  36.7413410  94.6918094  34.5139741  36.9830209  94.9413989  35.9874638
  41.2493779  95.4626817  32.5708037  40.5644817  95.8425719  32.0205071
  41.3337628  96.0722144  33.3039985  36.5506248  86.5648164  40.4926115
  36.3067180  87.3190224  39.9560391  36.8266178  86.9433512  41.3273362
  38.5044711  93.1086776  39.1703381  38.7161606  93.7518536  38.4937762
  38.4574459  92.2749093  38.7025311  36.1070940  85.7204597  36.0739953
  35.2455419  86.0185850  36.3656690  36.1333374  85.9374996  35.1420986
  32.9232509  94.2646787  32.4813759  33.3870855  94.5434490  31.6918381
  32.6589307  93.3630232  32.2986849  29.8156590  93.8118269  35.4193522
  30.3857947  94.2405537  34.7811006  30.4064702  93.5300854  36.1177708
  31.8601395  90.3869940  29.2903324  32.5625438  90.8390984  29.7577250
  31.5282024  89.7453759  29.9183217  30.3081757  88.9781696  43.6654533
  29.6780417  89.6597977  43.8989930  30.2017845  88.8664778  42.7207671
  25.6026729  88.6453493  34.5920457  24.8125783  88.9011021  34.1160568
  26.0937976  89.4601830  34.6972498  39.6190539  95.9858732  37.3425738
  40.4407982  95.5838919  37.0608420  39.6152942  95.8826966  38.2941854
  27.5541474  89.0098072  31.5503934  26.7572638  89.1216766  32.0687430
  27.3267067  89.3484724  30.6844825  33.3847142  95.5342775  39.4986449
  33.4491575  95.9963182  40.3344620  32.6758066  94.9040140  39.6268758
  23.8864432  88.8983983  37.0235448  24.1372470  89.7830993  37.2893024
  24.4223980  88.7188584  36.2510540  47.7096532  92.3297480  33.6910710
  46.9560240  91.7604878  33.5354714  47.8444073  92.2960145  34.6381344
  33.0995160  97.2010882  29.3665429  32.9640835  98.0462418  29.7950277
  33.6404972  97.4030160  28.6031363  29.5862499  83.2802462  46.0279784
  29.1929445  82.7268661  46.7027428  30.4028640  83.5913041  46.4186302
  26.5524557  94.7186321  29.9393354  27.0649078  95.5129571  30.0898919
  27.2047270  94.0212611  29.8726955  28.3619442  97.8352077  32.0216107
  28.5386070  98.7570041  31.8337091  29.1576275  97.5210496  32.4510487
  32.5030460  84.6960341  43.6200041  33.2440174  85.2967495  43.5404503
  32.7348383  83.9537979  43.0618083  27.6471798  89.8816709  41.8978270
  27.5325314  88.9801966  42.1985369  26.7916316  90.1280405  41.5463087
  34.7263636  97.8234449  43.4965771  34.2827490  97.0370828  43.1786676
  35.3880850  98.0113599  42.8309662  29.4850757  99.3530251  38.0226450
  30.0358182  99.2247314  37.2503443  28.6462233  99.6525140  37.6721342
  36.8244874  98.1037249  41.5247172  36.8063350  98.9246130  41.0327441
  37.7464794  97.9791324  41.7497313  33.2817928  95.6181378  42.3670681
  33.8146265  94.8569667  42.1369989  32.7532009  95.3255030  43.1094835
  36.4487623  80.7241444  37.8964322  36.1051893  81.6143086  37.8203433
  36.8166586  80.5343102  37.0333907  24.5173474  93.0474975  30.7152925
  25.3548696  93.4571983  30.4986632  24.6951742  92.1074417  30.6853118
  36.4137906  90.7150055  26.4036758  35.8984529  91.4854660  26.6425145
  36.1415214  90.0415192  27.0269819  33.9985017  85.5599756  31.4621996
  33.1426613  85.1706607  31.2827635  34.4111969  85.6391717  30.6021781
  35.5284164  83.0946100  35.8613556  35.0248959  83.0576235  35.0481361
  35.8214771  84.0038842  35.9210212  31.7727050  83.1784829  34.8679737
  32.6380046  82.9827638  34.5085627  31.8404558  82.9495181  35.7949094
  41.3872180  93.4682410  28.3389931  40.6101623  93.1293570  27.8945093
  42.0663661  93.4735033  27.6644896  36.2024209  88.5877148  28.2296539
  35.8974345  88.9023297  29.0806682  37.1554651  88.6658567  28.2723872
  34.6470641  94.7467371  29.8789493  34.1192003  94.0120130  29.5662730
  34.1458144  95.5242047  29.6329461  39.6263487  92.9416391  34.9956539
  38.9687161  93.6315653  35.0836668  40.4303886  93.3312823  35.3390525
  29.3789369  85.4087037  32.2396104  29.9533121  85.1862219  31.5069297
  29.9660351  85.4775732  32.9924706  38.4368946  91.2960764  33.0460481
  38.9500828  91.9290756  33.5482190  39.0870170  90.6961960  32.6803841
  29.7058956  87.4391498  26.2591989  28.8696268  87.7766185  26.5801264
  29.5663725  87.3040478  25.3219126  31.6812036  82.2828286  30.9671174
  31.0276449  81.9677303  30.3427788  31.6392511  81.6604027  31.6930997
  32.7923241  92.5647581  22.8824466  31.8850303  92.3336835  23.0815615
  33.2894273  91.7685200  23.0698447  35.6991320 101.2745088  25.8021152
  35.0253019 101.5776785  26.4106110  36.0857142 102.0774169  25.4526609
  34.9149777  88.7710220  35.2918821  33.9972338  88.9925167  35.1340509
  35.3309920  88.8456530  34.4330529  35.6984824  90.1701635  30.4221502
  36.4456643  90.6823033  30.1128624  35.9676414  89.8485688  31.2825895
  33.9711475  92.6660176  27.4048456  33.0622694  92.3819209  27.5020926
  34.0006558  93.0859255  26.5451763  39.2030742  96.2766766  31.1739623
  38.7493069  95.4357675  31.2304814  38.5724709  96.9128164  31.5114404
  38.1463662  87.2058752  32.4040291  37.4086418  86.6936138  32.7350533
  38.3990435  86.7659133  31.5923568  37.6463681  98.1143262  32.1089442
  37.9386656  98.6748319  31.3901807  38.1562302  98.4071823  32.8642601
  38.2475289  79.9835004  32.9982060  38.5534166  79.1232367  32.7107975
  38.9727894  80.5752624  32.7981054  24.5399645  90.3865690  31.3863658
  24.3424045  89.7935051  30.6614725  23.9846309  90.0817900  32.1039597
  32.5196369  90.2788797  33.5058251  32.5744978  89.3262633  33.4300728
  31.7087571  90.4348236  33.9899550  33.6687562  94.2068920  24.7436534
  33.2306992  93.4904779  24.2842172  34.4098003  94.4345034  24.1821626
  30.4588729  88.8965856  31.2648630  29.6456594  89.1960027  31.6713822
  30.9547723  88.5021545  31.9823112  32.6097307  98.8923613  33.1982895
  32.5673485  99.1184460  32.2691427  33.5260005  98.6586988  33.3468696
  36.0562940  89.3607681  40.0963524  36.4112328  89.5879154  40.9557990
  36.7035072  89.6926058  39.4740779  41.7860677  92.4826117  30.8012853
  41.6478576  92.6727713  29.8734042  41.4296896  93.2445500  31.2580904
  29.9502803  86.4684212  36.8809865  30.5902183  86.3272971  36.1832828
  29.1180334  86.1818725  36.5048467  41.8130057  94.5502644  35.8124124
  42.2466564  94.4577933  36.6607178  42.5261638  94.5260144  35.1744140
  30.7263107  95.7686642  32.9944857  31.5203706  95.2736962  32.7927432
  30.0154800  95.2404505  32.6312563  35.5457952  98.1504738  37.3457225
  35.5994974  98.7195674  38.1134941  34.6772733  98.3206623  36.9811262
  27.0345871  89.9129724  29.0704610  26.1043459  89.8514180  29.2874572
  27.1303343  89.3905677  28.2741251  26.9531420  86.4384537  31.6582852
  27.2138237  87.3529870  31.5492012  27.7748592  85.9708979  31.8079465
  28.4256345  87.8522294  38.8281676  29.0979399  87.6439656  38.1794325
  27.5986132  87.6544380  38.3886909  42.6745606  94.5926344  38.3457010
  42.8681496  95.4972155  38.5916285  42.5746225  94.1333763  39.1795595
  34.3281917  84.4784235  40.8447337  33.6809832  85.1774185  40.7511814
  35.0982933  84.9120379  41.2123585  37.7360715  94.7433087  43.9197890
  37.5846222  94.5143639  43.0027974  37.7265395  95.7003689  43.9329235
  34.5046051  92.3165000  38.9044157  35.4338111  92.4676159  38.7313124
  34.0837082  92.4049021  38.0492803  33.3034383  96.3415664  36.6742695
  33.1645469  95.9734449  37.5468633  32.5148980  96.8563304  36.5026652
  33.8982535 101.4424761  28.0168231  34.0734291 100.9712804  28.8313854
  33.2115323 102.0690527  28.2449492  34.8539598  95.7197267  34.0631532
  34.5189431  95.6798037  34.9589182  34.3543544  95.0541983  33.5901943
  28.8283842  91.1264897  39.5884113  28.6903640  90.3945136  40.1895653
  29.7388766  91.0373797  39.3068301  37.7898790  93.0653301  24.3368592
  37.1727961  92.3400129  24.2401645  37.3215279  93.8262662  23.9935666
  31.4566143  90.8384856  39.0767793  32.1665762  90.1978049  39.0354412
  31.4135451  91.0897751  39.9993974  39.4452922  97.7752210  41.9974372
  39.3865468  97.0911430  41.3304955  39.8472440  98.5171200  41.5454998
  30.1695077  87.8250074  40.8963433  29.6332434  87.3740813  41.5485029
  29.5811785  87.9595983  40.1533897  28.4643621 104.5914124  34.7908091
  28.7040219 105.2232648  35.4687110  27.6212817 104.2402164  35.0773450
  29.5797336  87.2838726  23.4589896  28.7026802  87.1627526  23.0952143
  30.0555089  86.4924804  23.2068785  39.4470329  95.7391794  40.2288352
  38.5597108  95.4017715  40.3514751  40.0168880  95.0074825  40.4657117
  21.0999476  92.0715885  33.5531403  21.7870516  91.7577615  32.9652419
  20.9447605  92.9757250  33.2798655  25.9034198  86.9606082  37.9816427
  25.8192387  86.3531751  37.2466837  25.0816905  87.4515100  37.9825923
  32.9771482 100.3993246  37.1949595  32.9041654 101.2048217  37.7068900
  32.5348876 100.5985212  36.3697617  32.7661262  99.6365016  30.7052417
  31.9828784 100.1786696  30.7990641  33.4654007 100.1538996  31.1046658
  36.0757912  85.4459645  33.3486622  36.5726612  84.6929608  33.0287692
  35.3044894  85.4823962  32.7829831  43.9287670  91.1500011  34.9904914
  43.9177546  92.0324726  34.6198847  43.0605049  90.7971562  34.7959451
  35.4370166 100.2980080  39.3507754  36.1498138 100.9327545  39.2783655
  34.9460195 100.3943946  38.5347756  37.1587693  94.2031333  30.9225046
  36.2243972  94.3232795  30.7529750  37.3364361  93.3003799  30.6585055
  32.6592881  87.5877028  33.0758307  32.2890668  87.0348069  33.7639212
  33.1551973  86.9835162  32.5233307  40.5460244  90.0448652  31.4575080
  41.0120696  90.8776644  31.3835382  40.9967745  89.5793634  32.1620338
  30.4882079  98.0474523  40.1713325  31.1891539  98.6811006  40.3242719
  30.0177194  98.3889255  39.4108964  38.6136475  96.3892473  28.4561232
  38.8896319  96.2749068  29.3655106  37.7440974  95.9909958  28.4173405
  38.5176907  82.4129239  35.4965981  37.6039987  82.6433466  35.6648188
  38.9470008  82.4967683  36.3480013  38.2883365  90.6019131  37.9965875
  37.6354816  90.8495038  37.3418328  38.6663745  89.7883269  37.6628352
  35.2490539 100.6378824  32.0994045  35.4312934  99.8200480  32.5621798
  36.0723525 100.8546516  31.6618935  35.5832705  99.5647009  29.3609094
  36.1120471  99.0539464  28.7479256  35.8460924  99.2489539  30.2254627
  34.3370938  91.3438942  44.4831912  33.6611575  91.2433071  45.1534287
  35.1598572  91.1878156  44.9467909  26.0849798  97.5810878  37.1044427
  26.6703234  96.8354566  37.2372332  25.8874636  97.8914835  37.9881091
  28.9388453 100.6162126  32.1206870  28.2698828 101.1008254  31.6370910
  28.8001322 100.8631346  33.0350248  20.6767452  90.1516479  35.8248871
  20.7151552  89.6180069  36.6185989  20.1707745  89.6251684  35.2059848
  33.0793721 102.6505869  38.7189528  33.6312029 102.8137491  39.4838613
  33.4199915 103.2410307  38.0469553  28.0558215  84.9981019  39.3211413
  28.1199541  85.8595850  38.9088811  27.9925335  84.3855021  38.5883771
  27.5310487  87.0704152  42.9684447  28.1582526  86.6881229  43.5821971
  26.6738406  86.8518354  43.3340140  37.9304596  97.4767127  44.5738183
  38.4744500  98.0897085  44.0793137  37.3491440  98.0346705  45.0905196
  24.3076030  88.8780581  28.9002802  24.6029471  87.9691259  28.8469856
  23.4064066  88.8568320  28.5783804  36.2162109 100.5987845  35.7053210
  36.0913248  99.7977585  35.1964156  36.8741200 101.0934038  35.2167180
  27.8370277  86.9536577  34.8830351  27.1156863  87.5672545  34.7437824
  28.6263533  87.4894342  34.8046996  38.2797017  98.3996865  37.3332760
  37.3327353  98.2802216  37.2611087  38.6279790  97.5119363  37.4159022
  30.6396590  84.2891004  41.1571002  31.1630992  84.5353300  41.9197312
  30.4208924  85.1211039  40.7374140  26.0363871  86.5594679  29.0242127
  25.7076578  85.6792057  28.8417233  26.3903242  86.5042347  29.9118516
  35.2843450  98.1949581  33.5337113  35.1368413  97.2666289  33.7144683
  36.1096944  98.2169672  33.0494188  29.1505695  86.8467648  29.3917605
  29.4901767  87.3753570  28.6696213  29.5977815  87.1848054  30.1676171
  38.8877572  99.0178140  34.6201985  39.8124120  98.8121001  34.4826436
  38.7192876  98.7694541  35.5291327  31.8449135  85.2304699  38.8420673
  31.5045956  84.4312512  39.2441353  31.1388142  85.5306410  38.2697506
  32.4965607  82.3154011  37.2947996  33.3191677  81.8414490  37.1726886
  32.7403671  83.0944495  37.7946682  31.1373842  85.3442270  27.5910898
  31.8582204  85.7223523  27.0874614  30.5139146  86.0631147  27.6945875
  35.2804965  86.0487419  28.5269230  35.4968579  86.9312057  28.2258058
  34.7999032  85.6573632  27.7974872  30.0204186  89.0073132  35.1039974
  29.8748767  89.3213435  35.9964256  29.5429390  89.6258032  34.5510873
  31.8800569  85.9975680  35.1520864  31.8662138  85.1016773  34.8153162
  32.5972997  86.0046344  35.7859150  33.7326700  86.4313020  37.1973991
  33.4744477  87.3530091  37.1958322  33.2011740  86.0343455  37.8874456
  38.6772888  99.5363807  29.9764077  38.8509766  98.9710230  29.2237929
  39.1701780 100.3364702  29.7943567  24.4949848  91.5478477  38.0427636
  23.9503316  92.3238284  38.1747910  25.3729198  91.8949281  37.8846757
  31.2837465  84.8790060  30.4208434  31.4053376  83.9506707  30.6199322
  30.9939507  84.8928746  29.5086750  34.1528655  82.5644971  33.5575154
  34.1750352  82.6284304  32.6027134  34.5696714  81.7249479  33.7515660
  44.5312280  92.3000230  31.5954377  44.9743426  91.5507556  31.1973500
  43.6538790  92.2910367  31.2128109  39.6648061  98.8530572  27.0760975
  40.3598965  99.4737265  27.2948290  40.0071211  98.0025923  27.3513353
  25.2815870  90.6748373  40.9357792  24.5397606  90.8231008  41.5222423
  24.9608614  90.9356638  40.0724542  41.5639484  96.3030277  28.6048306
  42.0890808  96.6417550  27.8797626  41.4761837  95.3677293  28.4211440
  33.2259533 100.2164351  40.7338182  33.5346659  99.9713498  41.6060882
  34.0235015 100.4210989  40.2457053  33.2480145 102.3702261  32.9643559
  32.8085135 101.8778639  33.6576416  33.9988262 101.8275228  32.7235634
  25.7272484  98.5613801  32.9668187  26.5530504  98.2617573  32.5866831
  25.3766536  97.7921424  33.4157976  30.6954017  97.9140270  35.0365861
  30.0734026  97.2510975  34.7368089  31.3658884  97.9401402  34.3539508
  23.9281089  96.4800128  33.9257121  23.0912997  96.0522302  33.7441122
  23.9004734  96.6732571  34.8627912  30.7678544  86.3922058  44.6298367
  30.8166700  87.2684181  44.2476136  31.3101059  85.8499451  44.0570010
  41.2533390  96.9363181  43.9099504  40.4628934  96.9187320  43.3704003
  41.0166745  97.4751475  44.6648540  41.3731265  93.7855647  41.2232232
  41.4229270  93.6205655  42.1647755  41.2645188  92.9182906  40.8330113
  30.2567524  96.4644193  28.5124321  30.4055644  97.1479657  27.8590994
  31.0633967  96.4449283  29.0273777  38.6635027  89.7686575  42.5391539
  39.5644890  89.6293040  42.2475537  38.7383002  89.9341030  43.4789716
  32.9977833  87.1453430  41.3844725  32.1281142  87.4386996  41.1127314
  33.2337313  87.7293875  42.1051989  42.8749462  96.2052589  41.4674254
  42.5834270  96.5682569  42.3037715  42.2621593  95.4919597  41.2887586
  44.0745144  93.7705469  33.9876824  44.9092036  94.2095273  34.1514384
  44.2104273  93.2944122  33.1685070  41.1236650  91.3285204  39.9354312
  41.5990772  91.5212850  39.1273163  40.2002216  91.3844389  39.6897696
  28.0120157  92.4909371  29.5185390  27.7666199  91.5871701  29.7165600
  28.1816071  92.4926521  28.5764868  35.7016867  83.3633047  38.9010146
  36.2198810  84.0994074  38.5756634  35.3471999  83.6697040  39.7356905
  27.2815804  88.2237728  27.0171552  26.5885049  88.2982083  26.3611588
  27.0367556  87.4598072  27.5393069  35.9529461  79.7833330  34.4211042
  36.2331215  79.1156519  35.0471469  36.7380068  79.9762425  33.9085706
  33.7562929  98.9592324  25.9836069  33.1836896  99.5782511  25.5306541
  34.3295723  99.5091685  26.5175991  39.8238319  88.2050964  38.1682617
  40.7755742  88.3049061  38.1894842  39.6541770  87.4129232  38.6780702
  37.8452699  85.2906547  38.3542018  37.2502631  85.5711560  37.6588507
  37.5602395  85.7800448  39.1258759  36.9760189  99.2429474  27.1144651
  37.9090862  99.1775035  27.3177526  36.8883402 100.0785740  26.6559184
  39.6048206  98.5595344  24.0748599  39.5261837  98.2255208  24.9684356
  40.4257873  99.0517112  24.0740071  42.3026397  91.4257083  37.2824917
  42.2702717  90.4873084  37.4684601  42.9127021  91.5041120  36.5490742
  34.1409728  90.2953136  23.3252121  35.0868833  90.1659344  23.3940539
  33.7623973  89.5567798  23.8021549  42.4520885  88.2168127  37.3283200
  41.9359934  87.4326583  37.1413129  43.3360834  87.8886843  37.4929720
  40.1131612  81.9609142  33.2879013  39.9156433  81.6524230  34.1722345
  40.7231318  82.6870781  33.4176943  48.1202947  92.4873090  36.4230954
  48.8506335  92.2258378  36.9838657  47.5109892  91.7501812  36.4633022
  46.2018244  90.6280953  37.0205405  45.4751407  90.4936918  36.4121897
  45.7865531  90.9357781  37.8262123  34.0248420  94.3470882  44.7852778
  34.9451430  94.5249481  44.9792825  33.9898003  93.4026928  44.6332477
  32.3252645  88.2203113  23.2607006  31.4184100  87.9236225  23.3369720
  32.6028626  87.9232931  22.3941293  23.2430585  89.5409476  33.7106053
  22.9233370  88.6874784  33.4180427  22.6964014  89.7558054  34.4664020
  27.0210493  92.2571917  37.4275559  27.2396503  93.1889025  37.4463593
  27.4336267  91.8979891  38.2130363  33.9414711  82.7640002  29.4151248
  33.1315439  82.4187087  29.7906494  34.6299128  82.4547546  30.0038859
  35.8705259  81.8418049  31.0375544  36.4236298  82.2613503  31.6965567
  36.1075345  80.9153797  31.0798500  31.8938358  87.8305123  46.8178308
  31.7935085  88.7799480  46.7490399  31.6759900  87.5023362  45.9454378
  31.0951430  85.0790048  23.4018986  31.9570594  85.4044946  23.6614803
  31.2801774  84.2921544  22.8892051  23.1118845  93.1612388  35.6799174
  22.4182317  92.7466340  35.1669129  23.8591836  93.2032924  35.0832593
  39.2484066  83.9518574  30.5454209  38.6682735  84.6103378  30.1632261
  38.9819999  83.1295919  30.1341626  37.6987632  83.3523632  32.7475529
  38.1987411  83.4640167  31.9389848  38.3423240  83.0484685  33.3876337
  31.7569628  91.2602262  45.6343370  31.2736710  92.0602622  45.8407259
  31.8430567  91.2710207  44.6810814  25.0255588  93.0930641  33.5565189
  25.0026276  93.1918329  32.6047072  25.3356224  93.9395792  33.8782355
  27.6842966  95.1506796  37.6711804  28.6386219  95.1190739  37.6041735
  27.4855489  94.6897420  38.4862030  28.2742348  93.7207912  40.2382601
  29.0935237  94.2151991  40.2617439  28.5479156  92.8039881  40.2100169
  38.0308944  86.1118665  29.6010557  37.1434799  86.3968315  29.3830752
  38.4462933  85.9512428  28.7537834  41.3823480  86.1365186  33.3164896
  42.1583870  86.6261638  33.5889513  40.6571614  86.5623240  33.7736766
  43.8196039  86.8492805  34.3738837  44.4140530  86.6088541  33.6632145
  43.8922623  86.1299935  35.0012373  26.0393195 100.6926416  34.6882002
  25.9047662  99.9326817  34.1220000  25.6225257 101.4167316  34.2210790
  37.1752158  95.8763339  23.6958577  37.8788008  96.0813342  24.3116232
  36.4514806  96.4440101  23.9607660  38.0049968  91.6273201  29.8160847
  37.9485169  92.0841752  28.9768479  38.5578310  90.8663885  29.6383690
  41.8154774  87.4162933  30.6410967  41.5591708  87.0159568  31.4719174
  41.1907642  88.1306726  30.5161106  46.1267112  90.1559006  33.1482258
  45.5666670  90.2252195  33.9213820  45.5210615  89.9799990  32.4281754
  29.1962320 101.5895733  34.9000444  29.0794705 102.5341165  34.7979134
  28.3754767 101.2869294  35.2886243  39.0838855  96.3145869  25.7457037
  39.9184459  95.8827067  25.5634512  38.9223198  96.1427882  26.6733931
  38.7384747  92.8177982  27.1113376  38.6833551  92.6522253  26.1701820
  38.1130802  93.5254015  27.2675566  23.5277262  88.0546046  40.9374798
  24.1736126  87.5445000  41.4262024  23.3194413  88.7914728  41.5118224
  36.0530654  95.1226894  46.4366939  36.9221814  95.2967546  46.0753574
  35.5737406  95.9421311  46.3142668  32.0480873  82.3186091  26.6898695
  32.0359542  83.2627931  26.8466965  32.9404294  82.1356236  26.3958156
  30.2216835 102.2423995  38.1156373  31.1244081 102.2747605  38.4322868
  29.9954205 101.3124446  38.1302708  31.9770437 100.9954981  34.7766451
  31.0266068 100.9956843  34.6630824  32.2802923 100.2487716  34.2602486
  35.8632992  78.9128868  30.9444631  35.0965388  78.3587354  31.0901314
  36.2743697  78.9850736  31.8058783  27.8674753  85.2013663  45.0349813
  28.7306215  84.8450468  45.2453137  27.2940164  84.8627558  45.7225217
  47.7123130 106.8315520  35.8412214  48.3501540 106.7122267  35.1375554
  47.5943973 107.7796364  35.9000166  44.5212836 106.7842948  35.7773738
  44.1831348 106.6684013  34.8894273  45.3902604 106.3834113  35.7574744
  40.3799652 108.6378424  31.7670629  39.8164517 108.5468361  30.9986917
  40.2652047 107.8178329  32.2473122  45.0032619 107.9377800  41.7359944
  44.9921260 107.5430598  40.8640448  45.1653259 107.2043872  42.3293715
  37.9264084 110.1329616  34.6054850  38.7185376 109.7920440  34.1901149
  38.1660734 110.2424591  35.5257003  45.9599211 112.3049392  27.0785094
  45.3087190 112.8903472  26.6919108  46.7543574 112.8355587  27.1380132
  39.8854838 109.3938529  27.4772229  40.6585714 108.8467516  27.3385104
  40.2380237 110.2582778  27.6886690  41.7239880 110.7214911  40.6839128
  41.4329746 111.6260542  40.5685794  42.3596865 110.7631439  41.3983197
  42.6496087 108.0991760  37.2740487  43.2459660 107.8747782  36.5597450
  42.7071059 107.3576505  37.8765935  42.2221116 105.5531195  25.1090678
  42.4746636 105.0312716  24.3474141  41.2845675 105.3897341  25.2117362
  47.2664398 104.5566974  32.9165422  48.0527488 104.1386397  32.5655839
  47.5303103 105.4613066  33.0847070  47.4374476 109.9939824  27.6154078
  46.8020309 110.0674450  28.3274983  47.1071882 110.5833423  26.9373158
  52.6672826 104.4942207  33.8198400  53.3997998 103.9241424  34.0536230
  51.9112181 104.1063807  34.2604906  41.9417404 107.4559301  27.3115053
  41.8253663 106.7804205  27.9796138  42.0519664 106.9691675  26.4947206
  44.2848945 106.9169448  31.0161743  43.9207153 106.3900069  31.7274664
  45.1416061 106.5267917  30.8428228  50.1898246  98.2063781  38.2793009
  49.8581571  99.0759192  38.0554224  49.5943859  97.8900065  38.9587039
  43.9254432 101.9459348  26.0123091  44.0928835 102.8139584  26.3793562
  43.7351601 102.1086630  25.0884380  46.6829766 110.4076327  37.6788922
  46.3830489 111.3101366  37.5704729  46.3380825 110.1408510  38.5310074
  40.1342247 106.8590124  33.7125626  39.2092743 106.7266338  33.9203318
  40.3826660 107.6384343  34.2095568  50.0826909 102.9258867  35.3586359
  49.1743787 102.8574275  35.0645120  50.0314505 103.4030812  36.1868184
  43.9043653 104.4017005  26.9969758  43.7843278 104.8474056  27.8355238
  43.2096242 104.7502323  26.4383296  37.4951058 106.5023397  34.5469415
  37.6243439 106.7557876  35.4608827  36.8148509 107.0951105  34.2274070
  41.6650545 117.1720647  30.6459889  41.5874575 118.1228472  30.7248370
  41.0612189 116.8266520  31.3034816  44.1567775 104.3448513  43.3021256
  43.3801109 104.9042433  43.2924121  44.7958338 104.8305296  43.8236126
  51.9488556 101.1275305  37.1364233  51.3062936 101.4207839  36.4904027
  51.4443484 101.0128226  37.9417429  49.6028719 104.8738479  27.8250092
  50.5146575 105.1065865  27.6497790  49.0938366 105.4575523  27.2625171
  42.4114147 107.1533966  42.8639223  43.1528832 107.6919010  42.5874047
  41.7051133 107.7800255  43.0210775  47.8869487 109.2963106  41.4611385
  48.2952843 108.8545517  40.7166017  47.1646749 108.7215734  41.7145578
  44.2400557 104.2335713  38.8344942  45.0861752 104.6575127  38.9779591
  44.1799195 103.5769338  39.5283505  48.2098302 109.8564297  35.2163673
  47.5807164 110.0210011  34.5139741  47.8223964 110.2705907  35.9874638
  52.0887534 110.7918735  32.5708037  51.4038572 111.1717636  32.0205071
  52.1731383 111.4014062  33.3039985  47.3900002 101.8940082  40.4926115
  47.1460934 102.6482142  39.9560391  47.6659933 102.2725429  41.3273362
  49.3438465 108.4378694  39.1703381  49.5555360 109.0810454  38.4937762
  49.2968213 107.6041011  38.7025311  46.9464694 101.0496515  36.0739953
  46.0849173 101.3477768  36.3656690  46.9727129 101.2666913  35.1420986
  43.7626264 109.5938705  32.4813759  44.2264609 109.8726408  31.6918381
  43.4983062 108.6922150  32.2986849  40.6550345 109.1410187  35.4193522
  41.2251702 109.5697455  34.7811006  41.2458456 108.8592771  36.1177708
  42.6995150 105.7161858  29.2903324  43.4019193 106.1682901  29.7577250
  42.3675778 105.0745676  29.9183217  41.1475511 104.3073614  43.6654533
  40.5174172 104.9889895  43.8989930  41.0411599 104.1956696  42.7207671
  36.4420484 103.9745410  34.5920457  35.6519538 104.2302939  34.1160568
  36.9331731 104.7893748  34.6972498  50.4584293 111.3150649  37.3425738
  51.2801737 110.9130837  37.0608420  50.4546696 111.2118884  38.2941854
  38.3935229 104.3389989  31.5503934  37.5966392 104.4508684  32.0687430
  38.1660821 104.6776642  30.6844825  44.2240897 110.8634693  39.4986449
  44.2885329 111.3255100  40.3344620  43.5151820 110.2332058  39.6268758
  34.7258187 104.2275901  37.0235448  34.9766225 105.1122911  37.2893024
  35.2617735 104.0480502  36.2510540  58.5490286 107.6589398  33.6910710
  57.7953995 107.0896796  33.5354714  58.6837827 107.6252062  34.6381344
  43.9388914 112.5302800  29.3665429  43.8034589 113.3754336  29.7950277
  44.4798727 112.7322078  28.6031363  40.4256254  98.6094380  46.0279784
  40.0323199  98.0560579  46.7027428  41.2422394  98.9204958  46.4186302
  37.3918312 110.0478238  29.9393354  37.9042832 110.8421488  30.0898919
  38.0441024 109.3504529  29.8726955  39.2013196 113.1643994  32.0216107
  39.3779825 114.0861959  31.8337091  39.9970030 112.8502414  32.4510487
  43.3424215 100.0252259  43.6200041  44.0833928 100.6259412  43.5404503
  43.5742138  99.2829897  43.0618083  38.4865553 105.2108626  41.8978270
  38.3719068 104.3093884  42.1985369  37.6310071 105.4572323  41.5463087
  45.5657391 113.1526367  43.4965771  45.1221245 112.3662745  43.1786676
  46.2274604 113.3405517  42.8309662  40.3244512 114.6822168  38.0226450
  40.8751937 114.5539232  37.2503443  39.4855988 114.9817057  37.6721342
  47.6638629 113.4329167  41.5247172  47.6457104 114.2538048  41.0327441
  48.5858549 113.3083242  41.7497313  44.1211683 110.9473296  42.3670681
  44.6540020 110.1861584  42.1369989  43.5925764 110.6546948  43.1094835
  47.2881378  96.0533362  37.8964322  46.9445647  96.9435004  37.8203433
  47.6560340  95.8635020  37.0333907  35.3567228 108.3766892  30.7152925
  36.1942450 108.7863901  30.4986632  35.5345496 107.4366335  30.6853118
  47.2531661 106.0441973  26.4036758  46.7378284 106.8146578  26.6425145
  46.9808969 105.3707109  27.0269819  44.8378772 100.8891674  31.4621996
  43.9820368 100.4998524  31.2827635  45.2505723 100.9683635  30.6021781
  46.3677918  98.4238017  35.8613556  45.8642714  98.3868152  35.0481361
  46.6608525  99.3330760  35.9210212  42.6120804  98.5076747  34.8679737
  43.4773801  98.3119556  34.5085627  42.6798313  98.2787099  35.7949094
  52.2265935 108.7974328  28.3389931  51.4495377 108.4585487  27.8945093
  52.9057416 108.8026951  27.6644896  47.0417964 103.9169065  28.2296539
  46.7368099 104.2315214  29.0806682  47.9948406 103.9950485  28.2723872
  45.4864396 110.0759289  29.8789493  44.9585757 109.3412048  29.5662730
  44.9851898 110.8533965  29.6329461  50.4657242 108.2708309  34.9956539
  49.8080916 108.9607570  35.0836668  51.2697641 108.6604741  35.3390525
  40.2183123 100.7378955  32.2396104  40.7926875 100.5154136  31.5069297
  40.8054106 100.8067649  32.9924706  49.2762700 106.6252682  33.0460481
  49.7894582 107.2582674  33.5482190  49.9263924 106.0253877  32.6803841
  40.5452710 102.7683416  26.2591989  39.7090023 103.1058102  26.5801264
  40.4057480 102.6332396  25.3219126  42.5205791  97.6120204  30.9671174
  41.8670203  97.2969221  30.3427788  42.4786265  96.9895944  31.6930997
  43.6316996 107.8939499  22.8824466  42.7244057 107.6628752  23.0815615
  44.1288028 107.0977118  23.0698447  46.5385075 116.6037006  25.8021152
  45.8646773 116.9068703  26.4106110  46.9250897 117.4066086  25.4526609
  45.7543531 104.1002137  35.2918821  44.8366093 104.3217084  35.1340509
  46.1703675 104.1748448  34.4330529  46.5378579 105.4993553  30.4221502
  47.2850398 106.0114950  30.1128624  46.8070169 105.1777606  31.2825895
  44.8105229 107.9952094  27.4048456  43.9016448 107.7111127  27.5020926
  44.8400313 108.4151172  26.5451763  50.0424497 111.6058683  31.1739623
  49.5886824 110.7649593  31.2304814  49.4118463 112.2420082  31.5114404
  48.9857416 102.5350669  32.4040291  48.2480173 102.0228055  32.7350533
  49.2384190 102.0951051  31.5923568  48.4857436 113.4435180  32.1089442
  48.7780410 114.0040237  31.3901807  48.9956056 113.7363741  32.8642601
  49.0869043  95.3126921  32.9982060  49.3927920  94.4524285  32.7107975
  49.8121648  95.9044541  32.7981054  35.3793400 105.7157608  31.3863658
  35.1817799 105.1226969  30.6614725  34.8240064 105.4109818  32.1039597
  43.3590123 105.6080714  33.5058251  43.4138733 104.6554551  33.4300728
  42.5481325 105.7640153  33.9899550  44.5081317 109.5360837  24.7436534
  44.0700747 108.8196696  24.2842172  45.2491758 109.7636952  24.1821626
  41.2982483 104.2257774  31.2648630  40.4850349 104.5251945  31.6713822
  41.7941477 103.8313463  31.9823112  43.4491061 114.2215531  33.1982895
  43.4067240 114.4476377  32.2691427  44.3653760 113.9878906  33.3468696
  46.8956695 104.6899599  40.0963524  47.2506083 104.9171072  40.9557990
  47.5428826 105.0217975  39.4740779  52.6254432 107.8118034  30.8012853
  52.4872330 108.0019630  29.8734042  52.2690651 108.5737417  31.2580904
  40.7896558 101.7976130  36.8809865  41.4295937 101.6564889  36.1832828
  39.9574088 101.5110643  36.5048467  52.6523811 109.8794561  35.8124124
  53.0860318 109.7869850  36.6607178  53.3655392 109.8552062  35.1744140
  41.5656862 111.0978560  32.9944857  42.3597460 110.6028880  32.7927432
  40.8548554 110.5696423  32.6312563  46.3851706 113.4796656  37.3457225
  46.4388729 114.0487592  38.1134941  45.5166488 113.6498541  36.9811262
  37.8739625 105.2421642  29.0704610  36.9437213 105.1806097  29.2874572
  37.9697097 104.7197594  28.2741251  37.7925174 101.7676455  31.6582852
  38.0531992 102.6821788  31.5492012  38.6142347 101.3000897  31.8079465
  39.2650100 103.1814212  38.8281676  39.9373153 102.9731574  38.1794325
  38.4379886 102.9836298  38.3886909  53.5139361 109.9218262  38.3457010
  53.7075251 110.8264073  38.5916285  53.4139979 109.4625681  39.1795595
  45.1675672  99.8076153  40.8447337  44.5203587 100.5066102  40.7511814
  45.9376687 100.2412297  41.2123585  48.5754470 110.0725005  43.9197890
  48.4239976 109.8435556  43.0027974  48.5659149 111.0295606  43.9329235
  45.3439806 107.6456918  38.9044157  46.2731866 107.7968077  38.7313124
  44.9230836 107.7340938  38.0492803  44.1428138 111.6707582  36.6742695
  44.0039223 111.3026366  37.5468633  43.3542734 112.1855221  36.5026652
  44.7376290 116.7716678  28.0168231  44.9128045 116.3004722  28.8313854
  44.0509078 117.3982445  28.2449492  45.6933353 111.0489185  34.0631532
  45.3583186 111.0089955  34.9589182  45.1937299 110.3833901  33.5901943
  39.6677597 106.4556815  39.5884113  39.5297395 105.7237054  40.1895653
  40.5782520 106.3665715  39.3068301  48.6292545 108.3945219  24.3368592
  48.0121715 107.6692047  24.2401645  48.1609033 109.1554579  23.9935666
  42.2959898 106.1676774  39.0767793  43.0059516 105.5269966  39.0354412
  42.2529206 106.4189669  39.9993974  50.2846676 113.1044127  41.9974372
  50.2259222 112.4203347  41.3304955  50.6866195 113.8463117  41.5454998
  41.0088832 103.1541992  40.8963433  40.4726189 102.7032730  41.5485029
  40.4205540 103.2887901  40.1533897  40.4191090 102.6130643  23.4589896
  39.5420557 102.4919444  23.0952143  40.8948844 101.8216722  23.2068785
  50.2864084 111.0683711  40.2288352  49.3990862 110.7309633  40.3514751
  50.8562635 110.3366743  40.4657117  31.9393231 107.4007803  33.5531403
  32.6264270 107.0869533  32.9652419  31.7841359 108.3049168  33.2798655
  36.7427953 102.2898000  37.9816427  36.6586141 101.6823669  37.2466837
  35.9210659 102.7807018  37.9825923  43.8165237 115.7285164  37.1949595
  43.7435408 116.5340135  37.7068900  43.3742630 115.9277129  36.3697617
  43.6055017 114.9656934  30.7052417  42.8222538 115.5078614  30.7990641
  44.3047762 115.4830913  31.1046658  46.9151667 100.7751563  33.3486622
  47.4120366 100.0221525  33.0287692  46.1438648 100.8115880  32.7829831
  54.7681424 106.4791929  34.9904914  54.7571300 107.3616644  34.6198847
  53.8998803 106.1263479  34.7959451  46.2763920 115.6271998  39.3507754
  46.9891893 116.2619462  39.2783655  45.7853949 115.7235864  38.5347756
  47.9981447 109.5323250  30.9225046  47.0637726 109.6524713  30.7529750
  48.1758116 108.6295717  30.6585055  43.4986635 102.9168946  33.0758307
  43.1284423 102.3639986  33.7639212  43.9945728 102.3127080  32.5233307
  51.3853999 105.3740570  31.4575080  51.8514451 106.2068561  31.3835382
  51.8361499 104.9085551  32.1620338  41.3275834 113.3766441  40.1713325
  42.0285293 114.0102924  40.3242719  40.8570949 113.7181173  39.4108964
  49.4530230 111.7184391  28.4561232  49.7290074 111.6040985  29.3655106
  48.5834729 111.3201876  28.4173405  49.3570661  97.7421157  35.4965981
  48.4433741  97.9725383  35.6648188  49.7863763  97.8259601  36.3480013
  49.1277120 105.9311049  37.9965875  48.4748570 106.1786956  37.3418328
  49.5057500 105.1175187  37.6628352  46.0884294 115.9670742  32.0994045
  46.2706688 115.1492398  32.5621798  46.9117280 116.1838434  31.6618935
  46.4226459 114.8938927  29.3609094  46.9514226 114.3831381  28.7479256
  46.6854679 114.5781457  30.2254627  45.1764693 106.6730860  44.4831912
  44.5005330 106.5724989  45.1534287  45.9992327 106.5170073  44.9467909
  36.9243552 112.9102796  37.1044427  37.5096989 112.1646484  37.2372332
  36.7268390 113.2206753  37.9881091  39.7782207 115.9454044  32.1206870
  39.1092582 116.4300171  31.6370910  39.6395077 116.1923264  33.0350248
  31.5161207 105.4808396  35.8248871  31.5545306 104.9471987  36.6185989
  31.0101500 104.9543602  35.2059848  43.9187476 117.9797787  38.7189528
  44.4705784 118.1429409  39.4838613  44.2593669 118.5702225  38.0469553
  38.8951969 100.3272937  39.3211413  38.9593296 101.1887768  38.9088811
  38.8319089  99.7146939  38.5883771  38.3704242 102.3996069  42.9684447
  38.9976280 102.0173147  43.5821971  37.5132160 102.1810271  43.3340140
  48.7698350 112.8059045  44.5738183  49.3138254 113.4189003  44.0793137
  48.1885195 113.3638623  45.0905196  35.1469784 104.2072499  28.9002802
  35.4423225 103.2983177  28.8469856  34.2457820 104.1860238  28.5783804
  47.0555863 115.9279763  35.7053210  46.9307003 115.1269502  35.1964156
  47.7134954 116.4225956  35.2167180  38.6764031 102.2828495  34.8830351
  37.9550617 102.8964463  34.7437824  39.4657287 102.8186260  34.8046996
  49.1190771 113.7288783  37.3332760  48.1721107 113.6094134  37.2611087
  49.4673545 112.8411281  37.4159022  41.4790345  99.6182922  41.1571002
  42.0024747  99.8645218  41.9197312  41.2602678 100.4502956  40.7374140
  36.8757626 101.8886596  29.0242127  36.5470332 101.0083975  28.8417233
  37.2296997 101.8334265  29.9118516  46.1237205 113.5241499  33.5337113
  45.9762167 112.5958206  33.7144683  46.9490698 113.5461590  33.0494188
  39.9899449 102.1759566  29.3917605  40.3295522 102.7045487  28.6696213
  40.4371570 102.5139972  30.1676171  49.7271327 114.3470058  34.6201985
  50.6517874 114.1412919  34.4826436  49.5586630 114.0986459  35.5291327
  42.6842890 100.5596617  38.8420673  42.3439710  99.7604430  39.2441353
  41.9781896 100.8598328  38.2697506  43.3359362  97.6445929  37.2947996
  44.1585431  97.1706407  37.1726886  43.5797425  98.4236413  37.7946682
  41.9767596 100.6734188  27.5910898  42.6975959 101.0515440  27.0874614
  41.3532900 101.3923064  27.6945875  46.1198719 101.3779337  28.5269230
  46.3362333 102.2603974  28.2258058  45.6392786 100.9865550  27.7974872
  40.8597940 104.3365050  35.1039974  40.7142521 104.6505353  35.9964256
  40.3823144 104.9549950  34.5510873  42.7194323 101.3267598  35.1520864
  42.7055892 100.4308691  34.8153162  43.4366751 101.3338262  35.7859150
  44.5720454 101.7604938  37.1973991  44.3138232 102.6822009  37.1958322
  44.0405494 101.3635373  37.8874456  49.5166643 114.8655725  29.9764077
  49.6903520 114.3002148  29.2237929  50.0095534 115.6656620  29.7943567
  35.3343603 106.8770394  38.0427636  34.7897071 107.6530202  38.1747910
  36.2122952 107.2241199  37.8846757  42.1231219 100.2081978  30.4208434
  42.2447130  99.2798624  30.6199322  41.8333262 100.2220664  29.5086750
  44.9922410  97.8936888  33.5575154  45.0144106  97.9576222  32.6027134
  45.4090469  97.0541397  33.7515660  55.3706034 107.6292148  31.5954377
  55.8137180 106.8799473  31.1973500  54.4932544 107.6202284  31.2128109
  50.5041815 114.1822490  27.0760975  51.1992720 114.8029182  27.2948290
  50.8464965 113.3317841  27.3513353  36.1209624 106.0040290  40.9357792
  35.3791361 106.1522926  41.5222423  35.8002369 106.2648556  40.0724542
  52.4033238 111.6322195  28.6048306  52.9284563 111.9709468  27.8797626
  52.3155591 110.6969210  28.4211440  44.0653287 115.5456269  40.7338182
  44.3740414 115.3005415  41.6060882  44.8628769 115.7502907  40.2457053
  44.0873899 117.6994178  32.9643559  43.6478889 117.2070557  33.6576416
  44.8382016 117.1567146  32.7235634  36.5666238 113.8905719  32.9668187
  37.3924258 113.5909491  32.5866831  36.2160290 113.1213342  33.4157976
  41.5347771 113.2432187  35.0365861  40.9127781 112.5802892  34.7368089
  42.2052638 113.2693319  34.3539508  34.7674843 111.8092046  33.9257121
  33.9306752 111.3814220  33.7441122  34.7398489 112.0024489  34.8627912
  41.6072299 101.7213975  44.6298367  41.6560454 102.5976098  44.2476136
  42.1494813 101.1791368  44.0570010  52.0927145 112.2655099  43.9099504
  51.3022688 112.2479238  43.3704003  51.8560499 112.8043392  44.6648540
  52.2125020 109.1147565  41.2232232  52.2623024 108.9497572  42.1647755
  52.1038943 108.2474824  40.8330113  41.0961278 111.7936111  28.5124321
  41.2449399 112.4771575  27.8590994  41.9027722 111.7741201  29.0273777
  49.5028782 105.0978493  42.5391539  50.4038645 104.9584958  42.2475537
  49.5776756 105.2632948  43.4789716  43.8371587 102.4745348  41.3844725
  42.9674897 102.7678914  41.1127314  44.0731068 103.0585793  42.1051989
  53.7143216 111.5344507  41.4674254  53.4228025 111.8974487  42.3037715
  53.1015348 110.8211515  41.2887586  54.9138899 109.0997386  33.9876824
  55.7485790 109.5387190  34.1514384  55.0498027 108.6236040  33.1685070
  51.9630405 106.6577121  39.9354312  52.4384526 106.8504768  39.1273163
  51.0395970 106.7136307  39.6897696  38.8513911 107.8201288  29.5185390
  38.6059953 106.9163618  29.7165600  39.0209826 107.8218439  28.5764868
  46.5410621  98.6924965  38.9010146  47.0592565  99.4285992  38.5756634
  46.1865754  98.9988958  39.7356905  38.1209559 103.5529646  27.0171552
  37.4278804 103.6274001  26.3611588  37.8761311 102.7889990  27.5393069
  46.7923215  95.1125247  34.4211042  47.0724969  94.4448436  35.0471469
  47.5773822  95.3054343  33.9085706  44.5956684 114.2884241  25.9836069
  44.0230651 114.9074428  25.5306541  45.1689477 114.8383603  26.5175991
  50.6632074 103.5342881  38.1682617  51.6149497 103.6340979  38.1894842
  50.4935524 102.7421150  38.6780702  48.6846453 100.6198464  38.3542018
  48.0896385 100.9003477  37.6588507  48.3996150 101.1092365  39.1258759
  47.8153944 114.5721391  27.1144651  48.7484617 114.5066953  27.3177526
  47.7277156 115.4077658  26.6559184  50.4441960 113.8887262  24.0748599
  50.3655592 113.5547125  24.9684356  51.2651627 114.3809030  24.0740071
  53.1420151 106.7549001  37.2824917  53.1096472 105.8165002  37.4684601
  53.7520775 106.8333038  36.5490742  44.9803482 105.6245054  23.3252121
  45.9262587 105.4951262  23.3940539  44.6017727 104.8859716  23.8021549
  53.2914640 103.5460044  37.3283200  52.7753689 102.7618501  37.1413129
  54.1754588 103.2178761  37.4929720  50.9525367  97.2901060  33.2879013
  50.7550188  96.9816148  34.1722345  51.5625072  98.0162699  33.4176943
  58.9596701 107.8165008  36.4230954  59.6900090 107.5550296  36.9838657
  58.3503647 107.0793730  36.4633022  57.0411998 105.9572870  37.0205405
  56.3145162 105.8228835  36.4121897  56.6259285 106.2649699  37.8262123
  44.8642175 109.6762800  44.7852778  45.7845184 109.8541399  44.9792825
  44.8291758 108.7318845  44.6332477  43.1646399 103.5495030  23.2607006
  42.2577855 103.2528143  23.3369720  43.4422380 103.2524848  22.3941293
  34.0824340 104.8701394  33.7106053  33.7627124 104.0166702  33.4180427
  33.5357768 105.0849972  34.4664020  37.8604247 107.5863835  37.4275559
  38.0790257 108.5180943  37.4463593  38.2730021 107.2271809  38.2130363
  44.7808465  98.0931920  29.4151248  43.9709193  97.7479005  29.7906494
  45.4692882  97.7839464  30.0038859  46.7099013  97.1709967  31.0375544
  47.2630052  97.5905420  31.6965567  46.9469100  96.2445715  31.0798500
  42.7332113 103.1597040  46.8178308  42.6328840 104.1091397  46.7490399
  42.5153655 102.8315279  45.9454378  41.9345184 100.4081966  23.4018986
  42.7964348 100.7336864  23.6614803  42.1195528  99.6213461  22.8892051
  33.9512600 108.4904305  35.6799174  33.2576071 108.0758258  35.1669129
  34.6985591 108.5324842  35.0832593  50.0877821  99.2810492  30.5454209
  49.5076490  99.9395296  30.1632261  49.8213753  98.4587837  30.1341626
  48.5381387  98.6815550  32.7475529  49.0381165  98.7932084  31.9389848
  49.1816995  98.3776603  33.3876337  42.5963383 106.5894179  45.6343370
  42.1130464 107.3894539  45.8407259  42.6824322 106.6002124  44.6810814
  35.8649342 108.4222559  33.5565189  35.8420030 108.5210246  32.6047072
  36.1749979 109.2687710  33.8782355  38.5236720 110.4798714  37.6711804
  39.4779974 110.4482656  37.6041735  38.3249244 110.0189338  38.4862030
  39.1136102 109.0499830  40.2382601  39.9328991 109.5443909  40.2617439
  39.3872910 108.1331798  40.2100169  48.8702699 101.4410582  29.6010557
  47.9828554 101.7260233  29.3830752  49.2856688 101.2804346  28.7537834
  52.2217235 101.4657103  33.3164896  52.9977625 101.9553556  33.5889513
  51.4965369 101.8915158  33.7736766  54.6589793 102.1784723  34.3738837
  55.2534284 101.9380459  33.6632145  54.7316377 101.4591853  35.0012373
  48.0145912 111.2055257  23.6958577  48.7181762 111.4105260  24.3116232
  47.2908561 111.7732019  23.9607660  48.8443722 106.9565118  29.8160847
  48.7878924 107.4133670  28.9768479  49.3972065 106.1955803  29.6383690
  52.6548528 102.7454850  30.6410967  52.3985462 102.3451486  31.4719174
  52.0301396 103.4598644  30.5161106  56.9660866 105.4850923  33.1482258
  56.4060424 105.5544113  33.9213820  56.3604369 105.3091908  32.4281754
  49.9232609 111.6437786  25.7457037  50.7578213 111.2118985  25.5634512
  49.7616952 111.4719800  26.6733931  49.5778502 108.1469900  27.1113376
  49.5227305 107.9814171  26.1701820  48.9524557 108.8545932  27.2675566
  34.3671017 103.3837964  40.9374798  35.0129880 102.8736918  41.4262024
  34.1588168 104.1206646  41.5118224  46.8924409 110.4518811  46.4366939
  47.7615568 110.6259464  46.0753574  46.4131160 111.2713228  46.3142668
  42.8874627  97.6478009  26.6898695  42.8753297  98.5919848  26.8466965
  43.7798049  97.4648154  26.3958156  41.0610589 117.5715912  38.1156373
  41.9637836 117.6039523  38.4322868  40.8347959 116.6416363  38.1302708
  42.8164191 116.3246899  34.7766451  41.8659822 116.3248761  34.6630824
  43.1196677 115.5779634  34.2602486  46.7026747  94.2420785  30.9444631
  45.9359142  93.6879272  31.0901314  47.1137451  94.3142654  31.8058783
  38.7068508 100.5305581  45.0349813  39.5699969 100.1742386  45.2453137
  38.1333918 100.1919476  45.7225217  58.5516885 122.1607437  35.8412214
  59.1895294 122.0414185  35.1375554  58.4337727 123.1088281  35.9000166
  55.3606591 122.1134865  35.7773738  55.0225102 121.9975930  34.8894273
  56.2296359 121.7126031  35.7574744  55.8426374 123.2669717  41.7359944
  55.8315015 122.8722515  40.8640448  56.0047013 122.5335790  42.3293715
  53.0614870 120.8823113  25.1090678  53.3140391 120.3604634  24.3474141
  52.1239429 120.7189258  25.2117362  58.1058153 119.8858891  32.9165422
  58.8921242 119.4678314  32.5655839  58.3696857 120.7904983  33.0847070
  63.5066580 119.8234124  33.8198400  64.2391752 119.2533341  34.0536230
  62.7505936 119.4355725  34.2604906  55.1242700 122.2461366  31.0161743
  54.7600907 121.7191987  31.7274664  55.9809816 121.8559835  30.8428228
  61.0292000 113.5355699  38.2793009  60.6975325 114.4051109  38.0554224
  60.4337614 113.2191983  38.9587039  54.7648187 117.2751266  26.0123091
  54.9322589 118.1431502  26.3793562  54.5745356 117.4378547  25.0884380
  60.9220664 118.2550785  35.3586359  60.0137541 118.1866193  35.0645120
  60.8708260 118.7322730  36.1868184  54.7437408 119.7308923  26.9969758
  54.6237033 120.1765974  27.8355238  54.0489996 120.0794241  26.4383296
  54.9961530 119.6740430  43.3021256  54.2194864 120.2334350  43.2924121
  55.6352093 120.1597213  43.8236126  62.7882310 116.4567223  37.1364233
  62.1456690 116.7499756  36.4904027  62.2837239 116.3420143  37.9417429
  60.4422474 120.2030396  27.8250092  61.3540330 120.4357783  27.6497790
  59.9332121 120.7867441  27.2625171  55.0794312 119.5627631  38.8344942
  55.9255507 119.9867044  38.9779591  55.0192949 118.9061255  39.5283505
  58.2293757 117.2231999  40.4926115  57.9854689 117.9774060  39.9560391
  58.5053687 117.6017347  41.3273362  60.1832220 123.7670612  39.1703381
  60.3949115 124.4102372  38.4937762  60.1361968 122.9332928  38.7025311
  57.7858449 116.3788432  36.0739953  56.9242928 116.6769686  36.3656690
  57.8120883 116.5958831  35.1420986  53.5388904 121.0453775  29.2903324
  54.2412947 121.4974819  29.7577250  53.2069533 120.4037594  29.9183217
  51.9869266 119.6365532  43.6654533  51.3567926 120.3181813  43.8989930
  51.8805354 119.5248613  42.7207671  47.2814238 119.3037328  34.5920457
  46.4913292 119.5594856  34.1160568  47.7725485 120.1185666  34.6972498
  49.2328983 119.6681907  31.5503934  48.4360147 119.7800601  32.0687430
  49.0054576 120.0068559  30.6844825  69.3884041 122.9881316  33.6910710
  68.6347749 122.4188714  33.5354714  69.5231582 122.9543980  34.6381344
  51.2650008 113.9386298  46.0279784  50.8716954 113.3852496  46.7027428
  52.0816149 114.2496876  46.4186302  54.1817969 115.3544177  43.6200041
  54.9227683 115.9551330  43.5404503  54.4135892 114.6121815  43.0618083
  58.1275132 111.3825280  37.8964322  57.7839402 112.2726921  37.8203433
  58.4954095 111.1926937  37.0333907  58.0925415 121.3733891  26.4036758
  57.5772038 122.1438495  26.6425145  57.8202723 120.6999027  27.0269819
  55.6772526 116.2183592  31.4621996  54.8214122 115.8290442  31.2827635
  56.0899478 116.2975552  30.6021781  57.2071673 113.7529935  35.8613556
  56.7036468 113.7160070  35.0481361  57.5002280 114.6622678  35.9210212
  53.4514559 113.8368665  34.8679737  54.3167555 113.6411473  34.5085627
  53.5192067 113.6079016  35.7949094  63.0659689 124.1266245  28.3389931
  62.2889132 123.7877405  27.8945093  63.7451170 124.1318869  27.6644896
  57.8811718 119.2460983  28.2296539  57.5761854 119.5607132  29.0806682
  58.8342160 119.3242403  28.2723872  61.3050996 123.6000227  34.9956539
  60.6474670 124.2899488  35.0836668  62.1091395 123.9896659  35.3390525
  51.0576878 116.0670873  32.2396104  51.6320630 115.8446054  31.5069297
  51.6447860 116.1359567  32.9924706  60.1156455 121.9544599  33.0460481
  60.6288337 122.5874591  33.5482190  60.7657679 121.3545795  32.6803841
  51.3846465 118.0975334  26.2591989  50.5483777 118.4350020  26.5801264
  51.2451234 117.9624313  25.3219126  53.3599545 112.9412121  30.9671174
  52.7063958 112.6261139  30.3427788  53.3180019 112.3187862  31.6930997
  56.5937286 119.4294055  35.2918821  55.6759847 119.6509002  35.1340509
  57.0097429 119.5040365  34.4330529  57.3772333 120.8285471  30.4221502
  58.1244152 121.3406868  30.1128624  57.6463923 120.5069523  31.2825895
  59.8251171 117.8642587  32.4040291  59.0873927 117.3519973  32.7350533
  60.0777944 117.4242968  31.5923568  59.9262798 110.6418839  32.9982060
  60.2321675 109.7816202  32.7107975  60.6515403 111.2336459  32.7981054
  54.1983878 120.9372632  33.5058251  54.2532487 119.9846468  33.4300728
  53.3875080 121.0932071  33.9899550  52.1376238 119.5549692  31.2648630
  51.3244103 119.8543862  31.6713822  52.6335232 119.1605380  31.9823112
  57.7350449 120.0191516  40.0963524  58.0899837 120.2462989  40.9557990
  58.3822581 120.3509893  39.4740779  63.4648186 123.1409952  30.8012853
  63.3266085 123.3311548  29.8734042  63.1084405 123.9029335  31.2580904
  51.6290312 117.1268047  36.8809865  52.2689692 116.9856806  36.1832828
  50.7967843 116.8402561  36.5048467  63.4917566 125.2086479  35.8124124
  63.9254072 125.1161768  36.6607178  64.2049147 125.1843980  35.1744140
  48.7133380 120.5713559  29.0704610  47.7830968 120.5098015  29.2874572
  48.8090852 120.0489512  28.2741251  48.6318929 117.0968372  31.6582852
  48.8925746 118.0113705  31.5492012  49.4536101 116.6292815  31.8079465
  50.1043854 118.5106129  38.8281676  50.7766908 118.3023492  38.1794325
  49.2773641 118.3128215  38.3886909  64.3533115 125.2510180  38.3457010
  64.5469005 126.1555990  38.5916285  64.2533734 124.7917599  39.1795595
  56.0069426 115.1368070  40.8447337  55.3597341 115.8358020  40.7511814
  56.7770442 115.5704214  41.2123585  56.1833560 122.9748835  38.9044157
  57.1125620 123.1259995  38.7313124  55.7624590 123.0632856  38.0492803
  59.4686299 123.7237137  24.3368592  58.8515470 122.9983965  24.2401645
  59.0002788 124.4846497  23.9935666  53.1353652 121.4968692  39.0767793
  53.8453271 120.8561884  39.0354412  53.0922960 121.7481587  39.9993974
  51.8482586 118.4833910  40.8963433  51.3119943 118.0324648  41.5485029
  51.2599294 118.6179818  40.1533897  51.2584845 117.9422561  23.4589896
  50.3814311 117.8211362  23.0952143  51.7342598 117.1508639  23.2068785
  47.5821707 117.6189917  37.9816427  47.4979896 117.0115587  37.2466837
  46.7604414 118.1098936  37.9825923  57.7545421 116.1043481  33.3486622
  58.2514121 115.3513443  33.0287692  56.9832403 116.1407797  32.7829831
  65.6075179 121.8083846  34.9904914  65.5965055 122.6908562  34.6198847
  64.7392558 121.4555397  34.7959451  54.3380390 118.2460864  33.0758307
  53.9678177 117.6931904  33.7639212  54.8339482 117.6418997  32.5233307
  62.2247753 120.7032487  31.4575080  62.6908205 121.5360479  31.3835382
  62.6755254 120.2377469  32.1620338  60.1964416 113.0713074  35.4965981
  59.2827496 113.3017301  35.6648188  60.6257517 113.1551518  36.3480013
  59.9670874 121.2602966  37.9965875  59.3142325 121.5078874  37.3418328
  60.3451254 120.4467104  37.6628352  56.0158447 122.0022777  44.4831912
  55.3399084 121.9016907  45.1534287  56.8386081 121.8461991  44.9467909
  49.7345724 115.6564855  39.3211413  49.7987050 116.5179685  38.9088811
  49.6712844 115.0438856  38.5883771  49.2097996 117.7287987  42.9684447
  49.8370035 117.3465064  43.5821971  48.3525915 117.5102189  43.3340140
  45.9863539 119.5364416  28.9002802  46.2816980 118.6275095  28.8469856
  45.0851575 119.5152156  28.5783804  49.5157786 117.6120413  34.8830351
  48.7944372 118.2256381  34.7437824  50.3051042 118.1478178  34.8046996
  52.3184099 114.9474839  41.1571002  52.8418501 115.1937136  41.9197312
  52.0996433 115.7794874  40.7374140  47.7151380 117.2178514  29.0242127
  47.3864087 116.3375893  28.8417233  48.0690751 117.1626183  29.9118516
  50.8293204 117.5051484  29.3917605  51.1689276 118.0337405  28.6696213
  51.2765324 117.8431890  30.1676171  53.5236644 115.8888534  38.8420673
  53.1833465 115.0896347  39.2441353  52.8175651 116.1890245  38.2697506
  54.1753116 112.9737847  37.2947996  54.9979186 112.4998325  37.1726886
  54.4191180 113.7528331  37.7946682  52.8161351 116.0026105  27.5910898
  53.5369713 116.3807358  27.0874614  52.1926655 116.7214982  27.6945875
  56.9592474 116.7071254  28.5269230  57.1756088 117.5895892  28.2258058
  56.4786541 116.3157468  27.7974872  51.6991695 119.6656967  35.1039974
  51.5536276 119.9797271  35.9964256  51.2216899 120.2841868  34.5510873
  53.5588078 116.6559515  35.1520864  53.5449647 115.7600609  34.8153162
  54.2760506 116.6630179  35.7859150  55.4114209 117.0896856  37.1973991
  55.1531986 118.0113926  37.1958322  54.8799249 116.6927290  37.8874456
  52.9624974 115.5373896  30.4208434  53.0840885 114.6090542  30.6199322
  52.6727016 115.5512582  29.5086750  55.8316164 113.2228806  33.5575154
  55.8537861 113.2868139  32.6027134  56.2484223 112.3833315  33.7515660
  66.2099788 122.9584066  31.5954377  66.6530935 122.2091391  31.1973500
  65.3326299 122.9494202  31.2128109  52.4466053 117.0505893  44.6298367
  52.4954209 117.9268016  44.2476136  52.9888568 116.5083286  44.0570010
  63.0518774 124.4439483  41.2232232  63.1016779 124.2789490  42.1647755
  62.9432697 123.5766742  40.8330113  60.3422536 120.4270411  42.5391539
  61.2432399 120.2876876  42.2475537  60.4170511 120.5924866  43.4789716
  54.6765342 117.8037266  41.3844725  53.8068651 118.0970832  41.1127314
  54.9124822 118.3877711  42.1051989  65.7532653 124.4289304  33.9876824
  66.5879545 124.8679108  34.1514384  65.8891782 123.9527957  33.1685070
  62.8024159 121.9869039  39.9354312  63.2778281 122.1796685  39.1273163
  61.8789724 122.0428225  39.6897696  57.3804376 114.0216882  38.9010146
  57.8986319 114.7577909  38.5756634  57.0259508 114.3280876  39.7356905
  48.9603313 118.8821564  27.0171552  48.2672558 118.9565919  26.3611588
  48.7155065 118.1181907  27.5393069  57.6316970 110.4417165  34.4211042
  57.9118724 109.7740354  35.0471469  58.4167577 110.6346261  33.9085706
  61.5025828 118.8634799  38.1682617  62.4543251 118.9632897  38.1894842
  61.3329279 118.0713068  38.6780702  59.5240208 115.9490382  38.3542018
  58.9290140 116.2295395  37.6588507  59.2389904 116.4384283  39.1258759
  63.9813906 122.0840919  37.2824917  63.9490226 121.1456919  37.4684601
  64.5914530 122.1624955  36.5490742  55.8197237 120.9536972  23.3252121
  56.7656341 120.8243180  23.3940539  55.4411482 120.2151634  23.8021549
  64.1308394 118.8751962  37.3283200  63.6147443 118.0910419  37.1413129
  65.0148343 118.5470679  37.4929720  61.7919121 112.6192978  33.2879013
  61.5943942 112.3108066  34.1722345  62.4018827 113.3454617  33.4176943
  69.7990456 123.1456925  36.4230954  70.5293844 122.8842214  36.9838657
  69.1897401 122.4085647  36.4633022  67.8805753 121.2864788  37.0205405
  67.1538916 121.1520753  36.4121897  67.4653040 121.5941617  37.8262123
  54.0040154 118.8786948  23.2607006  53.0971609 118.5820061  23.3369720
  54.2816135 118.5816766  22.3941293  55.6202220 113.4223838  29.4151248
  54.8102948 113.0770923  29.7906494  56.3086637 113.1131381  30.0038859
  57.5492768 112.5001885  31.0375544  58.1023807 112.9197338  31.6965567
  57.7862854 111.5737633  31.0798500  53.5725867 118.4888958  46.8178308
  53.4722594 119.4383315  46.7490399  53.3547409 118.1607197  45.9454378
  52.7738939 115.7373883  23.4018986  53.6358103 116.0628782  23.6614803
  52.9589283 114.9505379  22.8892051  60.9271575 114.6102410  30.5454209
  60.3470244 115.2687214  30.1632261  60.6607508 113.7879754  30.1341626
  59.3775141 114.0107467  32.7475529  59.8774920 114.1224002  31.9389848
  60.0210749 113.7068520  33.3876337  59.7096453 116.7702500  29.6010557
  58.8222308 117.0552151  29.3830752  60.1250442 116.6096263  28.7537834
  63.0610989 116.7949021  33.3164896  63.8371379 117.2845473  33.5889513
  62.3359123 117.2207075  33.7736766  65.4983548 117.5076640  34.3738837
  66.0928039 117.2672376  33.6632145  65.5710131 116.7883771  35.0012373
  59.6837477 122.2857036  29.8160847  59.6272678 122.7425587  28.9768479
  60.2365819 121.5247721  29.6383690  63.4942283 118.0746768  30.6410967
  63.2379217 117.6743404  31.4719174  62.8695151 118.7890562  30.5161106
  67.8054621 120.8142841  33.1482258  67.2454179 120.8836030  33.9213820
  67.1998124 120.6383826  32.4281754  60.4172256 123.4761817  27.1113376
  60.3621060 123.3106089  26.1701820  59.7918311 124.1837850  27.2675566
  45.2064771 118.7129882  40.9374798  45.8523635 118.2028836  41.4262024
  44.9981922 119.4498563  41.5118224  53.7268382 112.9769926  26.6898695
  53.7147051 113.9211766  26.8466965  54.6191803 112.7940072  26.3958156
  57.5420501 109.5712703  30.9444631  56.7752897 109.0171190  31.0901314
  57.9531206 109.6434572  31.8058783  49.5462262 115.8597499  45.0349813
  50.4093724 115.5034304  45.2453137  48.9727673 115.5211394  45.7225217
  68.9668887 126.7117197  37.8964322  68.6233156 127.6018839  37.8203433
  69.3347849 126.5218855  37.0333907  70.7656552 125.9710757  32.9982060
  71.0715429 125.1108120  32.7107975  71.4909157 126.5628377  32.7981054
  68.4710724 125.7709083  34.4211042  68.7512478 125.1032272  35.0471469
  69.2561331 125.9638178  33.9085706  72.6312876 127.9484895  33.2879013
  72.4337697 127.6399984  34.1722345  73.2412581 128.6746534  33.4176943
  68.3814255 124.9004621  30.9444631  67.6146651 124.3463107  31.0901314
  68.7924960 124.9726489  31.8058783   6.9271660  28.7938579  28.7219679
   6.8684206  28.1097799  28.0550262   7.3291178  29.5357569  28.2700305
   5.4123333  28.4953496  31.2983489   5.9563237  29.1083455  30.8038444
   4.8310178  29.0533075  31.8150502   8.7352128  27.9549551  30.6344810
   7.9447672  27.9373689  30.0949310   8.4985482  28.4937844  31.3893847
  10.3568200  27.2238958  28.1919561  10.0653008  27.5868939  29.0283021
   9.7440331  26.5105967  28.0132893   3.5349392  26.1413263  33.1612246
   4.4040552  26.3153916  32.7998881   3.0556144  26.9607680  33.0387975
  15.1941868  37.8501889  22.5657520  15.8320278  37.7308637  21.8620860
  15.0762711  38.7982733  22.6245472  12.0031574  37.8029317  22.5019045
  11.6650086  37.6870382  21.6139580  12.8721342  37.4020482  22.4820051
  12.4851357  38.9564169  28.4605250  12.4739998  38.5616967  27.5885754
  12.6471997  38.2230242  29.0539022   5.4082822  41.1515985  21.3300156
   6.2004114  40.8106810  20.9146456   5.6479472  41.2610960  22.2502310
   9.2058618  41.7401281  27.4084434   8.9148484  42.6446912  27.2931101
   9.8415603  41.7817809  28.1228504  10.1314825  39.1178129  23.9985794
  10.7278397  38.8934152  23.2842757  10.1889797  38.3762875  24.6011242
  20.1491563  35.5128576  20.5443707  20.8816735  34.9427793  20.7781536
  19.3930919  35.1250177  20.9850212  17.6716984  29.2250150  25.0038315
  17.3400309  30.0945561  24.7799530  17.0762597  28.9086434  25.6832346
  14.1648503  41.4262696  24.4034228  13.8649226  42.3287735  24.2950035
  13.8199563  41.1594880  25.2555381  17.5645647  33.9445237  22.0831665
  16.6562524  33.8760645  21.7890426  17.5133243  34.4217182  22.9113491
   9.1469283  48.1907017  17.3705196   9.0693313  49.1414842  17.4493676
   8.5430927  47.8452889  18.0280122  11.6386513  35.3634882  30.0266563
  10.8619847  35.9228802  30.0169427  12.2777076  35.8491665  30.5481433
  19.4307293  32.1461675  23.8609539  18.7881674  32.4394208  23.2149334
  18.9262222  32.0314595  24.6662736   9.8932885  38.1720336  29.5884530
  10.6347570  38.7105380  29.3119353   9.1869871  38.7986624  29.7456082
  15.3688225  40.3149476  28.1856691  15.7771581  39.8731887  27.4411324
  14.6465486  39.7402104  28.4390884  11.7219295  35.2522083  25.5590248
  12.5680490  35.6761496  25.7024897  11.6617933  34.5955707  26.2528811
  15.6917039  40.8750667  21.9408980  15.0625902  41.0396381  21.2385048
  15.3042702  41.2892276  22.7119944  19.5706271  41.8105104  19.2953344
  18.8857310  42.1904006  18.7450377  19.6550121  42.4200431  20.0285292
  14.8718740  32.9126451  27.2171422  14.6279672  33.6668512  26.6805698
  15.1478671  33.2911799  28.0518669  16.8257203  39.4565064  25.8948687
  17.0374098  40.0996823  25.2183068  16.7786951  38.6227380  25.4270617
   8.1369082  40.1596556  22.1438828   8.7070439  40.5883825  21.5056313
   8.7277194  39.8779141  22.8423014   8.6294249  35.3259984  30.3899840
   7.9992910  36.0076265  30.6235237   8.5230337  35.2143065  29.4452978
  17.9403031  42.3337019  24.0671045  18.7620475  41.9317206  23.7853726
  17.9365434  42.2305253  25.0187161  11.7059634  41.8821062  26.2231755
  11.7704067  42.3441469  27.0589927  10.9970558  41.2518427  26.3514065
  26.0309024  38.6775767  20.4156016  25.2772732  38.1083165  20.2600021
  26.1656565  38.6438432  21.3626651   7.9074992  29.6280750  32.7525091
   7.5141937  29.0746948  33.4272735   8.7241132  29.9391328  33.1431608
   6.6831934  44.1830364  18.7461414   6.8598562  45.1048329  18.5582398
   7.4788768  43.8688783  19.1755794  10.8242953  31.0438629  30.3445347
  11.5652666  31.6445782  30.2649810  11.0560875  30.3016266  29.7863390
   5.9684291  36.2294996  28.6223577   5.8537806  35.3280253  28.9230676
   5.1128808  36.4758693  28.2708394  13.0476128  44.1712736  30.2211078
  12.6039983  43.3849115  29.9031982  13.7093342  44.3591887  29.5554968
   7.8063250  45.7008538  24.7471756   8.3570675  45.5725601  23.9748750
   6.9674725  46.0003427  24.3966649  15.1457366  44.4515536  28.2492479
  15.1275842  45.2724417  27.7572748  16.0677287  44.3269611  28.4742620
  11.6030421  41.9659666  29.0915987  12.1358757  41.2047954  28.8615295
  11.0744502  41.6733317  29.8340142  17.9475979  39.2894679  21.7201846
  17.2899654  39.9793940  21.8081974  18.7516379  39.6791111  22.0635832
  16.7581438  37.6439051  19.7705787  17.2713320  38.2769043  20.2727497
  17.4082662  37.0440247  19.4049147  13.2362269  35.1188507  22.0164128
  12.3184830  35.3403454  21.8585816  13.6522413  35.1934817  21.1575835
  17.5243234  42.6245053  17.8984930  17.0705561  41.7835963  17.9550120
  16.8937201  43.2606451  18.2359710  15.9676174  44.4621549  18.8334748
  16.2599148  45.0226607  18.1147114  16.4774794  44.7550110  19.5887907
  10.9309799  45.2401901  19.9228201  10.8885978  45.4662747  18.9936733
  11.8472498  45.0065275  20.0714002  14.3775433  35.7085968  26.8208831
  14.7324820  35.9357441  27.6803296  15.0247564  36.0404345  26.1986086
  20.1073170  38.8304404  17.5258160  19.9691068  39.0206000  16.5979349
  19.7509388  39.5923787  17.9826211  20.1342549  40.8980931  22.5369431
  20.5679056  40.8056220  23.3852485  20.8474130  40.8738431  21.8989447
  13.8670444  44.4983025  24.0702532  13.9207466  45.0673961  24.8380248
  12.9985225  44.6684910  23.7056569   6.7468837  34.2000581  25.5526983
   7.4191891  33.9917943  24.9039632   5.9198624  34.0022667  25.1132215
  20.9958099  40.9404632  25.0702316  21.1893989  41.8450442  25.3161591
  20.8958717  40.4812051  25.9040902  12.6494409  30.8262522  27.5692644
  12.0022324  31.5252472  27.4757120  13.4195425  31.2598666  27.9368892
  16.0573207  41.0911374  30.6443197  15.9058714  40.8621926  29.7273281
  16.0477887  42.0481976  30.6574542  12.8258544  38.6643287  25.6289464
  13.7550604  38.8154447  25.4558431  12.4049574  38.7527308  24.7738110
  11.6246876  42.6893952  23.3988001  11.4857961  42.3212736  24.2713939
  10.8361472  43.2041591  23.2271959  12.2195028  47.7903048  14.7413538
  12.3946783  47.3191091  15.5559160  11.5327816  48.4168814  14.9694798
  13.1752091  42.0675554  20.7876839  12.8401923  42.0276324  21.6834489
  12.6756036  41.4020270  20.3147249   7.1496335  37.4743184  26.3129420
   7.0116133  36.7423423  26.9140959   8.0601258  37.3852084  26.0313608
   9.7778635  37.1863144  25.8013100  10.4878254  36.5456336  25.7599718
   9.7347943  37.4376038  26.7239281  17.7665414  44.1230497  28.7219679
  17.7077960  43.4389717  28.0550262  18.1684932  44.8649487  28.2700305
   8.4907569  34.1728361  27.6208739   7.9544926  33.7219100  28.2730336
   7.9024278  34.3074270  26.8779204   6.7856113  50.9392411  21.5153398
   7.0252711  51.5710935  22.1932416   5.9425309  50.5880451  21.8018757
  17.7682821  42.0870081  26.9533659  16.8809600  41.7496003  27.0760058
  18.3381372  41.3553112  27.1902424  11.2983975  46.7471533  23.9194902
  11.2254146  47.5526505  24.4314206  10.8561368  46.9463499  23.0942923
  11.0873754  45.9843303  17.4297723  10.3041276  46.5264983  17.5235948
  11.7866499  46.5017283  17.8291965  22.2500162  37.4978298  21.7150220
  22.2390038  38.3803014  21.3444153  21.3817541  37.1449849  21.5204757
  13.7582658  46.6458367  26.0753061  14.4710630  47.2805832  26.0028962
  13.2672687  46.7422233  25.2593062   8.8094572  44.3952811  26.8958631
   9.5104031  45.0289294  27.0488026   8.3389687  44.7367542  26.1354271
  16.6095858  36.9497418  24.7211182  15.9567308  37.1973326  24.0663634
  16.9876238  36.1361556  24.3873659  13.5703032  46.9857111  18.8239352
  13.7525426  46.1678767  19.2867104  14.3936018  47.2024804  18.3864242
  13.9045197  45.9125296  16.0854400  14.4332964  45.4017751  15.4724563
  14.1673417  45.5967827  16.9499933  12.6583431  37.6917229  31.2077219
  11.9824068  37.5911359  31.8779594  13.4811065  37.5356443  31.6713216
   4.4062290  43.9289166  23.8289734   4.9915727  43.1832854  23.9617638
   4.2087128  44.2393122  24.7126398   7.2600945  46.9640413  18.8452176
   6.5911320  47.4486541  18.3616216   7.1213815  47.2109634  19.7595555
  11.4006214  48.9984157  25.4434835  11.9524522  49.1615778  26.2083920
  11.7412407  49.5888594  24.7714860   5.8522979  33.4182439  29.6929754
   6.4795018  33.0359516  30.3067278   4.9950898  33.1996641  30.0585446
  16.2517088  43.8245414  31.2983489  16.7956992  44.4375372  30.8038444
  15.6703933  44.3824993  31.8150502  14.5374601  46.9466132  22.4298517
  14.4125740  46.1455872  21.9209462  15.1953692  47.4412326  21.9412487
  16.6009509  44.7475152  24.0578067  15.6539845  44.6280503  23.9856394
  16.9492282  43.8597650  24.1404328   8.9609083  30.6369291  27.8816309
   9.4843484  30.8831588  28.6442618   8.7421416  31.4689326  27.4619446
  13.6055943  44.5427868  20.2582419  13.4580905  43.6144576  20.4389989
  14.4309436  44.5647959  19.7739494  17.2090064  45.3656427  21.3447292
  18.1336612  45.1599289  21.2071743  17.0405368  45.1172828  22.2536633
  10.1661628  31.5782986  25.5665979   9.8258448  30.7790799  25.9686659
   9.4600634  31.8784697  24.9942813  12.0539192  32.7791308  23.9219298
  11.7956970  33.7008378  23.9203628  11.5224232  32.3821742  24.6119762
  16.9985381  45.8842095  16.7009383  17.1722258  45.3188517  15.9483236
  17.4914272  46.6842990  16.5188873   2.8162340  37.8956764  24.7672942
   2.2715808  38.6716572  24.8993217   3.6941690  38.2427568  24.6092064
  22.8524772  38.6478518  18.3199683  23.2955918  37.8985843  17.9218806
  21.9751282  38.6388654  17.9373415  17.9860553  45.2008859  13.8006282
  18.6811458  45.8215552  14.0193596  18.3283703  44.3504210  14.0758660
   3.6028362  37.0226660  27.6603099   2.8610098  37.1709295  28.2467730
   3.2821107  37.2834926  26.7969849  19.8851976  42.6508565  15.3293612
  20.4103300  42.9895837  14.6042933  19.7974329  41.7155580  15.1456747
  11.5472025  46.5642638  27.4583489  11.8559151  46.3191785  28.3306189
  12.3447507  46.7689277  26.9702359  11.5692637  48.7180548  19.6888866
  11.1297627  48.2256927  20.3821722  12.3200754  48.1753516  19.4480941
   4.0484976  44.9092089  19.6913494   4.8742996  44.6095861  19.3112137
   3.6979028  44.1399711  20.1403282   9.0166509  44.2618557  21.7611167
   8.3946518  43.5989262  21.4613395   9.6871376  44.2879689  21.0784815
   9.0891037  32.7400345  31.3543673   9.1379192  33.6162468  30.9721443
   9.6313551  32.1977738  30.7815317  19.5745882  43.2841468  30.6344810
  18.7841426  43.2665607  30.0949310  19.3379237  43.8229762  31.3893847
  19.6943757  40.1333935  27.9477539  19.7441762  39.9683942  28.8893062
  19.5857681  39.2661194  27.5575420  16.9847520  36.1164863  29.2636846
  17.8857382  35.9771327  28.9720843  17.0595494  36.2819317  30.2035023
  11.3190325  33.4931717  28.1090032  10.4493634  33.7865283  27.8372621
  11.5549805  34.0772162  28.8297296  21.1961954  42.5530876  28.1919561
  20.9046762  42.9160857  29.0283021  20.5834085  41.8397884  28.0132893
  22.3957636  40.1183756  20.7122131  23.2304528  40.5573560  20.8759691
  22.5316765  39.6422409  19.8930377  19.4449142  37.6763491  26.6599618
  19.9203264  37.8691137  25.8518470  18.5214708  37.7322677  26.4143002
  14.0229359  29.7111334  25.6255452  14.5411303  30.4472361  25.3001941
  13.6684492  30.0175328  26.4602212  18.1450811  34.5529251  24.8927924
  19.0968234  34.6527349  24.9140148  17.9754262  33.7607519  25.4026008
  16.1665191  31.6384834  25.0787325  15.5715123  31.9189847  24.3833814
  15.8814888  32.1278735  25.8504066  20.6238889  37.7735371  24.0070224
  20.5915209  36.8351371  24.1929908  21.2339513  37.8519407  23.2736049
  20.7733378  34.5646414  24.0528507  20.2572426  33.7804871  23.8658436
  21.6573326  34.2365131  24.2175026  26.4415439  38.8351377  23.1476261
  27.1718828  38.5736666  23.7083964  25.8322385  38.0980099  23.1878329
  24.5230736  36.9759240  23.7450712  23.7963900  36.8415205  23.1367203
  24.1078023  37.2836069  24.5507430  12.3460913  40.6949170  31.5098085
  13.2663922  40.8727769  31.7038131  12.3110496  39.7505215  31.3577784
   5.3422985  38.6050204  24.1520866   5.5608995  39.5367312  24.1708900
   5.7548759  38.2458179  24.9375670  10.2150850  34.1783410  33.5423615
  10.1147577  35.1277767  33.4735706   9.9972393  33.8501649  32.6699685
  10.0782121  37.6080549  32.3588677   9.5949202  38.4080909  32.5652566
  10.1643060  37.6188494  31.4056121   6.0055458  41.4985084  24.3957110
   6.9598712  41.4669026  24.3287042   5.8067982  41.0375707  25.2107336
   6.5954840  40.0686200  26.9627908   7.4147729  40.5630278  26.9862745
   6.8691648  39.1518168  26.9345475  22.1408531  33.1971092  21.0984143
  22.7353022  32.9566828  20.3877452  22.2135115  32.4778223  21.7257680
   4.3605687  47.0404703  21.4127308   4.2260155  46.2805104  20.8465306
   3.9437749  47.7645603  20.9456097  24.4479604  36.5037293  19.8727565
  23.8879162  36.5730482  20.6459127  23.8423107  36.3278278  19.1527061
   7.5174813  47.9374020  21.6245751   7.4007197  48.8819453  21.5224441
   6.6967259  47.6347582  22.0131550   1.8489754  34.4024334  27.6620105
   2.4948618  33.8923287  28.1507330   1.6406905  35.1393015  28.2363530
  14.3743147  41.4705181  33.1612246  15.2434306  41.6445833  32.7998881
  13.8949898  42.2899598  33.0387975   8.5429327  48.5902282  24.8401679
   9.4456573  48.6225892  25.1568174   8.3166697  47.6602733  24.8548015
  10.2982929  47.3433269  21.5011758   9.3478560  47.3435130  21.3876130
  10.6015415  46.5966003  20.9847792   6.1887245  31.5491951  31.7595119
   7.0518707  31.1928755  31.9698444   5.6152656  31.2105845  32.4470524
  26.0335622  53.1793807  22.5657520  26.6714032  53.0600554  21.8620860
  25.9156465  54.1274651  22.6245472  22.8425329  53.1321235  22.5019045
  22.5043840  53.0162300  21.6139580  23.7115097  52.7312400  22.4820051
  18.7012144  54.9856711  18.4915936  18.1377009  54.8946648  17.7232224
  18.5864539  54.1656616  18.9718428  23.3245112  54.2856087  28.4605250
  23.3133752  53.8908885  27.5885754  23.4865751  53.5522159  29.0539022
  16.2476576  56.4807903  21.3300156  17.0397868  56.1398728  20.9146456
  16.4873226  56.5902878  22.2502310  24.2811703  58.6527679  13.8030401
  23.6299683  59.2381760  13.4164415  25.0756066  59.1833874  13.8625438
  18.2067330  55.7416816  14.2017535  18.9798206  55.1945803  14.0630411
  18.5592729  56.6061066  14.4131997  20.0452373  57.0693199  27.4084434
  19.7542239  57.9738829  27.2931101  20.6809357  57.1109726  28.1228504
  20.9708580  54.4470047  23.9985794  21.5672152  54.2226069  23.2842757
  21.0283551  53.7054793  24.6011242  20.5433608  51.9009482  11.8335985
  20.7959129  51.3791004  11.0719448  19.6058167  51.7375628  11.9362669
  25.5876891  50.9045261  19.6410728  26.3739980  50.4864684  19.2901145
  25.8515595  51.8091353  19.8092377  25.7586968  56.3418111  14.3399385
  25.1232801  56.4152738  15.0520290  25.4284375  56.9311710  13.6618464
  30.9885318  50.8420494  20.5443707  31.7210490  50.2719711  20.7781536
  30.2324674  50.4542094  20.9850212  20.2629897  53.8037588  14.0360360
  20.1466155  53.1282492  14.7041444  20.3732157  53.3169962  13.2192513
  22.6061438  53.2647735  17.7407049  22.2419645  52.7378356  18.4519971
  23.4628554  52.8746205  17.5673535  28.5110738  44.5542068  25.0038315
  28.1794063  45.4237479  24.7799530  27.9156352  44.2378352  25.6832346
  22.2466925  48.2937635  12.7368398  22.4141327  49.1617872  13.1038869
  22.0564094  48.4564917  11.8129687  25.0042258  56.7554614  24.4034228
  24.7042981  57.6579653  24.2950035  24.6593317  56.4886797  25.2555381
  18.4554739  53.2068411  20.4370933  17.5305236  53.0744625  20.6448624
  18.7039152  53.9862630  20.9340875  28.4039402  49.2737154  22.0831665
  27.4956279  49.2052563  21.7890426  28.3526997  49.7509099  22.9113491
  22.2256145  50.7495293  13.7215065  22.1055771  51.1952343  14.5600545
  21.5308734  51.0980610  13.1628603  15.8163550  52.8501684  21.2714722
  15.9455931  53.1036163  22.1854133  15.1361002  53.4429392  20.9519377
  19.9863038  63.5198934  17.3705196  19.9087067  64.4706760  17.4493676
  19.3824681  63.1744807  18.0280122  22.4780267  50.6926800  30.0266563
  21.7013601  51.2520720  30.0169427  23.1170830  51.1783583  30.5481433
  30.2701048  47.4753593  23.8609539  29.6275428  47.7686126  23.2149334
  29.7655977  47.3606513  24.6662736  27.9241212  51.2216766  14.5495399
  28.8359068  51.4544153  14.3743096  27.4150859  51.8053810  13.9870477
  20.7326640  53.5012253  29.5884530  21.4741324  54.0397297  29.3119353
  20.0263625  54.1278542  29.7456082  26.2081979  55.6441394  28.1856691
  26.6165335  55.2023804  27.4411324  25.4859241  55.0694021  28.4390884
  22.5613049  50.5814000  25.5590248  23.4074245  51.0053414  25.7024897
  22.5011687  49.9247625  26.2528811  26.5310794  56.2042584  21.9408980
  25.9019656  56.3688298  21.2385048  26.1436456  56.6184194  22.7119944
  30.4100026  57.1397022  19.2953344  29.7251064  57.5195924  18.7450377
  30.4943875  57.7492349  20.0285292  25.7112495  48.2418369  27.2171422
  25.4673427  48.9960429  26.6805698  25.9872425  48.6203716  28.0518669
  27.6650957  54.7856981  25.8948687  27.8767853  55.4288741  25.2183068
  27.6180706  53.9519298  25.4270617  25.2677186  47.3974802  22.7985260
  24.4061665  47.6956055  23.0901997  25.2939621  47.6145201  21.8666292
  22.0838756  55.9416992  19.2059065  22.5477101  56.2204695  18.4163688
  21.8195554  55.0400437  19.0232156  18.9762837  55.4888474  22.1438828
  19.5464194  55.9175742  21.5056313  19.5670949  55.2071059  22.8423014
  21.0207642  52.0640145  16.0148630  21.7231685  52.5161188  16.4822557
  20.6888270  51.4223964  16.6428523  19.4688003  50.6551901  30.3899840
  18.8386664  51.3368182  30.6235237  19.3624091  50.5434983  29.4452978
  14.7632976  50.3223697  21.3165764  13.9732030  50.5781226  20.8405875
  15.2544223  51.1372035  21.4217804  28.7796785  57.6628937  24.0671045
  29.6014229  57.2609124  23.7853726  28.7759188  57.5597171  25.0187161
  16.7147721  50.6868277  18.2749241  15.9178885  50.7986971  18.7932736
  16.4873313  51.0254929  17.4090131  22.5453389  57.2112980  26.2231755
  22.6097821  57.6733387  27.0589927  21.8364313  56.5810345  26.3514065
  13.0470679  50.5754188  23.7480755  13.2978717  51.4601198  24.0138331
  13.5830227  50.3958789  22.9755847  36.8702778  54.0067685  20.4156016
  36.1166487  53.4375083  20.2600021  37.0050320  53.9730350  21.3626651
  22.2601406  58.8781087  16.0910736  22.1247081  59.7232623  16.5195583
  22.8011219  59.0800365  15.3276669  18.7468746  44.9572667  32.7525091
  18.3535692  44.4038866  33.4272735  19.5634886  45.2683246  33.1431608
  15.7130804  56.3956525  16.6638661  16.2255324  57.1899776  16.8144225
  16.3653517  55.6982816  16.5972262  17.5225689  59.5122282  18.7461414
  17.6992317  60.4340246  18.5582398  18.3182522  59.1980701  19.1755794
  21.6636707  46.3730546  30.3445347  22.4046421  46.9737699  30.2649810
  21.8954630  45.6308184  29.7863390  16.8078045  51.5586914  28.6223577
  16.6931560  50.6572171  28.9230676  15.9522563  51.8050610  28.2708394
  23.8869883  59.5004654  30.2211078  23.4433737  58.7141032  29.9031982
  24.5487096  59.6883804  29.5554968  18.6457004  61.0300455  24.7471756
  19.1964429  60.9017519  23.9748750  17.8068480  61.3295345  24.3966649
  25.9851121  59.7807454  28.2492479  25.9669596  60.6016335  27.7572748
  26.9071041  59.6561529  28.4742620  22.4424175  57.2951583  29.0915987
  22.9752512  56.5339871  28.8615295  21.9138256  57.0025235  29.8340142
  25.6093870  42.4011649  24.6209629  25.2658139  43.2913291  24.5448740
  25.9772833  42.2113307  23.7579214  13.6779721  54.7245180  17.4398231
  14.5154943  55.1342188  17.2231939  13.8557988  53.7844622  17.4098425
  25.5744153  52.3920260  13.1282064  25.0590776  53.1624865  13.3670452
  25.3021461  51.7185397  13.7515126  23.1591264  47.2369961  18.1867303
  22.3032860  46.8476812  18.0072941  23.5718216  47.3161922  17.3267088
  24.6890410  44.7716304  22.5858862  24.1855206  44.7346440  21.7726668
  24.9821017  45.6809047  22.6455519  20.9333296  44.8555034  21.5925044
  21.7986293  44.6597843  21.2330933  21.0010805  44.6265386  22.5194401
  30.5478427  55.1452615  15.0635238  29.7707870  54.8063775  14.6190400
  31.2269908  55.1505238  14.3890203  25.3630456  50.2647352  14.9541845
  25.0580592  50.5793502  15.8051989  26.3160898  50.3428772  14.9969178
  23.8076888  56.4237576  16.6034799  23.2798249  55.6890335  16.2908037
  23.3064391  57.2012252  16.3574768  28.7869734  54.6186596  21.7201846
  28.1293408  55.3085858  21.8081974  29.5910133  55.0083028  22.0635832
  18.5395615  47.0857242  18.9641411  19.1139367  46.8632424  18.2314604
  19.1266598  47.1545937  19.7170012  27.5975193  52.9730969  19.7705787
  28.1107074  53.6060961  20.2727497  28.2476417  52.3732164  19.4049147
  18.8665203  49.1161703  12.9837296  18.0302515  49.4536390  13.3046571
  18.7269972  48.9810683  12.0464433  20.8418283  43.9598491  17.6916480
  20.1882695  43.6447508  17.0673095  20.7998757  43.3374231  18.4176303
  21.9529488  54.2417786   9.6069772  21.0456550  54.0107040   9.8060921
  22.4500520  53.4455405   9.7943754  24.8597567  62.9515293  12.5266459
  24.1859266  63.2546990  13.1351416  25.2463389  63.7544374  12.1771916
  24.0756023  50.4480425  22.0164128  23.1578585  50.6695372  21.8585816
  24.4916167  50.5226735  21.1575835  24.8591071  51.8471840  17.1466808
  25.6062890  52.3593237  16.8373930  25.1282661  51.5255893  18.0071202
  23.1317721  54.3430381  14.1293762  22.2228941  54.0589414  14.2266232
  23.1612805  54.7629459  13.2697069  28.3636989  57.9536970  17.8984930
  27.9099316  57.1127880  17.9550120  27.7330956  58.5898369  18.2359710
  27.3069908  48.8828956  19.1285597  26.5692665  48.3706343  19.4595840
  27.5596682  48.4429338  18.3168874  26.8069928  59.7913467  18.8334748
  27.0992902  60.3518524  18.1147114  27.3168549  60.0842028  19.5887907
  27.4081536  41.6605208  19.7227367  27.7140413  40.8002572  19.4353282
  28.1334141  42.2522829  19.5226361  13.7005892  52.0635895  18.1108965
  13.5030292  51.4705256  17.3860031  13.1452556  51.7588105  18.8284903
  21.6802615  51.9559002  20.2303558  21.7351225  51.0032838  20.1546034
  20.8693817  52.1118441  20.7144856  22.8293809  55.8839125  11.4681841
  22.3913239  55.1674984  11.0087478  23.5704250  56.1115239  10.9066932
  19.6194975  50.5736061  17.9893937  18.8062841  50.8730232  18.3959129
  20.1153970  50.1791750  18.7068419  21.7703553  60.5693818  19.9228201
  21.7279732  60.7954665  18.9936733  22.6866252  60.3357193  20.0714002
  25.2169187  51.0377886  26.8208831  25.5718575  51.2649359  27.6803296
  25.8641318  51.3696263  26.1986086  30.9466924  54.1596322  17.5258160
  30.8084823  54.3497918  16.5979349  30.5903143  54.9215704  17.9826211
  19.1109050  48.1454417  23.6055172  19.7508429  48.0043176  22.9078135
  18.2786581  47.8588930  23.2293774  30.9736304  56.2272849  22.5369431
  31.4072810  56.1348138  23.3852485  31.6867884  56.2030349  21.8989447
  19.8869354  57.4456847  19.7190164  20.6809953  56.9507167  19.5172739
  19.1761046  56.9174710  19.3557870  24.7064199  59.8274943  24.0702532
  24.7601221  60.3965879  24.8380248  23.8378980  59.9976828  23.7056569
  16.1952118  51.5899929  15.7949917  15.2649706  51.5284384  16.0119879
  16.2909590  51.0675882  14.9986558  16.1137667  48.1154742  18.3828158
  16.3744484  49.0300075  18.2737319  16.9354839  47.6479184  18.5324771
  17.5862592  49.5292499  25.5526983  18.2585645  49.3209861  24.9039632
  16.7592378  49.3314585  25.1132215  31.8351853  56.2696549  25.0702316
  32.0287743  57.1742360  25.3161591  31.7352471  55.8103968  25.9040902
  23.4888164  46.1554440  27.5692644  22.8416079  46.8544390  27.4757120
  24.2589179  46.5890584  27.9368892  26.8966962  56.4203292  30.6443197
  26.7452468  56.1913844  29.7273281  26.8871641  57.3773893  30.6574542
  23.6652298  53.9935205  25.6289464  24.5944358  54.1446364  25.4558431
  23.2443328  54.0819226  24.7738110  22.4640630  58.0185869  23.3988001
  22.3251716  57.6504654  24.2713939  21.6755226  58.5333509  23.2271959
  23.0588782  63.1194966  14.7413538  23.2340538  62.6483009  15.5559160
  22.3721570  63.7460732  14.9694798  24.0145845  57.3967472  20.7876839
  23.6795678  57.3568242  21.6834489  23.5149791  56.7312188  20.3147249
  17.9890089  52.8035102  26.3129420  17.8509887  52.0715341  26.9140959
  18.8995013  52.7144002  26.0313608  26.9505037  54.7423506  11.0613899
  26.3334207  54.0170334  10.9646951  26.4821525  55.5032867  10.7180973
  20.6172390  52.5155061  25.8013100  21.3272008  51.8748253  25.7599718
  20.5741698  52.7667956  26.7239281  28.6059169  59.4522415  28.7219679
  28.5471715  58.7681635  28.0550262  29.0078687  60.1941405  28.2700305
  19.3301324  49.5020279  27.6208739  18.7938681  49.0511018  28.2730336
  18.7418032  49.6366188  26.8779204  17.6249867  66.2684328  21.5153398
  17.8646466  66.9002853  22.1932416  16.7819064  65.9172368  21.8018757
  28.6076576  57.4161999  26.9533659  27.7203355  57.0787920  27.0760058
  29.1775127  56.6845030  27.1902424  10.2605723  53.7486090  20.2776710
  10.9476763  53.4347820  19.6897725  10.1053852  54.6527455  20.0043961
  15.0640445  48.6376287  24.7061734  14.9798634  48.0301956  23.9712144
  14.2423151  49.1285305  24.7071230  22.1377729  62.0763451  23.9194902
  22.0647901  62.8818422  24.4314206  21.6955122  62.2755417  23.0942923
  21.9267509  61.3135221  17.4297723  21.1435031  61.8556901  17.5235948
  22.6260254  61.8309201  17.8291965  25.2364159  47.1229850  20.0731929
  25.7332858  46.3699813  19.7532999  24.4651140  47.1594167  19.5075138
  33.0893916  52.8270216  21.7150220  33.0783793  53.7094931  21.3444153
  32.2211296  52.4741767  21.5204757  24.5976413  61.9750285  26.0753061
  25.3104385  62.6097750  26.0028962  24.1066441  62.0714151  25.2593062
  26.3193940  55.8801538  17.6470352  25.3850218  56.0003000  17.4775056
  26.4970608  54.9774004  17.3830362  21.8199128  49.2647233  19.8003613
  21.4496915  48.7118274  20.4884519  22.3158220  48.6605367  19.2478613
  29.7066491  51.7218857  18.1820386  30.1726943  52.5546848  18.1080689
  30.1573991  51.2563838  18.8865645  19.6488326  59.7244728  26.8958631
  20.3497786  60.3581211  27.0488026  19.1783441  60.0659460  26.1354271
  27.7742722  58.0662678  15.1806538  28.0502566  57.9519273  16.0900412
  26.9047221  57.6680163  15.1418711  27.6783154  44.0899444  22.2211288
  26.7646233  44.3203671  22.3893495  28.1076255  44.1737888  23.0725320
  27.4489612  52.2789336  24.7211182  26.7961062  52.5265243  24.0663634
  27.8269992  51.4653474  24.3873659  24.4096786  62.3149029  18.8239352
  24.5919181  61.4970685  19.2867104  25.2329772  62.5316721  18.3864242
  24.7438952  61.2417214  16.0854400  25.2726718  60.7309669  15.4724563
  25.0067171  60.9259744  16.9499933  23.4977185  53.0209147  31.2077219
  22.8217822  52.9203276  31.8779594  24.3204819  52.8648361  31.6713216
  15.2456044  59.2581083  23.8289734  15.8309481  58.5124771  23.9617638
  15.0480883  59.5685040  24.7126398  18.0994700  62.2932331  18.8452176
  17.4305075  62.7778458  18.3616216  17.9607569  62.5401551  19.7595555
   9.8373699  51.8286684  22.5494177   9.8757799  51.2950274  23.3431295
   9.3313992  51.3021889  21.9305154  22.2399968  64.3276074  25.4434835
  22.7918276  64.4907696  26.2083920  22.5806162  64.9180512  24.7714860
  17.2164461  46.6751224  26.0456719  17.2805788  47.5366055  25.6334117
  17.1531582  46.0625226  25.3129078  16.6916734  48.7474357  29.6929754
  17.3188773  48.3651434  30.3067278  15.8344653  48.5288559  30.0585446
  27.0910842  59.1537332  31.2983489  27.6350746  59.7667290  30.8038444
  26.5097687  59.7116910  31.8150502  13.4682277  50.5550786  15.6248109
  13.7635718  49.6461464  15.5715162  12.5670312  50.5338525  15.3029111
  25.3768355  62.2758050  22.4298517  25.2519495  61.4747790  21.9209462
  26.0347446  62.7704243  21.9412487  16.9976524  48.6306782  21.6075657
  16.2763109  49.2442750  21.4683130  17.7869779  49.1664547  21.5292303
  27.4403264  60.0767070  24.0578067  26.4933599  59.9572421  23.9856394
  27.7886037  59.1889568  24.1404328  19.8002837  45.9661209  27.8816309
  20.3237239  46.2123505  28.6442618  19.5815170  46.7981244  27.4619446
  15.1970118  48.2364883  15.7487434  14.8682824  47.3562262  15.5662540
  15.5509489  48.1812552  16.6363823  24.4449697  59.8719786  20.2582419
  24.2974659  58.9436494  20.4389989  25.2703191  59.8939877  19.7739494
  18.3111941  48.5237853  16.1162911  18.6508014  49.0523774  15.3941520
  18.7584062  48.8618259  16.8921478  28.0483819  60.6948345  21.3447292
  28.9730366  60.4891206  21.2071743  27.8799122  60.4464746  22.2536633
  21.0055382  46.9074904  25.5665979  20.6652203  46.1082717  25.9686659
  20.2994388  47.2076615  24.9942813  21.6571854  43.9924216  24.0193302
  22.4797923  43.5184695  23.8972193  21.9009918  44.7714700  24.5191989
  20.2980088  47.0212475  14.3156204  21.0188451  47.3993728  13.8119921
  19.6745393  47.7401352  14.4191182  24.4411211  47.7257624  15.2514536
  24.6574826  48.6082262  14.9503365  23.9605279  47.3343837  14.5220178
  19.1810433  50.6843337  21.8285281  19.0355013  50.9983640  22.7209563
  18.7035636  51.3028237  21.2756180  21.0406816  47.6745885  21.8766171
  21.0268384  46.7786978  21.5398469  21.7579244  47.6816549  22.5104457
  22.8932946  48.1083225  23.9219298  22.6350724  49.0300296  23.9203628
  22.3617987  47.7113660  24.6119762  27.8379135  61.2134012  16.7009383
  28.0116013  60.6480435  15.9483236  28.3308026  62.0134907  16.5188873
  13.6556095  53.2248681  24.7672942  13.1109563  54.0008489  24.8993217
  14.5335445  53.5719486  24.6092064  20.4443712  46.5560265  17.1453741
  20.5659623  45.6276911  17.3444628  20.1545754  46.5698951  16.2332056
  23.3134902  44.2415176  20.2820461  23.3356599  44.3054509  19.3272440
  23.7302961  43.4019684  20.4760967  33.6918526  53.9770435  18.3199683
  34.1349672  53.2277760  17.9218806  32.8145037  53.9680572  17.9373415
  28.8254308  60.5300777  13.8006282  29.5205212  61.1507469  14.0193596
  29.1677458  59.6796128  14.0758660  14.4422117  52.3518578  27.6603099
  13.7003853  52.5001213  28.2467730  14.1214861  52.6126843  26.7969849
  30.7245731  57.9800482  15.3293612  31.2497055  58.3187755  14.6042933
  30.6368083  57.0447498  15.1456747  22.3865779  61.8934556  27.4583489
  22.6952906  61.6483703  28.3306189  23.1841261  62.0981194  26.9702359
  22.4086391  64.0472466  19.6888866  21.9691382  63.5548844  20.3821722
  23.1594508  63.5045433  19.4480941  14.8878730  60.2384006  19.6913494
  15.7136750  59.9387778  19.3112137  14.5372782  59.4691629  20.1403282
  19.8560264  59.5910475  21.7611167  19.2340273  58.9281180  21.4613395
  20.5265131  59.6171607  21.0784815  13.0887335  58.1570333  20.6502427
  12.2519244  57.7292507  20.4686429  13.0610981  58.3502776  21.5873219
  19.9284791  48.0692263  31.3543673  19.9772947  48.9454385  30.9721443
  20.4707305  47.5269656  30.7815317  30.4139637  58.6133386  30.6344810
  29.6235180  58.5957525  30.0949310  30.1772991  59.1521680  31.3893847
  30.5337512  55.4625852  27.9477539  30.5835517  55.2975860  28.8893062
  30.4251435  54.5953111  27.5575420  19.4173771  58.1414398  15.2369628
  19.5661891  58.8249862  14.5836301  20.2240214  58.1219488  15.7519084
  27.8241274  51.4456780  29.2636846  28.7251137  51.3063245  28.9720843
  27.8989249  51.6111235  30.2035023  22.1584080  48.8223635  28.1090032
  21.2887389  49.1157201  27.8372621  22.3943560  49.4064080  28.8297296
  32.0355709  57.8822794  28.1919561  31.7440517  58.2452774  29.0283021
  31.4227840  57.1689802  28.0132893  33.2351391  55.4475674  20.7122131
  34.0698282  55.8865478  20.8759691  33.3710520  54.9714327  19.8930377
  30.2842897  53.0055408  26.6599618  30.7597018  53.1983055  25.8518470
  29.3608462  53.0614594  26.4143002  17.1726404  54.1679576  16.2430697
  16.9272445  53.2641906  16.4410907  17.3422318  54.1696726  15.3010175
  24.8623113  45.0403252  25.6255452  25.3805057  45.7764279  25.3001941
  24.5078246  45.3467245  26.4602212  16.4422051  49.9007933  13.7416858
  15.7491296  49.9752288  13.0856894  16.1973803  49.1368277  14.2638375
  25.1135708  41.4603535  21.1456349  25.3937461  40.7926724  21.7716776
  25.8986314  41.6532630  20.6331013  22.9169176  60.6362528  12.7081375
  22.3443143  61.2552716  12.2551847  23.4901970  61.1861890  13.2421297
  28.9844566  49.8821169  24.8927924  29.9361989  49.9819266  24.9140148
  28.8148016  49.0899437  25.4026008  27.0058945  46.9676752  25.0787325
  26.4108877  47.2481764  24.3833814  26.7208642  47.4570653  25.8504066
  26.1366436  60.9199679  13.8389958  27.0697109  60.8545240  14.0422833
  26.0489649  61.7555945  13.3804490  28.7654453  60.2365549  10.7993905
  28.6868084  59.9025413  11.6929663  29.5864119  60.7287317  10.7985377
  31.4632644  53.1027288  24.0070224  31.4308964  52.1643289  24.1929908
  32.0733267  53.1811325  23.2736049  23.3015975  51.9723341  10.0497428
  24.2475079  51.8429549  10.1185846  22.9230219  51.2338003  10.5266856
  31.6127132  49.8938332  24.0528507  31.0966181  49.1096788  23.8658436
  32.4967081  49.5657048  24.2175026  29.2737859  43.6379347  20.0124320
  29.0762680  43.3294435  20.8967652  29.8837565  44.3640986  20.1422249
  37.2809194  54.1643295  23.1476261  38.0112582  53.9028583  23.7083964
  36.6716139  53.4272017  23.1878329  35.3624491  52.3051158  23.7450712
  34.6357654  52.1707123  23.1367203  34.9471778  52.6127986  24.5507430
  23.1854667  56.0241087  31.5098085  24.1057677  56.2019686  31.7038131
  23.1504250  55.0797133  31.3577784  12.4036832  51.2179681  20.4351359
  12.0839616  50.3644989  20.1425733  11.8570260  51.4328259  21.1909327
  16.1816740  53.9342122  24.1520866  16.4002749  54.8659230  24.1708900
  16.5942513  53.5750096  24.9375670  23.1020957  44.4410207  16.1396554
  22.2921686  44.0957292  16.5151800  23.7905374  44.1317751  16.7284166
  25.0311506  43.5188254  17.7620851  25.5842544  43.9383708  18.4210874
  25.2681592  42.5924002  17.8043807  21.0544605  49.5075328  33.5423615
  20.9541332  50.4569685  33.4735706  20.8366147  49.1793567  32.6699685
  12.2725092  54.8382592  22.4044481  11.5788564  54.4236545  21.8914435
  13.0198083  54.8803129  21.8077900  28.4090313  45.6288779  17.2699515
  27.8288982  46.2873583  16.8877568  28.1426245  44.8066124  16.8586933
  26.8593879  45.0293837  19.4720836  27.3593658  45.1410371  18.6635154
  27.5029487  44.7254890  20.1121644  20.9175875  52.9372467  32.3588677
  20.4342957  53.7372827  32.5652566  21.0036814  52.9480411  31.4056121
  14.1861835  54.7700846  20.2810496  14.1632523  54.8688534  19.3292379
  14.4962471  55.6165997  20.6027662  16.8449212  56.8277001  24.3957110
  17.7992466  56.7960944  24.3287042  16.6461736  56.3667625  25.2107336
  17.4348595  55.3978117  26.9627908  18.2541484  55.8922196  26.9862745
  17.7085402  54.4810085  26.9345475  27.1915191  47.7888870  16.3255863
  26.3041046  48.0738520  16.1076058  27.6069180  47.6282633  15.4783140
  30.5429727  47.8135391  20.0410203  31.3190117  48.3031843  20.3134820
  29.8177861  48.2393445  20.4982072  32.9802286  48.5263010  21.0984143
  33.5746776  48.2858746  20.3877452  33.0528869  47.8070140  21.7257680
  15.1999441  62.3696621  21.4127308  15.0653909  61.6097022  20.8465306
  14.7831504  63.0937521  20.9456097  26.3358404  57.5533544  10.4203883
  27.0394254  57.7583547  11.0361539  25.6121053  58.1210306  10.6852967
  27.1656215  53.3043406  16.5406154  27.1091416  53.7611957  15.7013786
  27.7184557  52.5434090  16.3628996  30.9761020  49.0933137  17.3656273
  30.7197955  48.6929773  18.1964481  30.3513889  49.8076931  17.2406412
  35.2873358  51.8329211  19.8727565  34.7272916  51.9022400  20.6459127
  34.6816862  51.6570195  19.1527061  18.3568567  63.2665938  21.6245751
  18.2400951  64.2111370  21.5224441  17.5361013  62.9639499  22.0131550
  28.2445102  57.9916074  12.4702344  29.0790706  57.5597272  12.2879818
  28.0829445  57.8198087  13.3979238  27.8990994  54.4948187  13.8358683
  27.8439798  54.3292458  12.8947127  27.2737049  55.2024220  13.9920873
  12.6883509  49.7316251  27.6620105  13.3342372  49.2215205  28.1507330
  12.4800660  50.4684933  28.2363530  25.2136901  56.7997099  33.1612246
  26.0828061  56.9737751  32.7998881  24.7343653  57.6191516  33.0387975
  21.2087119  43.9956296  13.4144001  21.1965789  44.9398136  13.5712272
  22.1010541  43.8126441  13.1203462  19.3823081  63.9194200  24.8401679
  20.2850328  63.9517810  25.1568174  19.1560451  62.9894651  24.8548015
  21.1376683  62.6725186  21.5011758  20.1872314  62.6727048  21.3876130
  21.4409169  61.9257921  20.9847792  25.0239239  40.5899072  17.6689938
  24.2571635  40.0357559  17.8146620  25.4349944  40.6620941  18.5304090
  17.0281000  46.8783868  31.7595119  17.8912461  46.5220673  31.9698444
  16.4546411  46.5397763  32.4470524  36.8729377  68.5085725  22.5657520
  37.5107787  68.3892472  21.8620860  36.7550220  69.4566569  22.6245472
  33.6819083  68.4613153  22.5019045  33.3437595  68.3454217  21.6139580
  34.5508851  68.0604318  22.4820051  29.5405899  70.3148629  18.4915936
  28.9770764  70.2238566  17.7232224  29.4258294  69.4948534  18.9718428
  34.1638866  69.6148004  28.4605250  34.1527507  69.2200803  27.5885754
  34.3259506  68.8814077  29.0539022  27.0870331  71.8099821  21.3300156
  27.8791623  71.4690645  20.9146456  27.3266981  71.9194796  22.2502310
  35.1205457  73.9819597  13.8030401  34.4693437  74.5673677  13.4164415
  35.9149820  74.5125792  13.8625438  29.0461085  71.0708734  14.2017535
  29.8191961  70.5237721  14.0630411  29.3986484  71.9352983  14.4131997
  30.8846127  72.3985116  27.4084434  30.5935993  73.3030747  27.2931101
  31.5203112  72.4401644  28.1228504  31.8102334  69.7761965  23.9985794
  32.4065906  69.5517987  23.2842757  31.8677306  69.0346710  24.6011242
  31.3827362  67.2301400  11.8335985  31.6352883  66.7082921  11.0719448
  30.4451922  67.0667546  11.9362669  36.4270645  66.2337178  19.6410728
  37.2133735  65.8156602  19.2901145  36.6909350  67.1383271  19.8092377
  36.5980723  71.6710029  14.3399385  35.9626556  71.7444655  15.0520290
  36.2678129  72.2603628  13.6618464  41.8279072  66.1712412  20.5443707
  42.5604244  65.6011628  20.7781536  41.0718428  65.7834012  20.9850212
  31.1023651  69.1329506  14.0360360  30.9859909  68.4574409  14.7041444
  31.2125911  68.6461880  13.2192513  33.4455192  68.5939653  17.7407049
  33.0813399  68.0670274  18.4519971  34.3022308  68.2038122  17.5673535
  39.3504493  59.8833986  25.0038315  39.0187818  60.7529397  24.7799530
  38.7550106  59.5670270  25.6832346  33.0860679  63.6229553  12.7368398
  33.2535081  64.4909789  13.1038869  32.8957848  63.7856835  11.8129687
  35.8436012  72.0846532  24.4034228  35.5436735  72.9871571  24.2950035
  35.4987072  71.8178715  25.2555381  29.2948494  68.5360329  20.4370933
  28.3698990  68.4036543  20.6448624  29.5432907  69.3154548  20.9340875
  39.2433156  64.6029072  22.0831665  38.3350033  64.5344480  21.7890426
  39.1920752  65.0801017  22.9113491  33.0649900  66.0787210  13.7215065
  32.9449525  66.5244261  14.5600545  32.3702488  66.4272528  13.1628603
  26.6557305  68.1793602  21.2714722  26.7849686  68.4328081  22.1854133
  25.9754756  68.7721310  20.9519377  30.8256792  78.8490852  17.3705196
  30.7480822  79.7998677  17.4493676  30.2218436  78.5036725  18.0280122
  33.3174022  66.0218718  30.0266563  32.5407356  66.5812638  30.0169427
  33.9564585  66.5075501  30.5481433  41.1094802  62.8045510  23.8609539
  40.4669183  63.0978044  23.2149334  40.6049731  62.6898431  24.6662736
  38.7634966  66.5508684  14.5495399  39.6752822  66.7836070  14.3743096
  38.2544613  67.1345728  13.9870477  31.5720394  68.8304171  29.5884530
  32.3135079  69.3689215  29.3119353  30.8657380  69.4570460  29.7456082
  37.0475734  70.9733311  28.1856691  37.4559090  70.5315722  27.4411324
  36.3252995  70.3985939  28.4390884  33.4006804  65.9105918  25.5590248
  34.2467999  66.3345332  25.7024897  33.3405442  65.2539542  26.2528811
  37.3704548  71.5334502  21.9408980  36.7413411  71.6980216  21.2385048
  36.9830211  71.9476112  22.7119944  41.2493780  72.4688940  19.2953344
  40.5644818  72.8487841  18.7450377  41.3337630  73.0784266  20.0285292
  36.5506249  63.5710286  27.2171422  36.3067181  64.3252347  26.6805698
  36.8266180  63.9495634  28.0518669  38.5044712  70.1148899  25.8948687
  38.7161607  70.7580659  25.2183068  38.4574460  69.2811215  25.4270617
  36.1070941  62.7266720  22.7985260  35.2455420  63.0247973  23.0901997
  36.1333376  62.9437118  21.8666292  32.9232510  71.2708910  19.2059065
  33.3870856  71.5496613  18.4163688  32.6589308  70.3692355  19.0232156
  29.8156591  70.8180392  22.1438828  30.3857948  71.2467660  21.5056313
  30.4064703  70.5362976  22.8423014  31.8601396  67.3932062  16.0148630
  32.5625440  67.8453106  16.4822557  31.5282025  66.7515881  16.6428523
  30.3081758  65.9843819  30.3899840  29.6780418  66.6660100  30.6235237
  30.2017846  65.8726901  29.4452978  25.6026730  65.6515615  21.3165764
  24.8125784  65.9073144  20.8405875  26.0937978  66.4663953  21.4217804
  39.6190540  72.9920854  24.0671045  40.4407984  72.5901042  23.7853726
  39.6152943  72.8889088  25.0187161  27.5541476  66.0160194  18.2749241
  26.7572639  66.1278889  18.7932736  27.3267068  66.3546847  17.4090131
  33.3847143  72.5404898  26.2231755  33.4491576  73.0025305  27.0589927
  32.6758067  71.9102263  26.3514065  23.8864433  65.9046106  23.7480755
  24.1372472  66.7893115  24.0138331  24.4223982  65.7250707  22.9755847
  47.7096533  69.3359603  20.4156016  46.9560241  68.7667001  20.2600021
  47.8444074  69.3022267  21.3626651  33.0995161  74.2073005  16.0910736
  32.9640836  75.0524541  16.5195583  33.6404973  74.4092283  15.3276669
  29.5862501  60.2864585  32.7525091  29.1929446  59.7330783  33.4272735
  30.4028641  60.5975163  33.1431608  26.5524558  71.7248443  16.6638661
  27.0649079  72.5191693  16.8144225  27.2047271  71.0274734  16.5972262
  28.3619443  74.8414199  18.7461414  28.5386071  75.7632164  18.5582398
  29.1576277  74.5272619  19.1755794  32.5030462  61.7022464  30.3445347
  33.2440175  62.3029617  30.2649810  32.7348384  60.9600102  29.7863390
  27.6471800  66.8878831  28.6223577  27.5325315  65.9864089  28.9230676
  26.7916317  67.1342528  28.2708394  34.7263637  74.8296572  30.2211078
  34.2827492  74.0432950  29.9031982  35.3880851  75.0175722  29.5554968
  29.4850759  76.3592373  24.7471756  30.0358184  76.2309437  23.9748750
  28.6462234  76.6587262  24.3966649  36.8244875  75.1099372  28.2492479
  36.8063351  75.9308253  27.7572748  37.7464795  74.9853447  28.4742620
  33.2817930  72.6243501  29.0915987  33.8146266  71.8631789  28.8615295
  32.7532011  72.3317153  29.8340142  36.4487625  57.7303567  24.6209629
  36.1051894  58.6205209  24.5448740  36.8166587  57.5405225  23.7579214
  24.5173475  70.0537097  17.4398231  25.3548697  70.4634106  17.2231939
  24.6951743  69.1136540  17.4098425  36.4137907  67.7212178  13.1282064
  35.8984531  68.4916783  13.3670452  36.1415216  67.0477314  13.7515126
  33.9985018  62.5661879  18.1867303  33.1426615  62.1768729  18.0072941
  34.4111970  62.6453840  17.3267088  35.5284165  60.1008222  22.5858862
  35.0248961  60.0638357  21.7726668  35.8214772  61.0100965  22.6455519
  31.7727051  60.1846952  21.5925044  32.6380048  59.9889761  21.2330933
  31.8404560  59.9557304  22.5194401  41.3872181  70.4744533  15.0635238
  40.6101624  70.1355692  14.6190400  42.0663662  70.4797156  14.3890203
  36.2024210  65.5939270  14.9541845  35.8974346  65.9085419  15.8051989
  37.1554653  65.6720690  14.9969178  34.6470642  71.7529493  16.6034799
  34.1192004  71.0182253  16.2908037  34.1458145  72.5304170  16.3574768
  39.6263488  69.9478514  21.7201846  38.9687163  70.6377775  21.8081974
  40.4303888  70.3374946  22.0635832  29.3789370  62.4149160  18.9641411
  29.9533122  62.1924341  18.2314604  29.9660352  62.4837854  19.7170012
  38.4368947  68.3022887  19.7705787  38.9500829  68.9352878  20.2727497
  39.0870171  67.7024082  19.4049147  29.7058957  64.4453621  12.9837296
  28.8696269  64.7828307  13.3046571  29.5663727  64.3102601  12.0464433
  31.6812038  59.2890409  17.6916480  31.0276450  58.9739426  17.0673095
  31.6392512  58.6666149  18.4176303  32.7923242  69.5709704   9.6069772
  31.8850304  69.3398957   9.8060921  33.2894274  68.7747323   9.7943754
  35.6991321  78.2807211  12.5266459  35.0253020  78.5838908  13.1351416
  36.0857143  79.0836291  12.1771916  34.9149778  65.7772342  22.0164128
  33.9972339  65.9987289  21.8585816  35.3309922  65.8518653  21.1575835
  35.6984826  67.1763758  17.1466808  36.4456645  67.6885155  16.8373930
  35.9676415  66.8547811  18.0071202  33.9711476  69.6722299  14.1293762
  33.0622695  69.3881331  14.2266232  34.0006560  70.0921377  13.2697069
  39.2030743  73.2828888  17.8984930  38.7493070  72.4419798  17.9550120
  38.5724710  73.9190286  18.2359710  38.1463663  64.2120874  19.1285597
  37.4086420  63.6998260  19.4595840  38.3990436  63.7721256  18.3168874
  37.6463683  75.1205385  18.8334748  37.9386657  75.6810442  18.1147114
  38.1562303  75.4133946  19.5887907  38.2475290  56.9897126  19.7227367
  38.5534167  56.1294490  19.4353282  38.9727895  57.5814746  19.5226361
  24.5399646  67.3927813  18.1108965  24.3424046  66.7997173  17.3860031
  23.9846310  67.0880023  18.8284903  32.5196370  67.2850919  20.2303558
  32.5744980  66.3324756  20.1546034  31.7087572  67.4410358  20.7144856
  33.6687564  71.2131042  11.4681841  33.2306994  70.4966901  11.0087478
  34.4098005  71.4407157  10.9066932  30.4588730  65.9027979  17.9893937
  29.6456595  66.2022150  18.3959129  30.9547724  65.5083668  18.7068419
  32.6097308  75.8985736  19.9228201  32.5673487  76.1246582  18.9936733
  33.5260007  75.6649110  20.0714002  36.0562942  66.3669803  26.8208831
  36.4112329  66.5941277  27.6803296  36.7035073  66.6988180  26.1986086
  41.7860679  69.4888239  17.5258160  41.6478577  69.6789835  16.5979349
  41.4296897  70.2507622  17.9826211  29.9502805  63.4746334  23.6055172
  30.5902184  63.3335094  22.9078135  29.1180335  63.1880848  23.2293774
  41.8130058  71.5564766  22.5369431  42.2466565  71.4640055  23.3852485
  42.5261639  71.5322267  21.8989447  30.7263109  72.7748765  19.7190164
  31.5203707  72.2799085  19.5172739  30.0154801  72.2466628  19.3557870
  35.5457953  75.1566860  24.0702532  35.5994975  75.7257797  24.8380248
  34.6772734  75.3268745  23.7056569  27.0345872  66.9191847  15.7949917
  26.1043460  66.8576302  16.0119879  27.1303344  66.3967799  14.9986558
  26.9531421  63.4446659  18.3828158  27.2138238  64.3591993  18.2737319
  27.7748593  62.9771102  18.5324771  28.4256346  64.8584417  25.5526983
  29.0979400  64.6501779  24.9039632  27.5986133  64.6606503  25.1132215
  42.6745608  71.5988467  25.0702316  42.8681498  72.5034277  25.3161591
  42.5746226  71.1395886  25.9040902  34.3281918  61.4846358  27.5692644
  33.6809833  62.1836307  27.4757120  35.0982934  61.9182501  27.9368892
  37.7360716  71.7495210  30.6443197  37.5846223  71.5205761  29.7273281
  37.7265396  72.7065811  30.6574542  34.5046053  69.3227122  25.6289464
  35.4338113  69.4738282  25.4558431  34.0837083  69.4111143  24.7738110
  33.3034385  73.3477787  23.3988001  33.1645470  72.9796571  24.2713939
  32.5148981  73.8625426  23.2271959  33.8982537  78.4486883  14.7413538
  34.0734292  77.9774927  15.5559160  33.2115325  79.0752650  14.9694798
  34.8539600  72.7259390  20.7876839  34.5189432  72.6860160  21.6834489
  34.3543545  72.0604105  20.3147249  28.8283844  68.1327020  26.3129420
  28.6903642  67.4007258  26.9140959  29.7388767  68.0435920  26.0313608
  37.7898791  70.0715424  11.0613899  37.1727962  69.3462252  10.9646951
  37.3215280  70.8324784  10.7180973  31.4566144  67.8446979  25.8013100
  32.1665763  67.2040171  25.7599718  31.4135452  68.0959874  26.7239281
  39.4452923  74.7814332  28.7219679  39.3865469  74.0973552  28.0550262
  39.8472441  75.5233322  28.2700305  30.1695078  64.8312197  27.6208739
  29.6332435  64.3802935  28.2730336  29.5811787  64.9658106  26.8779204
  28.4643622  81.5976246  21.5153398  28.7040220  82.2294770  22.1932416
  27.6212818  81.2464286  21.8018757  29.5797337  64.2900848  10.1835203
  28.7026804  64.1689649   9.8197450  30.0555090  63.4986927   9.9314092
  39.4470330  72.7453916  26.9533659  38.5597109  72.4079838  27.0760058
  40.0168881  72.0136947  27.1902424  21.0999477  69.0778008  20.2776710
  21.7870517  68.7639738  19.6897725  20.9447606  69.9819373  20.0043961
  25.9034200  63.9668205  24.7061734  25.8192388  63.3593874  23.9712144
  25.0816906  64.4577223  24.7071230  32.9771484  77.4055369  23.9194902
  32.9041655  78.2110340  24.4314206  32.5348877  77.6047334  23.0942923
  32.7661263  76.6427139  17.4297723  31.9828785  77.1848819  17.5235948
  33.4654008  77.1601118  17.8291965  36.0757913  62.4521768  20.0731929
  36.5726613  61.6991730  19.7532999  35.3044895  62.4886085  19.5075138
  43.9287671  68.1562134  21.7150220  43.9177547  69.0386849  21.3444153
  43.0605050  67.8033684  21.5204757  35.4370167  77.3042203  26.0753061
  36.1498139  77.9389667  26.0028962  34.9460196  77.4006069  25.2593062
  37.1587694  71.2093455  17.6470352  36.2243973  71.3294918  17.4775056
  37.3364363  70.3065922  17.3830362  32.6592882  64.5939151  19.8003613
  32.2890670  64.0410191  20.4884519  33.1551975  63.9897285  19.2478613
  40.5460245  67.0510775  18.1820386  41.0120698  67.8838766  18.1080689
  40.9967746  66.5855756  18.8865645  30.4882081  75.0536646  26.8958631
  31.1891540  75.6873129  27.0488026  30.0177196  75.3951378  26.1354271
  38.6136477  73.3954596  15.1806538  38.8896320  73.2811190  16.0900412
  37.7440975  72.9972081  15.1418711  38.5176908  59.4191362  22.2211288
  37.6039988  59.6495588  22.3893495  38.9470010  59.5029806  23.0725320
  38.2883367  67.6081254  24.7211182  37.6354817  67.8557161  24.0663634
  38.6663747  66.7945392  24.3873659  35.2490541  77.6440947  18.8239352
  35.4312935  76.8262603  19.2867104  36.0723527  77.8608639  18.3864242
  35.5832706  76.5709132  16.0854400  36.1120472  76.0601586  15.4724563
  35.8460926  76.2551662  16.9499933  34.3370940  68.3501065  31.2077219
  33.6611577  68.2495194  31.8779594  35.1598574  68.1940278  31.6713216
  26.0849799  74.5873001  23.8289734  26.6703236  73.8416689  23.9617638
  25.8874637  74.8976958  24.7126398  28.9388454  77.6224248  18.8452176
  28.2698829  78.1070376  18.3616216  28.8001324  77.8693469  19.7595555
  20.6767454  67.1578601  22.5494177  20.7151553  66.6242192  23.3431295
  20.1707746  66.6313807  21.9305154  33.0793723  79.6567992  25.4434835
  33.6312031  79.8199614  26.2083920  33.4199916  80.2472430  24.7714860
  28.0558216  62.0043142  26.0456719  28.1199542  62.8657973  25.6334117
  27.9925336  61.3917143  25.3129078  27.5310488  64.0766274  29.6929754
  28.1582527  63.6943352  30.3067278  26.6738407  63.8580476  30.0585446
  37.9304597  74.4829250  31.2983489  38.4744501  75.0959208  30.8038444
  37.3491442  75.0408828  31.8150502  24.3076031  65.8842703  15.6248109
  24.6029472  64.9753382  15.5715162  23.4064067  65.8630443  15.3029111
  36.2162110  77.6049968  22.4298517  36.0913249  76.8039707  21.9209462
  36.8741201  78.0996161  21.9412487  27.8370278  63.9598700  21.6075657
  27.1156864  64.5734668  21.4683130  28.6263534  64.4956465  21.5292303
  38.2797018  75.4058988  24.0578067  37.3327354  75.2864339  23.9856394
  38.6279791  74.5181486  24.1404328  30.6396592  61.2953127  27.8816309
  31.1630993  61.5415423  28.6442618  30.4208925  62.1273161  27.4619446
  26.0363873  63.5656801  15.7487434  25.7076579  62.6854180  15.5662540
  26.3903243  63.5104470  16.6363823  35.2843452  75.2011704  20.2582419
  35.1368414  74.2728411  20.4389989  36.1096945  75.2231795  19.7739494
  29.1505696  63.8529771  16.1162911  29.4901768  64.3815692  15.3941520
  29.5977816  64.1910177  16.8921478  38.8877573  76.0240263  21.3447292
  39.8124121  75.8183124  21.2071743  38.7192877  75.7756664  22.2536633
  31.8449137  62.2366822  25.5665979  31.5045957  61.4374635  25.9686659
  31.1388143  62.5368532  24.9942813  32.4965608  59.3216134  24.0193302
  33.3191678  58.8476612  23.8972193  32.7403672  60.1006618  24.5191989
  31.1373843  62.3504393  14.3156204  31.8582205  62.7285645  13.8119921
  30.5139147  63.0693269  14.4191182  35.2804966  63.0549541  15.2514536
  35.4968580  63.9374179  14.9503365  34.7999033  62.6635755  14.5220178
  30.0204187  66.0135255  21.8285281  29.8748768  66.3275558  22.7209563
  29.5429391  66.6320155  21.2756180  31.8800570  63.0037803  21.8766171
  31.8662139  62.1078896  21.5398469  32.5972998  63.0108466  22.5104457
  33.7326701  63.4375143  23.9219298  33.4744479  64.3592214  23.9203628
  33.2011741  63.0405577  24.6119762  38.6772890  76.5425930  16.7009383
  38.8509767  75.9772353  15.9483236  39.1701781  77.3426825  16.5188873
  24.4949849  68.5540599  24.7672942  23.9503317  69.3300407  24.8993217
  25.3729199  68.9011404  24.6092064  31.2837466  61.8852183  17.1453741
  31.4053377  60.9568829  17.3444628  30.9939508  61.8990869  16.2332056
  34.1528656  59.5707093  20.2820461  34.1750353  59.6346427  19.3272440
  34.5696715  58.7311602  20.4760967  44.5312281  69.3062353  18.3199683
  44.9743427  68.5569678  17.9218806  43.6538791  69.2972489  17.9373415
  39.6648062  75.8592694  13.8006282  40.3598967  76.4799387  14.0193596
  40.0071212  75.0088046  14.0758660  25.2815871  67.6810495  27.6603099
  24.5397607  67.8293131  28.2467730  24.9608616  67.9418761  26.7969849
  41.5639485  73.3092400  15.3293612  42.0890809  73.6479673  14.6042933
  41.4761838  72.3739415  15.1456747  33.2259534  77.2226474  27.4583489
  33.5346660  76.9775620  28.3306189  34.0235016  77.4273112  26.9702359
  33.2480146  79.3764383  19.6888866  32.8085136  78.8840762  20.3821722
  33.9988263  78.8337351  19.4480941  25.7272485  75.5675924  19.6913494
  26.5530505  75.2679696  19.3112137  25.3766537  74.7983547  20.1403282
  30.6954018  74.9202392  21.7611167  30.0734027  74.2573097  21.4613395
  31.3658885  74.9463524  21.0784815  23.9281090  73.4862251  20.6502427
  23.0912998  73.0584425  20.4686429  23.9004735  73.6794694  21.5873219
  30.7678546  63.3984180  31.3543673  30.8166701  64.2746303  30.9721443
  31.3101060  62.8561573  30.7815317  41.2533391  73.9425304  30.6344810
  40.4628935  73.9249442  30.0949310  41.0166746  74.4813597  31.3893847
  41.3731266  70.7917770  27.9477539  41.4229271  70.6267777  28.8893062
  41.2645190  69.9245029  27.5575420  30.2567525  73.4706316  15.2369628
  30.4055645  74.1541780  14.5836301  31.0633968  73.4511406  15.7519084
  38.6635029  66.7748698  29.2636846  39.5644891  66.6355163  28.9720843
  38.7383003  66.9403153  30.2035023  32.9977834  64.1515553  28.1090032
  32.1281143  64.4449119  27.8372621  33.2337314  64.7355998  28.8297296
  42.8749463  73.2114711  28.1919561  42.5834271  73.5744692  29.0283021
  42.2621594  72.4981720  28.0132893  44.0745145  70.7767591  20.7122131
  44.9092037  71.2157395  20.8759691  44.2104274  70.3006244  19.8930377
  41.1236651  68.3347326  26.6599618  41.5990773  68.5274972  25.8518470
  40.2002217  68.3906512  26.4143002  28.0120158  69.4971493  16.2430697
  27.7666200  68.5933823  16.4410907  28.1816073  69.4988644  15.3010175
  35.7016868  60.3695170  25.6255452  36.2198812  61.1056197  25.3001941
  35.3472001  60.6759163  26.4602212  27.2815806  65.2299851  13.7416858
  26.5885050  65.3044206  13.0856894  27.0367557  64.4660195  14.2638375
  35.9529462  56.7895452  21.1456349  36.2331216  56.1218641  21.7716776
  36.7380069  56.9824548  20.6331013  33.7562931  75.9654446  12.7081375
  33.1836898  76.5844633  12.2551847  34.3295724  76.5153808  13.2421297
  39.8238320  65.2113086  24.8927924  40.7755743  65.3111184  24.9140148
  39.6541771  64.4191355  25.4026008  37.8452700  62.2968669  25.0787325
  37.2502632  62.5773682  24.3833814  37.5602397  62.7862570  25.8504066
  36.9760190  76.2491596  13.8389958  37.9090863  76.1837158  14.0422833
  36.8883403  77.0847863  13.3804490  39.6048207  75.5657467  10.7993905
  39.5261839  75.2317330  11.6929663  40.4257874  76.0579234  10.7985377
  42.3026398  68.4319206  24.0070224  42.2702718  67.4935207  24.1929908
  42.9127022  68.5103243  23.2736049  34.1409729  67.3015259  10.0497428
  35.0868834  67.1721467  10.1185846  33.7623974  66.5629921  10.5266856
  42.4520887  65.2230249  24.0528507  41.9359935  64.4388706  23.8658436
  43.3360835  64.8948966  24.2175026  40.1131614  58.9671265  20.0124320
  39.9156435  58.6586353  20.8967652  40.7231319  59.6932904  20.1422249
  48.1202948  69.4935213  23.1476261  48.8506337  69.2320501  23.7083964
  47.5109894  68.7563935  23.1878329  46.2018245  67.6343075  23.7450712
  45.4751409  67.4999040  23.1367203  45.7865532  67.9419904  24.5507430
  34.0248422  71.3533005  31.5098085  34.9451431  71.5311604  31.7038131
  33.9898005  70.4089050  31.3577784  32.3252646  65.2265235   9.9852313
  31.4184102  64.9298348  10.0615027  32.6028627  64.9295053   9.1186599
  23.2430587  66.5471599  20.4351359  22.9233371  65.6936907  20.1425733
  22.6964015  66.7620177  21.1909327  27.0210494  69.2634040  24.1520866
  27.2396504  70.1951147  24.1708900  27.4336268  68.9042014  24.9375670
  33.9414712  59.7702125  16.1396554  33.1315440  59.4249210  16.5151800
  34.6299129  59.4609669  16.7284166  35.8705260  58.8480172  17.7620851
  36.4236299  59.2675625  18.4210874  36.1075347  57.9215920  17.8043807
  31.8938359  64.8367245  33.5423615  31.7935086  65.7861602  33.4735706
  31.6759901  64.5085484  32.6699685  31.0951431  62.0852170  10.1264292
  31.9570595  62.4107069  10.3860110  31.2801775  61.2983666   9.6137358
  23.1118847  70.1674510  22.4044481  22.4182318  69.7528463  21.8914435
  23.8591838  70.2095047  21.8077900  39.2484067  60.9580697  17.2699515
  38.6682736  61.6165501  16.8877568  38.9820000  60.1358042  16.8586933
  37.6987634  60.3585755  19.4720836  38.1987412  60.4702289  18.6635154
  38.3423242  60.0546807  20.1121644  31.7569629  68.2664384  32.3588677
  31.2736711  69.0664744  32.5652566  31.8430569  68.2772329  31.4056121
  25.0255589  70.0992764  20.2810496  25.0026277  70.1980451  19.3292379
  25.3356226  70.9457915  20.6027662  27.6842967  72.1568919  24.3957110
  28.6386221  72.1252861  24.3287042  27.4855491  71.6959543  25.2107336
  28.2742349  70.7270035  26.9627908  29.0935238  71.2214114  26.9862745
  28.5479157  69.8102003  26.9345475  38.0308945  63.1180787  16.3255863
  37.1434800  63.4030438  16.1076058  38.4462934  62.9574551  15.4783140
  41.3823481  63.1427308  20.0410203  42.1583872  63.6323761  20.3134820
  40.6571616  63.5685362  20.4982072  43.8196040  63.8554928  21.0984143
  44.4140531  63.6150663  20.3877452  43.8922624  63.1362058  21.7257680
  26.0393196  77.6988538  21.4127308  25.9047664  76.9388939  20.8465306
  25.6225258  78.4229438  20.9456097  37.1752159  72.8825462  10.4203883
  37.8788009  73.0875464  11.0361539  36.4514808  73.4502224  10.6852967
  38.0049969  68.6335323  16.5406154  37.9485170  69.0903875  15.7013786
  38.5578312  67.8726008  16.3628996  41.8154775  64.4225055  17.3656273
  41.5591709  64.0221691  18.1964481  41.1907643  65.1368849  17.2406412
  46.1267113  67.1621128  19.8727565  45.5666671  67.2314318  20.6459127
  45.5210616  66.9862113  19.1527061  29.1962322  78.5957855  21.6245751
  29.0794706  79.5403288  21.5224441  28.3754768  78.2931417  22.0131550
  39.0838856  73.3207991  12.4702344  39.9184460  72.8889190  12.2879818
  38.9223199  73.1490005  13.3979238  38.7384748  69.8240104  13.8358683
  38.6833552  69.6584376  12.8947127  38.1130804  70.5316137  13.9920873
  23.5277263  65.0608169  27.6620105  24.1736127  64.5507123  28.1507330
  23.3194414  65.7976851  28.2363530  36.0530656  72.1289016  33.1612246
  36.9221815  72.3029669  32.7998881  35.5737407  72.9483433  33.0387975
  32.0480874  59.3248213  13.4144001  32.0359544  60.2690053  13.5712272
  32.9404296  59.1418359  13.1203462  30.2216836  79.2486117  24.8401679
  31.1244082  79.2809728  25.1568174  29.9954206  78.3186568  24.8548015
  31.9770438  78.0017104  21.5011758  31.0266069  78.0018966  21.3876130
  32.2802924  77.2549838  20.9847792  35.8632993  55.9190990  17.6689938
  35.0965389  55.3649477  17.8146620  36.2743698  55.9912859  18.5304090
  27.8674754  62.2075786  31.7595119  28.7306216  61.8512591  31.9698444
  27.2940165  61.8689681  32.4470524  47.7123131  83.8377642  22.5657520
  48.3501541  83.7184390  21.8620860  47.5943974  84.7858486  22.6245472
  44.5212838  83.7905070  22.5019045  44.1831349  83.6746135  21.6139580
  45.3902606  83.3896235  22.4820051  40.3799653  85.6440547  18.4915936
  39.8164518  85.5530484  17.7232224  40.2652048  84.8240451  18.9718428
  45.0032621  84.9439922  28.4605250  44.9921261  84.5492720  27.5885754
  45.1653260  84.2105995  29.0539022  37.9264085  87.1391738  21.3300156
  38.7185377  86.7982563  20.9146456  38.1660735  87.2486713  22.2502310
  45.9599212  89.3111515  13.8030401  45.3087192  89.8965595  13.4164415
  46.7543575  89.8417709  13.8625438  39.8854839  86.4000652  14.2017535
  40.6585715  85.8529639  14.0630411  40.2380238  87.2644901  14.4131997
  41.7239882  87.7277034  27.4084434  41.4329748  88.6322665  27.2931101
  42.3596866  87.7693562  28.1228504  42.6496089  85.1053882  23.9985794
  43.2459661  84.8809905  23.2842757  42.7071060  84.3638628  24.6011242
  42.2221117  82.5593318  11.8335985  42.4746638  82.0374839  11.0719448
  41.2845676  82.3959463  11.9362669  47.2664400  81.5629096  19.6410728
  48.0527489  81.1448519  19.2901145  47.5303104  82.4675188  19.8092377
  47.4374477  87.0001946  14.3399385  46.8020310  87.0736573  15.0520290
  47.1071884  87.5895545  13.6618464  52.6672827  81.5004329  20.5443707
  53.3997999  80.9303546  20.7781536  51.9112183  81.1125930  20.9850212
  41.9417406  84.4621424  14.0360360  41.8253664  83.7866327  14.7041444
  42.0519666  83.9753798  13.2192513  44.2848947  83.9231571  17.7407049
  43.9207154  83.3962192  18.4519971  45.1416063  83.5330040  17.5673535
  50.1898247  75.2125903  25.0038315  49.8581572  76.0821314  24.7799530
  49.5943861  74.8962187  25.6832346  43.9254434  78.9521471  12.7368398
  44.0928836  79.8201707  13.1038869  43.7351603  79.1148752  11.8129687
  46.6829767  87.4138449  24.4034228  46.3830490  88.3163488  24.2950035
  46.3380826  87.1470633  25.2555381  40.1342248  83.8652246  20.4370933
  39.2092745  83.7328460  20.6448624  40.3826661  84.6446466  20.9340875
  50.0826911  79.9320990  22.0831665  49.1743788  79.8636398  21.7890426
  50.0314506  80.4092935  22.9113491  43.9043654  81.4079128  13.7215065
  43.7843280  81.8536179  14.5600545  43.2096243  81.7564446  13.1628603
  37.4951059  83.5085520  21.2714722  37.6243440  83.7619999  22.1854133
  36.8148511  84.1013228  20.9519377  41.6650547  94.1782770  17.3705196
  41.5874576  95.1290595  17.4493676  41.0612190  93.8328642  18.0280122
  44.1567776  81.3510635  30.0266563  43.3801110  81.9104555  30.0169427
  44.7958339  81.8367418  30.5481433  51.9488557  78.1337428  23.8609539
  51.3062937  78.4269961  23.2149334  51.4443485  78.0190348  24.6662736
  49.6028721  81.8800601  14.5495399  50.5146577  82.1127988  14.3743096
  49.0938368  82.4637645  13.9870477  42.4114149  84.1596089  29.5884530
  43.1528833  84.6981133  29.3119353  41.7051134  84.7862377  29.7456082
  47.8869488  86.3025229  28.1856691  48.2952844  85.8607640  27.4411324
  47.1646750  85.7277857  28.4390884  44.2400558  81.2397836  25.5590248
  45.0861754  81.6637249  25.7024897  44.1799196  80.5831460  26.2528811
  48.2098303  86.8626420  21.9408980  47.5807165  87.0272134  21.2385048
  47.8223965  87.2768029  22.7119944  52.0887535  87.7980858  19.2953344
  51.4038573  88.1779759  18.7450377  52.1731384  88.4076184  20.0285292
  47.3900004  78.9002204  27.2171422  47.1460936  79.6544265  26.6805698
  47.6659934  79.2787552  28.0518669  49.3438466  85.4440817  25.8948687
  49.5555362  86.0872576  25.2183068  49.2968215  84.6103133  25.4270617
  46.9464695  78.0558637  22.7985260  46.0849174  78.3539891  23.0901997
  46.9727130  78.2729036  21.8666292  43.7626265  86.6000828  19.2059065
  44.2264610  86.8788531  18.4163688  43.4983063  85.6984272  19.0232156
  40.6550346  86.1472309  22.1438828  41.2251703  86.5759578  21.5056313
  41.2458458  85.8654894  22.8423014  42.6995151  82.7223980  16.0148630
  43.4019194  83.1745024  16.4822557  42.3675779  82.0807799  16.6428523
  41.1475512  81.3135737  30.3899840  40.5174173  81.9952018  30.6235237
  41.0411600  81.2018818  29.4452978  36.4420485  80.9807533  21.3165764
  35.6519539  81.2365061  20.8405875  36.9331732  81.7955871  21.4217804
  50.4584294  88.3212772  24.0671045  51.2801738  87.9192959  23.7853726
  50.4546697  88.2181006  25.0187161  38.3935230  81.3452112  18.2749241
  37.5966393  81.4570806  18.7932736  38.1660822  81.6838764  17.4090131
  44.2240898  87.8696815  26.2231755  44.2885330  88.3317222  27.0589927
  43.5151822  87.2394180  26.3514065  34.7258188  81.2338023  23.7480755
  34.9766226  82.1185033  24.0138331  35.2617736  81.0542625  22.9755847
  58.5490287  84.6651520  20.4156016  57.7953996  84.0958919  20.2600021
  58.6837829  84.6314185  21.3626651  43.9388915  89.5364923  16.0910736
  43.8034590  90.3816458  16.5195583  44.4798728  89.7384200  15.3276669
  40.4256255  75.6156503  32.7525091  40.0323201  75.0622701  33.4272735
  41.2422395  75.9267081  33.1431608  37.3918313  87.0540361  16.6638661
  37.9042833  87.8483611  16.8144225  38.0441026  86.3566651  16.5972262
  39.2013198  90.1706117  18.7461414  39.3779826  91.0924082  18.5582398
  39.9970031  89.8564536  19.1755794  43.3424216  77.0314382  30.3445347
  44.0833929  77.6321535  30.2649810  43.5742139  76.2892019  29.7863390
  38.4865554  82.2170749  28.6223577  38.3719069  81.3156006  28.9230676
  37.6310072  82.4634446  28.2708394  45.5657392  90.1588489  30.2211078
  45.1221246  89.3724868  29.9031982  46.2274605  90.3467640  29.5554968
  40.3244513  91.6884291  24.7471756  40.8751938  91.5601354  23.9748750
  39.4855989  91.9879180  24.3966649  47.6638630  90.4391289  28.2492479
  47.6457105  91.2600170  27.7572748  48.5858550  90.3145364  28.4742620
  44.1211684  87.9535419  29.0915987  44.6540021  87.1923707  28.8615295
  43.5925765  87.6609070  29.8340142  47.2881379  73.0595485  24.6209629
  46.9445648  73.9497126  24.5448740  47.6560342  72.8697142  23.7579214
  35.3567230  85.3829015  17.4398231  36.1942452  85.7926023  17.2231939
  35.5345497  84.4428457  17.4098425  47.2531662  83.0504096  13.1282064
  46.7378285  83.8208700  13.3670452  46.9808970  82.3769232  13.7515126
  44.8378773  77.8953797  18.1867303  43.9820369  77.5060647  18.0072941
  45.2505725  77.9745757  17.3267088  46.3677919  75.4300140  22.5858862
  45.8642715  75.3930275  21.7726668  46.6608526  76.3392883  22.6455519
  42.6120805  75.5138870  21.5925044  43.4773802  75.3181678  21.2330933
  42.6798314  75.2849221  22.5194401  52.2265936  85.8036450  15.0635238
  51.4495379  85.4647610  14.6190400  52.9057417  85.8089074  14.3890203
  47.0417965  80.9231188  14.9541845  46.7368101  81.2377337  15.8051989
  47.9948407  81.0012608  14.9969178  45.4864397  87.0821411  16.6034799
  44.9585758  86.3474171  16.2908037  44.9851900  87.8596087  16.3574768
  50.4657243  85.2770432  21.7201846  49.8080917  85.9669693  21.8081974
  51.2697642  85.6666864  22.0635832  40.2183124  77.7441077  18.9641411
  40.7926876  77.5216259  18.2314604  40.8054107  77.8129772  19.7170012
  49.2762702  83.6314804  19.7705787  49.7894583  84.2644796  20.2727497
  49.9263925  83.0316000  19.4049147  40.5452712  79.7745538  12.9837296
  39.7090024  80.1120225  13.3046571  40.4057481  79.6394518  12.0464433
  42.5205792  74.6182326  17.6916480  41.8670204  74.3031344  17.0673095
  42.4786266  73.9958067  18.4176303  43.6316997  84.9001621   9.6069772
  42.7244059  84.6690875   9.8060921  44.1288029  84.1039241   9.7943754
  46.5385076  93.6099129  12.5266459  45.8646775  93.9130825  13.1351416
  46.9250898  94.4128209  12.1771916  45.7543532  81.1064260  22.0164128
  44.8366094  81.3279207  21.8585816  46.1703676  81.1810570  21.1575835
  46.5378580  82.5055676  17.1466808  47.2850399  83.0177073  16.8373930
  46.8070170  82.1839728  18.0071202  44.8105230  85.0014216  14.1293762
  43.9016450  84.7173249  14.2266232  44.8400314  85.4213295  13.2697069
  50.0424498  88.6120806  17.8984930  49.5886825  87.7711716  17.9550120
  49.4118465  89.2482204  18.2359710  48.9857417  79.5412792  19.1285597
  48.2480174  79.0290178  19.4595840  49.2384191  79.1013173  18.3168874
  48.4857437  90.4497302  18.8334748  48.7780411  91.0102360  18.1147114
  48.9956058  90.7425863  19.5887907  49.0869045  72.3189044  19.7227367
  49.3927922  71.4586407  19.4353282  49.8121650  72.9106664  19.5226361
  35.3793401  82.7219730  18.1108965  35.1817801  82.1289091  17.3860031
  34.8240065  82.4171941  18.8284903  43.3590124  82.6142837  20.2303558
  43.4138734  81.6616673  20.1546034  42.5481326  82.7702276  20.7144856
  44.5081318  86.5422960  11.4681841  44.0700748  85.8258819  11.0087478
  45.2491759  86.7699075  10.9066932  41.2982484  81.2319897  17.9893937
  40.4850350  81.5314067  18.3959129  41.7941479  80.8375585  18.7068419
  43.4491062  91.2277654  19.9228201  43.4067241  91.4538500  18.9936733
  44.3653761  90.9941028  20.0714002  46.8956696  81.6961721  26.8208831
  47.2506084  81.9233194  27.6803296  47.5428827  82.0280098  26.1986086
  52.6254433  84.8180157  17.5258160  52.4872332  85.0081753  16.5979349
  52.2690652  85.5799540  17.9826211  40.7896559  78.8038252  23.6055172
  41.4295938  78.6627011  22.9078135  39.9574090  78.5172766  23.2293774
  52.6523813  86.8856684  22.5369431  53.0860319  86.7931973  23.3852485
  53.3655393  86.8614184  21.8989447  41.5656863  88.1040683  19.7190164
  42.3597462  87.6091003  19.5172739  40.8548555  87.5758546  19.3557870
  46.3851708  90.4858778  24.0702532  46.4388730  91.0549714  24.8380248
  45.5166489  90.6560663  23.7056569  37.8739627  82.2483764  15.7949917
  36.9437215  82.1868220  16.0119879  37.9697098  81.7259717  14.9986558
  37.7925176  78.7738577  18.3828158  38.0531993  79.6883910  18.2737319
  38.6142348  78.3063020  18.5324771  39.2650101  80.1876334  25.5526983
  39.9373154  79.9793696  24.9039632  38.4379887  79.9898420  25.1132215
  53.5139362  86.9280385  25.0702316  53.7075252  87.8326195  25.3161591
  53.4139980  86.4687804  25.9040902  45.1675673  76.8138275  27.5692644
  44.5203588  77.5128225  27.4757120  45.9376688  77.2474419  27.9368892
  48.5754471  87.0787127  30.6443197  48.4239977  86.8497679  29.7273281
  48.5659150  88.0357729  30.6574542  45.3439807  84.6519040  25.6289464
  46.2731867  84.8030200  25.4558431  44.9230837  84.7403061  24.7738110
  44.1428139  88.6769705  23.3988001  44.0039225  88.3088489  24.2713939
  43.3542735  89.1917344  23.2271959  44.7376291  93.7778801  14.7413538
  44.9128047  93.3066844  15.5559160  44.0509079  94.4044567  14.9694798
  45.6933354  88.0551307  20.7876839  45.3583187  88.0152077  21.6834489
  45.1937300  87.3896023  20.3147249  39.6677598  83.4618937  26.3129420
  39.5297396  82.7299176  26.9140959  40.5782522  83.3727837  26.0313608
  48.6292546  85.4007342  11.0613899  48.0121716  84.6754170  10.9646951
  48.1609034  86.1616702  10.7180973  42.2959899  83.1738897  25.8013100
  43.0059517  82.5332089  25.7599718  42.2529207  83.4251791  26.7239281
  50.2846677  90.1106250  28.7219679  50.2259224  89.4265470  28.0550262
  50.6866196  90.8525240  28.2700305  41.0088833  80.1604114  27.6208739
  40.4726190  79.7094853  28.2730336  40.4205541  80.2950023  26.8779204
  39.3037376  96.9268164  21.5153398  39.5433975  97.5586688  22.1932416
  38.4606573  96.5756204  21.8018757  40.4191092  79.6192766  10.1835203
  39.5420558  79.4981567   9.8197450  40.8948845  78.8278844   9.9314092
  50.2864085  88.0745834  26.9533659  49.3990864  87.7371756  27.0760058
  50.8562636  87.3428865  27.1902424  31.9393232  84.4069926  20.2776710
  32.6264272  84.0931656  19.6897725  31.7841361  85.3111290  20.0043961
  36.7427954  79.2960122  24.7061734  36.6586143  78.6885792  23.9712144
  35.9210660  79.7869141  24.7071230  43.8165238  92.7347286  23.9194902
  43.7435410  93.5402258  24.4314206  43.3742631  92.9339252  23.0942923
  43.6055018  91.9719056  17.4297723  42.8222540  92.5140736  17.5235948
  44.3047763  92.4893036  17.8291965  46.9151668  77.7813686  20.0731929
  47.4120367  77.0283648  19.7532999  46.1438649  77.8178002  19.5075138
  54.7681425  83.4854051  21.7150220  54.7571302  84.3678767  21.3444153
  53.8998805  83.1325602  21.5204757  46.2763922  92.6334120  26.0753061
  46.9891894  93.2681585  26.0028962  45.7853950  92.7297986  25.2593062
  47.9981449  86.5385373  17.6470352  47.0637727  86.6586835  17.4775056
  48.1758117  85.6357840  17.3830362  43.4986637  79.9231069  19.8003613
  43.1284424  79.3702109  20.4884519  43.9945729  79.3189202  19.2478613
  51.3854000  82.3802692  18.1820386  51.8514452  83.2130684  18.1080689
  51.8361500  81.9147674  18.8865645  41.3275835  90.3828564  26.8958631
  42.0285295  91.0165047  27.0488026  40.8570950  90.7243295  26.1354271
  49.4530231  88.7246514  15.1806538  49.7290075  88.6103108  16.0900412
  48.5834730  88.3263998  15.1418711  49.3570663  74.7483279  22.2211288
  48.4433742  74.9787506  22.3893495  49.7863764  74.8321723  23.0725320
  49.1277121  82.9373171  24.7211182  48.4748571  83.1849079  24.0663634
  49.5057501  82.1237309  24.3873659  46.0884295  92.9732864  18.8239352
  46.2706690  92.1554520  19.2867104  46.9117281  93.1900557  18.3864242
  46.4226461  91.9001049  16.0854400  46.9514227  91.3893504  15.4724563
  46.6854680  91.5843580  16.9499933  45.1764694  83.6792982  31.2077219
  44.5005331  83.5787112  31.8779594  45.9992328  83.5232196  31.6713216
  36.9243553  89.9164919  23.8289734  37.5096990  89.1708607  23.9617638
  36.7268392  90.2268875  24.7126398  39.7782208  92.9516166  18.8452176
  39.1092584  93.4362294  18.3616216  39.6395078  93.1985387  19.7595555
  31.5161208  82.4870519  22.5494177  31.5545308  81.9534110  23.3431295
  31.0101501  81.9605724  21.9305154  43.9187477  94.9859910  25.4434835
  44.4705785  95.1491531  26.2083920  44.2593671  95.5764348  24.7714860
  38.8951970  77.3335059  26.0456719  38.9593297  78.1949890  25.6334117
  38.8319091  76.7209061  25.3129078  38.3704243  79.4058192  29.6929754
  38.9976282  79.0235269  30.3067278  37.5132162  79.1872394  30.0585446
  48.7698351  89.8121167  31.2983489  49.3138255  90.4251125  30.8038444
  48.1885196  90.3700746  31.8150502  35.1469786  81.2134621  15.6248109
  35.4423227  80.3045300  15.5715162  34.2457821  81.1922361  15.3029111
  47.0555864  92.9341885  22.4298517  46.9307004  92.1331625  21.9209462
  47.7134955  93.4288079  21.9412487  38.6764033  79.2890618  21.6075657
  37.9550618  79.9026585  21.4683130  39.4657288  79.8248383  21.5292303
  49.1190773  90.7350905  24.0578067  48.1721108  90.6156256  23.9856394
  49.4673546  89.8473403  24.1404328  41.4790346  76.6245044  27.8816309
  42.0024748  76.8707341  28.6442618  41.2602679  77.4565079  27.4619446
  36.8757627  78.8948719  15.7487434  36.5470333  78.0146098  15.5662540
  37.2296998  78.8396387  16.6363823  46.1237206  90.5303622  20.2582419
  45.9762168  89.6020329  20.4389989  46.9490700  90.5523712  19.7739494
  39.9899450  79.1821689  16.1162911  40.3295523  79.7107610  15.3941520
  40.4371571  79.5202095  16.8921478  49.7271328  91.3532180  21.3447292
  50.6517875  91.1475042  21.2071743  49.5586631  91.1048581  22.2536633
  42.6842891  77.5658739  25.5665979  42.3439712  76.7666552  25.9686659
  41.9781897  77.8660450  24.9942813  43.3359363  74.6508052  24.0193302
  44.1585432  74.1768530  23.8972193  43.5797427  75.4298536  24.5191989
  41.9767597  77.6796310  14.3156204  42.6975960  78.0577563  13.8119921
  41.3532902  78.3985187  14.4191182  46.1198720  78.3841459  15.2514536
  46.3362335  79.2666097  14.9503365  45.6392787  77.9927673  14.5220178
  40.8597942  81.3427172  21.8285281  40.7142522  81.6567475  22.7209563
  40.3823145  81.9612073  21.2756180  42.7194325  78.3329720  21.8766171
  42.7055893  77.4370814  21.5398469  43.4366753  78.3400384  22.5104457
  44.5720455  78.7667061  23.9219298  44.3138233  79.6884131  23.9203628
  44.0405496  78.3697495  24.6119762  49.5166644  91.8717848  16.7009383
  49.6903522  91.3064270  15.9483236  50.0095535  92.6718743  16.5188873
  35.3343604  83.8832517  24.7672942  34.7897072  84.6592325  24.8993217
  36.2122954  84.2303321  24.6092064  42.1231221  77.2144101  17.1453741
  42.2447132  76.2860747  17.3444628  41.8333263  77.2282787  16.2332056
  44.9922411  74.8999011  20.2820461  45.0144108  74.9638344  19.3272440
  45.4090470  74.0603520  20.4760967  55.3706035  84.6354271  18.3199683
  55.8137181  83.8861596  17.9218806  54.4932546  84.6264407  17.9373415
  50.5041817  91.1884612  13.8006282  51.1992721  91.8091305  14.0193596
  50.8464967  90.3379963  14.0758660  36.1209626  83.0102413  27.6603099
  35.3791362  83.1585048  28.2467730  35.8002370  83.2710679  26.7969849
  52.4033240  88.6384318  15.3293612  52.9284564  88.9771590  14.6042933
  52.3155592  87.7031333  15.1456747  44.0653288  92.5518391  27.4583489
  44.3740415  92.3067538  28.3306189  44.8628770  92.7565030  26.9702359
  44.0873900  94.7056301  19.6888866  43.6478891  94.2132680  20.3821722
  44.8382017  94.1629269  19.4480941  36.5666239  90.8967842  19.6913494
  37.3924259  90.5971614  19.3112137  36.2160291  90.1275464  20.1403282
  41.5347773  90.2494310  21.7611167  40.9127782  89.5865015  21.4613395
  42.2052639  90.2755442  21.0784815  34.7674844  88.8154168  20.6502427
  33.9306753  88.3876343  20.4686429  34.7398490  89.0086612  21.5873219
  41.6072300  78.7276098  31.3543673  41.6560456  79.6038221  30.9721443
  42.1494814  78.1853491  30.7815317  52.0927146  89.2717221  30.6344810
  51.3022689  89.2541360  30.0949310  51.8560500  89.8105515  31.3893847
  52.2125021  86.1209688  27.9477539  52.2623026  85.9559695  28.8893062
  52.1038944  85.2536947  27.5575420  41.0961279  88.7998233  15.2369628
  41.2449400  89.4833698  14.5836301  41.9027723  88.7803323  15.7519084
  49.5028783  82.1040616  29.2636846  50.4038646  81.9647081  28.9720843
  49.5776758  82.2695071  30.2035023  43.8371589  79.4807470  28.1090032
  42.9674898  79.7741036  27.8372621  44.0731069  80.0647915  28.8297296
  53.7143218  88.5406629  28.1919561  53.4228026  88.9036610  29.0283021
  53.1015349  87.8273637  28.0132893  54.9138900  86.1059509  20.7122131
  55.7485791  86.5449313  20.8759691  55.0498029  85.6298162  19.8930377
  51.9630406  83.6639244  26.6599618  52.4384527  83.8566890  25.8518470
  51.0395971  83.7198430  26.4143002  38.8513912  84.8263411  16.2430697
  38.6059954  83.9225741  16.4410907  39.0209827  84.8280561  15.3010175
  46.5410622  75.6987087  25.6255452  47.0592566  76.4348114  25.3001941
  46.1865755  76.0051081  26.4602212  38.1209560  80.5591769  13.7416858
  37.4278805  80.6336124  13.0856894  37.8761312  79.7952112  14.2638375
  46.7923217  72.1187370  21.1456349  47.0724970  71.4510559  21.7716776
  47.5773823  72.3116465  20.6331013  44.5956685  91.2946364  12.7081375
  44.0230652  91.9136551  12.2551847  45.1689479  91.8445725  13.2421297
  50.6632075  80.5405004  24.8927924  51.6149498  80.6403102  24.9140148
  50.4935525  79.7483272  25.4026008  48.6846454  77.6260587  25.0787325
  48.0896386  77.9065600  24.3833814  48.3996151  78.1154488  25.8504066
  47.8153945  91.5783514  13.8389958  48.7484618  91.5129076  14.0422833
  47.7277158  92.4139781  13.3804490  50.4441961  90.8949384  10.7993905
  50.3655593  90.5609248  11.6929663  51.2651628  91.3871152  10.7985377
  53.1420153  83.7611124  24.0070224  53.1096473  82.8227124  24.1929908
  53.7520776  83.8395160  23.2736049  44.9803484  82.6307177  10.0497428
  45.9262588  82.5013385  10.1185846  44.6017728  81.8921838  10.5266856
  53.2914641  80.5522167  24.0528507  52.7753690  79.7680624  23.8658436
  54.1754590  80.2240884  24.2175026  50.9525368  74.2963183  20.0124320
  50.7550189  73.9878271  20.8967652  51.5625074  75.0224821  20.1422249
  58.9596703  84.8227130  23.1476261  59.6900091  84.5612419  23.7083964
  58.3503648  84.0855852  23.1878329  57.0412000  82.9634993  23.7450712
  56.3145163  82.8290958  23.1367203  56.6259287  83.2711822  24.5507430
  44.8642176  86.6824923  31.5098085  45.7845186  86.8603522  31.7038131
  44.8291759  85.7380968  31.3577784  43.1646401  80.5557153   9.9852313
  42.2577856  80.2590266  10.0615027  43.4422382  80.2586971   9.1186599
  34.0824341  81.8763516  20.4351359  33.7627125  81.0228825  20.1425733
  33.5357769  82.0912094  21.1909327  37.8604249  84.5925957  24.1520866
  38.0790258  85.5243065  24.1708900  38.2730022  84.2333932  24.9375670
  44.7808466  75.0994043  16.1396554  43.9709195  74.7541128  16.5151800
  45.4692883  74.7901586  16.7284166  46.7099015  74.1772089  17.7620851
  47.2630053  74.5967543  18.4210874  46.9469101  73.2507838  17.8043807
  42.7332114  80.1659163  33.5423615  42.6328841  81.1153520  33.4735706
  42.5153656  79.8377402  32.6699685  41.9345185  77.4144088  10.1264292
  42.7964349  77.7398986  10.3860110  42.1195529  76.6275584   9.6137358
  33.9512601  85.4966428  22.4044481  33.2576072  85.0820381  21.8914435
  34.6985592  85.5386964  21.8077900  50.0877822  76.2872615  17.2699515
  49.5076491  76.9457419  16.8877568  49.8213754  75.4649959  16.8586933
  48.5381388  75.6877672  19.4720836  49.0381167  75.7994207  18.6635154
  49.1816996  75.3838725  20.1121644  42.5963384  83.5956302  32.3588677
  42.1130466  84.3956662  32.5652566  42.6824323  83.6064247  31.4056121
  35.8649344  85.4284682  20.2810496  35.8420032  85.5272369  19.3292379
  36.1749980  86.2749832  20.6027662  38.5236721  87.4860837  24.3957110
  39.4779975  87.4544779  24.3287042  38.3249245  87.0251460  25.2107336
  39.1136104  86.0561953  26.9627908  39.9328993  86.5506031  26.9862745
  39.3872911  85.1393921  26.9345475  48.8702700  78.4472705  16.3255863
  47.9828555  78.7322356  16.1076058  49.2856689  78.2866468  15.4783140
  52.2217236  78.4719226  20.0410203  52.9977626  78.9615678  20.3134820
  51.4965370  78.8977280  20.4982072  54.6589795  79.1846845  21.0984143
  55.2534285  78.9442581  20.3877452  54.7316378  78.4653976  21.7257680
  36.8786950  93.0280456  21.4127308  36.7441418  92.2680857  20.8465306
  36.4619013  93.7521356  20.9456097  48.0145913  88.2117380  10.4203883
  48.7181763  88.4167382  11.0361539  47.2908562  88.7794142  10.6852967
  48.8443724  83.9627241  16.5406154  48.7878925  84.4195792  15.7013786
  49.3972066  83.2017926  16.3628996  52.6548529  79.7516973  17.3656273
  52.3985464  79.3513608  18.1964481  52.0301397  80.4660767  17.2406412
  56.9660867  82.4913046  19.8727565  56.4060425  82.5606235  20.6459127
  56.3604371  82.3154031  19.1527061  40.0356076  93.9249773  21.6245751
  39.9188460  94.8695206  21.5224441  39.2148522  93.6223335  22.0131550
  49.9232611  88.6499909  12.4702344  50.7578215  88.2181107  12.2879818
  49.7616954  88.4781923  13.3979238  49.5778503  85.1532022  13.8358683
  49.5227307  84.9876294  12.8947127  48.9524558  85.8608055  13.9920873
  34.3671018  80.3900087  27.6620105  35.0129881  79.8799041  28.1507330
  34.1588169  81.1268768  28.2363530  46.8924410  87.4580934  33.1612246
  47.7615570  87.6321586  32.7998881  46.4131162  88.2775351  33.0387975
  42.8874628  74.6540131  13.4144001  42.8753298  75.5981971  13.5712272
  43.7798050  74.4710277  13.1203462  41.0610590  94.5778035  24.8401679
  41.9637837  94.6101645  25.1568174  40.8347960  93.6478486  24.8548015
  42.8164192  93.3309022  21.5011758  41.8659823  93.3310883  21.3876130
  43.1196678  92.5841756  20.9847792  46.7026748  71.2482908  17.6689938
  45.9359144  70.6941395  17.8146620  47.1137453  71.3204777  18.5304090
  38.7068509  77.5367704  31.7595119  39.5699970  77.1804508  31.9698444
  38.1333919  77.1981598  32.4470524  58.5516886  99.1669560  22.5657520
  59.1895296  99.0476307  21.8620860  58.4337729 100.1150404  22.6245472
  55.3606592  99.1196988  22.5019045  55.0225104  99.0038053  21.6139580
  56.2296360  98.7188153  22.4820051  51.2193408 100.9732464  18.4915936
  50.6558273 100.8822401  17.7232224  51.1045803 100.1532369  18.9718428
  55.8426375 100.2731840  28.4605250  55.8315016  99.8784638  27.5885754
  56.0047015  99.5397912  29.0539022  48.7657840 102.4683656  21.3300156
  49.5579132 102.1274481  20.9146456  49.0054490 102.5778631  22.2502310
  56.7992966 104.6403432  13.8030401  56.1480946 105.2257513  13.4164415
  57.5937329 105.1709627  13.8625438  50.7248594 101.7292569  14.2017535
  51.4979470 101.1821556  14.0630411  51.0773992 102.5936819  14.4131997
  52.5633636 103.0568952  27.4084434  52.2723502 103.9614582  27.2931101
  53.1990621 103.0985479  28.1228504  53.4889843 100.4345800  23.9985794
  54.0853415 100.2101823  23.2842757  53.5464815  99.6930546  24.6011242
  53.0614871  97.8885235  11.8335985  53.3140392  97.3666757  11.0719448
  52.1239431  97.7251381  11.9362669  58.1058154  96.8921014  19.6410728
  58.8921243  96.4740437  19.2901145  58.3696859  97.7967106  19.8092377
  58.2768232 102.3293864  14.3399385  57.6414065 102.4028491  15.0520290
  57.9465638 102.9187463  13.6618464  63.5066581  96.8296247  20.5443707
  64.2391753  96.2595464  20.7781536  62.7505937  96.4417847  20.9850212
  52.7811160  99.7913341  14.0360360  52.6647418  99.1158245  14.7041444
  52.8913420  99.3045715  13.2192513  55.1242701  99.2523489  17.7407049
  54.7600908  98.7254109  18.4519971  55.9809817  98.8621958  17.5673535
  61.0292002  90.5417821  25.0038315  60.6975327  91.4113232  24.7799530
  60.4337615  90.2254105  25.6832346  54.7648188  94.2813388  12.7368398
  54.9322590  95.1493625  13.1038869  54.5745357  94.4440670  11.8129687
  57.5223521 102.7430367  24.4034228  57.2224244 103.6455406  24.2950035
  57.1774581 102.4762550  25.2555381  50.9736003  99.1944164  20.4370933
  50.0486499  99.0620378  20.6448624  51.2220416  99.9738383  20.9340875
  60.9220665  95.2612907  22.0831665  60.0137542  95.1928316  21.7890426
  60.8708261  95.7384852  22.9113491  54.7437409  96.7371046  13.7215065
  54.6237034  97.1828096  14.5600545  54.0489997  97.0856363  13.1628603
  48.3344814  98.8377438  21.2714722  48.4637195  99.0911916  22.1854133
  47.6542265  99.4305146  20.9519377  52.5044301 109.5074687  17.3705196
  52.4268331 110.4582513  17.4493676  51.9005945 109.1620560  18.0280122
  54.9961531  96.6802553  30.0266563  54.2194865  97.2396473  30.0169427
  55.6352094  97.1659336  30.5481433  62.7882311  93.4629346  23.8609539
  62.1456692  93.7561879  23.2149334  62.2837240  93.3482266  24.6662736
  60.4422475  97.2092519  14.5495399  61.3540331  97.4419906  14.3743096
  59.9332122  97.7929563  13.9870477  53.2507903  99.4888006  29.5884530
  53.9922588 100.0273050  29.3119353  52.5444889 100.1154295  29.7456082
  58.7263243 101.6317147  28.1856691  59.1346599 101.1899557  27.4411324
  58.0040504 101.0569774  28.4390884  55.0794313  96.5689753  25.5590248
  55.9255508  96.9929167  25.7024897  55.0192950  95.9123378  26.2528811
  59.0492057 102.1918337  21.9408980  58.4200920 102.3564051  21.2385048
  58.6617720 102.6059947  22.7119944  62.9281289 103.1272775  19.2953344
  62.2432327 103.5071677  18.7450377  63.0125139 103.7368102  20.0285292
  58.2293758  94.2294122  27.2171422  57.9854690  94.9836182  26.6805698
  58.5053689  94.6079469  28.0518669  60.1832221 100.7732734  25.8948687
  60.3949116 101.4164494  25.2183068  60.1361969  99.9395051  25.4270617
  57.7858450  93.3850555  22.7985260  56.9242929  93.6831808  23.0901997
  57.8120885  93.6020954  21.8666292  54.6020019 101.9292745  19.2059065
  55.0658365 102.2080448  18.4163688  54.3376817 101.0276190  19.0232156
  51.4944100 101.4764227  22.1438828  52.0645457 101.9051495  21.5056313
  52.0852212 101.1946812  22.8423014  53.5388905  98.0515898  16.0148630
  54.2412949  98.5036941  16.4822557  53.2069534  97.4099717  16.6428523
  51.9869267  96.6427654  30.3899840  51.3567927  97.3243935  30.6235237
  51.8805355  96.5310736  29.4452978  47.2814239  96.3099450  21.3165764
  46.4913293  96.5656979  20.8405875  47.7725487  97.1247788  21.4217804
  61.2978049 103.6504690  24.0671045  62.1195493 103.2484877  23.7853726
  61.2940452 103.5472924  25.0187161  49.2328985  96.6744030  18.2749241
  48.4360148  96.7862724  18.7932736  49.0054577  97.0130682  17.4090131
  55.0634652 103.1988733  26.2231755  55.1279085 103.6609140  27.0589927
  54.3545576 102.5686098  26.3514065  45.5651942  96.5629941  23.7480755
  45.8159981  97.4476951  24.0138331  46.1011491  96.3834542  22.9755847
  69.3884042  99.9943438  20.4156016  68.6347750  99.4250836  20.2600021
  69.5231583  99.9606103  21.3626651  54.7782670 104.8656840  16.0910736
  54.6428345 105.7108376  16.5195583  55.3192482 105.0676118  15.3276669
  51.2650010  90.9448420  32.7525091  50.8716955  90.3914619  33.4272735
  52.0816150  91.2558999  33.1431608  48.2312067 102.3832278  16.6638661
  48.7436588 103.1775529  16.8144225  48.8834780 101.6858569  16.5972262
  50.0406952 105.4998035  18.7461414  50.2173580 106.4215999  18.5582398
  50.8363786 105.1856454  19.1755794  54.1817971  92.3606299  30.3445347
  54.9227684  92.9613453  30.2649810  54.4135893  91.6183937  29.7863390
  49.3259309  97.5462667  28.6223577  49.2112824  96.6447924  28.9230676
  48.4703826  97.7926363  28.2708394  56.4051146 105.4880407  30.2211078
  55.9615001 104.7016785  29.9031982  57.0668360 105.6759557  29.5554968
  51.1638268 107.0176209  24.7471756  51.7145693 106.8893272  23.9748750
  50.3249743 107.3171098  24.3966649  58.5032384 105.7683207  28.2492479
  58.4850860 106.5892088  27.7572748  59.4252304 105.6437282  28.4742620
  54.9605439 103.2827336  29.0915987  55.4933775 102.5215625  28.8615295
  54.4319520 102.9900988  29.8340142  58.1275134  88.3887402  24.6209629
  57.7839403  89.2789044  24.5448740  58.4954096  88.1989060  23.7579214
  46.1960984 100.7120933  17.4398231  47.0336206 101.1217941  17.2231939
  46.3739252  99.7720375  17.4098425  58.0925416  98.3796013  13.1282064
  57.5772040  99.1500618  13.3670452  57.8202725  97.7061150  13.7515126
  55.6772527  93.2245714  18.1867303  54.8214124  92.8352565  18.0072941
  56.0899479  93.3037675  17.3267088  57.2071674  90.7592057  22.5858862
  56.7036470  90.7222193  21.7726668  57.5002281  91.6684800  22.6455519
  53.4514560  90.8430787  21.5925044  54.3167557  90.6473596  21.2330933
  53.5192069  90.6141139  22.5194401  63.0659690 101.1328368  15.0635238
  62.2889133 100.7939528  14.6190400  63.7451171 101.1380991  14.3890203
  57.8811719  96.2523106  14.9541845  57.5761855  96.5669255  15.8051989
  58.8342162  96.3304525  14.9969178  56.3258151 102.4113329  16.6034799
  55.7979513 101.6766088  16.2908037  55.8245654 103.1888005  16.3574768
  61.3050997 100.6062349  21.7201846  60.6474672 101.2961611  21.8081974
  62.1091397 100.9958781  22.0635832  51.0576879  93.0732995  18.9641411
  51.6320631  92.8508177  18.2314604  51.6447861  93.1421690  19.7170012
  60.1156456  98.9606722  19.7705787  60.6288338  99.5936714  20.2727497
  60.7657680  98.3607918  19.4049147  51.3846466  95.1037456  12.9837296
  50.5483778  95.4412143  13.3046571  51.2451236  94.9686436  12.0464433
  53.3599547  89.9474244  17.6916480  52.7063959  89.6323261  17.0673095
  53.3180021  89.3249984  18.4176303  54.4710751 100.2293539   9.6069772
  53.5637813  99.9982793   9.8060921  54.9681783  99.4331158   9.7943754
  56.5937287  96.4356178  22.0164128  55.6759848  96.6571125  21.8585816
  57.0097431  96.5102488  21.1575835  57.3772335  97.8347593  17.1466808
  58.1244154  98.3468990  16.8373930  57.6463924  97.5131646  18.0071202
  55.6498985 100.3306134  14.1293762  54.7410204 100.0465167  14.2266232
  55.6794069 100.7505213  13.2697069  60.8818252 103.9412723  17.8984930
  60.4280579 103.1003633  17.9550120  60.2512219 104.5774122  18.2359710
  59.8251172  94.8704709  19.1285597  59.0873929  94.3582096  19.4595840
  60.0777945  94.4305091  18.3168874  59.3251192 105.7789220  18.8334748
  59.6174166 106.3394277  18.1147114  59.8349812 106.0717781  19.5887907
  59.9262799  87.6480961  19.7227367  60.2321676  86.7878325  19.4353282
  60.6515404  88.2398582  19.5226361  46.2187155  98.0511648  18.1108965
  46.0211555  97.4581009  17.3860031  45.6633819  97.7463858  18.8284903
  54.1983879  97.9434755  20.2303558  54.2532489  96.9908591  20.1546034
  53.3875081  98.0994194  20.7144856  55.3475073 101.8714878  11.4681841
  54.9094503 101.1550737  11.0087478  56.0885514 102.0990992  10.9066932
  52.1376239  96.5611814  17.9893937  51.3244104  96.8605985  18.3959129
  52.6335233  96.1667503  18.7068419  54.2884817 106.5569571  19.9228201
  54.2460996 106.7830418  18.9936733  55.2047516 106.3232946  20.0714002
  57.7350451  97.0253639  26.8208831  58.0899838  97.2525112  27.6803296
  58.3822582  97.3572016  26.1986086  63.4648187 100.1472075  17.5258160
  63.3266086 100.3373671  16.5979349  63.1084406 100.9091457  17.9826211
  51.6290314  94.1330170  23.6055172  52.2689693  93.9918929  22.9078135
  50.7967844  93.8464683  23.2293774  63.4917567 102.2148602  22.5369431
  63.9254074 102.1223891  23.3852485  64.2049148 102.1906102  21.8989447
  52.4050618 103.4332600  19.7190164  53.1991216 102.9382920  19.5172739
  51.6942310 102.9050463  19.3557870  57.2245462 105.8150696  24.0702532
  57.2782484 106.3841632  24.8380248  56.3560243 105.9852581  23.7056569
  48.7133381  97.5775682  15.7949917  47.7830969  97.5160137  16.0119879
  48.8090853  97.0551635  14.9986558  48.6318930  94.1030495  18.3828158
  48.8925747  95.0175828  18.2737319  49.4536102  93.6354937  18.5324771
  50.1043855  95.5168252  25.5526983  50.7766909  95.3085614  24.9039632
  49.2773642  95.3190338  25.1132215  64.3533117 102.2572302  25.0702316
  64.5469007 103.1618113  25.3161591  64.2533735 101.7979721  25.9040902
  56.0069427  92.1430193  27.5692644  55.3597342  92.8420143  27.4757120
  56.7770443  92.5766337  27.9368892  59.4148225 102.4079045  30.6443197
  59.2633732 102.1789597  29.7273281  59.4052905 103.3649646  30.6574542
  56.1833562  99.9810958  25.6289464  57.1125622 100.1322117  25.4558431
  55.7624592 100.0694979  24.7738110  54.9821894 104.0061622  23.3988001
  54.8432979 103.6380407  24.2713939  54.1936490 104.5209262  23.2271959
  55.5770045 109.1070719  14.7413538  55.7521801 108.6358762  15.5559160
  54.8902834 109.7336485  14.9694798  56.5327109 103.3843225  20.7876839
  56.1976941 103.3443995  21.6834489  56.0331054 102.7187941  20.3147249
  50.5071353  98.7910855  26.3129420  50.3691151  98.0591094  26.9140959
  51.4176276  98.7019755  26.0313608  59.4686300 100.7299259  11.0613899
  58.8515471 100.0046087  10.9646951  59.0002789 101.4908620  10.7180973
  53.1353653  98.5030814  25.8013100  53.8453272  97.8624006  25.7599718
  53.0922961  98.7543709  26.7239281  61.1240432 105.4398168  28.7219679
  61.0652978 104.7557388  28.0550262  61.5259950 106.1817158  28.2700305
  51.8482587  95.4896032  27.6208739  51.3119944  95.0386771  28.2730336
  51.2599296  95.6241941  26.8779204  50.1431131 112.2560081  21.5153398
  50.3827729 112.8878606  22.1932416  49.3000327 111.9048121  21.8018757
  51.2584846  94.9484684  10.1835203  50.3814313  94.8273484   9.8197450
  51.7342599  94.1570762   9.9314092  61.1257839 103.4037752  26.9533659
  60.2384618 103.0663673  27.0760058  61.6956390 102.6720783  27.1902424
  42.7786986  99.7361843  20.2776710  43.4658026  99.4223573  19.6897725
  42.6235115 100.6403208  20.0043961  47.5821709  94.6252040  24.7061734
  47.4979897  94.0177709  23.9712144  46.7604415  95.1161058  24.7071230
  54.6558993 108.0639204  23.9194902  54.5829164 108.8694175  24.4314206
  54.2136386 108.2631170  23.0942923  54.4448772 107.3010974  17.4297723
  53.6616294 107.8432654  17.5235948  55.1441517 107.8184954  17.8291965
  57.7545422  93.1105603  20.0731929  58.2514122  92.3575566  19.7532999
  56.9832404  93.1469920  19.5075138  65.6075180  98.8145969  21.7150220
  65.5965056  99.6970684  21.3444153  64.7392559  98.4617520  21.5204757
  57.1157676 107.9626038  26.0753061  57.8285648 108.5973503  26.0028962
  56.6247705 108.0589904  25.2593062  58.8375203 101.8677291  17.6470352
  57.9031482 101.9878753  17.4775056  59.0151872 100.9649757  17.3830362
  54.3380391  95.2522986  19.8003613  53.9678179  94.6994027  20.4884519
  54.8339484  94.6481120  19.2478613  62.2247754  97.7094610  18.1820386
  62.6908207  98.5422601  18.1080689  62.6755255  97.2439591  18.8865645
  52.1669590 105.7120481  26.8958631  52.8679049 106.3456964  27.0488026
  51.6964705 106.0535213  26.1354271  60.2923986 104.0538431  15.1806538
  60.5683829 103.9395026  16.0900412  59.4228484 103.6555916  15.1418711
  60.1964417  90.0775197  22.2211288  59.2827497  90.3079424  22.3893495
  60.6257519  90.1613641  23.0725320  59.9670876  98.2665089  24.7211182
  59.3142326  98.5140996  24.0663634  60.3451256  97.4529227  24.3873659
  56.9278050 108.3024782  18.8239352  57.1100444 107.4846438  19.2867104
  57.7511036 108.5192474  18.3864242  57.2620215 107.2292967  16.0854400
  57.7907981 106.7185422  15.4724563  57.5248435 106.9135497  16.9499933
  56.0158449  99.0084900  31.2077219  55.3399086  98.9079029  31.8779594
  56.8386083  98.8524114  31.6713216  47.7637308 105.2456836  23.8289734
  48.3490745 104.5000524  23.9617638  47.5662146 105.5560793  24.7126398
  50.6175963 108.2808084  18.8452176  49.9486338 108.7654211  18.3616216
  50.4788833 108.5277304  19.7595555  42.3554962  97.8162437  22.5494177
  42.3939062  97.2826027  23.3431295  41.8495255  97.2897642  21.9305154
  54.7581232 110.3151827  25.4434835  55.3099540 110.4783449  26.2083920
  55.0987425 110.9056265  24.7714860  49.7345725  92.6626977  26.0456719
  49.7987051  93.5241808  25.6334117  49.6712845  92.0500979  25.3129078
  49.2097997  94.7350110  29.6929754  49.8370036  94.3527187  30.3067278
  48.3525916  94.5164312  30.0585446  59.6092106 105.1413085  31.2983489
  60.1532010 105.7543043  30.8038444  59.0278951 105.6992663  31.8150502
  45.9863540  96.5426539  15.6248109  46.2816981  95.6337217  15.5715162
  45.0851576  96.5214278  15.3029111  57.8949619 108.2633803  22.4298517
  57.7700758 107.4623543  21.9209462  58.5528710 108.7579996  21.9412487
  49.5157787  94.6182535  21.6075657  48.7944373  95.2318503  21.4683130
  50.3051043  95.1540300  21.5292303  59.9584527 106.0642823  24.0578067
  59.0114863 105.9448174  23.9856394  60.3067300 105.1765321  24.1404328
  52.3184101  91.9536962  27.8816309  52.8418502  92.1999258  28.6442618
  52.0996434  92.7856997  27.4619446  47.7151382  94.2240636  15.7487434
  47.3864088  93.3438015  15.5662540  48.0690752  94.1688305  16.6363823
  56.9630961 105.8595539  20.2582419  56.8155923 104.9312247  20.4389989
  57.7884454 105.8815630  19.7739494  50.8293205  94.5113606  16.1162911
  51.1689277  95.0399528  15.3941520  51.2765325  94.8494012  16.8921478
  60.5665082 106.6824098  21.3447292  61.4911630 106.4766959  21.2071743
  60.3980386 106.4340499  22.2536633  53.5236646  92.8950657  25.5665979
  53.1833466  92.0958470  25.9686659  52.8175652  93.1952368  24.9942813
  54.1753117  89.9799969  24.0193302  54.9979187  89.5060448  23.8972193
  54.4191181  90.7590453  24.5191989  52.8161352  93.0088228  14.3156204
  53.5369714  93.3869481  13.8119921  52.1926656  93.7277105  14.4191182
  56.9592475  93.7133377  15.2514536  57.1756089  94.5958015  14.9503365
  56.4786542  93.3219590  14.5220178  51.6991696  96.6719090  21.8285281
  51.5536277  96.9859393  22.7209563  51.2216900  97.2903990  21.2756180
  53.5588079  93.6621638  21.8766171  53.5449648  92.7662731  21.5398469
  54.2760507  93.6692302  22.5104457  55.4114210  94.0958978  23.9219298
  55.1531988  95.0176049  23.9203628  54.8799250  93.6989413  24.6119762
  60.3560399 107.2009765  16.7009383  60.5297276 106.6356188  15.9483236
  60.8489290 108.0010660  16.5188873  46.1737358  99.2124434  24.7672942
  45.6290826  99.9884242  24.8993217  47.0516708  99.5595239  24.6092064
  52.9624975  92.5436018  17.1453741  53.0840886  91.6152665  17.3444628
  52.6727017  92.5574704  16.2332056  55.8316165  90.2290929  20.2820461
  55.8537862  90.2930262  19.3272440  56.2484224  89.3895437  20.4760967
  66.2099790  99.9646188  18.3199683  66.6530936  99.2153514  17.9218806
  65.3326300  99.9556325  17.9373415  61.3435571 106.5176530  13.8006282
  62.0386476 107.1383222  14.0193596  61.6858721 105.6671881  14.0758660
  46.9603380  98.3394331  27.6603099  46.2185116  98.4876966  28.2467730
  46.6396125  98.6002596  26.7969849  63.2426994 103.9676235  15.3293612
  63.7678318 104.3063508  14.6042933  63.1549347 103.0323251  15.1456747
  54.9047043 107.8810309  27.4583489  55.2134169 107.6359456  28.3306189
  55.7022525 108.0856947  26.9702359  54.9267655 110.0348219  19.6888866
  54.4872645 109.5424597  20.3821722  55.6775772 109.4921186  19.4480941
  47.4059994 106.2259759  19.6913494  48.2318014 105.9263531  19.3112137
  47.0554046 105.4567382  20.1403282  52.3741527 105.5786228  21.7611167
  51.7521536 104.9156933  21.4613395  53.0446394 105.6047360  21.0784815
  45.6068599 104.1446086  20.6502427  44.7700507 103.7168260  20.4686429
  45.5792244 104.3378529  21.5873219  52.4466055  94.0568016  31.3543673
  52.4954210  94.9330138  30.9721443  52.9888569  93.5145409  30.7815317
  62.9320900 104.6009139  30.6344810  62.1416444 104.5833278  30.0949310
  62.6954255 105.1397433  31.3893847  63.0518775 101.4501605  27.9477539
  63.1016780 101.2851613  28.8893062  62.9432699 100.5828864  27.5575420
  51.9355034 104.1290151  15.2369628  52.0843154 104.8125615  14.5836301
  52.7421477 104.1095241  15.7519084  60.3422538  97.4332533  29.2636846
  61.2432400  97.2938998  28.9720843  60.4170512  97.5986988  30.2035023
  54.6765343  94.8099388  28.1090032  53.8068652  95.1032954  27.8372621
  54.9124823  95.3939833  28.8297296  64.5536972 103.8698547  28.1919561
  64.2621780 104.2328527  29.0283021  63.9409103 103.1565555  28.0132893
  65.7532654 101.4351427  20.7122131  66.5879546 101.8741231  20.8759691
  65.8891783 100.9590080  19.8930377  62.8024160  98.9931161  26.6599618
  63.2778282  99.1858808  25.8518470  61.8789726  99.0490347  26.4143002
  49.6907667 100.1555329  16.2430697  49.4453709  99.2517659  16.4410907
  49.8603582 100.1572479  15.3010175  57.3804377  91.0279005  25.6255452
  57.8986321  91.7640032  25.3001941  57.0259510  91.3342998  26.4602212
  48.9603315  95.8883686  13.7416858  48.2672559  95.9628041  13.0856894
  48.7155066  95.1244030  14.2638375  57.6316971  87.4479288  21.1456349
  57.9118725  86.7802477  21.7716776  58.4167578  87.6408383  20.6331013
  55.4350440 106.6238281  12.7081375  54.8624407 107.2428469  12.2551847
  56.0083233 107.1737643  13.2421297  61.5025829  95.8696922  24.8927924
  62.4543252  95.9695019  24.9140148  61.3329280  95.0775190  25.4026008
  59.5240209  92.9552505  25.0787325  58.9290141  93.2357517  24.3833814
  59.2389906  93.4446406  25.8504066  58.6547699 106.9075432  13.8389958
  59.5878372 106.8420993  14.0422833  58.5670912 107.7431698  13.3804490
  63.9813907  99.0903041  24.0070224  63.9490227  98.1519042  24.1929908
  64.5914531  99.1687078  23.2736049  55.8197238  97.9599094  10.0497428
  56.7656343  97.8305302  10.1185846  55.4411483  97.2213756  10.5266856
  64.1308396  95.8814085  24.0528507  63.6147444  95.0972541  23.8658436
  65.0148344  95.5532801  24.2175026  61.7919123  89.6255100  20.0124320
  61.5943944  89.3170188  20.8967652  62.4018828  90.3516739  20.1422249
  69.7990457 100.1519048  23.1476261  70.5293845  99.8904336  23.7083964
  69.1897402  99.4147770  23.1878329  67.8805754  98.2926911  23.7450712
  67.1538918  98.1582876  23.1367203  67.4653041  98.6003739  24.5507430
  55.7035931 102.0116840  31.5098085  56.6238940 102.1895439  31.7038131
  55.6685514 101.0672886  31.3577784  54.0040155  95.8849071   9.9852313
  53.0971611  95.5882183  10.0615027  54.2816136  95.5878889   9.1186599
  44.9218096  97.2055434  20.4351359  44.6020880  96.3520742  20.1425733
  44.3751524  97.4204012  21.1909327  48.6998003  99.9217875  24.1520866
  48.9184013 100.8534983  24.1708900  49.1123777  99.5625849  24.9375670
  55.6202221  90.4285960  16.1396554  54.8102949  90.0833045  16.5151800
  56.3086638  90.1193504  16.7284166  57.5492769  89.5064007  17.7620851
  58.1023808  89.9259461  18.4210874  57.7862856  88.5799755  17.8043807
  53.5725868  95.4951081  33.5423615  53.4722595  96.4445438  33.4735706
  53.3547410  95.1669320  32.6699685  52.7738940  92.7436006  10.1264292
  53.6358104  93.0690904  10.3860110  52.9589284  91.9567502   9.6137358
  44.7906356 100.8258345  22.4044481  44.0969827 100.4112298  21.8914435
  45.5379347 100.8678882  21.8077900  60.9271576  91.6164532  17.2699515
  60.3470245  92.2749336  16.8877568  60.6607509  90.7941877  16.8586933
  59.3775143  91.0169590  19.4720836  59.8774921  91.1286125  18.6635154
  60.0210751  90.7130643  20.1121644  53.4357138  98.9248220  32.3588677
  52.9524220  99.7248580  32.5652566  53.5218078  98.9356164  31.4056121
  46.7043098 100.7576599  20.2810496  46.6813786 100.8564287  19.3292379
  47.0143735 101.6041750  20.6027662  49.3630476 102.8152754  24.3957110
  50.3173730 102.7836697  24.3287042  49.1643000 102.3543378  25.2107336
  49.9529858 101.3853870  26.9627908  50.7722747 101.8797949  26.9862745
  50.2266666 100.4685838  26.9345475  59.7096454  93.7764623  16.3255863
  58.8222309  94.0614273  16.1076058  60.1250443  93.6158386  15.4783140
  63.0610990  93.8011144  20.0410203  63.8371381  94.2907596  20.3134820
  62.3359125  94.2269198  20.4982072  65.4983549  94.5138763  21.0984143
  66.0928040  94.2734499  20.3877452  65.5710133  93.7945893  21.7257680
  47.7180705 108.3572374  21.4127308  47.5835173 107.5972775  20.8465306
  47.3012767 109.0813274  20.9456097  59.6837478  99.2919159  16.5406154
  59.6272679  99.7487710  15.7013786  60.2365820  98.5309843  16.3628996
  63.4942284  95.0808890  17.3656273  63.2379218  94.6805526  18.1964481
  62.8695152  95.7952684  17.2406412  67.8054622  97.8204964  19.8727565
  67.2454180  97.8898153  20.6459127  67.1998125  97.6445948  19.1527061
  50.8749831 109.2541691  21.6245751  50.7582215 110.1987123  21.5224441
  50.0542277 108.9515252  22.0131550  60.7626365 103.9791827  12.4702344
  61.5971969 103.5473025  12.2879818  60.6010708 103.8073840  13.3979238
  60.4172257 100.4823940  13.8358683  60.3621061 100.3168211  12.8947127
  59.7918313 101.1899973  13.9920873  45.2064772  95.7192004  27.6620105
  45.8523636  95.2090958  28.1507330  44.9981923  96.4560686  28.2363530
  57.7318165 102.7872852  33.1612246  58.6009324 102.9613504  32.7998881
  57.2524916 103.6067269  33.0387975  53.7268383  89.9832049  13.4144001
  53.7147053  90.9273889  13.5712272  54.6191805  89.8002194  13.1203462
  51.9004345 109.9069953  24.8401679  52.8031591 109.9393563  25.1568174
  51.6741715 108.9770404  24.8548015  53.6557947 108.6600939  21.5011758
  52.7053578 108.6602801  21.3876130  53.9590433 107.9133674  20.9847792
  57.5420502  86.5774825  17.6689938  56.7752898  86.0233312  17.8146620
  57.9531207  86.6496694  18.5304090  49.5462263  92.8659621  31.7595119
  50.4093725  92.5096426  31.9698444  48.9727674  92.5273516  32.4470524
  69.3910640 114.4961478  22.5657520  70.0289050 114.3768225  21.8620860
  69.2731483 115.4442322  22.6245472  66.2000347 114.4488906  22.5019045
  65.8618858 114.3329970  21.6139580  67.0690115 114.0480071  22.4820051
  66.6820130 115.6023757  28.4605250  66.6708770 115.2076556  27.5885754
  66.8440769 114.8689830  29.0539022  59.6051594 117.7975574  21.3300156
  60.3972886 117.4566398  20.9146456  59.8448244 117.9070549  22.2502310
  63.4027391 118.3860869  27.4084434  63.1117257 119.2906500  27.2931101
  64.0384375 118.4277397  28.1228504  64.3283598 115.7637718  23.9985794
  64.9247170 115.5393740  23.2842757  64.3858569 115.0222463  24.6011242
  71.8685756 105.8709739  25.0038315  71.5369081 106.7405150  24.7799530
  71.2731370 105.5546023  25.6832346  68.3617276 118.0722285  24.4034228
  68.0617999 118.9747324  24.2950035  68.0168335 117.8054468  25.2555381
  61.8129757 114.5236082  20.4370933  60.8880254 114.3912296  20.6448624
  62.0614170 115.3030301  20.9340875  71.7614420 110.5904825  22.0831665
  70.8531297 110.5220233  21.7890426  71.7102015 111.0676770  22.9113491
  59.1738568 114.1669355  21.2714722  59.3030949 114.4203834  22.1854133
  58.4936020 114.7597063  20.9519377  65.8355285 112.0094471  30.0266563
  65.0588619 112.5688391  30.0169427  66.4745848 112.4951254  30.5481433
  73.6276066 108.7921263  23.8609539  72.9850446 109.0853797  23.2149334
  73.1230994 108.6774184  24.6662736  64.0901658 114.8179924  29.5884530
  64.8316342 115.3564968  29.3119353  63.3838643 115.4446213  29.7456082
  69.5656997 116.9609064  28.1856691  69.9740353 116.5191475  27.4411324
  68.8434259 116.3861692  28.4390884  65.9188067 111.8981671  25.5590248
  66.7649263 112.3221085  25.7024897  65.8586705 111.2415295  26.2528811
  69.0687513 109.5586040  27.2171422  68.8248445 110.3128100  26.6805698
  69.3447443 109.9371387  28.0518669  71.0225975 116.1024652  25.8948687
  71.2342871 116.7456412  25.2183068  70.9755724 115.2686968  25.4270617
  68.6252204 108.7142473  22.7985260  67.7636683 109.0123726  23.0901997
  68.6514639 108.9312871  21.8666292  62.3337855 116.8056145  22.1438828
  62.9039212 117.2343413  21.5056313  62.9245967 116.5238729  22.8423014
  62.8263021 111.9719572  30.3899840  62.1961682 112.6535853  30.6235237
  62.7199109 111.8602654  29.4452978  58.1207994 111.6391368  21.3165764
  57.3307048 111.8948897  20.8405875  58.6119241 112.4539706  21.4217804
  60.0722739 112.0035947  18.2749241  59.2753902 112.1154642  18.7932736
  59.8448331 112.3422600  17.4090131  65.9028407 118.5280651  26.2231755
  65.9672839 118.9901058  27.0589927  65.1939331 117.8978016  26.3514065
  56.4045697 111.8921859  23.7480755  56.6553735 112.7768869  24.0138331
  56.9405245 111.7126460  22.9755847  62.1043764 106.2740338  32.7525091
  61.7110710 105.7206537  33.4272735  62.9209904 106.5850916  33.1431608
  65.0211725 107.6898217  30.3445347  65.7621438 108.2905370  30.2649810
  65.2529648 106.9475855  29.7863390  60.1653063 112.8754584  28.6223577
  60.0506578 111.9739842  28.9230676  59.3097581 113.1218281  28.2708394
  67.2444901 120.8172325  30.2211078  66.8008755 120.0308703  29.9031982
  67.9062114 121.0051475  29.5554968  62.0032022 122.3468126  24.7471756
  62.5539447 122.2185190  23.9748750  61.1643498 122.6463015  24.3966649
  69.3426139 121.0975125  28.2492479  69.3244614 121.9184006  27.7572748
  70.2646059 120.9729200  28.4742620  65.7999193 118.6119254  29.0915987
  66.3327530 117.8507542  28.8615295  65.2713274 118.3192906  29.8340142
  68.9668888 103.7179320  24.6209629  68.6233157 104.6080962  24.5448740
  69.3347851 103.5280978  23.7579214  66.5166282 108.5537632  18.1867303
  65.6607878 108.1644482  18.0072941  66.9293234 108.6329593  17.3267088
  68.0465428 106.0883975  22.5858862  67.5430224 106.0514110  21.7726668
  68.3396035 106.9976718  22.6455519  64.2908314 106.1722705  21.5925044
  65.1561311 105.9765514  21.2330933  64.3585823 105.9433057  22.5194401
  61.8970633 108.4024913  18.9641411  62.4714385 108.1800094  18.2314604
  62.4841616 108.4713607  19.7170012  64.1993301 105.2766162  17.6916480
  63.5457713 104.9615179  17.0673095  64.1573775 104.6541902  18.4176303
  67.4331041 111.7648095  22.0164128  66.5153603 111.9863042  21.8585816
  67.8491185 111.8394406  21.1575835  70.7656554 102.9772879  19.7227367
  71.0715430 102.1170243  19.4353282  71.4909159 103.5690499  19.5226361
  57.0580910 113.3803566  18.1108965  56.8605310 112.7872926  17.3860031
  56.5027574 113.0755776  18.8284903  65.0377633 113.2726672  20.2303558
  65.0926243 112.3200509  20.1546034  64.2268835 113.4286111  20.7144856
  62.9769993 111.8903732  17.9893937  62.1637859 112.1897903  18.3959129
  63.4728988 111.4959421  18.7068419  68.5744205 112.3545556  26.8208831
  68.9293593 112.5817030  27.6803296  69.2216336 112.6863933  26.1986086
  62.4684068 109.4622088  23.6055172  63.1083447 109.3210847  22.9078135
  61.6361599 109.1756601  23.2293774  59.4712685 109.4322412  18.3828158
  59.7319502 110.3467746  18.2737319  60.2929857 108.9646855  18.5324771
  60.9437610 110.8460170  25.5526983  61.6160663 110.6377532  24.9039632
  60.1167396 110.6482256  25.1132215  66.8463182 107.4722111  27.5692644
  66.1991097 108.1712060  27.4757120  67.6164197 107.9058255  27.9368892
  70.2541980 117.7370963  30.6443197  70.1027486 117.5081514  29.7273281
  70.2446659 118.6941564  30.6574542  67.0227316 115.3102875  25.6289464
  67.9519376 115.4614035  25.4558431  66.6018346 115.3986896  24.7738110
  65.8215648 119.3353540  23.3988001  65.6826734 118.9672324  24.2713939
  65.0330244 119.8501179  23.2271959  61.3465107 114.1202773  26.3129420
  61.2084905 113.3883011  26.9140959  62.2570031 114.0311673  26.0313608
  63.9747408 113.8322732  25.8013100  64.6847026 113.1915924  25.7599718
  63.9316716 114.0835627  26.7239281  71.9634186 120.7690085  28.7219679
  71.9046733 120.0849305  28.0550262  72.3653705 121.5109075  28.2700305
  62.6876342 110.8187950  27.6208739  62.1513699 110.3678688  28.2730336
  62.0993050 110.9533859  26.8779204  71.9651594 118.7329669  26.9533659
  71.0778372 118.3955591  27.0760058  72.5350145 118.0012700  27.1902424
  53.6180741 115.0653761  20.2776710  54.3051781 114.7515491  19.6897725
  53.4628870 115.9695126  20.0043961  58.4215463 109.9543958  24.7061734
  58.3373652 109.3469627  23.9712144  57.5998169 110.4452976  24.7071230
  68.5939177 108.4397521  20.0731929  69.0907876 107.6867483  19.7532999
  67.8226158 108.4761838  19.5075138  65.1774146 110.5814904  19.8003613
  64.8071933 110.0285944  20.4884519  65.6733238 109.9773038  19.2478613
  63.0063344 121.0412399  26.8958631  63.7072804 121.6748882  27.0488026
  62.5358459 121.3827131  26.1354271  71.0358172 105.4067115  22.2211288
  70.1221251 105.6371341  22.3893495  71.4651273 105.4905559  23.0725320
  70.8064630 113.5957007  24.7211182  70.1536080 113.8432914  24.0663634
  71.1845010 112.7821145  24.3873659  66.8552203 114.3376818  31.2077219
  66.1792840 114.2370947  31.8779594  67.6779837 114.1816031  31.6713216
  58.6031062 120.5748754  23.8289734  59.1884499 119.8292442  23.9617638
  58.4055901 120.8852711  24.7126398  53.1948717 113.1454354  22.5494177
  53.2332816 112.6117945  23.3431295  52.6889010 112.6189560  21.9305154
  60.5739479 107.9918895  26.0456719  60.6380806 108.8533726  25.6334117
  60.5106600 107.3792896  25.3129078  60.0491752 110.0642027  29.6929754
  60.6763791 109.6819105  30.3067278  59.1919671 109.8456229  30.0585446
  70.4485860 120.4705003  31.2983489  70.9925764 121.0834961  30.8038444
  69.8672705 121.0284581  31.8150502  56.8257295 111.8718456  15.6248109
  57.1210736 110.9629135  15.5715162  55.9245330 111.8506196  15.3029111
  60.3551542 109.9474453  21.6075657  59.6338127 110.5610421  21.4683130
  61.1444797 110.4832218  21.5292303  63.1577855 107.2828880  27.8816309
  63.6812257 107.5291176  28.6442618  62.9390188 108.1148914  27.4619446
  58.5545136 109.5532554  15.7487434  58.2257842 108.6729933  15.5662540
  58.9084507 109.4980223  16.6363823  64.3630400 108.2242575  25.5665979
  64.0227220 107.4250388  25.9686659  63.6569406 108.5244286  24.9942813
  65.0146872 105.3091887  24.0193302  65.8372941 104.8352365  23.8972193
  65.2584935 106.0882371  24.5191989  62.5385451 112.0011008  21.8285281
  62.3930031 112.3151311  22.7209563  62.0610654 112.6195908  21.2756180
  64.3981834 108.9913556  21.8766171  64.3843402 108.0954649  21.5398469
  65.1154262 108.9984219  22.5104457  66.2507964 109.4250896  23.9219298
  65.9925742 110.3467967  23.9203628  65.7193005 109.0281330  24.6119762
  57.0131113 114.5416352  24.7672942  56.4684581 115.3176160  24.8993217
  57.8910463 114.8887157  24.6092064  63.8018730 107.8727936  17.1453741
  63.9234641 106.9444582  17.3444628  63.5120772 107.8866622  16.2332056
  66.6709920 105.5582846  20.2820461  66.6931617 105.6222180  19.3272440
  67.0877979 104.7187355  20.4760967  57.7997135 113.6686248  27.6603099
  57.0578871 113.8168884  28.2467730  57.4789879 113.9294514  26.7969849
  65.7440797 123.2102227  27.4583489  66.0527924 122.9651373  28.3306189
  66.5416279 123.4148865  26.9702359  56.4462353 119.4738004  20.6502427
  55.6094262 119.0460178  20.4686429  56.4185999 119.6670447  21.5873219
  63.2859809 109.3859933  31.3543673  63.3347965 110.2622056  30.9721443
  63.8282323 108.8437326  30.7815317  73.7714655 119.9301057  30.6344810
  72.9810198 119.9125195  30.0949310  73.5348009 120.4689350  31.3893847
  73.8912530 116.7793523  27.9477539  73.9410535 116.6143530  28.8893062
  73.7826453 115.9120782  27.5575420  71.1816292 112.7624451  29.2636846
  72.0826155 112.6230916  28.9720843  71.2564267 112.9278906  30.2035023
  65.5159098 110.1391306  28.1090032  64.6462407 110.4324872  27.8372621
  65.7518578 110.7231751  28.8297296  75.3930727 119.1990465  28.1919561
  75.1015535 119.5620445  29.0283021  74.7802858 118.4857473  28.0132893
  73.6417915 114.3223079  26.6599618  74.1172036 114.5150725  25.8518470
  72.7183480 114.3782265  26.4143002  68.2198131 106.3570923  25.6255452
  68.7380075 107.0931950  25.3001941  67.8653264 106.6634916  26.4602212
  68.4710726 102.7771205  21.1456349  68.7512479 102.1094394  21.7716776
  69.2561332 102.9700301  20.6331013  72.3419584 111.1988839  24.8927924
  73.2937007 111.2986937  24.9140148  72.1723034 110.4067108  25.4026008
  70.3633963 108.2844422  25.0787325  69.7683895 108.5649435  24.3833814
  70.0783660 108.7738323  25.8504066  74.9702150 111.2106002  24.0528507
  74.4541199 110.4264459  23.8658436  75.8542099 110.8824719  24.2175026
  72.6312877 104.9547018  20.0124320  72.4337698 104.6462106  20.8967652
  73.2412583 105.6808657  20.1422249  66.5429685 117.3408758  31.5098085
  67.4632695 117.5187357  31.7038131  66.5079268 116.3964803  31.3577784
  55.7611850 112.5347352  20.4351359  55.4414634 111.6812660  20.1425733
  55.2145278 112.7495930  21.1909327  59.5391758 115.2509793  24.1520866
  59.7577767 116.1826900  24.1708900  59.9517531 114.8917767  24.9375670
  66.4595975 105.7577878  16.1396554  65.6496704 105.4124963  16.5151800
  67.1480392 105.4485422  16.7284166  68.3886524 104.8355925  17.7620851
  68.9417562 105.2551378  18.4210874  68.6256610 103.9091673  17.8043807
  64.4119623 110.8242998  33.5423615  64.3116350 111.7737355  33.4735706
  64.1941165 110.4961237  32.6699685  55.6300110 116.1550263  22.4044481
  54.9363581 115.7404216  21.8914435  56.3773101 116.1970800  21.8077900
  70.2168897 106.3461508  19.4720836  70.7168675 106.4578042  18.6635154
  70.8604505 106.0422561  20.1121644  64.2750893 114.2540137  32.3588677
  63.7917975 115.0540497  32.5652566  64.3611832 114.2648082  31.4056121
  57.5436853 116.0868517  20.2810496  57.5207541 116.1856204  19.3292379
  57.8537489 116.9333668  20.6027662  60.2024230 118.1444672  24.3957110
  61.1567484 118.1128614  24.3287042  60.0036754 117.6835296  25.2107336
  60.7923613 116.7145788  26.9627908  61.6116502 117.2089867  26.9862745
  61.0660420 115.7977756  26.9345475  56.0458527 111.0483922  27.6620105
  56.6917390 110.5382876  28.1507330  55.8375678 111.7852604  28.2363530
  68.5711919 118.1164769  33.1612246  69.4403079 118.2905422  32.7998881
  68.0918670 118.9359186  33.0387975  62.7398099 125.2361870  24.8401679
  63.6425346 125.2685481  25.1568174  62.5135469 124.3062321  24.8548015
  68.3814257 101.9066743  17.6689938  67.6146653 101.3525230  17.8146620
  68.7924962 101.9788612  18.5304090  60.3856018 108.1951539  31.7595119
  61.2487479 107.8388344  31.9698444  59.8121428 107.8565434  32.4470524
  72.9437519 121.6032256  32.7525091  72.5504464 121.0498454  33.4272735
  73.7603659 121.9142834  33.1431608  75.8605480 123.0190135  30.3445347
  76.6015193 123.6197288  30.2649810  76.0923402 122.2767773  29.7863390
  70.8885506 125.3933945  29.6929754  71.5157545 125.0111022  30.3067278
  70.0313425 125.1748147  30.0585446  74.1253564 124.7151851  31.3543673
  74.1741719 125.5913974  30.9721443  74.6676078 124.1729244  30.7815317
  75.2513377 126.1534916  33.5423615  75.1510104 127.1029273  33.4735706
  75.0334919 125.8253155  32.6699685  66.8852281 126.3775840  27.6620105
  67.5311145 125.8674794  28.1507330  66.6769432 127.1144521  28.2363530
  71.2249772 123.5243457  31.7595119  72.0881234 123.1680262  31.9698444
  70.6515183 123.1857351  32.4470524  28.6059170  36.4584537  15.4464986
  28.5471716  35.7743757  14.7795569  29.0078688  37.2003527  14.9945612
  27.0910844  36.1599454  18.0228796  27.6350748  36.7729413  17.5283751
  26.5097689  36.7179033  18.5395809  30.4139638  35.6195509  17.3590117
  29.6235182  35.6019647  16.8194616  30.1772993  36.1583802  18.1139154
  32.0355710  34.8884916  14.9164867  31.7440518  35.2514897  15.7528328
  31.4227841  34.1751925  14.7378199  25.2136902  33.8059221  19.8857552
  26.0828062  33.9799874  19.5244187  24.7343654  34.6253638  19.7633282
  36.8729378  45.5147847   9.2902827  37.5107788  45.3954595   8.5866167
  36.7550221  46.4628691   9.3490779  33.6819084  45.4675275   9.2264352
  33.3437596  45.3516340   8.3384886  34.5508853  45.0666440   9.2065358
  34.1638867  46.6210127  15.1850557  34.1527508  46.2262925  14.3131061
  34.3259507  45.8876200  15.7784329  27.0870332  48.8161943   8.0545463
  27.8791624  48.4752768   7.6391762  27.3266982  48.9256918   8.9747616
  30.8846128  49.4047239  14.1329741  30.5935994  50.3092870  14.0176407
  31.5203113  49.4463766  14.8473811  31.8102335  46.7824087  10.7231101
  32.4065908  46.5580110  10.0088064  31.8677307  46.0408833  11.3256549
  41.8279074  43.1774534   7.2689013  42.5604246  42.6073751   7.5026843
  41.0718429  42.7896135   7.7095519  39.3504494  36.8896108  11.7283622
  39.0187819  37.7591519  11.5044837  38.7550107  36.5732392  12.4077652
  35.8436014  49.0908654  11.1279535  35.5436737  49.9933693  11.0195342
  35.4987073  48.8240838  11.9800688  39.2433157  41.6091195   8.8076972
  38.3350035  41.5406603   8.5135733  39.1920753  42.0863139   9.6358798
  30.8256793  55.8552975   4.0950502  30.7480823  56.8060800   4.1738983
  30.2218437  55.5098847   4.7525429  33.3174023  43.0280840  16.7511869
  32.5407357  43.5874760  16.7414734  33.9564586  43.5137623  17.2726740
  41.1094804  39.8107633  10.5854846  40.4669184  40.1040166   9.9394641
  40.6049732  39.6960553  11.3908043  31.5720395  45.8366293  16.3129836
  32.3135080  46.3751337  16.0364660  30.8657381  46.4632582  16.4701388
  37.0475735  47.9795434  14.9101998  37.4559091  47.5377844  14.1656630
  36.3252997  47.4048061  15.1636191  33.4006805  42.9168041  12.2835555
  34.2468000  43.3407454  12.4270204  33.3405443  42.2601665  12.9774118
  37.3704550  48.5396625   8.6654287  36.7413412  48.7042339   7.9630355
  36.9830212  48.9538234   9.4365251  41.2493782  49.4751062   6.0198651
  40.5644820  49.8549964   5.4695684  41.3337631  50.0846389   6.7530598
  36.5506250  40.5772409  13.9416728  36.3067182  41.3314470  13.4051004
  36.8266181  40.9557757  14.7763976  38.5044713  47.1211021  12.6193994
  38.7161608  47.7642781  11.9428375  38.4574461  46.2873338  12.1515924
  29.8156593  47.8242514   8.8684135  30.3857950  48.2529783   8.2301620
  30.4064704  47.5425099   9.5668321  30.3081759  42.9905942  17.1145146
  29.6780420  43.6722223  17.3480543  30.2017847  42.8789023  16.1698285
  39.6190541  49.9982977  10.7916351  40.4407985  49.5963164  10.5099033
  39.6152944  49.8951211  11.7432467  33.3847145  49.5467020  12.9477062
  33.4491577  50.0087427  13.7835234  32.6758068  48.9164385  13.0759372
  47.7096534  46.3421725   7.1401323  46.9560243  45.7729123   6.9845327
  47.8444075  46.3084390   8.0871958  29.5862502  37.2926708  19.4770397
  29.1929447  36.7392906  20.1518042  30.4028642  37.6037286  19.8676915
  28.3619444  51.8476322   5.4706720  28.5386073  52.7694287   5.2827704
  29.1576278  51.5334741   5.9001100  32.5030463  38.7084587  17.0690654
  33.2440176  39.3091740  16.9895116  32.7348386  37.9662224  16.5108697
  27.6471801  43.8940954  15.3468884  27.5325316  42.9926211  15.6475983
  26.7916319  44.1404651  14.9953700  34.7263639  51.8358694  16.9456384
  34.2827493  51.0495073  16.6277289  35.3880852  52.0237845  16.2800275
  29.4850760  53.3654496  11.4717063  30.0358185  53.2371559  10.6994057
  28.6462236  53.6649385  11.1211956  36.8244877  52.1161494  14.9737786
  36.8063352  52.9370375  14.4818055  37.7464797  51.9915569  15.1987927
  33.2817931  49.6305624  15.8161294  33.8146268  48.8693912  15.5860602
  32.7532012  49.3379275  16.5585448  39.6263490  46.9540637   8.4447152
  38.9687164  47.6439898   8.5327281  40.4303889  47.3437068   8.7881139
  38.4368948  45.3085009   6.4951094  38.9500830  45.9415001   6.9972804
  39.0870172  44.7086205   6.1294454  34.9149779  42.7834465   8.7409435
  33.9972341  43.0049412   8.5831123  35.3309923  42.8580775   7.8821142
  39.2030745  50.2891011   4.6230237  38.7493072  49.4481921   4.6795427
  38.5724711  50.9252409   4.9605017  37.6463684  52.1267507   5.5580055
  37.9386658  52.6872564   4.8392420  38.1562304  52.4196068   6.3133214
  32.6097309  52.9047858   6.6473508  32.5673488  53.1308705   5.7182040
  33.5260008  52.6711233   6.7959309  36.0562943  43.3731926  13.5454137
  36.4112331  43.6003399  14.4048603  36.7035074  43.7050303  12.9231392
  41.7860680  46.4950362   4.2503466  41.6478578  46.6851958   3.3224655
  41.4296899  47.2569745   4.7071517  41.8130059  48.5626889   9.2614738
  42.2466566  48.4702178  10.1097792  42.5261640  48.5384389   8.6234754
  35.5457954  52.1628983  10.7947838  35.5994977  52.7319919  11.5625554
  34.6772736  52.3330868  10.4301875  28.4256348  41.8646539  12.2772290
  29.0979401  41.6563901  11.6284938  27.5986134  41.6668625  11.8377522
  42.6745609  48.6050590  11.7947623  42.8681499  49.5096400  12.0406898
  42.5746227  48.1458009  12.6286208  34.3281920  38.4908480  14.2937950
  33.6809835  39.1898430  14.2002427  35.0982935  38.9244624  14.6614199
  37.7360718  48.7557332  17.3688504  37.5846224  48.5267884  16.4518587
  37.7265397  49.7127934  17.3819849  34.5046054  46.3289245  12.3534770
  35.4338114  46.4800405  12.1803737  34.0837084  46.4173266  11.4983417
  33.3034386  50.3539909  10.1233308  33.1645471  49.9858694  10.9959246
  32.5148982  50.8687549   9.9517266  33.8982538  55.4549006   1.4658844
  34.0734293  54.9837049   2.2804467  33.2115326  56.0814772   1.6940105
  34.8539601  49.7321512   7.5122146  34.5189434  49.6922282   8.4079795
  34.3543547  49.0666228   7.0392556  28.8283845  45.1389142  13.0374727
  28.6903643  44.4069381  13.6386266  29.7388768  45.0498042  12.7558914
  31.4566146  44.8509102  12.5258406  32.1665764  44.2102294  12.4845025
  31.4135454  45.1021996  13.4484587  39.4452924  51.7876455  15.4464986
  39.3865470  51.1035675  14.7795569  39.8472443  52.5295445  14.9945612
  30.1695080  41.8374319  14.3454046  29.6332437  41.3865058  14.9975642
  29.5811788  41.9720228  13.6024510  28.4643623  58.6038369   8.2398705
  28.7040221  59.2356893   8.9177723  27.6212820  58.2526409   8.5264064
  39.4470332  49.7516039  13.6778965  38.5597110  49.4141961  13.8005364
  40.0168883  49.0199070  13.9147731  32.9771485  54.4117491  10.6440208
  32.9041656  55.2172463  11.1559513  32.5348878  54.6109457   9.8188230
  32.7661265  53.6489261   4.1543030  31.9828786  54.1910941   4.2481255
  33.4654010  54.1663241   4.5537271  43.9287672  45.1624256   8.4395527
  43.9177548  46.0448972   8.0689460  43.0605051  44.8095807   8.2450064
  35.4370168  54.3104325  12.7998367  36.1498141  54.9451790  12.7274269
  34.9460197  54.4068191  11.9838369  30.4882082  52.0598769  13.6203938
  31.1891541  52.6935252  13.7733332  30.0177197  52.4013500  12.8599577
  38.2883368  44.6143376  11.4456488  37.6354818  44.8619284  10.7908941
  38.6663748  43.8007514  11.1118966  35.2490542  54.6503069   5.5484659
  35.4312936  53.8324725   6.0112411  36.0723528  54.8670762   5.1109549
  35.5832707  53.5771254   2.8099707  36.1120474  53.0663709   2.1969869
  35.8460927  53.2613785   3.6745240  34.3370941  45.3563187  17.9322525
  33.6611578  45.2557316  18.6024901  35.1598575  45.2002401  18.3958523
  26.0849800  51.5935124  10.5535041  26.6703237  50.8478812  10.6862945
  25.8874638  51.9039080  11.4371705  28.9388455  54.6286371   5.5697483
  28.2698831  55.1132499   5.0861523  28.8001325  54.8755592   6.4840862
  33.0793724  56.6630115  12.1680141  33.6312032  56.8261736  12.9329227
  33.4199917  57.2534552  11.4960166  27.5310490  41.0828397  16.4175060
  28.1582528  40.7005474  17.0312585  26.6738408  40.8642599  16.7830753
  37.9304598  51.4891372  18.0228796  38.4744502  52.1021330  17.5283751
  37.3491443  52.0470951  18.5395809  36.2162111  54.6112090   9.1543824
  36.0913251  53.8101830   8.6454769  36.8741202  55.1058284   8.6657794
  38.2797020  52.4121110  10.7823374  37.3327355  52.2926461  10.7101700
  38.6279793  51.5243608  10.8649635  30.6396593  38.3015249  14.6061616
  31.1630995  38.5477546  15.3687925  30.4208926  39.1335284  14.1864753
  35.2843453  52.2073826   6.9827726  35.1368415  51.2790534   7.1635296
  36.1096946  52.2293917   6.4984801  38.8877575  53.0302385   8.0692599
  39.8124122  52.8245247   7.9317050  38.7192878  52.7818786   8.9781940
  31.8449138  39.2428944  12.2911286  31.5045958  38.4436757  12.6931966
  31.1388144  39.5430655  11.7188119  33.7326702  40.4437265  10.6464605
  33.4744480  41.3654336  10.6448935  33.2011742  40.0467700  11.3365069
  38.6772891  53.5488053   3.4254690  38.8509768  52.9834475   2.6728543
  39.1701782  54.3488948   3.2434180  24.4949851  45.5602722  11.4918249
  23.9503319  46.3362530  11.6238523  25.3729201  45.9073526  11.3337370
  44.5312282  46.3124476   5.0444990  44.9743428  45.5631801   4.6464113
  43.6538792  46.3034612   4.6618722  39.6648063  52.8654817   0.5251588
  40.3598968  53.4861510   0.7438903  40.0071213  52.0150168   0.8003966
  25.2815873  44.6872618  14.3848406  24.5397609  44.8355253  14.9713036
  24.9608617  44.9480884  13.5215155  41.5639486  50.3154523   2.0538919
  42.0890811  50.6541795   1.3288239  41.4761839  49.3801538   1.8702054
  33.2259535  54.2288596  14.1828796  33.5346662  53.9837743  15.0551495
  34.0235017  54.4335235  13.6947666  33.2480147  56.3826506   6.4134172
  32.8085138  55.8902885   7.1067029  33.9988264  55.8399473   6.1726248
  25.7272486  52.5738047   6.4158800  26.5530506  52.2741819   6.0357444
  25.3766538  51.8045669   6.8648589  30.6954019  51.9264515   8.4856474
  30.0734029  51.2635220   8.1858702  31.3658886  51.9525647   7.8030122
  30.7678547  40.4046303  18.0788980  30.8166702  41.2808426  17.6966750
  31.3101061  39.8623696  17.5060623  41.2533393  50.9487426  17.3590117
  40.4628936  50.9311565  16.8194616  41.0166747  51.4875720  18.1139154
  41.3731268  47.7979893  14.6722846  41.4229273  47.6329900  15.6138368
  41.2645191  46.9307152  14.2820726  38.6635030  43.7810821  15.9882152
  39.5644893  43.6417285  15.6966150  38.7383004  43.9465275  16.9280330
  32.9977835  41.1577675  14.8335339  32.1281145  41.4511241  14.5617927
  33.2337316  41.7418120  15.5542602  42.8749464  50.2176834  14.9164867
  42.5834273  50.5806815  15.7528328  42.2621596  49.5043842  14.7378199
  44.0745147  47.7829714   7.4367437  44.9092038  48.2219518   7.6004998
  44.2104276  47.3068367   6.6175683  41.1236653  45.3409449  13.3844925
  41.5990774  45.5337095  12.5763777  40.2002218  45.3968635  13.1388309
  35.7016869  37.3757292  12.3500759  36.2198813  38.1118319  12.0247248
  35.3472002  37.6821286  13.1847518  39.8238322  42.2175209  11.6173231
  40.7755745  42.3173306  11.6385455  39.6541772  41.4253477  12.1271315
  37.8452701  39.3030792  11.8032632  37.2502633  39.5835805  11.1079120
  37.5602398  39.7924693  12.5749373  42.3026399  45.4381328  10.7315530
  42.2702720  44.4997329  10.9175214  42.9127023  45.5165365   9.9981355
  42.4520888  42.2292372  10.7773814  41.9359937  41.4450829  10.5903742
  43.3360836  41.9011089  10.9420333  48.1202949  46.4997335   9.8721567
  48.8506338  46.2382623  10.4329271  47.5109895  45.7626057   9.9123635
  46.2018246  44.6405198  10.4696018  45.4751410  44.5061163   9.8612510
  45.7865533  44.9482027  11.2752736  34.0248423  48.3595128  18.2343391
  34.9451432  48.5373727  18.4283438  33.9898006  47.4151173  18.0823091
  27.0210495  46.2696162  10.8766173  27.2396505  47.2013270  10.8954206
  27.4336269  45.9104137  11.6620976  31.8938361  41.8429368  20.2668922
  31.7935088  42.7923725  20.1981013  31.6759903  41.5147607  19.3944992
  31.7569631  45.2726507  19.0833983  31.2736712  46.0726867  19.2897872
  31.8430570  45.2834452  18.1301427  27.6842968  49.1631042  11.1202417
  28.6386222  49.1314984  11.0532349  27.4855492  48.7021665  11.9352643
  28.2742350  47.7332158  13.6873215  29.0935239  48.2276236  13.7108052
  28.5479158  46.8164126  13.6590782  43.8196041  40.8617050   7.8229450
  44.4140532  40.6212786   7.1122758  43.8922625  40.1424181   8.4502986
  26.0393197  54.7050661   8.1372615  25.9047665  53.9451062   7.5710613
  25.6225259  55.4291561   7.6701404  46.1267114  44.1683251   6.5972871
  45.5666672  44.2376440   7.3704433  45.5210617  43.9924236   5.8772367
  29.1962323  55.6019978   8.3491057  29.0794707  56.5465411   8.2469748
  28.3754769  55.2993540   8.7376857  23.5277265  42.0670291  14.3865412
  24.1736128  41.5569245  14.8752637  23.3194416  42.8038973  14.9608837
  36.0530657  49.1351139  19.8857552  36.9221816  49.3091791  19.5244187
  35.5737408  49.9545556  19.7633282  30.2216837  56.2548240  11.5646986
  31.1244084  56.2871850  11.8813481  29.9954207  55.3248691  11.5793322
  31.9770439  55.0079227   8.2257065  31.0266070  55.0081088   8.1121437
  32.2802925  54.2611961   7.7093099  27.8674756  39.2137909  18.4840426
  28.7306217  38.8574713  18.6943750  27.2940166  38.8751803  19.1715830
  47.7123133  60.8439765   9.2902827  48.3501542  60.7246512   8.5866167
  47.5943975  61.7920609   9.3490779  44.5212839  60.7967193   9.2264352
  44.1831350  60.6808258   8.3384886  45.3902607  60.3958358   9.2065358
  40.3799655  62.6502669   5.2161243  39.8164520  62.5592606   4.4477530
  40.2652050  61.8302574   5.6963735  45.0032622  61.9502045  15.1850557
  44.9921263  61.5554843  14.3131061  45.1653261  61.2168117  15.7784329
  37.9264086  64.1453861   8.0545463  38.7185378  63.8044686   7.6391762
  38.1660737  64.2548836   8.9747616  45.9599213  66.3173637   0.5275707
  45.3087193  66.9027718   0.1409721  46.7543576  66.8479832   0.5870745
  39.8854840  63.4062774   0.9262842  40.6585716  62.8591761   0.7875718
  40.2380239  64.2707024   1.1377303  41.7239883  64.7339157  14.1329741
  41.4329749  65.6384787  14.0176407  42.3596867  64.7755684  14.8473811
  42.6496090  62.1116005  10.7231101  43.2459662  61.8872027  10.0088064
  42.7071061  61.3700751  11.3256549  42.2221118  59.5655440  -1.4418708
  42.4746639  59.0436962  -2.2035245  41.2845677  59.4021586  -1.3392025
  47.2664401  58.5691219   6.3656035  48.0527490  58.1510642   6.0146452
  47.5303105  59.4737311   6.5337683  47.4374478  64.0064069   1.0644692
  46.8020311  64.0798696   1.7765596  47.1071885  64.5957668   0.3863771
  52.6672828  58.5066452   7.2689013  53.3998000  57.9365669   7.5026843
  51.9112184  58.1188052   7.7095519  41.9417407  61.4683546   0.7605667
  41.8253665  60.7928450   1.4286751  42.0519667  60.9815920  -0.0562180
  44.2848948  60.9293693   4.4652356  43.9207155  60.4024314   5.1765277
  45.1416064  60.5392162   4.2918841  50.1898248  52.2188026  11.7283622
  49.8581573  53.0883437  11.5044837  49.5943862  51.9024310  12.4077652
  43.9254435  55.9583593  -0.5386296  44.0928837  56.8263830  -0.1715825
  43.7351604  56.1210875  -1.4625006  46.6829768  64.4200572  11.1279535
  46.3830491  65.3225611  11.0195342  46.3380828  64.1532755  11.9800688
  40.1342249  60.8714369   7.1616239  39.2092746  60.7390583   7.3693931
  40.3826663  61.6508588   7.6586182  50.0826912  56.9383112   8.8076972
  49.1743789  56.8698521   8.5135733  50.0314508  57.4155057   9.6358798
  43.9043656  58.4141251   0.4460371  43.7843281  58.8598301   1.2845852
  43.2096244  58.7626568  -0.1126091  37.4951061  60.5147642   7.9960028
  37.6243442  60.7682121   8.9099440  36.8148512  61.1075350   7.6764683
  41.6650548  71.1844892   4.0950502  41.5874578  72.1352717   4.1738983
  41.0612191  70.8390765   4.7525429  44.1567778  58.3572758  16.7511869
  43.3801112  58.9166678  16.7414734  44.7958341  58.8429541  17.2726740
  51.9488558  55.1399551  10.5854846  51.3062938  55.4332084   9.9394641
  51.4443487  55.0252471  11.3908043  49.6028722  58.8862724   1.2740705
  50.5146578  59.1190111   1.0988403  49.0938369  59.4699768   0.7115784
  42.4114150  61.1658211  16.3129836  43.1528834  61.7043255  16.0364660
  41.7051135  61.7924500  16.4701388  47.8869490  63.3087352  14.9101998
  48.2952846  62.8669762  14.1656630  47.1646751  62.7339979  15.1636191
  44.2400560  58.2459958  12.2835555  45.0861755  58.6699372  12.4270204
  44.1799197  57.5893583  12.9774118  48.2098304  63.8688542   8.6654287
  47.5807167  64.0334256   7.9630355  47.8223966  64.2830152   9.4365251
  52.0887536  64.8042980   6.0198651  51.4038574  65.1841881   5.4695684
  52.1731385  65.4138307   6.7530598  47.3900005  55.9064327  13.9416728
  47.1460937  56.6606387  13.4051004  47.6659935  56.2849674  14.7763976
  49.3438468  62.4502939  12.6193994  49.5555363  63.0934699  11.9428375
  49.2968216  61.6165256  12.1515924  46.9464697  55.0620760   9.5230566
  46.0849176  55.3602013   9.8147304  46.9727131  55.2791159   8.5911599
  43.7626266  63.6062950   5.9304372  44.2264612  63.8850653   5.1408994
  43.4983064  62.7046395   5.7477463  40.6550347  63.1534432   8.8684135
  41.2251704  63.5821700   8.2301620  41.2458459  62.8717017   9.5668321
  42.6995152  59.7286103   2.7393937  43.4019195  60.1807146   3.2067863
  42.3675781  59.0869922   3.3673830  41.1475514  58.3197859  17.1145146
  40.5174174  59.0014140  17.3480543  41.0411602  58.2080941  16.1698285
  36.4420486  57.9869655   8.0411071  35.6519540  58.2427184   7.5651181
  36.9331733  58.8017993   8.1463111  50.4584296  65.3274895  10.7916351
  51.2801739  64.9255082  10.5099033  50.4546699  65.2243129  11.7432467
  38.3935231  58.3514235   4.9994547  37.5966395  58.4632929   5.5178043
  38.1660824  58.6900887   4.1335438  44.2240899  64.8758938  12.9477062
  44.2885332  65.3379345  13.7835234  43.5151823  64.2456303  13.0759372
  34.7258189  58.2400146  10.4726061  34.9766227  59.1247156  10.7383637
  35.2617737  58.0604747   9.7001153  58.5490289  61.6713643   7.1401323
  57.7953997  61.1021041   6.9845327  58.6837830  61.6376308   8.0871958
  43.9388917  66.5427045   2.8156042  43.8034592  67.3878581   3.2440890
  44.4798729  66.7446323   2.0521976  40.4256256  52.6218625  19.4770397
  40.0323202  52.0684824  20.1518042  41.2422397  52.9329204  19.8676915
  37.3918314  64.0602483   3.3883967  37.9042835  64.8545734   3.5389532
  38.0441027  63.3628774   3.3217569  39.2013199  67.1768240   5.4706720
  39.3779827  68.0986204   5.2827704  39.9970032  66.8626659   5.9001100
  43.3424217  54.0376504  17.0690654  44.0833931  54.6383657  16.9895116
  43.5742140  53.2954142  16.5108697  38.4865555  59.2232872  15.3468884
  38.3719071  58.3218129  15.6475983  37.6310073  59.4696568  14.9953700
  45.5657393  67.1650612  16.9456384  45.1221247  66.3786990  16.6277289
  46.2274607  67.3529762  16.2800275  40.3244514  68.6946413  11.4717063
  40.8751939  68.5663477  10.6994057  39.4855990  68.9941302  11.1211956
  47.6638631  67.4453412  14.9737786  47.6457107  68.2662293  14.4818055
  48.5858551  67.3207487  15.1987927  44.1211685  64.9597541  15.8161294
  44.6540022  64.1985829  15.5860602  43.5925766  64.6671193  16.5585448
  47.2881380  50.0657607  11.3454936  46.9445650  50.9559249  11.2694046
  47.6560343  49.8759265  10.4824521  35.3567231  62.3891138   4.1643538
  36.1942453  62.7988146   3.9477246  35.5345499  61.4490580   4.1343732
  47.2531663  60.0566218  -0.1472629  46.7378286  60.8270823   0.0915758
  46.9808971  59.3831354   0.4760432  44.8378774  54.9015919   4.9112609
  43.9820370  54.5122770   4.7318248  45.2505726  54.9807880   4.0512395
  46.3677921  52.4362262   9.3104169  45.8642716  52.3992398   8.4971974
  46.6608528  53.3455005   9.3700826  42.6120807  52.5200992   8.3170351
  43.4773803  52.3243801   7.9576240  42.6798315  52.2911344   9.2439707
  52.2265937  62.8098573   1.7880544  51.4495380  62.4709732   1.3435706
  52.9057418  62.8151196   1.1135509  47.0417966  57.9293310   1.6787152
  46.7368102  58.2439460   2.5297295  47.9948408  58.0074730   1.7214485
  45.4864398  64.0883534   3.3280106  44.9585760  63.3536293   3.0153343
  44.9851901  64.8658210   3.0820074  50.4657244  62.2832554   8.4447152
  49.8080919  62.9731816   8.5327281  51.2697643  62.6728986   8.7881139
  40.2183126  54.7503200   5.6886717  40.7926878  54.5278382   4.9559910
  40.8054108  54.8191895   6.4415319  49.2762703  60.6376927   6.4951094
  49.7894585  61.2706919   6.9972804  49.9263927  60.0378122   6.1294454
  40.5452713  56.7807661  -0.2917397  39.7090025  57.1182348   0.0291877
  40.4057482  56.6456641  -1.2290260  42.5205793  51.6244449   4.4161787
  41.8670206  51.3093466   3.7918402  42.4786268  51.0020189   5.1421610
  43.6316998  61.9063744  -3.6684921  42.7244060  61.6752997  -3.4693772
  44.1288030  61.1101363  -3.4810939  46.5385077  70.6161251  -0.7488235
  45.8646776  70.9192948  -0.1403277  46.9250899  71.4190332  -1.0982778
  45.7543534  58.1126382   8.7409435  44.8366095  58.3341329   8.5831123
  46.1703677  58.1872693   7.8821142  46.5378581  59.5117798   3.8712115
  47.2850400  60.0239195   3.5619237  46.8070171  59.1901851   4.7316508
  44.8105232  62.0076339   0.8539069  43.9016451  61.7235372   0.9511539
  44.8400315  62.4275417  -0.0057624  50.0424499  65.6182928   4.6230237
  49.5886826  64.7773838   4.6795427  49.4118466  66.2544327   4.9605017
  48.9857419  56.5474914   5.8530904  48.2480175  56.0352301   6.1841147
  49.2384192  56.1075296   5.0414181  48.4857438  67.4559425   5.5580055
  48.7780413  68.0164482   4.8392420  48.9956059  67.7487986   6.3133214
  49.0869046  49.3251166   6.4472673  49.3927923  48.4648530   6.1598588
  49.8121651  49.9168787   6.2471667  35.3793402  59.7281853   4.8354271
  35.1817802  59.1351214   4.1105338  34.8240066  59.4234063   5.5530210
  43.3590126  59.6204959   6.9548864  43.4138735  58.6678796   6.8791341
  42.5481328  59.7764399   7.4390163  44.5081319  63.5485083  -1.8072852
  44.0700749  62.8320941  -2.2667215  45.2491760  63.7761197  -2.3687761
  41.2982486  58.2382019   4.7139243  40.4850351  58.5376190   5.1204435
  41.7941480  57.8437708   5.4313726  43.4491064  68.2339776   6.6473508
  43.4067242  68.4600622   5.7182040  44.3653762  68.0003151   6.7959309
  46.8956697  58.7023844  13.5454137  47.2506085  58.9295317  14.4048603
  47.5428829  59.0342220  12.9231392  52.6254434  61.8242280   4.2503466
  52.4872333  62.0143876   3.3224655  52.2690653  62.5861662   4.7071517
  40.7896560  55.8100375  10.3300478  41.4295940  55.6689134   9.6323442
  39.9574091  55.5234888   9.9539080  52.6523814  63.8918807   9.2614738
  53.0860321  63.7994096  10.1097792  53.3655395  63.8676307   8.6234754
  41.5656864  65.1102805   6.4435471  42.3597463  64.6153125   6.2418046
  40.8548557  64.5820668   6.0803176  46.3851709  67.4920901  10.7947838
  46.4388731  68.0611837  11.5625554  45.5166490  67.6622786  10.4301875
  37.8739628  59.2545887   2.5195223  36.9437216  59.1930342   2.7365186
  37.9697100  58.7321840   1.7231865  37.7925177  55.7800700   5.1073465
  38.0531994  56.6946033   4.9982626  38.6142349  55.3125142   5.2570078
  39.2650102  57.1938457  12.2772290  39.9373156  56.9855819  11.6284938
  38.4379889  56.9960543  11.8377522  53.5139363  63.9342507  11.7947623
  53.7075254  64.8388318  12.0406898  53.4139982  63.4749926  12.6286208
  45.1675674  53.8200398  14.2937950  44.5203589  54.5190347  14.2002427
  45.9376690  54.2536542  14.6614199  48.5754472  64.0849250  17.3688504
  48.4239979  63.8559802  16.4518587  48.5659152  65.0419851  17.3819849
  45.3439809  61.6581163  12.3534770  46.2731869  61.8092322  12.1803737
  44.9230839  61.7465184  11.4983417  44.1428140  65.6831827  10.1233308
  44.0039226  65.3150612  10.9959246  43.3542737  66.1979467   9.9517266
  44.7376292  70.7840924   1.4658844  44.9128048  70.3128967   2.2804467
  44.0509080  71.4106690   1.6940105  45.6933355  65.0613430   7.5122146
  45.3583188  65.0214200   8.4079795  45.1937301  64.3958146   7.0392556
  39.6677599  60.4681060  13.0374727  39.5297397  59.7361299  13.6386266
  40.5782523  60.3789960  12.7558914  48.6292547  62.4069464  -2.2140795
  48.0121718  61.6816292  -2.3107742  48.1609036  63.1678824  -2.5573720
  42.2959900  60.1801019  12.5258406  43.0059519  59.5394211  12.4845025
  42.2529208  60.4313914  13.4484587  50.2846679  67.1168373  15.4464986
  50.2259225  66.4327593  14.7795569  50.6866197  67.8587363  14.9945612
  41.0088834  57.1666237  14.3454046  40.4726191  56.7156976  14.9975642
  40.4205542  57.3012146  13.6024510  39.3037378  73.9330286   8.2398705
  39.5433976  74.5648811   8.9177723  38.4606574  73.5818326   8.5264064
  50.2864086  65.0807956  13.6778965  49.3990865  64.7433878  13.8005364
  50.8562637  64.3490988  13.9147731  31.9393233  61.4132048   7.0022017
  32.6264273  61.0993778   6.4143032  31.7841362  62.3173413   6.7289268
  36.7427955  56.3022245  11.4307040  36.6586144  55.6947914  10.6957450
  35.9210662  56.7931263  11.4316537  43.8165239  69.7409409  10.6440208
  43.7435411  70.5464380  11.1559513  43.3742633  69.9401375   9.8188230
  43.6055019  68.9781179   4.1543030  42.8222541  69.5202859   4.2481255
  44.3047764  69.4955158   4.5537271  46.9151669  54.7875808   6.7977235
  47.4120369  54.0345771   6.4778306  46.1438651  54.8240125   6.2320445
  54.7681427  60.4916174   8.4395527  54.7571303  61.3740889   8.0689460
  53.8998806  60.1387725   8.2450064  46.2763923  69.6396243  12.7998367
  46.9891895  70.2743708  12.7274269  45.7853952  69.7360109  11.9838369
  47.9981450  63.5447496   4.3715659  47.0637729  63.6648958   4.2020363
  48.1758118  62.6419962   4.1075669  43.4986638  56.9293191   6.5248920
  43.1284425  56.3764232   7.2129826  43.9945730  56.3251325   5.9723920
  51.3854001  59.3864815   4.9065693  51.8514453  60.2192806   4.8325996
  51.8361502  58.9209796   5.6110951  41.3275836  67.3890686  13.6203938
  42.0285296  68.0227169  13.7733332  40.8570951  67.7305418  12.8599577
  49.4530232  65.7308636   1.9051845  49.7290076  65.6165231   2.8145719
  48.5834731  65.3326121   1.8664018  49.3570664  51.7545402   8.9456594
  48.4433744  51.9849629   9.1138801  49.7863765  51.8383846   9.7970627
  49.1277122  59.9435294  11.4456488  48.4748573  60.1911201  10.7908941
  49.5057502  59.1299432  11.1118966  46.0884296  69.9794987   5.5484659
  46.2706691  69.1616643   6.0112411  46.9117282  70.1962679   5.1109549
  46.4226462  68.9063172   2.8099707  46.9514228  68.3955627   2.1969869
  46.6854681  68.5905702   3.6745240  45.1764695  60.6855105  17.9322525
  44.5005332  60.5849234  18.6024901  45.9992329  60.5294319  18.3958523
  36.9243555  66.9227041  10.5535041  37.5096991  66.1770729  10.6862945
  36.7268393  67.2330998  11.4371705  39.7782210  69.9578289   5.5697483
  39.1092585  70.4424416   5.0861523  39.6395079  70.2047509   6.4840862
  31.5161209  59.4932642   9.2739484  31.5545309  58.9596232  10.0676602
  31.0101502  58.9667847   8.6550461  43.9187478  71.9922032  12.1680141
  44.4705786  72.1553654  12.9329227  44.2593672  72.5826470  11.4960166
  38.8951972  54.3397182  12.7702026  38.9593298  55.2012013  12.3579424
  38.8319092  53.7271184  12.0374385  38.3704244  56.4120315  16.4175060
  38.9976283  56.0297392  17.0312585  37.5132163  56.1934517  16.7830753
  48.7698353  66.8183290  18.0228796  49.3138257  67.4313248  17.5283751
  48.1885198  67.3762868  18.5395809  35.1469787  58.2196744   2.3493415
  35.4423228  57.3107422   2.2960469  34.2457823  58.1984483   2.0274418
  47.0555866  69.9404008   9.1543824  46.9307005  69.1393748   8.6454769
  47.7134957  70.4350201   8.6657794  38.6764034  56.2952740   8.3320964
  37.9550620  56.9088708   8.1928437  39.4657290  56.8310505   8.2537610
  49.1190774  67.7413028  10.7823374  48.1721110  67.6218379  10.7101700
  49.4673547  66.8535526  10.8649635  41.4790347  53.6307167  14.6061616
  42.0024749  53.8769463  15.3687925  41.2602681  54.4627202  14.1864753
  36.8757628  55.9010841   2.4732740  36.5470335  55.0208220   2.2907846
  37.2296999  55.8458510   3.3609130  46.1237207  67.5365744   6.9827726
  45.9762170  66.6082452   7.1635296  46.9490701  67.5585835   6.4984801
  39.9899452  56.1883811   2.8408218  40.3295524  56.7169732   2.1186826
  40.4371572  56.5264217   3.6166785  49.7271329  68.3594303   8.0692599
  50.6517877  68.1537164   7.9317050  49.5586633  68.1110704   8.9781940
  42.6842892  54.5720862  12.2911286  42.3439713  53.7728675  12.6931966
  41.9781899  54.8722573  11.7188119  43.3359364  51.6570174  10.7438609
  44.1585434  51.1830653  10.6217499  43.5797428  52.4360658  11.2437295
  41.9767599  54.6858433   1.0401511  42.6975961  55.0639686   0.5365228
  41.3532903  55.4047310   1.1436489  46.1198722  55.3903582   1.9759843
  46.3362336  56.2728220   1.6748671  45.6392789  54.9989795   1.2465485
  40.8597943  58.3489295   8.5530588  40.7142524  58.6629598   9.4454869
  40.3823147  58.9674195   8.0001486  42.7194326  55.3391843   8.6011477
  42.7055895  54.4432936   8.2643775  43.4366754  55.3462507   9.2349763
  44.5720457  55.7729183  10.6464605  44.3138234  56.6946254  10.6448935
  44.0405497  55.3759618  11.3365069  49.5166645  68.8779970   3.4254690
  49.6903523  68.3126393   2.6728543  50.0095537  69.6780865   3.2434180
  35.3343605  60.8894639  11.4918249  34.7897073  61.6654447  11.6238523
  36.2122955  61.2365444  11.3337370  42.1231222  54.2206223   3.8699047
  42.2447133  53.2922869   4.0689935  41.8333264  54.2344909   2.9577363
  44.9922412  51.9061134   7.0065767  45.0144109  51.9700467   6.0517747
  45.4090471  51.0665642   7.2006273  55.3706037  61.6416393   5.0444990
  55.8137183  60.8923718   4.6464113  54.4932547  61.6326530   4.6618722
  50.5041818  68.1946735   0.5251588  51.1992722  68.8153427   0.7438903
  50.8464968  67.3442086   0.8003966  36.1209627  60.0164536  14.3848406
  35.3791363  60.1647171  14.9713036  35.8002371  60.2772801  13.5215155
  52.4033241  65.6446440   2.0538919  52.9284565  65.9833713   1.3288239
  52.3155594  64.7093456   1.8702054  44.0653290  69.5580514  14.1828796
  44.3740416  69.3129661  15.0551495  44.8628772  69.7627152  13.6947666
  44.0873902  71.7118424   6.4134172  43.6478892  71.2194802   7.1067029
  44.8382019  71.1691391   6.1726248  36.5666241  67.9029964   6.4158800
  37.3924261  67.6033736   6.0357444  36.2160293  67.1337587   6.8648589
  41.5347774  67.2556433   8.4856474  40.9127783  66.5927138   8.1858702
  42.2052641  67.2817564   7.8030122  34.7674846  65.8216291   7.3747734
  33.9306754  65.3938465   7.1931735  34.7398491  66.0148734   8.3118525
  41.6072301  55.7338221  18.0788980  41.6560457  56.6100343  17.6966750
  42.1494816  55.1915614  17.5060623  52.0927147  66.2779344  17.3590117
  51.3022691  66.2603483  16.8194616  51.8560502  66.8167638  18.1139154
  52.2125022  63.1271810  14.6722846  52.2623027  62.9621818  15.6138368
  52.1038945  62.2599069  14.2820726  41.0961281  65.8060356   1.9614935
  41.2449401  66.4895820   1.3081607  41.9027724  65.7865446   2.4764390
  49.5028784  59.1102738  15.9882152  50.4038647  58.9709203  15.6966150
  49.5776759  59.2757193  16.9280330  43.8371590  56.4869593  14.8335339
  42.9674899  56.7803159  14.5617927  44.0731070  57.0710038  15.5542602
  53.7143219  65.5468752  14.9164867  53.4228027  65.9098732  15.7528328
  53.1015350  64.8335760  14.7378199  54.9138901  63.1121632   7.4367437
  55.7485793  63.5511436   7.6004998  55.0498030  62.6360285   6.6175683
  51.9630407  60.6701366  13.3844925  52.4384529  60.8629013  12.5763777
  51.0395973  60.7260552  13.1388309  38.8513914  61.8325534   2.9676003
  38.6059956  60.9287864   3.1656214  39.0209828  61.8342684   2.0255481
  46.5410624  52.7049210  12.3500759  47.0592567  53.4410237  12.0247248
  46.1865756  53.0113203  13.1847518  38.1209561  57.5653891   0.4662165
  37.4278806  57.6398246  -0.1897799  37.8761313  56.8014235   0.9883682
  46.7923218  49.1249492   7.8701656  47.0724972  48.4572682   8.4962082
  47.5773825  49.3178588   7.3576319  44.5956686  68.3008486  -0.5673318
  44.0230653  68.9198674  -1.0202846  45.1689480  68.8507848  -0.0333396
  50.6632076  57.5467126  11.6173231  51.6149499  57.6465224  11.6385455
  50.4935527  56.7545395  12.1271315  48.6846456  54.6322710  11.8032632
  48.0896388  54.9127722  11.1079120  48.3996152  55.1216611  12.5749373
  47.8153946  68.5845637   0.5635264  48.7484619  68.5191198   0.7668140
  47.7277159  69.4201903   0.1049797  50.4441963  67.9011507  -2.4760788
  50.3655594  67.5671370  -1.5825030  51.2651630  68.3933275  -2.4769316
  53.1420154  60.7673246  10.7315530  53.1096474  59.8289247  10.9175214
  53.7520778  60.8457283   9.9981355  44.9803485  59.6369299  -3.2257266
  45.9262590  59.5075507  -3.1568848  44.6017730  58.8983961  -2.7487837
  53.2914642  57.5584290  10.7773814  52.7753691  56.7742746  10.5903742
  54.1754591  57.2303006  10.9420333  50.9525369  51.3025305   6.7369626
  50.7550190  50.9940393   7.6212958  51.5625075  52.0286944   6.8667556
  58.9596704  61.8289253   9.8721567  59.6900092  61.5674541  10.4329271
  58.3503649  61.0917975   9.9123635  57.0412001  59.9697116  10.4696018
  56.3145164  59.8353081   9.8612510  56.6259288  60.2773944  11.2752736
  44.8642177  63.6887045  18.2343391  45.7845187  63.8665644  18.4283438
  44.8291760  62.7443091  18.0823091  34.0824342  58.8825639   7.1596666
  33.7627127  58.0290947   6.8671040  33.5357771  59.0974217   7.9154633
  37.8604250  61.5988080  10.8766173  38.0790260  62.5305188  10.8954206
  38.2730024  61.2396054  11.6620976  44.7808468  52.1056165   2.8641861
  43.9709196  51.7603250   3.2397107  45.4692885  51.7963709   3.4529473
  46.7099016  51.1834212   4.4866158  47.2630055  51.6029665   5.1456181
  46.9469102  50.2569960   4.5289114  42.7332115  57.1721286  20.2668922
  42.6328842  58.1215643  20.1981013  42.5153657  56.8439525  19.3944992
  33.9512602  62.5028550   9.1289788  33.2576074  62.0882503   8.6159742
  34.6985593  62.5449087   8.5323207  50.0877823  53.2934737   3.9944822
  49.5076492  53.9519541   3.6122874  49.8213756  52.4712082   3.5832239
  48.5381389  52.6939795   6.1966142  49.0381168  52.8056329   5.3880461
  49.1816997  52.3900848   6.8366951  42.5963385  60.6018425  19.0833983
  42.1130467  61.4018785  19.2897872  42.6824324  60.6126369  18.1301427
  35.8649345  62.4346804   7.0055803  35.8420033  62.5334491   6.0537686
  36.1749981  63.2811955   7.3272969  38.5236723  64.4922959  11.1202417
  39.4779976  64.4606902  11.0532349  38.3249246  64.0313583  11.9352643
  39.1136105  63.0624075  13.6873215  39.9328994  63.5568154  13.7108052
  39.3872913  62.1456043  13.6590782  48.8702701  55.4534828   3.0501170
  47.9828556  55.7384478   2.8321365  49.2856690  55.2928591   2.2028447
  52.2217237  55.4781349   6.7655509  52.9977627  55.9677801   7.0380126
  51.4965371  55.9039403   7.2227379  54.6589796  56.1908968   7.8229450
  55.2534287  55.9504704   7.1122758  54.7316380  55.4716098   8.4502986
  36.8786952  70.0342579   8.1372615  36.7441419  69.2742980   7.5710613
  36.4619014  70.7583479   7.6701404  48.0145915  65.2179502  -2.8550810
  48.7181765  65.4229505  -2.2393154  47.2908563  65.7856264  -2.5901726
  48.8443725  60.9689364   3.2651460  48.7878926  61.4257915   2.4259093
  49.3972067  60.2080048   3.0874303  52.6548531  56.7579095   4.0901580
  52.3985465  56.3575731   4.9209787  52.0301399  57.4722889   3.9651719
  56.9660869  59.4975169   6.5972871  56.4060427  59.5668358   7.3704433
  56.3604372  59.3216153   5.8772367  40.0356077  70.9311896   8.3491057
  39.9188462  71.8757328   8.2469748  39.2148524  70.6285457   8.7376857
  49.9232612  65.6562031  -0.8052350  50.7578216  65.2243230  -0.9874875
  49.7616955  65.4844045   0.1224545  49.5778504  62.1594145   0.5603989
  49.5227308  61.9938416  -0.3807566  48.9524559  62.8670178   0.7166179
  34.3671019  57.3962209  14.3865412  35.0129883  56.8861163  14.8752637
  34.1588170  58.1330891  14.9608837  46.8924411  64.4643057  19.8857552
  47.7615571  64.6383709  19.5244187  46.4131163  65.2837473  19.7633282
  42.8874630  51.6602254   0.1389308  42.8753299  52.6044094   0.2957579
  43.7798051  51.4772399  -0.1551231  41.0610592  71.5840158  11.5646986
  41.9637838  71.6163768  11.8813481  40.8347962  70.6540609  11.5793322
  42.8164194  70.3371144   8.2257065  41.8659825  70.3373006   8.1121437
  43.1196680  69.5903879   7.7093099  46.7026749  48.2545030   4.3935245
  45.9359145  47.7003517   4.5391927  47.1137454  48.3266899   5.2549396
  38.7068510  54.5429826  18.4840426  39.5699972  54.1866631  18.6943750
  38.1333921  54.2043721  19.1715830  58.5516887  76.1731683   9.2902827
  59.1895297  76.0538430   8.5866167  58.4337730  77.1212527   9.3490779
  55.3606593  76.1259111   9.2264352  55.0225105  76.0100175   8.3384886
  56.2296361  75.7250276   9.2065358  51.2193409  77.9794587   5.2161243
  50.6558274  77.8884524   4.4477530  51.1045804  77.1594492   5.6963735
  55.8426376  77.2793962  15.1850557  55.8315017  76.8846761  14.3131061
  56.0047016  76.5460035  15.7784329  48.7657841  79.4745779   8.0545463
  49.5579133  79.1336603   7.6391762  49.0054491  79.5840754   8.9747616
  56.7992968  81.6465555   0.5275707  56.1480947  82.2319635   0.1409721
  57.5937331  82.1771750   0.5870745  50.7248595  78.7354692   0.9262842
  51.4979471  78.1883679   0.7875718  51.0773994  79.5998941   1.1377303
  52.5633637  80.0631074  14.1329741  52.2723503  80.9676705  14.0176407
  53.1990622  80.1047602  14.8473811  53.4889844  77.4407923  10.7231101
  54.0853417  77.2163945  10.0088064  53.5464816  76.6992668  11.3256549
  53.0614873  74.8947358  -1.4418708  53.3140393  74.3728879  -2.2035245
  52.1239432  74.7313504  -1.3392025  58.1058156  73.8983136   6.3656035
  58.8921245  73.4802560   6.0146452  58.3696860  74.8029229   6.5337683
  58.2768233  79.3355987   1.0644692  57.6414066  79.4090613   1.7765596
  57.9465639  79.9249586   0.3863771  63.5066583  73.8358370   7.2689013
  64.2391755  73.2657586   7.5026843  62.7505938  73.4479970   7.7095519
  52.7811161  76.7975464   0.7605667  52.6647420  76.1220367   1.4286751
  52.8913421  76.3107838  -0.0562180  55.1242702  76.2585611   4.4652356
  54.7600910  75.7316232   5.1765277  55.9809818  75.8684080   4.2918841
  61.0292003  67.5479944  11.7283622  60.6975328  68.4175355  11.5044837
  60.4337616  67.2316228  12.4077652  54.7648189  71.2875511  -0.5386296
  54.9322592  72.1555747  -0.1715825  54.5745358  71.4502793  -1.4625006
  57.5223523  79.7492490  11.1279535  57.2224246  80.6517529  11.0195342
  57.1774582  79.4824673  11.9800688  50.9736004  76.2006287   7.1616239
  50.0486500  76.0682501   7.3693931  51.2220417  76.9800506   7.6586182
  60.9220666  72.2675030   8.8076972  60.0137544  72.1990438   8.5135733
  60.8708262  72.7446975   9.6358798  54.7437410  73.7433168   0.4460371
  54.6237035  74.1890219   1.2845852  54.0489999  74.0918486  -0.1126091
  48.3344815  75.8439560   7.9960028  48.4637196  76.0974039   8.9099440
  47.6542266  76.4367268   7.6764683  52.5044302  86.5136810   4.0950502
  52.4268332  87.4644635   4.1738983  51.9005946  86.1682683   4.7525429
  54.9961532  73.6864675  16.7511869  54.2194866  74.2458596  16.7414734
  55.6352095  74.1721458  17.2726740  62.7882313  70.4691468  10.5854846
  62.1456693  70.7624001   9.9394641  62.2837241  70.3544389  11.3908043
  60.4422476  74.2154641   1.2740705  61.3540332  74.4482028   1.0988403
  59.9332123  74.7991686   0.7115784  53.2507904  76.4950129  16.3129836
  53.9922589  77.0335173  16.0364660  52.5444890  77.1216418  16.4701388
  58.7263244  78.6379269  14.9101998  59.1346600  78.1961680  14.1656630
  58.0040506  78.0631897  15.1636191  55.0794314  73.5751876  12.2835555
  55.9255509  73.9991290  12.4270204  55.0192952  72.9185500  12.9774118
  59.0492059  79.1980460   8.6654287  58.4200921  79.3626174   7.9630355
  58.6617721  79.6122069   9.4365251  62.9281291  80.1334898   6.0198651
  62.2432329  80.5133799   5.4695684  63.0125140  80.7430224   6.7530598
  58.2293759  71.2356244  13.9416728  57.9854691  71.9898305  13.4051004
  58.5053690  71.6141592  14.7763976  60.1832222  77.7794857  12.6193994
  60.3949117  78.4226617  11.9428375  60.1361970  76.9457173  12.1515924
  57.7858451  70.3912677   9.5230566  56.9242930  70.6893931   9.8147304
  57.8120886  70.6083076   8.5911599  54.6020021  78.9354868   5.9304372
  55.0658366  79.2142571   5.1408994  54.3376819  78.0338313   5.7477463
  51.4944102  78.4826350   8.8684135  52.0645459  78.9113618   8.2301620
  52.0852213  78.2008934   9.5668321  53.5388907  75.0578020   2.7393937
  54.2412950  75.5099064   3.2067863  53.2069535  74.4161839   3.3673830
  51.9869268  73.6489777  17.1145146  51.3567929  74.3306058  17.3480543
  51.8805356  73.5372859  16.1698285  47.2814241  73.3161573   8.0411071
  46.4913295  73.5719102   7.5651181  47.7725488  74.1309911   8.1463111
  61.2978050  80.6566812  10.7916351  62.1195494  80.2547000  10.5099033
  61.2940453  80.5535046  11.7432467  49.2328986  73.6806152   4.9994547
  48.4360149  73.7924847   5.5178043  49.0054578  74.0192805   4.1335438
  55.0634654  80.2050856  12.9477062  55.1279086  80.6671263  13.7835234
  54.3545577  79.5748220  13.0759372  45.5651944  73.5692064  10.4726061
  45.8159982  74.4539073  10.7383637  46.1011492  73.3896665   9.7001153
  69.3884043  77.0005561   7.1401323  68.6347752  76.4312959   6.9845327
  69.5231584  76.9668225   8.0871958  54.7782671  81.8718963   2.8156042
  54.6428346  82.7170499   3.2440890  55.3192484  82.0738241   2.0521976
  51.2650011  67.9510543  19.4770397  50.8716956  67.3976741  20.1518042
  52.0816151  68.2621121  19.8676915  48.2312069  79.3894401   3.3883967
  48.7436589  80.1837651   3.5389532  48.8834781  78.6920692   3.3217569
  50.0406953  82.5060157   5.4706720  50.2173582  83.4278122   5.2827704
  50.8363787  82.1918577   5.9001100  54.1817972  69.3668422  17.0690654
  54.9227685  69.9675575  16.9895116  54.4135895  68.6246060  16.5108697
  49.3259310  74.5524789  15.3468884  49.2112825  73.6510046  15.6475983
  48.4703828  74.7988486  14.9953700  56.4051148  82.4942530  16.9456384
  55.9615002  81.7078908  16.6277289  57.0668361  82.6821680  16.2800275
  51.1638269  84.0238331  11.4717063  51.7145694  83.8955394  10.6994057
  50.3249745  84.3233220  11.1211956  58.5032386  82.7745329  14.9737786
  58.4850861  83.5954211  14.4818055  59.4252306  82.6499405  15.1987927
  54.9605440  80.2889459  15.8161294  55.4933777  79.5277747  15.5860602
  54.4319521  79.9963111  16.5585448  58.1275135  65.3949525  11.3454936
  57.7839404  66.2851167  11.2694046  58.4954097  65.2051183  10.4824521
  46.1960985  77.7183055   4.1643538  47.0336207  78.1280064   3.9477246
  46.3739253  76.7782498   4.1343732  58.0925418  75.3858136  -0.1472629
  57.5772041  76.1562741   0.0915758  57.8202726  74.7123272   0.4760432
  55.6772529  70.2307837   4.9112609  54.8214125  69.8414687   4.7318248
  56.0899480  70.3099798   4.0512395  57.2071675  67.7654180   9.3104169
  56.7036471  67.7284315   8.4971974  57.5002282  68.6746923   9.3700826
  53.4514561  67.8492910   8.3170351  54.3167558  67.6535718   7.9576240
  53.5192070  67.6203262   9.2439707  63.0659692  78.1390491   1.7880544
  62.2889134  77.8001650   1.3435706  63.7451173  78.1443114   1.1135509
  57.8811721  73.2585228   1.6787152  57.5761856  73.5731377   2.5297295
  58.8342163  73.3366648   1.7214485  56.3258153  79.4175451   3.3280106
  55.7979514  78.6828211   3.0153343  55.8245655  80.1950128   3.0820074
  61.3050999  77.6124472   8.4447152  60.6474673  78.3023733   8.5327281
  62.1091398  78.0020904   8.7881139  51.0576880  70.0795118   5.6886717
  51.6320632  69.8570299   4.9559910  51.6447863  70.1483812   6.4415319
  60.1156457  75.9668845   6.4951094  60.6288339  76.5998836   6.9972804
  60.7657681  75.3670040   6.1294454  51.3846467  72.1099579  -0.2917397
  50.5483780  72.4474265   0.0291877  51.2451237  71.9748559  -1.2290260
  53.3599548  66.9536367   4.4161787  52.7063960  66.6385384   3.7918402
  53.3180022  66.3312107   5.1421610  54.4710753  77.2355662  -3.6684921
  53.5637814  77.0044915  -3.4693772  54.9681785  76.4393281  -3.4810939
  56.5937288  73.4418300   8.7409435  55.6759850  73.6633247   8.5831123
  57.0097432  73.5164611   7.8821142  57.3772336  74.8409716   3.8712115
  58.1244155  75.3531113   3.5619237  57.6463926  74.5193769   4.7316508
  55.6498986  77.3368257   0.8539069  54.7410205  77.0527289   0.9511539
  55.6794070  77.7567335  -0.0057624  60.8818254  80.9474846   4.6230237
  60.4280581  80.1065756   4.6795427  60.2512220  81.5836244   4.9605017
  59.8251173  71.8766832   5.8530904  59.0873930  71.3644218   6.1841147
  60.0777947  71.4367214   5.0414181  59.3251193  82.7851343   5.5580055
  59.6174167  83.3456400   4.8392420  59.8349813  83.0779904   6.3133214
  59.9262800  64.6543084   6.4472673  60.2321677  63.7940448   6.1598588
  60.6515405  65.2460704   6.2471667  46.2187157  75.0573771   4.8354271
  46.0211556  74.4643131   4.1105338  45.6633821  74.7525981   5.5530210
  54.1983880  74.9496877   6.9548864  54.2532490  73.9970714   6.8791341
  53.3875082  75.1056316   7.4390163  55.3475074  78.8777000  -1.8072852
  54.9094504  78.1612859  -2.2667215  56.0885515  79.1053115  -2.3687761
  52.1376240  73.5673937   4.7139243  51.3244106  73.8668107   5.1204435
  52.6335234  73.1729626   5.4313726  54.2884818  83.5631694   6.6473508
  54.2460997  83.7892540   5.7182040  55.2047517  83.3295068   6.7959309
  57.7350452  74.0315761  13.5454137  58.0899840  74.2587235  14.4048603
  58.3822583  74.3634138  12.9231392  63.4648189  77.1534197   4.2503466
  63.3266087  77.3435793   3.3224655  63.1084408  77.9153580   4.7071517
  51.6290315  71.1392292  10.3300478  52.2689694  70.9981052   9.6323442
  50.7967845  70.8526806   9.9539080  63.4917568  79.2210724   9.2614738
  63.9254075  79.1286013  10.1097792  64.2049149  79.1968225   8.6234754
  52.4050619  80.4394723   6.4435471  53.1991217  79.9445043   6.2418046
  51.6942311  79.9112586   6.0803176  57.2245463  82.8212818  10.7947838
  57.2782486  83.3903755  11.5625554  56.3560245  82.9914703  10.4301875
  48.7133382  74.5837805   2.5195223  47.7830970  74.5222260   2.7365186
  48.8090854  74.0613757   1.7231865  48.6318931  71.1092617   5.1073465
  48.8925749  72.0237951   4.9982626  49.4536104  70.6417060   5.2570078
  50.1043857  72.5230375  12.2772290  50.7766910  72.3147737  11.6284938
  49.2773643  72.3252461  11.8377522  64.3533118  79.2634425  11.7947623
  64.5469008  80.1680235  12.0406898  64.2533736  78.8041844  12.6286208
  56.0069429  69.1492316  14.2937950  55.3597344  69.8482265  14.2002427
  56.7770444  69.5828459  14.6614199  59.4148227  79.4141168  17.3688504
  59.2633733  79.1851719  16.4518587  59.4052906  80.3711769  17.3819849
  56.1833563  76.9873080  12.3534770  57.1125623  77.1384240  12.1803737
  55.7624593  77.0757101  11.4983417  54.9821895  81.0123745  10.1233308
  54.8432980  80.6442529  10.9959246  54.1936491  81.5271384   9.9517266
  55.5770047  86.1132841   1.4658844  55.7521802  85.6420884   2.2804467
  54.8902835  86.7398607   1.6940105  56.5327110  80.3905348   7.5122146
  56.1976943  80.3506117   8.4079795  56.0331056  79.7250063   7.0392556
  50.5071354  75.7972978  13.0374727  50.3691152  75.0653216  13.6386266
  51.4176277  75.7081878  12.7558914  59.4686302  77.7361382  -2.2140795
  58.8515472  77.0108210  -2.3107742  59.0002790  78.4970742  -2.5573720
  53.1353655  75.5092937  12.5258406  53.8453273  74.8686129  12.4845025
  53.0922963  75.7605832  13.4484587  61.1240433  82.4460290  15.4464986
  61.0652979  81.7619510  14.7795569  61.5259952  83.1879280  14.9945612
  51.8482589  72.4958155  14.3454046  51.3119946  72.0448893  14.9975642
  51.2599297  72.6304064  13.6024510  50.1431132  89.2622204   8.2398705
  50.3827730  89.8940728   8.9177723  49.3000329  88.9110244   8.5264064
  51.2584847  71.9546806  -3.0919490  50.3814314  71.8335607  -3.4557244
  51.7342601  71.1632884  -3.3440602  61.1257841  80.4099874  13.6778965
  60.2384619  80.0725796  13.8005364  61.6956392  79.6782905  13.9147731
  42.7786988  76.7423966   7.0022017  43.4658027  76.4285696   6.4143032
  42.6235116  77.6465331   6.7289268  47.5821710  71.6314162  11.4307040
  47.4979898  71.0239832  10.6957450  46.7604416  72.1223181  11.4316537
  54.6558994  85.0701327  10.6440208  54.5829165  85.8756298  11.1559513
  54.2136387  85.2693292   9.8188230  54.4448774  84.3073097   4.1543030
  53.6616295  84.8494777   4.2481255  55.1441519  84.8247076   4.5537271
  57.7545424  70.1167726   6.7977235  58.2514123  69.3637688   6.4778306
  56.9832405  70.1532043   6.2320445  65.6075181  75.8208092   8.4395527
  65.5965057  76.7032807   8.0689460  64.7392560  75.4679642   8.2450064
  57.1157677  84.9688161  12.7998367  57.8285650  85.6035625  12.7274269
  56.6247706  85.0652027  11.9838369  58.8375204  78.8739413   4.3715659
  57.9031483  78.9940876   4.2020363  59.0151873  77.9711880   4.1075669
  54.3380392  72.2585109   6.5248920  53.9678180  71.7056149   7.2129826
  54.8339485  71.6543242   5.9723920  62.2247756  74.7156732   4.9065693
  62.6908208  75.5484724   4.8325996  62.6755256  74.2501714   5.6110951
  52.1669591  82.7182604  13.6203938  52.8679050  83.3519087  13.7733332
  51.6964706  83.0597336  12.8599577  60.2923987  81.0600554   1.9051845
  60.5683831  80.9457148   2.8145719  59.4228486  80.6618039   1.8664018
  60.1964418  67.0837319   8.9456594  59.2827498  67.3141546   9.1138801
  60.6257520  67.1675764   9.7970627  59.9670877  75.2727211  11.4456488
  59.3142327  75.5203119  10.7908941  60.3451257  74.4591350  11.1118966
  56.9278051  85.3086905   5.5484659  57.1100445  84.4908561   6.0112411
  57.7511037  85.5254597   5.1109549  57.2620216  84.2355090   2.8099707
  57.7907983  83.7247544   2.1969869  57.5248436  83.9197620   3.6745240
  56.0158450  76.0147023  17.9322525  55.3399087  75.9141152  18.6024901
  56.8386084  75.8586236  18.3958523  47.7637309  82.2518959  10.5535041
  48.3490746  81.5062647  10.6862945  47.5662147  82.5622916  11.4371705
  50.6175964  85.2870206   5.5697483  49.9486339  85.7716334   5.0861523
  50.4788834  85.5339427   6.4840862  42.3554964  74.8224559   9.2739484
  42.3939063  74.2888150  10.0676602  41.8495257  74.2959765   8.6550461
  54.7581233  87.3213950  12.1680141  55.3099541  87.4845571  12.9329227
  55.0987426  87.9118388  11.4960166  49.7345726  69.6689100  12.7702026
  49.7987053  70.5303931  12.3579424  49.6712846  69.0563101  12.0374385
  49.2097999  71.7412232  16.4175060  49.8370037  71.3589310  17.0312585
  48.3525917  71.5226434  16.7830753  59.6092107  82.1475207  18.0228796
  60.1532011  82.7605166  17.5283751  59.0278952  82.7054786  18.5395809
  45.9863541  73.5488661   2.3493415  46.2816982  72.6399340   2.2960469
  45.0851577  73.5276401   2.0274418  57.8949620  85.2695925   9.1543824
  57.7700760  84.4685665   8.6454769  58.5528711  85.7642119   8.6657794
  49.5157788  71.6244658   8.3320964  48.7944374  72.2380626   8.1928437
  50.3051044  72.1602423   8.2537610  59.9584528  83.0704946  10.7823374
  59.0114864  82.9510297  10.7101700  60.3067302  82.1827444  10.8649635
  52.3184102  68.9599084  14.6061616  52.8418504  69.2061381  15.3687925
  52.0996435  69.7919119  14.1864753  47.7151383  71.2302759   2.4732740
  47.3864089  70.3500138   2.2907846  48.0690754  71.1750428   3.3609130
  56.9630962  82.8657662   6.9827726  56.8155924  81.9374369   7.1635296
  57.7884455  82.8877752   6.4984801  50.8293206  71.5175729   2.8408218
  51.1689279  72.0461650   2.1186826  51.2765327  71.8556135   3.6166785
  60.5665084  83.6886221   8.0692599  61.4911631  83.4829082   7.9317050
  60.3980387  83.4402622   8.9781940  53.5236647  69.9012780  12.2911286
  53.1833467  69.1020593  12.6931966  52.8175653  70.2014490  11.7188119
  54.1753119  66.9862092  10.7438609  54.9979188  66.5122570  10.6217499
  54.4191182  67.7652576  11.2437295  52.8161353  70.0150350   1.0401511
  53.5369716  70.3931603   0.5365228  52.1926657  70.7339227   1.1436489
  56.9592476  70.7195499   1.9759843  57.1756090  71.6020137   1.6748671
  56.4786543  70.3281713   1.2465485  51.6991697  73.6781213   8.5530588
  51.5536278  73.9921516   9.4454869  51.2216901  74.2966113   8.0001486
  53.5588080  70.6683761   8.6011477  53.5449649  69.7724854   8.2643775
  54.2760508  70.6754424   9.2349763  55.4114211  71.1021101  10.6464605
  55.1531989  72.0238171  10.6448935  54.8799251  70.7051535  11.3365069
  60.3560400  84.2071888   3.4254690  60.5297277  83.6418310   2.6728543
  60.8489291  85.0072783   3.2434180  46.1737360  76.2186557  11.4918249
  45.6290828  76.9946365  11.6238523  47.0516710  76.5657362  11.3337370
  52.9624976  69.5498141   3.8699047  53.0840887  68.6214787   4.0689935
  52.6727019  69.5636827   2.9577363  55.8316167  67.2353051   7.0065767
  55.8537864  67.2992384   6.0517747  56.2484226  66.3957560   7.2006273
  66.2099791  76.9708311   5.0444990  66.6530937  76.2215636   4.6464113
  65.3326301  76.9618447   4.6618722  61.3435572  83.5238652   0.5251588
  62.0386477  84.1445345   0.7438903  61.6858722  82.6734004   0.8003966
  46.9603382  75.3456453  14.3848406  46.2185118  75.4939089  14.9713036
  46.6396126  75.6064719  13.5215155  63.2426995  80.9738358   2.0538919
  63.7678320  81.3125631   1.3288239  63.1549348  80.0385373   1.8702054
  54.9047044  84.8872432  14.1828796  55.2134171  84.6421578  15.0551495
  55.7022526  85.0919070  13.6947666  54.9267656  87.0410341   6.4134172
  54.4872646  86.5486720   7.1067029  55.6775773  86.4983309   6.1726248
  47.4059995  83.2321882   6.4158800  48.2318015  82.9325654   6.0357444
  47.0554047  82.4629504   6.8648589  52.3741528  82.5848350   8.4856474
  51.7521538  81.9219055   8.1858702  53.0446395  82.6109482   7.8030122
  45.6068600  81.1508208   7.3747734  44.7700509  80.7230383   7.1931735
  45.5792246  81.3440652   8.3118525  52.4466056  71.0630138  18.0788980
  52.4954211  71.9392261  17.6966750  52.9888570  70.5207531  17.5060623
  62.9320902  81.6071262  17.3590117  62.1416445  81.5895400  16.8194616
  62.6954256  82.1459555  18.1139154  63.0518777  78.4563728  14.6722846
  63.1016781  78.2913735  15.6138368  62.9432700  77.5890987  14.2820726
  51.9355035  81.1352274   1.9614935  52.0843156  81.8187738   1.3081607
  52.7421479  81.1157364   2.4764390  60.3422539  74.4394656  15.9882152
  61.2432402  74.3001121  15.6966150  60.4170513  74.6049111  16.9280330
  54.6765344  71.8161511  14.8335339  53.8068654  72.1095077  14.5617927
  54.9124825  72.4001956  15.5542602  64.5536973  80.8760669  14.9164867
  64.2621782  81.2390650  15.7528328  63.9409105  80.1627678  14.7378199
  65.7532656  78.4413549   7.4367437  66.5879547  78.8803353   7.6004998
  65.8891785  77.9652202   6.6175683  62.8024162  75.9993284  13.3844925
  63.2778283  76.1920930  12.5763777  61.8789727  76.0552470  13.1388309
  49.6907668  77.1617451   2.9676003  49.4453710  76.2579781   3.1656214
  49.8603583  77.1634602   2.0255481  57.3804378  68.0341128  12.3500759
  57.8986322  68.7702155  12.0247248  57.0259511  68.3405121  13.1847518
  48.9603316  72.8945809   0.4662165  48.2672561  72.9690164  -0.1897799
  48.7155068  72.1306152   0.9883682  57.6316972  64.4541410   7.8701656
  57.9118726  63.7864599   8.4962082  58.4167579  64.6470506   7.3576319
  55.4350441  83.6300404  -0.5673318  54.8624408  84.2490591  -1.0202846
  56.0083234  84.1799766  -0.0333396  61.5025831  72.8759044  11.6173231
  62.4543254  72.9757142  11.6385455  61.3329281  72.0837313  12.1271315
  59.5240210  69.9614627  11.8032632  58.9290142  70.2419640  11.1079120
  59.2389907  70.4508528  12.5749373  58.6547701  83.9137554   0.5635264
  59.5878374  83.8483116   0.7668140  58.5670913  84.7493821   0.1049797
  63.9813908  76.0965164  10.7315530  63.9490229  75.1581165  10.9175214
  64.5914532  76.1749201   9.9981355  55.8197239  74.9661217  -3.2257266
  56.7656344  74.8367425  -3.1568848  55.4411484  74.2275879  -2.7487837
  64.1308397  72.8876207  10.7773814  63.6147446  72.1034664  10.5903742
  65.0148345  72.5594924  10.9420333  61.7919124  66.6317223   6.7369626
  61.5943945  66.3232311   7.6212958  62.4018829  67.3578862   6.8667556
  69.7990458  77.1581171   9.8721567  70.5293847  76.8966459  10.4329271
  69.1897404  76.4209893   9.9123635  67.8805755  75.2989033  10.4696018
  67.1538919  75.1644998   9.8612510  67.4653042  75.6065862  11.2752736
  55.7035932  79.0178963  18.2343391  56.6238941  79.1957562  18.4283438
  55.6685515  78.0735008  18.0823091  54.0040156  72.8911193  -3.2902380
  53.0971612  72.5944306  -3.2139667  54.2816137  72.5941011  -4.1568094
  44.9218097  74.2117557   7.1596666  44.6020881  73.3582865   6.8671040
  44.3751525  74.4266135   7.9154633  48.6998004  76.9279998  10.8766173
  48.9184014  77.8597105  10.8954206  49.1123778  76.5687972  11.6620976
  55.6202222  67.4348083   2.8641861  54.8102950  67.0895168   3.2397107
  56.3086639  67.1255627   3.4529473  57.5492770  66.5126130   4.4866158
  58.1023809  66.9321583   5.1456181  57.7862857  65.5861878   4.5289114
  53.5725870  72.5013203  20.2668922  53.4722597  73.4507560  20.1981013
  53.3547412  72.1731442  19.3944992  52.7738941  69.7498128  -3.1490401
  53.6358105  70.0753027  -2.8894584  52.9589285  68.9629624  -3.6617335
  44.7906357  77.8320468   9.1289788  44.0969828  77.4174421   8.6159742
  45.5379348  77.8741005   8.5323207  60.9271578  68.6226655   3.9944822
  60.3470247  69.2811459   3.6122874  60.6607510  67.8003999   3.5832239
  59.3775144  68.0231713   6.1966142  59.8774922  68.1348247   5.3880461
  60.0210752  67.7192765   6.8366951  53.4357140  75.9310342  19.0833983
  52.9524221  76.7310702  19.2897872  53.5218079  75.9418287  18.1301427
  46.7043099  77.7638722   7.0055803  46.6813787  77.8626409   6.0537686
  47.0143736  78.6103873   7.3272969  49.3630477  79.8214877  11.1202417
  50.3173731  79.7898819  11.0532349  49.1643001  79.3605501  11.9352643
  49.9529859  78.3915993  13.6873215  50.7722748  78.8860072  13.7108052
  50.2266667  77.4747961  13.6590782  59.7096456  70.7826745   3.0501170
  58.8222311  71.0676396   2.8321365  60.1250445  70.6220509   2.2028447
  63.0610992  70.8073266   6.7655509  63.8371382  71.2969719   7.0380126
  62.3359126  71.2331320   7.2227379  65.4983550  71.5200885   7.8229450
  66.0928041  71.2796621   7.1122758  65.5710134  70.8008016   8.4502986
  47.7180706  85.3634496   8.1372615  47.5835174  84.6034897   7.5710613
  47.3012768  86.0875396   7.6701404  59.6837479  76.2981281   3.2651460
  59.6272681  76.7549833   2.4259093  60.2365822  75.5371966   3.0874303
  63.4942285  72.0871013   4.0901580  63.2379219  71.6867649   4.9209787
  62.8695153  72.8014807   3.9651719  67.8054623  74.8267086   6.5972871
  67.2454181  74.8960276   7.3704433  67.1998126  74.6508071   5.8772367
  50.8749832  86.2603813   8.3491057  50.7582216  87.2049246   8.2469748
  50.0542278  85.9577375   8.7376857  60.7626366  80.9853949  -0.8052350
  61.5971970  80.5535148  -0.9874875  60.6010709  80.8135963   0.1224545
  60.4172259  77.4886062   0.5603989  60.3621062  77.3230334  -0.3807566
  59.7918314  78.1962095   0.7166179  45.2064774  72.7254127  14.3865412
  45.8523637  72.2153081  14.8752637  44.9981925  73.4622808  14.9608837
  57.7318166  79.7934974  19.8857552  58.6009325  79.9675627  19.5244187
  57.2524917  80.6129391  19.7633282  53.7268384  66.9894171   0.1389308
  53.7147054  67.9336011   0.2957579  54.6191806  66.8064317  -0.1551231
  51.9004346  86.9132075  11.5646986  52.8031593  86.9455686  11.8813481
  51.6741716  85.9832526  11.5793322  53.6557948  85.6663062   8.2257065
  52.7053579  85.6664923   8.1121437  53.9590434  84.9195796   7.7093099
  57.5420504  63.5836948   4.3935245  56.7752899  63.0295435   4.5391927
  57.9531208  63.6558817   5.2549396  49.5462265  69.8721744  18.4840426
  50.4093726  69.5158549  18.6943750  48.9727675  69.5335639  19.1715830
  69.3910642  91.5023600   9.2902827  70.0289051  91.3830348   8.5866167
  69.2731484  92.4504444   9.3490779  66.2000348  91.4551028   9.2264352
  65.8618859  91.3392093   8.3384886  67.0690116  91.0542193   9.2065358
  66.6820131  92.6085880  15.1850557  66.6708772  92.2138678  14.3131061
  66.8440770  91.8751953  15.7784329  59.6051595  94.8037696   8.0545463
  60.3972887  94.4628521   7.6391762  59.8448246  94.9132671   8.9747616
  63.4027392  95.3922992  14.1329741  63.1117258  96.2968623  14.0176407
  64.0384376  95.4339519  14.8473811  64.3283599  92.7699840  10.7231101
  64.9247171  92.5455863  10.0088064  64.3858570  92.0284586  11.3256549
  71.8685757  82.8771861  11.7283622  71.5369082  83.7467272  11.5044837
  71.2731371  82.5608145  12.4077652  68.3617277  95.0784407  11.1279535
  68.0618000  95.9809446  11.0195342  68.0168337  94.8116591  11.9800688
  61.8129758  91.5298204   7.1616239  60.8880255  91.3974418   7.3693931
  62.0614172  92.3092423   7.6586182  71.7614421  87.5966948   8.8076972
  70.8531298  87.5282356   8.5135733  71.7102017  88.0738893   9.6358798
  59.1738570  91.1731478   7.9960028  59.3030951  91.4265957   8.9099440
  58.4936021  91.7659186   7.6764683  65.8355287  89.0156593  16.7511869
  65.0588621  89.5750513  16.7414734  66.4745850  89.5013376  17.2726740
  73.6276067  85.7983386  10.5854846  72.9850447  86.0915919   9.9394641
  73.1230996  85.6836306  11.3908043  64.0901659  91.8242047  16.3129836
  64.8316343  92.3627090  16.0364660  63.3838644  92.4508335  16.4701388
  69.5656999  93.9671187  14.9101998  69.9740355  93.5253598  14.1656630
  68.8434260  93.3923815  15.1636191  65.9188069  88.9043794  12.2835555
  66.7649264  89.3283207  12.4270204  65.8586706  88.2477418  12.9774118
  69.0687514  86.5648162  13.9416728  68.8248446  87.3190223  13.4051004
  69.3447444  86.9433510  14.7763976  71.0225977  93.1086774  12.6193994
  71.2342872  93.7518534  11.9428375  70.9755725  92.2749091  12.1515924
  68.6252206  85.7204595   9.5230566  67.7636685  86.0185849   9.8147304
  68.6514640  85.9374994   8.5911599  62.3337856  93.8118267   8.8684135
  62.9039213  94.2405536   8.2301620  62.9245968  93.5300852   9.5668321
  62.8263023  88.9781695  17.1145146  62.1961683  89.6597976  17.3480543
  62.7199111  88.8664776  16.1698285  58.1207995  88.6453491   8.0411071
  57.3307049  88.9011019   7.5651181  58.6119242  89.4601829   8.1463111
  60.0722740  89.0098070   4.9994547  59.2753904  89.1216764   5.5178043
  59.8448333  89.3484722   4.1335438  65.9028408  95.5342773  12.9477062
  65.9672841  95.9963180  13.7835234  65.1939332  94.9040138  13.0759372
  56.4045698  88.8983981  10.4726061  56.6553736  89.7830991  10.7383637
  56.9405246  88.7188583   9.7001153  62.1043765  83.2802461  19.4770397
  61.7110711  82.7268659  20.1518042  62.9209906  83.5913039  19.8676915
  65.0211726  84.6960340  17.0690654  65.7621440  85.2967493  16.9895116
  65.2529649  83.9537977  16.5108697  60.1653064  89.8816707  15.3468884
  60.0506579  88.9801964  15.6475983  59.3097582  90.1280404  14.9953700
  67.2444902  97.8234447  16.9456384  66.8008756  97.0370826  16.6277289
  67.9062116  98.0113598  16.2800275  62.0032023  99.3530249  11.4717063
  62.5539448  99.2247312  10.6994057  61.1643499  99.6525138  11.1211956
  69.3426140  98.1037247  14.9737786  69.3244616  98.9246128  14.4818055
  70.2646060  97.9791322  15.1987927  65.7999194  95.6181377  15.8161294
  66.3327531  94.8569665  15.5860602  65.2713275  95.3255028  16.5585448
  68.9668889  80.7241443  11.3454936  68.6233159  81.6143084  11.2694046
  69.3347852  80.5343100  10.4824521  66.5166283  85.5599754   4.9112609
  65.6607879  85.1706605   4.7318248  66.9293235  85.6391715   4.0512395
  68.0465430  83.0946098   9.3104169  67.5430225  83.0576233   8.4971974
  68.3396037  84.0038840   9.3700826  64.2908316  83.1784827   8.3170351
  65.1561312  82.9827636   7.9576240  64.3585824  82.9495179   9.2439707
  61.8970635  85.4087035   5.6886717  62.4714387  85.1862217   4.9559910
  62.4841617  85.4775730   6.4415319  64.1993302  82.2828284   4.4161787
  63.5457715  81.9677301   3.7918402  64.1573776  81.6604025   5.1421610
  67.4331043  88.7710218   8.7409435  66.5153604  88.9925165   8.5831123
  67.8491186  88.8456528   7.8821142  70.7656555  79.9835002   6.4472673
  71.0715432  79.1232365   6.1598588  71.4909160  80.5752622   6.2471667
  57.0580911  90.3865688   4.8354271  56.8605311  89.7935049   4.1105338
  56.5027575  90.0817899   5.5530210  65.0377635  90.2788795   6.9548864
  65.0926244  89.3262631   6.8791341  64.2268837  90.4348234   7.4390163
  62.9769995  88.8965855   4.7139243  62.1637860  89.1960025   5.1204435
  63.4728989  88.5021543   5.4313726  68.5744206  89.3607679  13.5454137
  68.9293594  89.5879152  14.4048603  69.2216338  89.6926056  12.9231392
  62.4684069  86.4684210  10.3300478  63.1083449  86.3272969   9.6323442
  61.6361600  86.1818723   9.9539080  59.4712686  86.4384535   5.1073465
  59.7319503  87.3529868   4.9982626  60.2929858  85.9708978   5.2570078
  60.9437611  87.8522292  12.2772290  61.6160665  87.6439654  11.6284938
  60.1167398  87.6544378  11.8377522  66.8463183  84.4784233  14.2937950
  66.1991098  85.1774183  14.2002427  67.6164199  84.9120377  14.6614199
  70.2541981  94.7433085  17.3688504  70.1027487  94.5143637  16.4518587
  70.2446661  95.7003687  17.3819849  67.0227317  92.3164998  12.3534770
  67.9519377  92.4676158  12.1803737  66.6018348  92.4049019  11.4983417
  65.8215649  96.3415663  10.1233308  65.6826735  95.9734447  10.9959246
  65.0330245  96.8563302   9.9517266  61.3465108  91.1264895  13.0374727
  61.2084906  90.3945134  13.6386266  62.2570032  91.0373795  12.7558914
  63.9747409  90.8384855  12.5258406  64.6847028  90.1978047  12.4845025
  63.9316717  91.0897749  13.4484587  71.9634188  97.7752208  15.4464986
  71.9046734  97.0911428  14.7795569  72.3653706  98.5171198  14.9945612
  62.6876343  87.8250072  14.3454046  62.1513700  87.3740811  14.9975642
  62.0993051  87.9595981  13.6024510  71.9651595  95.7391792  13.6778965
  71.0778374  95.4017714  13.8005364  72.5350146  95.0074823  13.9147731
  53.6180742  92.0715884   7.0022017  54.3051782  91.7577614   6.4143032
  53.4628871  92.9757248   6.7289268  58.4215464  86.9606080  11.4307040
  58.3373653  86.3531750  10.6957450  57.5998171  87.4515098  11.4316537
  68.5939178  85.4459644   6.7977235  69.0907878  84.6929606   6.4778306
  67.8226160  85.4823960   6.2320445  65.1774147  87.5877027   6.5248920
  64.8071934  87.0348067   7.2129826  65.6733239  86.9835160   5.9723920
  63.0063345  98.0474522  13.6203938  63.7072805  98.6811005  13.7733332
  62.5358460  98.3889253  12.8599577  71.0358173  82.4129237   8.9456594
  70.1221253  82.6433464   9.1138801  71.4651274  82.4967681   9.7970627
  70.8064631  90.6019129  11.4456488  70.1536082  90.8495037  10.7908941
  71.1845011  89.7883267  11.1118966  66.8552204  91.3438940  17.9322525
  66.1792841  91.2433070  18.6024901  67.6779838  91.1878154  18.3958523
  58.6031064  97.5810877  10.5535041  59.1884500  96.8354565  10.6862945
  58.4055902  97.8914833  11.4371705  53.1948718  90.1516477   9.2739484
  53.2332818  89.6180068  10.0676602  52.6889011  89.6251682   8.6550461
  60.5739481  84.9981017  12.7702026  60.6380807  85.8595848  12.3579424
  60.5106601  84.3855019  12.0374385  60.0491753  87.0704150  16.4175060
  60.6763792  86.6881227  17.0312585  59.1919672  86.8518352  16.7830753
  70.4485862  97.4767125  18.0228796  70.9925766  98.0897083  17.5283751
  69.8672706  98.0346704  18.5395809  56.8257296  88.8780579   2.3493415
  57.1210737  87.9691258   2.2960469  55.9245332  88.8568319   2.0274418
  60.3551543  86.9536576   8.3320964  59.6338129  87.5672543   8.1928437
  61.1444799  87.4894340   8.2537610  63.1577856  84.2891002  14.6061616
  63.6812258  84.5353299  15.3687925  62.9390190  85.1211037  14.1864753
  58.5545137  86.5594677   2.4732740  58.2257844  85.6792056   2.2907846
  58.9084508  86.5042345   3.3609130  64.3630401  85.2304697  12.2911286
  64.0227222  84.4312510  12.6931966  63.6569408  85.5306408  11.7188119
  65.0146873  82.3154010  10.7438609  65.8372943  81.8414488  10.6217499
  65.2584937  83.0944493  11.2437295  62.5385452  89.0073130   8.5530588
  62.3930033  89.3213433   9.4454869  62.0610656  89.6258031   8.0001486
  64.3981835  85.9975678   8.6011477  64.3843404  85.1016772   8.2643775
  65.1154263  86.0046342   9.2349763  66.2507966  86.4313019  10.6464605
  65.9925743  87.3530089  10.6448935  65.7193006  86.0343453  11.3365069
  57.0131114  91.5478475  11.4918249  56.4684582  92.3238283  11.6238523
  57.8910464  91.8949279  11.3337370  63.8018731  84.8790059   3.8699047
  63.9234642  83.9506705   4.0689935  63.5120773  84.8928745   2.9577363
  66.6709921  82.5644969   7.0065767  66.6931618  82.6284302   6.0517747
  67.0877980  81.7249478   7.2006273  57.7997136  90.6748371  14.3848406
  57.0578872  90.8231006  14.9713036  57.4789880  90.9356637  13.5215155
  65.7440799 100.2164349  14.1828796  66.0527925  99.9713496  15.0551495
  66.5416281 100.4210988  13.6947666  56.4462355  96.4800126   7.3747734
  55.6094263  96.0522301   7.1931735  56.4186000  96.6732570   8.3118525
  63.2859810  86.3922056  18.0788980  63.3347966  87.2684179  17.6966750
  63.8282325  85.8499449  17.5060623  73.7714656  96.9363179  17.3590117
  72.9810200  96.9187318  16.8194616  73.5348011  97.4751473  18.1139154
  73.8912531  93.7855646  14.6722846  73.9410536  93.6205653  15.6138368
  73.7826454  92.9182905  14.2820726  71.1816293  89.7686574  15.9882152
  72.0826156  89.6293038  15.6966150  71.2564268  89.9341028  16.9280330
  65.5159099  87.1453428  14.8335339  64.6462408  87.4386994  14.5617927
  65.7518579  87.7293873  15.5542602  75.3930728  96.2052587  14.9164867
  75.1015536  96.5682568  15.7528328  74.7802859  95.4919595  14.7378199
  73.6417916  91.3285202  13.3844925  74.1172038  91.5212848  12.5763777
  72.7183481  91.3844388  13.1388309  68.2198133  83.3633045  12.3500759
  68.7380076  84.0994072  12.0247248  67.8653265  83.6697039  13.1847518
  68.4710727  79.7833328   7.8701656  68.7512481  79.1156517   8.4962082
  69.2561334  79.9762423   7.3576319  72.3419585  88.2050962  11.6173231
  73.2937008  88.3049059  11.6385455  72.1723036  87.4129230  12.1271315
  70.3633965  85.2906545  11.8032632  69.7683897  85.5711558  11.1079120
  70.0783661  85.7800446  12.5749373  74.9702151  88.2168125  10.7773814
  74.4541200  87.4326582  10.5903742  75.8542100  87.8886842  10.9420333
  72.6312878  81.9609141   6.7369626  72.4337699  81.6524229   7.6212958
  73.2412584  82.6870779   6.8667556  66.5429686  94.3470881  18.2343391
  67.4632696  94.5249480  18.4283438  66.5079269  93.4026926  18.0823091
  55.7611851  89.5409474   7.1596666  55.4414636  88.6874782   6.8671040
  55.2145279  89.7558052   7.9154633  59.5391759  92.2571915  10.8766173
  59.7577769  93.1889023  10.8954206  59.9517533  91.8979890  11.6620976
  66.4595977  82.7640001   2.8641861  65.6496705  82.4187086   3.2397107
  67.1480394  82.4547544   3.4529473  68.3886525  81.8418047   4.4866158
  68.9417564  82.2613501   5.1456181  68.6256611  80.9153796   4.5289114
  64.4119624  87.8305121  20.2668922  64.3116351  88.7799478  20.1981013
  64.1941166  87.5023360  19.3944992  55.6300111  93.1612386   9.1289788
  54.9363583  92.7466339   8.6159742  56.3773102  93.2032922   8.5323207
  70.2168898  83.3523630   6.1966142  70.7168677  83.4640165   5.3880461
  70.8604506  83.0484683   6.8366951  64.2750894  91.2602260  19.0833983
  63.7917976  92.0602620  19.2897872  64.3611833  91.2710205  18.1301427
  57.5436854  93.0930640   7.0055803  57.5207542  93.1918327   6.0537686
  57.8537490  93.9395790   7.3272969  60.2024232  95.1506795  11.1202417
  61.1567485  95.1190737  11.0532349  60.0036755  94.6897418  11.9352643
  60.7923614  93.7207911  13.6873215  61.6116503  94.2151989  13.7108052
  61.0660422  92.8039879  13.6590782  56.0458528  88.0546044  14.3865412
  56.6917392  87.5444998  14.8752637  55.8375679  88.7914726  14.9608837
  68.5711920  95.1226892  19.8857552  69.4403080  95.2967544  19.5244187
  68.0918672  95.9421309  19.7633282  62.7398100 102.2423993  11.5646986
  63.6425347 102.2747603  11.8813481  62.5135471 101.3124444  11.5793322
  68.3814258  78.9128866   4.3935245  67.6146654  78.3587352   4.5391927
  68.7924963  78.9850735   5.2549396  60.3856019  85.2013662  18.4840426
  61.2487481  84.8450466  18.6943750  59.8121430  84.8627556  19.1715830
  72.9437520  98.6094378  19.4770397  72.5504465  98.0560577  20.1518042
  73.7603660  98.9204957  19.8676915  75.8605481 100.0252257  17.0690654
  76.6015194 100.6259410  16.9895116  76.0923404  99.2829895  16.5108697
  70.8885508 102.3996068  16.4175060  71.5157546 102.0173145  17.0312585
  70.0313426 102.1810270  16.7830753  74.1253565 101.7213974  18.0788980
  74.1741720 102.5976096  17.6966750  74.6676079 101.1791367  17.5060623
  75.2513379 103.1597039  20.2668922  75.1510106 104.1091396  20.1981013
  75.0334921 102.8315278  19.3944992  66.8852283 103.3837962  14.3865412
  67.5311146 102.8736916  14.8752637  66.6769434 104.1206644  14.9608837
  71.2249774 100.5305579  18.4840426  72.0881235 100.1742384  18.6943750
  70.6515184 100.1919474  19.1715830  50.2846680  44.1230495   2.1710292
  50.2259226  43.4389715   1.5040875  50.6866198  44.8649485   1.7190918
  48.7698354  43.8245412   4.7474102  49.3138258  44.4375371   4.2529057
  48.1885199  44.3824991   5.2641115  52.0927148  43.2841466   4.0835424
  51.3022692  43.2665605   3.5439923  51.8560503  43.8229760   4.8384460
  53.7143220  42.5530874   1.6410174  53.4228028  42.9160855   2.4773635
  53.1015351  41.8397883   1.4623506  46.8924413  41.4705179   6.6102859
  47.7615572  41.6445832   6.2489494  46.4131164  42.2899596   6.4878588
  58.5516888  53.1793805  -3.9851866  59.1895298  53.0600553  -4.6888526
  58.4337731  54.1274649  -3.9263914  55.3606595  53.1321233  -4.0490342
  55.0225106  53.0162298  -4.9369807  56.2296363  52.7312398  -4.0689336
  55.8426378  54.2856085   1.9095864  55.8315018  53.8908883   1.0376367
  56.0047017  53.5522158   2.5029635  48.7657842  56.4807901  -5.2209230
  49.5579134  56.1398726  -5.6362931  49.0054492  56.5902876  -4.3007077
  52.5633639  57.0693197   0.8575048  52.2723505  57.9738828   0.7421714
  53.1990623  57.1109724   1.5719117  53.4889846  54.4470045  -2.5523593
  54.0853418  54.2226068  -3.2666630  53.5464817  53.7054791  -1.9498145
  63.5066584  50.8420492  -6.0065680  64.2391756  50.2719709  -5.7727850
  62.7505940  50.4542093  -5.5659174  61.0292004  44.5542066  -1.5471071
  60.6975329  45.4237477  -1.7709856  60.4337618  44.2378350  -0.8677041
  57.5223524  56.7554612  -2.1475159  57.2224247  57.6579651  -2.2559351
  57.1774583  56.4886796  -1.2954006  60.9220668  49.2737153  -4.4677721
  60.0137545  49.2052561  -4.7618960  60.8708263  49.7509097  -3.6395896
  52.5044304  63.5198933  -9.1804191  52.4268333  64.4706758  -9.1015710
  51.9005947  63.1744805  -8.5229265  54.9961533  50.6926798   3.4757176
  54.2194867  51.2520718   3.4660041  55.6352096  51.1783581   3.9972046
  62.7882314  47.4753591  -2.6899847  62.1456694  47.7686124  -3.3360053
  62.2837242  47.3606511  -1.8846651  53.2507906  53.5012251   3.0375143
  53.9922590  54.0397295   2.7609967  52.5444891  54.1278540   3.1946695
  58.7263245  55.6441392   1.6347305  59.1346601  55.2023802   0.8901937
  58.0040507  55.0694019   1.8881497  55.0794315  50.5813999  -0.9919139
  55.9255511  51.0053412  -0.8484490  55.0192953  49.9247623  -0.2980575
  59.0492060  56.2042583  -4.6100407  58.4200922  56.3688297  -5.3124339
  58.6617722  56.6184192  -3.8389443  62.9281292  57.1397020  -7.2556043
  62.2432330  57.5195922  -7.8059010  63.0125141  57.7492347  -6.5224095
  58.2293761  48.2418367   0.6662035  57.9854693  48.9960428   0.1296311
  58.5053691  48.6203715   1.5009282  60.1832223  54.7856979  -0.6560699
  60.3949119  55.4288739  -1.3326318  60.1361972  53.9519296  -1.1238769
  51.4944103  55.4888472  -4.4070558  52.0645460  55.9175741  -5.0453074
  52.0852215  55.2071057  -3.7086373  51.9869269  50.6551900   3.8390453
  51.3567930  51.3368180   4.0725850  51.8805357  50.5434981   2.8943591
  61.2978051  57.6628935  -2.4838342  62.1195495  57.2609122  -2.7655660
  61.2940454  57.5597169  -1.5322226  55.0634655  57.2112978  -0.3277631
  55.1279087  57.6733385   0.5080540  54.3545579  56.5810343  -0.1995322
  69.3884044  54.0067683  -6.1353370  68.6347753  53.4375081  -6.2909366
  69.5231586  53.9730348  -5.1882736  51.2650012  44.9572665   6.2015704
  50.8716958  44.4038864   6.8763348  52.0816152  45.2683244   6.5922222
  50.0406955  59.5122280  -7.8047973  50.2173583  60.4340245  -7.9926989
  50.8363788  59.1980699  -7.3753593  54.1817973  46.3730545   3.7935961
  54.9227686  46.9737698   3.7140423  54.4135896  45.6308182   3.2354003
  49.3259311  51.5586912   2.0714190  49.2112826  50.6572169   2.3721289
  48.4703829  51.8050609   1.7199007  56.4051149  59.5004652   3.6701691
  55.9615003  58.7141031   3.3522595  57.0668362  59.6883803   3.0045582
  51.1638270  61.0300454  -1.8037631  51.7145695  60.9017517  -2.5760637
  50.3249746  61.3295343  -2.1542738  58.5032387  59.7807452   1.6983092
  58.4850862  60.6016333   1.2063361  59.4252307  59.6561527   1.9233233
  54.9605441  57.2951582   2.5406601  55.4933778  56.5339870   2.3105909
  54.4319522  57.0025233   3.2830755  61.3051000  54.6186595  -4.8307541
  60.6474674  55.3085856  -4.7427412  62.1091399  55.0083026  -4.4873555
  60.1156459  52.9730967  -6.7803599  60.6288340  53.6060959  -6.2781890
  60.7657683  52.3732163  -7.1460239  56.5937289  50.4480423  -4.5345259
  55.6759851  50.6695370  -4.6923571  57.0097433  50.5226733  -5.3933551
  60.8818255  57.9536969  -8.6524457  60.4280582  57.1127879  -8.5959266
  60.2512222  58.5898367  -8.3149677  59.3251194  59.7913465  -7.7174639
  59.6174168  60.3518522  -8.4362273  59.8349815  60.0842026  -6.9621479
  54.2884819  60.5693816  -6.6281185  54.2460998  60.7954663  -7.5572653
  55.2047518  60.3357191  -6.4795384  57.7350453  51.0377884   0.2699444
  58.0899841  51.2649357   1.1293910  58.3822584  51.3696261  -0.3523301
  63.4648190  54.1596320  -9.0251227  63.3266089  54.3497916  -9.9530038
  63.1084409  54.9215703  -8.5683176  63.4917570  56.2272847  -4.0139956
  63.9254076  56.1348136  -3.1656902  64.2049150  56.2030347  -4.6519940
  57.2245465  59.8274941  -2.4806855  57.2782487  60.3965877  -1.7129139
  56.3560246  59.9976826  -2.8452818  50.1043858  49.5292497  -0.9982404
  50.7766911  49.3209859  -1.6469755  49.2773644  49.3314583  -1.4377171
  64.3533119  56.2696548  -1.4807070  64.5469009  57.1742358  -1.2347795
  64.2533737  55.8103967  -0.6468485  56.0069430  46.1554438   1.0183257
  55.3597345  46.8544388   0.9247734  56.7770445  46.5890582   1.3859505
  59.4148228  56.4203290   4.0933810  59.2633734  56.1913842   3.1763894
  59.4052907  57.3773892   4.1065155  56.1833564  53.9935203  -0.9219923
  57.1125624  54.1446363  -1.0950956  55.7624594  54.0819224  -1.7771277
  54.9821896  58.0185867  -3.1521386  54.8432982  57.6504652  -2.2795447
  54.1936492  58.5333507  -3.3237428  55.5770048  63.1194964 -11.8095849
  55.7521804  62.6483007 -10.9950226  54.8902836  63.7460730 -11.5814588
  56.5327111  57.3967470  -5.7632548  56.1976944  57.3568240  -4.8674898
  56.0331057  56.7312186  -6.2362138  50.5071355  52.8035100  -0.2379967
  50.3691153  52.0715339   0.3631572  51.4176279  52.7144000  -0.5195779
  53.1353656  52.5155059  -0.7496287  53.8453274  51.8748252  -0.7909669
  53.0922964  52.7667954   0.1729894  61.1240434  59.4522413   2.1710292
  61.0652981  58.7681633   1.5040875  61.5259953  60.1941403   1.7190918
  51.8482590  49.5020277   1.0699353  51.3119947  49.0511016   1.7220949
  51.2599298  49.6366186   0.3269817  50.1431133  66.2684327  -5.0355989
  50.3827732  66.9002851  -4.3576970  49.3000330  65.9172367  -4.7490630
  61.1257842  57.4161997   0.4024272  60.2384621  57.0787919   0.5250671
  61.6956393  56.6845028   0.6393037  54.6558995  62.0763449  -2.6314485
  54.5829167  62.8818421  -2.1195180  54.2136388  62.2755415  -3.4566463
  54.4448775  61.3135219  -9.1211663  53.6616297  61.8556899  -9.0273439
  55.1441520  61.8309199  -8.7217422  65.6075182  52.8270214  -4.8359166
  65.5965059  53.7094930  -5.2065233  64.7392562  52.4741765  -5.0304629
  57.1157679  61.9750283  -0.4756326  57.8285651  62.6097748  -0.5480425
  56.6247707  62.0714149  -1.2916324  52.1669592  59.7244727   0.3449245
  52.8679052  60.3581210   0.4978639  51.6964707  60.0659458  -0.4155116
  59.9670878  52.2789334  -1.8298205  59.3142328  52.5265241  -2.4845752
  60.3451258  51.4653472  -2.1635728  56.9278052  62.3149027  -7.7270035
  57.1100447  61.4970683  -7.2642282  57.7511038  62.5316719  -8.1645145
  57.2620218  61.2417212 -10.4654986  57.7907984  60.7309667 -11.0784824
  57.5248437  60.9259743  -9.6009453  56.0158451  53.0209145   4.6567832
  55.3399088  52.9203274   5.3270207  56.8386085  52.8648359   5.1203829
  47.7637310  59.2581082  -2.7219653  48.3490747  58.5124770  -2.5891749
  47.5662149  59.5685038  -1.8382989  50.6175965  62.2932329  -7.7057210
  49.9486341  62.7778457  -8.1893170  50.4788835  62.5401549  -6.7913832
  54.7581234  64.3276073  -1.1074552  55.3099542  64.4907694  -0.3425467
  55.0987428  64.9180510  -1.7794527  49.2098000  48.7474355   3.1420367
  49.8370039  48.3651432   3.7557891  48.3525919  48.5288557   3.5076059
  59.6092108  59.1537330   4.7474102  60.1532012  59.7667288   4.2529057
  59.0278953  59.7116908   5.2641115  57.8949621  62.2758048  -4.1210870
  57.7700761  61.4747788  -4.6299924  58.5528712  62.7704241  -4.6096900
  59.9584530  60.0767068  -2.4931320  59.0114865  59.9572419  -2.5652993
  60.3067303  59.1889566  -2.4105058  52.3184103  45.9661207   1.3306922
  52.8418505  46.2123504   2.0933231  52.0996436  46.7981242   0.9110060
  56.9630963  59.8719784  -6.2926967  56.8155925  58.9436492  -6.1119397
  57.7884457  59.8939875  -6.7769892  60.5665085  60.6948343  -5.2062095
  61.4911632  60.4891204  -5.3437644  60.3980388  60.4464744  -4.2972753
  53.5236648  46.9074902  -0.9843407  53.1833469  46.1082715  -0.5822727
  52.8175654  47.2076613  -1.5566574  55.4114212  48.1083223  -2.6290089
  55.1531990  49.0300294  -2.6305758  54.8799253  47.7113658  -1.9389625
  60.3560401  61.2134011  -9.8500003  60.5297279  60.6480433 -10.6026151
  60.8489292  62.0134905 -10.0320513  46.1737361  53.2248680  -1.7836444
  45.6290829  54.0008488  -1.6516170  47.0516711  53.5719484  -1.9417323
  66.2099792  53.9770434  -8.2309704  66.6530938  53.2277759  -8.6290580
  65.3326303  53.9680570  -8.6135972  61.3435574  60.5300775 -12.7503105
  62.0386478  61.1507468 -12.5315790  61.6858724  59.6796126 -12.4750727
  46.9603383  52.3518576   1.1093712  46.2185119  52.5001211   1.6958343
  46.6396127  52.6126842   0.2460462  63.2426997  57.9800481 -11.2215774
  63.7678321  58.3187753 -11.9466454  63.1549349  57.0447496 -11.4052640
  54.9047045  61.8934554   0.9074102  55.2134172  61.6483701   1.7796802
  55.7022527  62.0981193   0.4192973  54.9267657  64.0472464  -6.8620521
  54.4872648  63.5548842  -6.1687664  55.6775774  63.5045431  -7.1028446
  47.4059996  60.2384005  -6.8595893  48.2318016  59.9387777  -7.2397249
  47.0554048  59.4691627  -6.4106104  52.3741530  59.5910473  -4.7898219
  51.7521539  58.9281178  -5.0895992  53.0446396  59.6171605  -5.4724572
  52.4466057  48.0692261   4.8034287  52.4954213  48.9454384   4.4212056
  52.9888571  47.5269654   4.2305930  62.9320903  58.6133384   4.0835424
  62.1416446  58.5957523   3.5439923  62.6954257  59.1521678   4.8384460
  63.0518778  55.4625851   1.3968152  63.1016783  55.2975858   2.3383675
  62.9432701  54.5953110   1.0066033  60.3422540  51.4456779   2.7127459
  61.2432403  51.3063243   2.4211457  60.4170515  51.6111233   3.6525636
  54.6765346  48.8223633   1.5580645  53.8068655  49.1157199   1.2863234
  54.9124826  49.4064078   2.2787909  64.5536975  57.8822792   1.6410174
  64.2621783  58.2452773   2.4773635  63.9409106  57.1689800   1.4623506
  65.7532657  55.4475672  -5.8387256  66.5879548  55.8865476  -5.6749696
  65.8891786  54.9714325  -6.6579010  62.8024163  53.0055407   0.1090232
  63.2778284  53.1983053  -0.6990917  61.8789728  53.0614592  -0.1366385
  57.3804379  45.0403250  -0.9253934  57.8986323  45.7764277  -1.2507446
  57.0259512  45.3467244  -0.0907175  61.5025832  49.8821167  -1.6581463
  62.4543255  49.9819264  -1.6369239  61.3329282  49.0899435  -1.1483378
  59.5240211  46.9676750  -1.4722062  58.9290143  47.2481763  -2.1675573
  59.2389908  47.4570651  -0.7005321  63.9813910  53.1027286  -2.5439163
  63.9490230  52.1643287  -2.3579479  64.5914533  53.1811323  -3.2773338
  64.1308398  49.8938330  -2.4980880  63.6147447  49.1096787  -2.6850951
  65.0148347  49.5657046  -2.3334360  69.7990460  54.1643293  -3.4033126
  70.5293848  53.9028581  -2.8425423  69.1897405  53.4272015  -3.3631058
  67.8805757  52.3051156  -2.8058675  67.1538920  52.1707121  -3.4142183
  67.4653044  52.6127984  -2.0001957  55.7035933  56.0241086   4.9588698
  56.6238943  56.2019685   5.1528745  55.6685516  55.0797131   4.8068397
  48.6998006  53.9342120  -2.3988521  48.9184015  54.8659228  -2.3800487
  49.1123779  53.5750095  -1.6133717  53.5725871  49.5075326   6.9914228
  53.4722598  50.4569683   6.9226319  53.3547413  49.1793565   6.1190298
  53.4357141  52.9372465   5.8079290  52.9524223  53.7372825   6.0143179
  53.5218080  52.9480410   4.8546734  49.3630478  56.8276999  -2.1552276
  50.3173732  56.7960942  -2.2222345  49.1643002  56.3667623  -1.3402051
  49.9529861  55.3978116   0.4118521  50.7722750  55.8922194   0.4353359
  50.2266668  54.4810084   0.3836089  65.4983552  48.5263008  -5.4525243
  66.0928042  48.2858744  -6.1631935  65.5710135  47.8070139  -4.8251707
  47.7180707  62.3696619  -5.1382079  47.5835175  61.6097020  -5.7044080
  47.3012770  63.0937519  -5.6053290  67.8054624  51.8329209  -6.6781822
  67.2454182  51.9022398  -5.9050260  67.1998128  51.6570194  -7.3982326
  50.8749833  63.2665936  -4.9263636  50.7582217  64.2111368  -5.0284946
  50.0542279  62.9639498  -4.5377837  45.2064775  49.7316249   1.1110718
  45.8523638  49.2215203   1.5997943  44.9981926  50.4684931   1.6854144
  57.7318167  56.7997097   6.6102859  58.6009327  56.9737749   6.2489494
  57.2524919  57.6191514   6.4878588  51.9004347  63.9194198  -1.7107707
  52.8031594  63.9517808  -1.3941213  51.6741717  62.9894649  -1.6961372
  53.6557949  62.6725184  -5.0497629  52.7053580  62.6727046  -5.1633257
  53.9590435  61.9257919  -5.5661594  49.5462266  46.8783866   5.2085733
  50.4093727  46.5220671   5.4189057  48.9727676  46.5397761   5.8961137
  69.3910643  68.5085723  -3.9851866  70.0289053  68.3892470  -4.6888526
  69.2731486  69.4566567  -3.9263914  66.2000349  68.4613151  -4.0490342
  65.8618861  68.3454216  -4.9369807  67.0690117  68.0604316  -4.0689336
  66.6820132  69.6148003   1.9095864  66.6708773  69.2200801   1.0376367
  66.8440772  68.8814075   2.5029635  59.6051597  71.8099819  -5.2209230
  60.3972889  71.4690644  -5.6362931  59.8448247  71.9194794  -4.3007077
  63.4027393  72.3985114   0.8575048  63.1117259  73.3030745   0.7421714
  64.0384378  72.4401642   1.5719117  64.3283600  69.7761963  -2.5523593
  64.9247172  69.5517985  -3.2666630  64.3858572  69.0346708  -1.9498145
  71.8685759  59.8833984  -1.5471071  71.5369084  60.7529395  -1.7709856
  71.2731372  59.5670268  -0.8677041  68.3617278  72.0846530  -2.1475159
  68.0618001  72.9871569  -2.2559351  68.0168338  71.8178713  -1.2954006
  61.8129760  68.5360327  -6.1138454  60.8880256  68.4036541  -5.9060762
  62.0614173  69.3154546  -5.6168512  71.7614422  64.6029070  -4.4677721
  70.8531299  64.5344479  -4.7618960  71.7102018  65.0801015  -3.6395896
  59.1738571  68.1793600  -5.2794665  59.3030952  68.4328079  -4.3655253
  58.4936022  68.7721308  -5.5990010  65.8355288  66.0218716   3.4757176
  65.0588622  66.5812636   3.4660041  66.4745851  66.5075499   3.9972046
  73.6276068  62.8045509  -2.6899847  72.9850449  63.0978042  -3.3360053
  73.1230997  62.6898429  -1.8846651  64.0901660  68.8304169   3.0375143
  64.8316345  69.3689213   2.7609967  63.3838646  69.4570458   3.1946695
  69.5657000  70.9733310   1.6347305  69.9740356  70.5315720   0.8901937
  68.8434261  70.3985937   1.8881497  65.9188070  65.9105916  -0.9919139
  66.7649265  66.3345330  -0.8484490  65.8586707  65.2539541  -0.2980575
  69.0687515  63.5710285   0.6662035  68.8248447  64.3252345   0.1296311
  69.3447446  63.9495632   1.5009282  71.0225978  70.1148897  -0.6560699
  71.2342873  70.7580657  -1.3326318  70.9755726  69.2811214  -1.1238769
  68.6252207  62.7266718  -3.7524127  67.7636686  63.0247971  -3.4607390
  68.6514642  62.9437117  -4.6843095  62.3337857  70.8180390  -4.4070558
  62.9039214  71.2467658  -5.0453074  62.9245969  70.5362975  -3.7086373
  62.8263024  65.9843817   3.8390453  62.1961684  66.6660098   4.0725850
  62.7199112  65.8726899   2.8943591  58.1207996  65.6515613  -5.2343623
  57.3307050  65.9073142  -5.7103512  58.6119244  66.4663951  -5.1291582
  60.0722742  66.0160193  -8.2760146  59.2753905  66.1278887  -7.7576650
  59.8448334  66.3546845  -9.1419256  65.9028409  72.5404896  -0.3277631
  65.9672842  73.0025303   0.5080540  65.1939333  71.9102261  -0.1995322
  56.4045699  65.9046104  -2.8028632  56.6553738  66.7893114  -2.5371056
  56.9405248  65.7250705  -3.5753540  62.1043767  60.2864583   6.2015704
  61.7110712  59.7330782   6.8763348  62.9209907  60.5975162   6.5922222
  65.0211728  61.7022462   3.7935961  65.7621441  62.3029615   3.7140423
  65.2529650  60.9600100   3.2354003  60.1653066  66.8878830   2.0714190
  60.0506581  65.9864087   2.3721289  59.3097583  67.1342526   1.7199007
  67.2444903  74.8296570   3.6701691  66.8008758  74.0432948   3.3522595
  67.9062117  75.0175720   3.0045582  62.0032025  76.3592371  -1.8037631
  62.5539450  76.2309435  -2.5760637  61.1643500  76.6587260  -2.1542738
  69.3426141  75.1099370   1.6983092  69.3244617  75.9308251   1.2063361
  70.2646061  74.9853445   1.9233233  65.7999196  72.6243499   2.5406601
  66.3327532  71.8631787   2.3105909  65.2713277  72.3317151   3.2830755
  68.9668891  57.7303565  -1.9299758  68.6233160  58.6205207  -2.0060647
  69.3347853  57.5405223  -2.7930173  66.5166284  62.5661877  -8.3642084
  65.6607881  62.1768727  -8.5436445  66.9293236  62.6453838  -9.2242299
  68.0465431  60.1008220  -3.9650524  67.5430227  60.0638355  -4.7782719
  68.3396038  61.0100963  -3.9053868  64.2908317  60.1846950  -4.9584343
  65.1561314  59.9889759  -5.3178453  64.3585826  59.9557302  -4.0314986
  61.8970636  62.4149158  -7.5867976  62.4714388  62.1924339  -8.3194783
  62.4841618  62.4837852  -6.8339375  64.1993304  59.2890407  -8.8592906
  63.5457716  58.9739424  -9.4836292  64.1573778  58.6666147  -8.1333084
  67.4331044  65.7772340  -4.5345259  66.5153605  65.9987287  -4.6923571
  67.8491188  65.8518651  -5.3933551  70.7656556  56.9897124  -6.8282020
  71.0715433  56.1294488  -7.1156105  71.4909161  57.5814745  -7.0283026
  57.0580912  67.3927811  -8.4400422  56.8605312  66.7997172  -9.1649356
  56.5027576  67.0880021  -7.7224483  65.0377636  67.2850917  -6.3205829
  65.0926246  66.3324754  -6.3963352  64.2268838  67.4410357  -5.8364531
  62.9769996  65.9027977  -8.5615450  62.1637861  66.2022148  -8.1550258
  63.4728990  65.5083666  -7.8440968  68.5744208  66.3669802   0.2699444
  68.9293595  66.5941275   1.1293910  69.2216339  66.6988178  -0.3523301
  62.4684071  63.4746333  -2.9454215  63.1083450  63.3335092  -3.6431252
  61.6361601  63.1880846  -3.3215613  59.4712687  63.4446658  -8.1681228
  59.7319504  64.3591991  -8.2772068  60.2929859  62.9771100  -8.0184615
  60.9437612  64.8584415  -0.9982404  61.6160666  64.6501777  -1.6469755
  60.1167399  64.6606501  -1.4377171  66.8463184  61.4846356   1.0183257
  66.1991099  62.1836305   0.9247734  67.6164200  61.9182500   1.3859505
  70.2541982  71.7495208   4.0933810  70.1027489  71.5205760   3.1763894
  70.2446662  72.7065809   4.1065155  67.0227319  69.3227121  -0.9219923
  67.9519379  69.4738280  -1.0950956  66.6018349  69.4111141  -1.7771277
  65.8215651  73.3477785  -3.1521386  65.6826736  72.9796570  -2.2795447
  65.0330247  73.8625425  -3.3237428  61.3465110  68.1327018  -0.2379967
  61.2084908  67.4007257   0.3631572  62.2570033  68.0435918  -0.5195779
  63.9747410  67.8446977  -0.7496287  64.6847029  67.2040169  -0.7909669
  63.9316718  68.0959872   0.1729894  71.9634189  74.7814330   2.1710292
  71.9046735  74.0973551   1.5040875  72.3653707  75.5233320   1.7190918
  62.6876344  64.8312195   1.0699353  62.1513701  64.3802933   1.7220949
  62.0993053  64.9658104   0.3269817  71.9651596  72.7453914   0.4024272
  71.0778375  72.4079836   0.5250671  72.5350147  72.0136946   0.6393037
  53.6180743  69.0778006  -6.2732677  54.3051783  68.7639736  -6.8611661
  53.4628872  69.9819371  -6.5465425  58.4215466  63.9668203  -1.8447653
  58.3373654  63.3593872  -2.5797243  57.5998172  64.4577221  -1.8438157
  68.5939179  62.4521766  -6.4777458  69.0907879  61.6991729  -6.7976388
  67.8226161  62.4886083  -7.0434249  65.1774148  64.5939149  -6.7505773
  64.8071936  64.0410190  -6.0624868  65.6733241  63.9897283  -7.3030773
  63.0063347  75.0536644   0.3449245  63.7072806  75.6873127   0.4978639
  62.5358462  75.3951376  -0.4155116  71.0358174  59.4191360  -4.3298099
  70.1221254  59.6495587  -4.1615892  71.4651276  59.5029804  -3.4784067
  70.8064633  67.6081252  -1.8298205  70.1536083  67.8557159  -2.4845752
  71.1845013  66.7945390  -2.1635728  66.8552206  68.3501063   4.6567832
  66.1792843  68.2495192   5.3270207  67.6779840  68.1940277   5.1203829
  58.6031065  74.5872999  -2.7219653  59.1884502  73.8416687  -2.5891749
  58.4055903  74.8976956  -1.8382989  53.1948719  67.1578600  -4.0015210
  53.2332819  66.6242190  -3.2078091  52.6889012  66.6313805  -4.6204232
  60.5739482  62.0043140  -0.5052667  60.6380808  62.8657971  -0.9175270
  60.5106602  61.3917142  -1.2380309  60.0491754  64.0766273   3.1420367
  60.6763793  63.6943350   3.7557891  59.1919673  63.8580475   3.5076059
  70.4485863  74.4829248   4.7474102  70.9925767  75.0959206   4.2529057
  69.8672708  75.0408826   5.2641115  56.8257297  65.8842702 -10.9261278
  57.1210738  64.9753380 -10.9794224  55.9245333  65.8630441 -11.2480276
  60.3551544  63.9598698  -4.9433730  59.6338130  64.5734666  -5.0826256
  61.1444800  64.4956463  -5.0217084  63.1577858  61.2953125   1.3306922
  63.6812259  61.5415421   2.0933231  62.9390191  62.1273160   0.9110060
  58.5545139  63.5656799 -10.8021953  58.2257845  62.6854178 -10.9846847
  58.9084509  63.5104468  -9.9145564  64.3630403  62.2366820  -0.9843407
  64.0227223  61.4374633  -0.5822727  63.6569409  62.5368531  -1.5566574
  65.0146874  59.3216132  -2.5316084  65.8372944  58.8476610  -2.6537194
  65.2584938  60.1006616  -2.0317398  62.5385453  66.0135253  -4.7224106
  62.3930034  66.3275556  -3.8299824  62.0610657  66.6320153  -5.2753207
  64.3981836  63.0037801  -4.6743216  64.3843405  62.1078894  -5.0110918
  65.1154264  63.0108465  -4.0404930  66.2507967  63.4375141  -2.6290089
  65.9925745  64.3592212  -2.6305758  65.7193007  63.0405576  -1.9389625
  57.0131115  68.5540597  -1.7836444  56.4684583  69.3300405  -1.6516170
  57.8910465  68.9011402  -1.9417323  63.8018732  61.8852181  -9.4055646
  63.9234643  60.9568827  -9.2064758  63.5120774  61.8990867 -10.3177331
  66.6709922  59.5707092  -6.2688926  66.6931619  59.6346425  -7.2236947
  67.0877981  58.7311600  -6.0748420  57.7997137  67.6810494   1.1093712
  57.0578873  67.8293129   1.6958343  57.4789882  67.9418759   0.2460462
  65.7440800  77.2226472   0.9074102  66.0527926  76.9775619   1.7796802
  66.5416282  77.4273110   0.4192973  56.4462356  73.4862249  -5.9006959
  55.6094264  73.0584423  -6.0822958  56.4186001  73.6794692  -4.9636168
  63.2859812  63.3984179   4.8034287  63.3347967  64.2746301   4.4212056
  63.8282326  62.8561572   4.2305930  73.7714657  73.9425302   4.0835424
  72.9810201  73.9249441   3.5439923  73.5348012  74.4813596   4.8384460
  73.8912532  70.7917768   1.3968152  73.9410537  70.6267776   2.3383675
  73.7826456  69.9245027   1.0066033  71.1816295  66.7748696   2.7127459
  72.0826157  66.6355161   2.4211457  71.2564269  66.9403151   3.6525636
  65.5159100  64.1515551   1.5580645  64.6462409  64.4449117   1.2863234
  65.7518580  64.7355996   2.2787909  75.3930729  73.2114710   1.6410174
  75.1015537  73.5744690   2.4773635  74.7802860  72.4981718   1.4623506
  73.6417917  68.3347324   0.1090232  74.1172039  68.5274971  -0.6990917
  72.7183483  68.3906510  -0.1366385  68.2198134  60.3695168  -0.9253934
  68.7380078  61.1056195  -1.2507446  67.8653267  60.6759161  -0.0907175
  68.4710728  56.7895450  -5.4053038  68.7512482  56.1218639  -4.7792611
  69.2561335  56.9824546  -5.9178374  72.3419586  65.2113084  -1.6581463
  73.2937009  65.3111182  -1.6369239  72.1723037  64.4191353  -1.1483378
  70.3633966  62.2968668  -1.4722062  69.7683898  62.5773680  -2.1675573
  70.0783663  62.7862569  -0.7005321  74.9702153  65.2230248  -2.4980880
  74.4541201  64.4388704  -2.6850951  75.8542101  64.8948964  -2.3334360
  72.6312880  58.9671263  -6.5385067  72.4337701  58.6586351  -5.6541735
  73.2412585  59.6932902  -6.4087137  66.5429688  71.3533003   4.9588698
  67.4632697  71.5311602   5.1528745  66.5079271  70.4089049   4.8068397
  55.7611853  66.5471597  -6.1158027  55.4414637  65.6936905  -6.4083653
  55.2145281  66.7620175  -5.3600060  59.5391760  69.2634038  -2.3988521
  59.7577770  70.1951146  -2.3800487  59.9517534  68.9042012  -1.6133717
  66.4595978  59.7702123 -10.4112832  65.6496706  59.4249208 -10.0357586
  67.1480395  59.4609667  -9.8225221  68.3886526  58.8480170  -8.7888536
  68.9417565  59.2675623  -8.1298513  68.6256613  57.9215918  -8.7465580
  64.4119625  64.8367244   6.9914228  64.3116352  65.7861601   6.9226319
  64.1941167  64.5085483   6.1190298  55.6300113  70.1674508  -4.1464906
  54.9363584  69.7528461  -4.6594951  56.3773104  70.2095045  -4.7431487
  70.2168900  60.3585753  -7.0788551  70.7168678  60.4702287  -7.8874232
  70.8604508  60.0546806  -6.4387743  64.2750895  68.2664382   5.8079290
  63.7917977  69.0664743   6.0143179  64.3611835  68.2772327   4.8546734
  57.5436855  70.0992762  -6.2698891  57.5207543  70.1980449  -7.2217008
  57.8537492  70.9457913  -5.9481725  60.2024233  72.1568917  -2.1552276
  61.1567487  72.1252860  -2.2222345  60.0036757  71.6959541  -1.3402051
  60.7923615  70.7270033   0.4118521  61.6116504  71.2214112   0.4353359
  61.0660423  69.8102001   0.3836089  56.0458529  65.0608167   1.1110718
  56.6917393  64.5507121   1.5997943  55.8375680  65.7976849   1.6854144
  68.5711922  72.1289015   6.6102859  69.4403081  72.3029667   6.2489494
  68.0918673  72.9483431   6.4878588  62.7398102  79.2486116  -1.7107707
  63.6425348  79.2809726  -1.3941213  62.5135472  78.3186567  -1.6961372
  68.3814259  55.9190988  -8.8819449  67.6146655  55.3649475  -8.7362766
  68.7924964  55.9912857  -8.0205297  60.3856020  62.2075784   5.2085733
  61.2487482  61.8512589   5.4189057  59.8121431  61.8689679   5.8961137
  72.9437521  75.6156501   6.2015704  72.5504467  75.0622699   6.8763348
  73.7603661  75.9267079   6.5922222  75.8605482  77.0314380   3.7935961
  76.6015195  77.6321533   3.7140423  76.0923405  76.2892018   3.2354003
  70.8885509  79.4058190   3.1420367  71.5157548  79.0235268   3.7557891
  70.0313428  79.1872392   3.5076059  74.1253566  78.7276096   4.8034287
  74.1741722  79.6038219   4.4212056  74.6676080  78.1853489   4.2305930
  75.2513380  80.1659161   6.9914228  75.1510107  81.1153518   6.9226319
  75.0334922  79.8377400   6.1190298  66.8852284  80.3900085   1.1110718
  67.5311147  79.8799039   1.5997943  66.6769435  81.1268766   1.6854144
  71.2249775  77.5367702   5.2085733  72.0881236  77.1804507   5.4189057
  70.6515185  77.1981597   5.8961137  71.9634190  51.7876453 -11.1044401
  71.9046736  51.1035673 -11.7713818  72.3653709  52.5295443 -11.5563775
  70.4485864  51.4891370  -8.5280591  70.9925768  52.1021329  -9.0225636
  69.8672709  52.0470949  -8.0113578  73.7714659  50.9487424  -9.1919270
  72.9810202  50.9311563  -9.7314770  73.5348013  51.4875718  -8.4370233
  75.3930730  50.2176832 -11.6344520  75.1015539  50.5806813 -10.7981059
  74.7802862  49.5043841 -11.8131188  68.5711923  49.1351137  -6.6651834
  69.4403082  49.3091789  -7.0265200  68.0918674  49.9545554  -6.7876105
  72.9437522  52.6218623  -7.0738989  72.5504468  52.0684822  -6.3991345
  73.7603663  52.9329202  -6.6832472  75.8605483  54.0376503  -9.4818733
  76.6015197  54.6383656  -9.5614270  76.0923406  53.2954140 -10.0400690
  70.8885510  56.4120313 -10.1334326  71.5157549  56.0297390  -9.5196802
  70.0313429  56.1934515  -9.7678634  74.1253567  55.7338219  -8.4720407
  74.1741723  56.6100342  -8.8542637  74.6676082  55.1915612  -9.0448764
  75.2513381  57.1721284  -6.2840465  75.1510108  58.1215641  -6.3528374
  75.0334923  56.8439523  -7.1564395  66.8852285  57.3962207 -12.1643975
  67.5311149  56.8861161 -11.6756750  66.6769436  58.1330889 -11.5900550
  71.2249776  54.5429824  -8.0668961  72.0881238  54.1866629  -7.8565636
  70.6515187  54.2043719  -7.3793557   4.3521512  99.9943440  46.9665400
   3.5985221  99.4250838  46.8109404   4.4869054  99.9606104  47.9136035
   0.7170125 101.4351428  47.2631514   1.5517016 101.8741232  47.4269075
   0.8529254 100.9590082  46.4439760   4.7627928 100.1519050  49.6985644
   5.4931316  99.8904338  50.2593348   4.1534873  99.4147772  49.7387712
   2.8443225  98.2926912  50.2960095   2.1176388  98.1582877  49.6876587
   2.4290512  98.6003741  51.1016813   0.4621020  94.5138765  47.6493527
   1.0565510  94.2734501  46.9386835   0.5347603  93.7945895  48.2767063
   2.7692092  97.8204965  46.4236948   2.2091650  97.8898155  47.1968510
   2.1635596  97.6445950  45.7036444   3.9306359 103.7179322  51.1719013
   3.5870628 104.6080963  51.0958123   4.2985321 103.5280979  50.3088598
   5.7294024 102.9772881  46.2736750   6.0352901 102.1170244  45.9862665
   6.4546629 103.5690501  46.0735744   3.4348196 102.7771207  47.6965733
   3.7149950 102.1094396  48.3226159   4.2198803 102.9700303  47.1840396
   7.5950348 104.9547020  46.5633703   7.3975169 104.6462108  47.4477035
   8.2050053 105.6808659  46.6931633   3.3451727 101.9066745  44.2199322
   2.5784123 101.3525232  44.3656004   3.7562432 101.9788614  45.0813473
   4.3521514  77.0005562  33.6910707   3.5985222  76.4312961  33.5354711
   4.4869055  76.9668227  34.6381341   0.7170126  78.4413551  33.9876821
   1.5517018  78.8803355  34.1514381   0.8529255  77.9652204  33.1685067
   4.7627929  77.1581172  36.4230951   5.4931317  76.8966461  36.9838654
   4.1534874  76.4209894  36.4633019   2.8443226  75.2989035  37.0205402
   2.1176390  75.1645000  36.4121894   2.4290513  75.6065864  37.8262120
   0.4621021  71.5200887  34.3738834   1.0565512  71.2796623  33.6632142
   0.5347605  70.8008018  35.0012370   2.7692094  74.8267088  33.1482255
   2.2091652  74.8960277  33.9213817   2.1635597  74.6508073  32.4281751
   4.3548112  91.5023602  35.8412211   4.9926522  91.3830349  35.1375551
   4.2368955  92.4504446  35.9000163   1.1637818  91.4551030  35.7773735
   0.8256330  91.3392095  34.8894270   2.0327587  91.0542195  35.7574741
   1.6457601  92.6085882  41.7359941   1.6346242  92.2138680  40.8640444
   1.8078241  91.8751954  42.3293712   3.9089381  89.2275056  32.9165419
   4.6952470  88.8094479  32.5655836   4.1728085  90.1321148  33.0847067
   9.3097808  89.1650289  33.8198397  10.0422980  88.5949506  34.0536227
   8.5537163  88.7771890  34.2604903   0.9273927  91.5877531  31.0161740
   0.5632135  91.0608152  31.7274661   1.7841043  91.1976000  30.8428225
   6.8323228  82.8771863  38.2793006   6.5006553  83.7467274  38.0554221
   6.2368841  82.5608147  38.9587036   3.3254748  95.0784409  37.6788918
   3.0255471  95.9809448  37.5704726   2.9805807  94.8116592  38.5310071
   6.7251891  87.5966949  35.3586356   5.8168769  87.5282358  35.0645117
   6.6739487  88.0738894  36.1868181   8.5913538  85.7983388  37.1364230
   7.9487918  86.0915921  36.4904024   8.0868466  85.6836308  37.9417426
   6.2453701  89.5446561  27.8250089   7.1571558  89.7773948  27.6497786
   5.7363348  90.1283605  27.2625168   4.5294469  93.9671189  41.4611382
   4.9377825  93.5253599  40.7166014   3.8071731  93.3923816  41.7145574
   0.8825539  88.9043796  38.8344938   1.7286734  89.3283209  38.9779587
   0.8224177  88.2477420  39.5283502   4.8523284  94.5272379  35.2163670
   4.2232146  94.6918094  34.5139738   4.4648946  94.9413989  35.9874634
   8.7312516  95.4626817  32.5708034   8.0463554  95.8425719  32.0205067
   8.8156365  96.0722144  33.3039982   4.0324984  86.5648164  40.4926112
   3.7885916  87.3190224  39.9560388   4.3084915  86.9433512  41.3273359
   5.9863447  93.1086776  39.1703378   6.1980342  93.7518536  38.4937759
   5.9393195  92.2749093  38.7025308   3.5889676  85.7204597  36.0739950
   2.7274155  86.0185850  36.3656687   3.6152111  85.9374996  35.1420982
   7.1009275  95.9858732  37.3425735   7.9226719  95.5838919  37.0608417
   7.0971678  95.8826966  38.2941851  15.1915268  92.3297480  33.6910707
  14.4378977  91.7604878  33.5354711  15.3262809  92.2960145  34.6381341
   2.2082373  97.8234449  43.4965768   1.7646227  97.0370828  43.1786672
   2.8699586  98.0113599  42.8309659   4.3063611  98.1037249  41.5247169
   4.2882086  98.9246130  41.0327438   5.2283531  97.9791324  41.7497310
   3.9306360  80.7241444  37.8964319   3.5870629  81.6143086  37.8203430
   4.2985322  80.5343102  37.0333904   1.4803754  85.5599756  31.4621993
   0.6245350  85.1706607  31.2827632   1.8930705  85.6391717  30.6021778
   3.0102900  83.0946100  35.8613553   2.5067696  83.0576235  35.0481358
   3.3033507  84.0038842  35.9210209   8.8690917  93.4682410  28.3389928
   8.0920359  93.1293570  27.8945090   9.5482398  93.4735033  27.6644893
   3.6842946  88.5877148  28.2296536   3.3793081  88.9023297  29.0806679
   4.6373388  88.6658567  28.2723869   7.1082224  92.9416391  34.9956536
   6.4505898  93.6315653  35.0836665   7.9122623  93.3312823  35.3390522
   5.9187682  91.2960764  33.0460478   6.4319564  91.9290756  33.5482187
   6.5688906  90.6961960  32.6803838   2.3968513  88.7710220  35.2918818
   1.4791075  88.9925167  35.1340506   2.8128657  88.8456530  34.4330526
   3.1803561  90.1701635  30.4221498   3.9275380  90.6823033  30.1128620
   3.4495151  89.8485688  31.2825892   6.6849479  96.2766766  31.1739620
   6.2311806  95.4357675  31.2304811   6.0543445  96.9128164  31.5114400
   5.6282398  87.2058752  32.4040288   4.8905155  86.6936138  32.7350530
   5.8809172  86.7659133  31.5923565   5.1282418  98.1143262  32.1089438
   5.4205392  98.6748319  31.3901804   5.6381038  98.4071823  32.8642598
   5.7294025  79.9835004  32.9982057   6.0352902  79.1232367  32.7107972
   6.4546630  80.5752624  32.7981051   3.5381677  89.3607681  40.0963521
   3.8931065  89.5879154  40.9557987   4.1853808  89.6926058  39.4740776
   9.2679414  92.4826117  30.8012850   9.1297312  92.6727713  29.8734039
   8.9115633  93.2445500  31.2580901   9.2948793  94.5502644  35.8124121
   9.7285300  94.4577933  36.6607175  10.0080374  94.5260144  35.1744137
   3.0276688  98.1504738  37.3457222   3.0813711  98.7195674  38.1134938
   2.1591470  98.3206623  36.9811259  10.1564343  94.5926344  38.3457007
  10.3500233  95.4972155  38.5916282  10.0564961  94.1333763  39.1795592
   1.8100654  84.4784235  40.8447334   1.1628569  85.1774185  40.7511811
   2.5801669  84.9120379  41.2123582   5.2179452  94.7433087  43.9197887
   5.0664958  94.5143639  43.0027971   5.2084131  95.7003689  43.9329232
   1.9864788  92.3165000  38.9044154   2.9156848  92.4676159  38.7313121
   1.5655818  92.4049021  38.0492800   2.3358335  95.7197267  34.0631529
   2.0008168  95.6798037  34.9589179   1.8362281  95.0541983  33.5901939
   6.9271658  97.7752210  41.9974369   6.8684204  97.0911430  41.3304952
   7.3291177  98.5171200  41.5454995   6.9289066  95.7391794  40.2288349
   6.0415844  95.4017715  40.3514748   7.4987617  95.0074825  40.4657114
   3.5576649  85.4459645  33.3486619   4.0545348  84.6929608  33.0287689
   2.7863630  85.4823962  32.7829828  11.4106406  91.1500011  34.9904911
  11.3996282  92.0324726  34.6198844  10.5423786  90.7971562  34.7959448
   2.9188902 100.2980080  39.3507751   3.6316875 100.9327545  39.2783652
   2.4278931 100.3943946  38.5347753   4.6406429  94.2031333  30.9225042
   3.7062708  94.3232795  30.7529747   4.8183098  93.3003799  30.6585052
   8.0278981  90.0448652  31.4575077   8.4939433  90.8776644  31.3835379
   8.4786481  89.5793634  32.1620335   6.0955212  96.3892473  28.4561229
   6.3715056  96.2749068  29.3655103   5.2259711  95.9909958  28.4173402
   5.9995643  82.4129239  35.4965978   5.0858723  82.6433466  35.6648185
   6.4288745  82.4967683  36.3480010   5.7702102  90.6019131  37.9965872
   5.1173552  90.8495038  37.3418325   6.1482482  89.7883269  37.6628349
   1.8189675  91.3438942  44.4831909   1.1430312  91.2433071  45.1534284
   2.6417309  91.1878156  44.9467906   0.5612458 102.6505869  38.7189525
   1.1130766 102.8137491  39.4838610   0.9018651 103.2410307  38.0469550
   5.4123332  97.4767127  44.5738179   5.9563236  98.0897085  44.0793134
   4.8310177  98.0346705  45.0905192   3.6980845 100.5987845  35.7053207
   3.5731985  99.7977585  35.1964153   4.3559936 101.0934038  35.2167177
   5.7615754  98.3996865  37.3332757   4.8146089  98.2802216  37.2611084
   6.1098527  97.5119363  37.4159019   2.7662187  98.1949581  33.5337110
   2.6187149  97.2666289  33.7144680   3.5915680  98.2169672  33.0494185
   6.3696309  99.0178140  34.6201982   7.2942856  98.8121001  34.4826433
   6.2011612  98.7694541  35.5291324   2.7623701  86.0487419  28.5269227
   2.9787316  86.9312057  28.2258055   2.2817768  85.6573632  27.7974869
   1.2145436  86.4313020  37.1973988   0.9563214  87.3530091  37.1958319
   0.6830476  86.0343455  37.8874452   6.1591625  99.5363807  29.9764074
   6.3328502  98.9710230  29.2237926   6.6520516 100.3364702  29.7943564
   1.6347392  82.5644971  33.5575151   1.6569089  82.6284304  32.6027130
   2.0515451  81.7249479  33.7515657  12.0131016  92.3000230  31.5954373
  12.4562162  91.5507556  31.1973497  11.1357526  92.2910367  31.2128105
   9.0458220  96.3030277  28.6048303   9.5709545  96.6417550  27.8797623
   8.9580573  95.3677293  28.4211437   0.7078269 100.2164351  40.7338179
   1.0165396  99.9713498  41.6060879   1.5053751 100.4210989  40.2457050
   8.7352127  96.9363181  43.9099501   7.9447670  96.9187320  43.3704000
   8.4985481  97.4751475  44.6648537   8.8550002  93.7855647  41.2232229
   8.9048007  93.6205655  42.1647752   8.7463925  92.9182906  40.8330110
   6.1453764  89.7686575  42.5391536   7.0463627  89.6293040  42.2475534
   6.2201738  89.9341030  43.4789713  10.3568198  96.2052589  41.4674251
  10.0653007  96.5682569  42.3037712   9.7440330  95.4919597  41.2887583
  11.5563881  93.7705469  33.9876821  12.3910772  94.2095273  34.1514381
  11.6923010  93.2944122  33.1685067   8.6055387  91.3285204  39.9354309
   9.0809508  91.5212850  39.1273160   7.6820952  91.3844389  39.6897692
   3.1835603  83.3633047  38.9010143   3.7017547  84.0994074  38.5756631
   2.8290736  83.6697040  39.7356902   3.4348197  79.7833330  34.4211039
   3.7149951  79.1156519  35.0471466   4.2198804  79.9762425  33.9085703
   7.3057056  88.2050964  38.1682614   8.2574479  88.3049061  38.1894838
   7.1360506  87.4129232  38.6780699   5.3271435  85.2906547  38.3542015
   4.7321367  85.5711560  37.6588504   5.0421132  85.7800448  39.1258756
   9.7845133  91.4257083  37.2824914   9.7521454  90.4873084  37.4684598
  10.3945757  91.5041120  36.5490739   9.9339622  88.2168127  37.3283197
   9.4178671  87.4326583  37.1413126  10.8179570  87.8886843  37.4929717
   7.5950349  81.9609142  33.2879010   7.3975170  81.6524230  34.1722342
   8.2050054  82.6870781  33.4176940  15.6021683  92.4873090  36.4230951
  16.3325072  92.2258378  36.9838654  14.9928629  91.7501812  36.4633019
  13.6836980  90.6280953  37.0205402  12.9570144  90.4936918  36.4121894
  13.2684267  90.9357781  37.8262120   1.5067157  94.3470882  44.7852775
   2.4270166  94.5249481  44.9792822   1.4716740  93.4026928  44.6332474
   1.4233447  82.7640002  29.4151245   0.6134176  82.4187087  29.7906491
   2.1117864  82.4547546  30.0038856   3.3523995  81.8418049  31.0375541
   3.9055034  82.2613503  31.6965564   3.5894082  80.9153797  31.0798497
   6.7302803  83.9518574  30.5454206   6.1501472  84.6103378  30.1632258
   6.4638735  83.1295919  30.1341623   5.1806369  83.3523632  32.7475526
   5.6806147  83.4640167  31.9389845   5.8241977  83.0484685  33.3876334
   5.5127681  86.1118665  29.6010554   4.6253536  86.3968315  29.3830749
   5.9281670  85.9512428  28.7537831   8.8642217  86.1365186  33.3164893
   9.6402607  86.6261638  33.5889510   8.1390351  86.5623240  33.7736763
  11.3014775  86.8492805  34.3738834  11.8959266  86.6088541  33.6632142
  11.3741359  86.1299935  35.0012370   5.4868704  91.6273201  29.8160844
   5.4303906  92.0841752  28.9768476   6.0397047  90.8663885  29.6383687
   9.2973510  87.4162933  30.6410963   9.0410444  87.0159568  31.4719171
   8.6726378  88.1306726  30.5161103  13.6085848  90.1559006  33.1482255
  13.0485406  90.2252195  33.9213817  13.0029351  89.9799990  32.4281751
   6.2203484  92.8177982  27.1113373   6.1652287  92.6522253  26.1701817
   5.5949539  93.5254015  27.2675563   3.5349391  95.1226894  46.4366936
   4.4040550  95.2967546  46.0753571   3.0556142  95.9421311  46.3142665
   3.3451729  78.9128868  30.9444628   2.5784124  78.3587354  31.0901311
   3.7562434  78.9850736  31.8058780  15.1941867 106.8315520  35.8412211
  15.8320276 106.7122267  35.1375551  15.0762709 107.7796364  35.9000163
  12.0031573 106.7842948  35.7773735  11.6650084 106.6684013  34.8894270
  12.8721341 106.3834113  35.7574741  12.4851356 107.9377800  41.7359941
  12.4739997 107.5430598  40.8640444  12.6471995 107.2043872  42.3293712
  14.7483135 104.5566974  32.9165419  15.5346224 104.1386397  32.5655836
  15.0121839 105.4613066  33.0847067  20.1491562 104.4942207  33.8198397
  20.8816734 103.9241424  34.0536227  19.3930918 104.1063807  34.2604903
  11.7667682 106.9169448  31.0161740  11.4025889 106.3900069  31.7274661
  12.6234798 106.5267917  30.8428225  17.6716982  98.2063781  38.2793006
  17.3400307  99.0759192  38.0554221  17.0762596  97.8900065  38.9587036
  17.5645646 102.9258867  35.3586356  16.6562523 102.8574275  35.0645117
  17.5133242 103.4030812  36.1868181  11.6386512 104.3448513  43.3021253
  10.8619846 104.9042433  43.2924118  12.2777075 104.8305296  43.8236123
  19.4307292 101.1275305  37.1364230  18.7881672 101.4207839  36.4904024
  18.9262221 101.0128226  37.9417426  17.0847456 104.8738479  27.8250089
  17.9965312 105.1065865  27.6497786  16.5757103 105.4575523  27.2625168
  11.7219294 104.2335713  38.8344938  12.5680489 104.6575127  38.9779587
  11.6617931 103.5769338  39.5283502  14.8718739 101.8940082  40.4926112
  14.6279671 102.6482142  39.9560388  15.1478669 102.2725429  41.3273359
  16.8257202 108.4378694  39.1703378  17.0374097 109.0810454  38.4937759
  16.7786950 107.6041011  38.7025308  14.4283431 101.0496515  36.0739950
  13.5667910 101.3477768  36.3656687  14.4545865 101.2666913  35.1420982
   8.6294248 104.3073614  43.6654530   7.9992908 104.9889895  43.8989927
   8.5230336 104.1956696  42.7207668  26.0309023 107.6589398  33.6910707
  25.2772731 107.0896796  33.5354711  26.1656564 107.6252062  34.6381341
   7.9074990  98.6094380  46.0279781   7.5141936  98.0560579  46.7027425
   8.7241131  98.9204958  46.4186299  10.8242951 100.0252259  43.6200038
  11.5652665 100.6259412  43.5404500  11.0560874  99.2829897  43.0618080
  14.7700114  96.0533362  37.8964319  14.4264384  96.9435004  37.8203430
  15.1379077  95.8635020  37.0333904  12.3197508 100.8891674  31.4621993
  11.4639104 100.4998524  31.2827632  12.7324460 100.9683635  30.6021778
  13.8496655  98.4238017  35.8613553  13.3461450  98.3868152  35.0481358
  14.1427262  99.3330760  35.9210209  10.0939541  98.5076747  34.8679734
  10.9592537  98.3119556  34.5085624  10.1617050  98.2787099  35.7949091
  19.7084671 108.7974328  28.3389928  18.9314114 108.4585487  27.8945090
  20.3876152 108.8026951  27.6644893  14.5236700 103.9169065  28.2296536
  14.2186836 104.2315214  29.0806679  15.4767142 103.9950485  28.2723869
  17.9475978 108.2708309  34.9956536  17.2899653 108.9607570  35.0836665
  18.7516377 108.6604741  35.3390522   7.7001860 100.7378955  32.2396101
   8.2745612 100.5154136  31.5069294   8.2872842 100.8067649  32.9924702
  16.7581437 106.6252682  33.0460478  17.2713319 107.2582674  33.5482187
  17.4082661 106.0253877  32.6803838  10.0024527  97.6120204  30.9671171
   9.3488940  97.2969221  30.3427785   9.9605002  96.9895944  31.6930993
  13.2362268 104.1002137  35.2918818  12.3184829 104.3217084  35.1340506
  13.6522411 104.1748448  34.4330526  14.0197316 105.4993553  30.4221498
  14.7669134 106.0114950  30.1128620  14.2888905 105.1777606  31.2825892
  16.4676153 102.5350669  32.4040288  15.7298909 102.0228055  32.7350530
  16.7202926 102.0951051  31.5923565  16.5687780  95.3126921  32.9982057
  16.8746657  94.4524285  32.7107972  17.2940385  95.9044541  32.7981051
  10.8408860 105.6080714  33.5058248  10.8957470 104.6554551  33.4300725
  10.0300062 105.7640153  33.9899546   8.7801220 104.2257774  31.2648627
   7.9669085 104.5251945  31.6713819   9.2760214 103.8313463  31.9823109
  14.3775431 104.6899599  40.0963521  14.7324819 104.9171072  40.9557987
  15.0247563 105.0217975  39.4740776  20.1073168 107.8118034  30.8012850
  19.9691067 108.0019630  29.8734039  19.7509387 108.5737417  31.2580901
   8.2715294 101.7976130  36.8809862   8.9114674 101.6564889  36.1832825
   7.4392825 101.5110643  36.5048464  20.1342548 109.8794561  35.8124121
  20.5679055 109.7869850  36.6607175  20.8474129 109.8552062  35.1744137
   5.2743911 101.7676455  31.6582849   5.5350728 102.6821788  31.5492009
   6.0961083 101.3000897  31.8079462   6.7468836 103.1814212  38.8281673
   7.4191890 102.9731574  38.1794322   5.9198623 102.9836298  38.3886906
  20.9958097 109.9218262  38.3457007  21.1893988 110.8264073  38.5916282
  20.8958716 109.4625681  39.1795592  12.6494408  99.8076153  40.8447334
  12.0022323 100.5066102  40.7511811  13.4195424 100.2412297  41.2123582
  12.8258543 107.6456918  38.9044154  13.7550603 107.7968077  38.7313121
  12.4049573 107.7340938  38.0492800   9.7778634 106.1676774  39.0767790
  10.4878253 105.5269966  39.0354408   9.7347942 106.4189669  39.9993971
   8.4907568 103.1541992  40.8963430   7.9544925 102.7032730  41.5485026
   7.9024277 103.2887901  40.1533894   4.2246689 102.2898000  37.9816424
   4.1404878 101.6823669  37.2466834   3.4029396 102.7807018  37.9825920
  14.3970403 100.7751563  33.3486619  14.8939103 100.0221525  33.0287689
  13.6257385 100.8115880  32.7829828  22.2500161 106.4791929  34.9904911
  22.2390037 107.3616644  34.6198844  21.3817540 106.1263479  34.7959448
  10.9805372 102.9168946  33.0758304  10.6103159 102.3639986  33.7639209
  11.4764464 102.3127080  32.5233304  18.8672735 105.3740570  31.4575077
  19.3333187 106.2068561  31.3835379  19.3180236 104.9085551  32.1620335
  16.8389398  97.7421157  35.4965978  15.9252478  97.9725383  35.6648185
  17.2682499  97.8259601  36.3480010  16.6095856 105.9311049  37.9965872
  15.9567307 106.1786956  37.3418325  16.9876236 105.1175187  37.6628349
  12.6583429 106.6730860  44.4831909  11.9824066 106.5724989  45.1534284
  13.4811063 106.5170073  44.9467906   6.3770706 100.3272937  39.3211410
   6.4412032 101.1887768  38.9088807   6.3137826  99.7146939  38.5883768
   5.8522978 102.3996069  42.9684444   6.4795017 102.0173147  43.5821968
   4.9950897 102.1810271  43.3340136   6.1582768 102.2828495  34.8830347
   5.4369354 102.8964463  34.7437821   6.9476024 102.8186260  34.8046993
   8.9609081  99.6182922  41.1570999   9.4843483  99.8645218  41.9197308
   8.7421415 100.4502956  40.7374137  10.1661626 100.5596617  38.8420670
   9.8258447  99.7604430  39.2441350   9.4600633 100.8598328  38.2697503
  10.8178098  97.6445929  37.2947993  11.6404168  97.1706407  37.1726883
  11.0616162  98.4236413  37.7946679  13.6017456 101.3779337  28.5269227
  13.8181070 102.2603974  28.2258055  13.1211523 100.9865550  27.7974869
   8.3416677 104.3365050  35.1039971   8.1961258 104.6505353  35.9964253
   7.8641881 104.9549950  34.5510870  10.2013060 101.3267598  35.1520861
  10.1874629 100.4308691  34.8153159  10.9185488 101.3338262  35.7859147
  12.0539191 101.7604938  37.1973988  11.7956968 102.6822009  37.1958319
  11.5224231 101.3635373  37.8874452   9.6049956 100.2081978  30.4208431
   9.7265867  99.2798624  30.6199319   9.3151998 100.2220664  29.5086746
  12.4741146  97.8936888  33.5575151  12.4962843  97.9576222  32.6027130
  12.8909205  97.0541397  33.7515657  22.8524771 107.6292148  31.5954373
  23.2955917 106.8799473  31.1973497  21.9751281 107.6202284  31.2128105
   9.0891035 101.7213975  44.6298364   9.1379191 102.5976098  44.2476133
   9.6313550 101.1791368  44.0570007  19.6943756 109.1147565  41.2232229
  19.7441761 108.9497572  42.1647752  19.5857679 108.2474824  40.8330110
  16.9847518 105.0978493  42.5391536  17.8857381 104.9584958  42.2475534
  17.0595493 105.2632948  43.4789713  11.3190324 102.4745348  41.3844722
  10.4493633 102.7678914  41.1127311  11.5549804 103.0585793  42.1051986
  22.3957635 109.0997386  33.9876821  23.2304527 109.5387190  34.1514381
  22.5316764 108.6236040  33.1685067  19.4449141 106.6577121  39.9354309
  19.9203263 106.8504768  39.1273160  18.5214707 106.7136307  39.6897692
  14.0229358  98.6924965  38.9010143  14.5411302  99.4285992  38.5756631
  13.6684490  98.9988958  39.7356902  14.2741952  95.1125247  34.4211039
  14.5543706  94.4448436  35.0471466  15.0592559  95.3054343  33.9085703
  18.1450810 103.5342881  38.1682614  19.0968233 103.6340979  38.1894838
  17.9754261 102.7421150  38.6780699  16.1665190 100.6198464  38.3542015
  15.5715122 100.9003477  37.6588504  15.8814886 101.1092365  39.1258756
  20.6238888 106.7549001  37.2824914  20.5915208 105.8165002  37.4684598
  21.2339512 106.8333038  36.5490739  20.7733376 103.5460044  37.3283197
  20.2572425 102.7618501  37.1413126  21.6573325 103.2178761  37.4929717
  18.4344103  97.2901060  33.2879010  18.2368924  96.9816148  34.1722342
  19.0443809  98.0162699  33.4176940  26.4415438 107.8165008  36.4230951
  27.1718826 107.5550296  36.9838654  25.8322383 107.0793730  36.4633019
  24.5230735 105.9572870  37.0205402  23.7963898 105.8228835  36.4121894
  24.1078022 106.2649699  37.8262120  12.2627202  98.0931920  29.4151245
  11.4527930  97.7479005  29.7906491  12.9511619  97.7839464  30.0038856
  14.1917750  97.1709967  31.0375541  14.7448789  97.5905420  31.6965564
  14.4287836  96.2445715  31.0798497  10.2150849 103.1597040  46.8178305
  10.1147576 104.1091397  46.7490396   9.9972391 102.8315279  45.9454375
  17.5696557  99.2810492  30.5454206  16.9895226  99.9395296  30.1632258
  17.3032490  98.4587837  30.1341623  16.0200123  98.6815550  32.7475526
  16.5199902  98.7932084  31.9389845  16.6635731  98.3776603  33.3876334
  16.3521435 101.4410582  29.6010554  15.4647290 101.7260233  29.3830749
  16.7675424 101.2804346  28.7537831  19.7035971 101.4657103  33.3164893
  20.4796361 101.9553556  33.5889510  18.9784105 101.8915158  33.7736763
  22.1408530 102.1784723  34.3738834  22.7353021 101.9380459  33.6632142
  22.2135114 101.4591853  35.0012370  16.3262459 106.9565118  29.8160844
  16.2697660 107.4133670  28.9768476  16.8790801 106.1955803  29.6383687
  20.1367265 102.7454850  30.6410963  19.8804199 102.3451486  31.4719171
  19.5120133 103.4598644  30.5161103  24.4479603 105.4850923  33.1482255
  23.8879161 105.5544113  33.9213817  23.8423106 105.3091908  32.4281751
  17.0597238 108.1469900  27.1113373  17.0046042 107.9814171  26.1701817
  16.4343293 108.8545932  27.2675563   1.8489753 103.3837964  40.9374795
   2.4948617 102.8736918  41.4262020   1.6406904 104.1206646  41.5118221
  10.3693364  97.6478009  26.6898692  10.3572033  98.5919848  26.8466962
  11.2616785  97.4648154  26.3958153  14.1845483  94.2420785  30.9444628
  13.4177879  93.6879272  31.0901311  14.5956188  94.3142654  31.8058780
   6.1887244 100.5305581  45.0349810   7.0518706 100.1742386  45.2453134
   5.6152655 100.1919476  45.7225214  25.6093869 111.3825280  37.8964319
  25.2658138 112.2726921  37.8203430  25.9772831 111.1926937  37.0333904
  27.4081534 110.6418839  32.9982057  27.7140411 109.7816202  32.7107972
  28.1334139 111.2336459  32.7981051  25.1135706 110.4417165  34.4211039
  25.3937460 109.7740354  35.0471466  25.8986313 110.6346261  33.9085703
  29.2737858 112.6192978  33.2879010  29.0762679 112.3108066  34.1722342
  29.8837563 113.3454617  33.4176940  25.0239238 109.5712703  30.9444628
  24.2571633 109.0171190  31.0901311  25.4349942 109.6434572  31.8058780
   4.3521515  54.0067685  20.4156013   3.5985223  53.4375083  20.2600018
   4.4869056  53.9730350  21.3626648   0.7170128  55.4475674  20.7122128
   1.5517019  55.8865478  20.8759688   0.8529256  54.9714327  19.8930373
   4.7627930  54.1643295  23.1476257   5.4931319  53.9028583  23.7083961
   4.1534876  53.4272017  23.1878325   2.8443227  52.3051158  23.7450709
   2.1176391  52.1707123  23.1367200   2.4290514  52.6127986  24.5507427
   0.4621022  48.5263010  21.0984140   1.0565513  48.2858746  20.3877449
   0.5347606  47.8070140  21.7257677   2.7692095  51.8329211  19.8727561
   2.2091653  51.9022400  20.6459124   2.1635598  51.6570195  19.1527058
   4.3548113  68.5085725  22.5657517   4.9926523  68.3892472  21.8620857
   4.2368956  69.4566569  22.6245469   1.1637820  68.4613153  22.5019042
   0.8256331  68.3454217  21.6139577   2.0327588  68.0604318  22.4820048
   1.6457603  69.6148004  28.4605247   1.6346243  69.2200803  27.5885751
   1.8078242  68.8814077  29.0539019   3.9089382  66.2337178  19.6410725
   4.6952471  65.8156602  19.2901142   4.1728086  67.1383271  19.8092374
   9.3097809  66.1712412  20.5443704  10.0422981  65.6011628  20.7781533
   8.5537165  65.7834012  20.9850209   0.9273929  68.5939653  17.7407046
   0.5632136  68.0670274  18.4519968   1.7841045  68.2038122  17.5673532
   6.8323229  59.8833986  25.0038312   6.5006554  60.7529397  24.7799527
   6.2368843  59.5670270  25.6832343   3.3254749  72.0846532  24.4034225
   3.0255472  72.9871571  24.2950032   2.9805808  71.8178715  25.2555378
   6.7251893  64.6029072  22.0831662   5.8168770  64.5344480  21.7890423
   6.6739488  65.0801017  22.9113488   8.5913539  62.8045510  23.8609536
   7.9487919  63.0978044  23.2149331   8.0868468  62.6898431  24.6662733
   6.2453703  66.5508684  14.5495396   7.1571559  66.7836070  14.3743093
   5.7363350  67.1345728  13.9870474   4.5294470  70.9733311  28.1856688
   4.9377826  70.5315722  27.4411321   3.8071732  70.3985939  28.4390881
   0.8825540  65.9105918  25.5590245   1.7286736  66.3345332  25.7024894
   0.8224178  65.2539542  26.2528808   4.8523285  71.5334502  21.9408977
   4.2232147  71.6980216  21.2385045   4.4648947  71.9476112  22.7119941
   8.7312517  72.4688940  19.2953341   8.0463555  72.8487841  18.7450374
   8.8156366  73.0784266  20.0285289   4.0324986  63.5710286  27.2171419
   3.7885918  64.3252347  26.6805694   4.3084916  63.9495634  28.0518666
   5.9863448  70.1148899  25.8948684   6.1980344  70.7580659  25.2183065
   5.9393197  69.2811215  25.4270614   3.5889677  62.7266720  22.7985256
   2.7274156  63.0247973  23.0901994   3.6152112  62.9437118  21.8666289
   7.1009276  72.9920854  24.0671042   7.9226720  72.5901042  23.7853723
   7.0971679  72.8889088  25.0187157  15.1915269  69.3359603  20.4156013
  14.4378978  68.7667001  20.2600018  15.3262811  69.3022267  21.3626648
   2.2082374  74.8296572  30.2211075   1.7646228  74.0432950  29.9031979
   2.8699587  75.0175722  29.5554965   4.3063612  75.1099372  28.2492476
   4.2882087  75.9308253  27.7572745   5.2283532  74.9853447  28.4742617
   3.9306361  57.7303567  24.6209626   3.5870630  58.6205209  24.5448737
   4.2985324  57.5405225  23.7579211   1.4803755  62.5661879  18.1867299
   0.6245351  62.1768729  18.0072938   1.8930707  62.6453840  17.3267085
   3.0102901  60.1008222  22.5858859   2.5067697  60.0638357  21.7726664
   3.3033508  61.0100965  22.6455516   8.8690918  70.4744533  15.0635235
   8.0920361  70.1355692  14.6190397   9.5482399  70.4797156  14.3890200
   3.6842947  65.5939270  14.9541842   3.3793083  65.9085419  15.8051985
   4.6373389  65.6720690  14.9969175   7.1082225  69.9478514  21.7201843
   6.4505899  70.6377775  21.8081971   7.9122624  70.3374946  22.0635829
   5.9187684  68.3022887  19.7705784   6.4319565  68.9352878  20.2727494
   6.5688908  67.7024082  19.4049144   2.3968515  65.7772342  22.0164125
   1.4791076  65.9987289  21.8585813   2.8128658  65.8518653  21.1575832
   3.1803562  67.1763758  17.1466805   3.9275381  67.6885155  16.8373927
   3.4495152  66.8547811  18.0071199   6.6849480  73.2828888  17.8984927
   6.2311807  72.4419798  17.9550117   6.0543447  73.9190286  18.2359707
   5.6282399  64.2120874  19.1285594   4.8905156  63.6998260  19.4595837
   5.8809173  63.7721256  18.3168871   5.1282419  75.1205385  18.8334745
   5.4205393  75.6810442  18.1147111   5.6381040  75.4133946  19.5887904
   5.7294027  56.9897126  19.7227364   6.0352904  56.1294490  19.4353279
   6.4546632  57.5814746  19.5226358   3.5381678  66.3669803  26.8208827
   3.8931066  66.5941277  27.6803293   4.1853809  66.6988180  26.1986083
   9.2679415  69.4888239  17.5258156   9.1297314  69.6789835  16.5979346
   8.9115634  70.2507622  17.9826208   9.2948795  71.5564766  22.5369428
   9.7285301  71.4640055  23.3852482  10.0080375  71.5322267  21.8989444
   3.0276690  75.1566860  24.0702529   3.0813712  75.7257797  24.8380245
   2.1591471  75.3268745  23.7056566  10.1564344  71.5988467  25.0702313
  10.3500234  72.5034277  25.3161588  10.0564962  71.1395886  25.9040898
   1.8100655  61.4846358  27.5692641   1.1628570  62.1836307  27.4757117
   2.5801670  61.9182501  27.9368889   5.2179453  71.7495210  30.6443194
   5.0664959  71.5205761  29.7273278   5.2084132  72.7065811  30.6574539
   1.9864789  69.3227122  25.6289460   2.9156849  69.4738282  25.4558428
   1.5655819  69.4111143  24.7738107   2.3358336  72.7259390  20.7876836
   2.0008169  72.6860160  21.6834486   1.8362282  72.0604105  20.3147246
   6.9271660  74.7814332  28.7219676   6.8684206  74.0973552  28.0550259
   7.3291178  75.5233322  28.2700302   6.9289067  72.7453916  26.9533656
   6.0415846  72.4079838  27.0760054   7.4987618  72.0136947  27.1902421
   3.5576650  62.4521768  20.0731926   4.0545349  61.6991730  19.7532996
   2.7863631  62.4886085  19.5075135  11.4106407  68.1562134  21.7150217
  11.3996284  69.0386849  21.3444150  10.5423787  67.8033684  21.5204754
   2.9188904  77.3042203  26.0753057   3.6316876  77.9389667  26.0028959
   2.4278932  77.4006069  25.2593059   4.6406431  71.2093455  17.6470349
   3.7062709  71.3294918  17.4775053   4.8183099  70.3065922  17.3830359
   8.0278982  67.0510775  18.1820383   8.4939434  67.8838766  18.1080686
   8.4786482  66.5855756  18.8865642   6.0955213  73.3954596  15.1806535
   6.3715057  73.2811190  16.0900409   5.2259712  72.9972081  15.1418708
   5.9995645  59.4191362  22.2211285   5.0858725  59.6495588  22.3893491
   6.4288746  59.5029806  23.0725317   5.7702103  67.6081254  24.7211179
   5.1173553  67.8557161  24.0663631   6.1482483  66.7945392  24.3873656
   1.8189676  68.3501065  31.2077216   1.1430313  68.2495194  31.8779591
   2.6417310  68.1940278  31.6713213   0.5612459  79.6567992  25.4434832
   1.1130767  79.8199614  26.2083917   0.9018653  80.2472430  24.7714857
   5.4123333  74.4829250  31.2983486   5.9563237  75.0959208  30.8038441
   4.8310178  75.0408828  31.8150499   3.6980846  77.6049968  22.4298514
   3.5731986  76.8039707  21.9209459   4.3559938  78.0996161  21.9412484
   5.7615755  75.4058988  24.0578064   4.8146090  75.2864339  23.9856391
   6.1098528  74.5181486  24.1404325   2.7662188  75.2011704  20.2582416
   2.6187151  74.2728411  20.4389986   3.5915682  75.2231795  19.7739491
   6.3696310  76.0240263  21.3447289   7.2942857  75.8183124  21.2071740
   6.2011613  75.7756664  22.2536630   2.7623702  63.0549541  15.2514533
   2.9787317  63.9374179  14.9503362   2.2817770  62.6635755  14.5220175
   1.2145437  63.4375143  23.9219295   0.9563215  64.3592214  23.9203625
   0.6830478  63.0405577  24.6119759   6.1591626  76.5425930  16.7009380
   6.3328504  75.9772353  15.9483233   6.6520517  77.3426825  16.5188870
   1.6347393  59.5707093  20.2820458   1.6569090  59.6346427  19.3272437
   2.0515452  58.7311602  20.4760964  12.0131017  69.3062353  18.3199680
  12.4562163  68.5569678  17.9218803  11.1357528  69.2972489  17.9373412
   9.0458222  73.3092400  15.3293609   9.5709546  73.6479673  14.6042929
   8.9580574  72.3739415  15.1456744   0.7078270  77.2226474  27.4583486
   1.0165397  76.9775620  28.3306186   1.5053752  77.4273112  26.9702356
   8.7352128  73.9425304  30.6344807   7.9447672  73.9249442  30.0949307
   8.4985482  74.4813597  31.3893844   8.8550003  70.7917770  27.9477536
   8.9048008  70.6267777  28.8893059   8.7463926  69.9245029  27.5575417
   6.1453765  66.7748698  29.2636843   7.0463628  66.6355163  28.9720840
   6.2201740  66.9403153  30.2035020  10.3568200  73.2114711  28.1919557
  10.0653008  73.5744692  29.0283018   9.7440331  72.4981720  28.0132890
  11.5563882  70.7767591  20.7122128  12.3910773  71.2157395  20.8759688
  11.6923011  70.3006244  19.8930373   8.6055388  68.3347326  26.6599615
   9.0809510  68.5274972  25.8518467   7.6820953  68.3906512  26.4142999
   3.1835604  60.3695170  25.6255449   3.7017548  61.1056197  25.3001938
   2.8290737  60.6759163  26.4602208   3.4348199  56.7895452  21.1456346
   3.7149952  56.1218641  21.7716772   4.2198805  56.9824548  20.6331010
   7.3057057  65.2113086  24.8927921   8.2574480  65.3111184  24.9140145
   7.1360507  64.4191355  25.4026005   5.3271436  62.2968669  25.0787322
   4.7321369  62.5773682  24.3833811   5.0421133  62.7862570  25.8504063
   9.7845135  68.4319206  24.0070221   9.7521455  67.4935207  24.1929904
  10.3945758  68.5103243  23.2736046   9.9339623  65.2230249  24.0528504
   9.4178672  64.4388706  23.8658433  10.8179572  64.8948966  24.2175023
   7.5950350  58.9671265  20.0124317   7.3975171  58.6586353  20.8967648
   8.2050056  59.6932904  20.1422246  15.6021685  69.4935213  23.1476257
  16.3325073  69.2320501  23.7083961  14.9928630  68.7563935  23.1878325
  13.6836982  67.6343075  23.7450709  12.9570145  67.4999040  23.1367200
  13.2684269  67.9419904  24.5507427   1.5067158  71.3533005  31.5098082
   2.4270168  71.5311604  31.7038128   1.4716741  70.4089050  31.3577781
   1.4233448  59.7702125  16.1396551   0.6134177  59.4249210  16.5151797
   2.1117865  59.4609669  16.7284163   3.3523997  58.8480172  17.7620848
   3.9055035  59.2675625  18.4210871   3.5894083  57.9215920  17.8043804
   6.7302804  60.9580697  17.2699512   6.1501473  61.6165501  16.8877565
   6.4638737  60.1358042  16.8586930   5.1806370  60.3585755  19.4720832
   5.6806149  60.4702289  18.6635151   5.8241978  60.0546807  20.1121641
   5.5127682  63.1180787  16.3255860   4.6253537  63.4030438  16.1076055
   5.9281671  62.9574551  15.4783137   8.8642218  63.1427308  20.0410200
   9.6402608  63.6323761  20.3134816   8.1390352  63.5685362  20.4982069
  11.3014777  63.8554928  21.0984140  11.8959267  63.6150663  20.3877449
  11.3741360  63.1362058  21.7257677   5.4868706  68.6335323  16.5406151
   5.4303907  69.0903875  15.7013783   6.0397048  67.8726008  16.3628993
   9.2973512  64.4225055  17.3656270   9.0410446  64.0221691  18.1964478
   8.6726380  65.1368849  17.2406409  13.6085849  67.1621128  19.8727561
  13.0485407  67.2314318  20.6459124  13.0029353  66.9862113  19.1527058
   6.2203485  69.8240104  13.8358680   6.1652289  69.6584376  12.8947124
   5.5949540  70.5316137  13.9920869   3.5349392  72.1289016  33.1612243
   4.4040552  72.3029669  32.7998877   3.0556144  72.9483433  33.0387972
   3.3451730  55.9190990  17.6689935   2.5784126  55.3649477  17.8146617
   3.7562435  55.9912859  18.5304087  15.1941868  83.8377642  22.5657517
  15.8320278  83.7184390  21.8620857  15.0762711  84.7858486  22.6245469
  12.0031574  83.7905070  22.5019042  11.6650086  83.6746135  21.6139577
  12.8721342  83.3896235  22.4820048  12.4851357  84.9439922  28.4605247
  12.4739998  84.5492720  27.5885751  12.6471997  84.2105995  29.0539019
   9.2058618  87.7277034  27.4084431   8.9148484  88.6322665  27.2931098
   9.8415603  87.7693562  28.1228501  10.1314825  85.1053882  23.9985791
  10.7278397  84.8809905  23.2842754  10.1889797  84.3638628  24.6011239
  14.7483136  81.5629096  19.6410725  15.5346226  81.1448519  19.2901142
  15.0121841  82.4675188  19.8092374  20.1491563  81.5004329  20.5443704
  20.8816735  80.9303546  20.7781533  19.3930919  81.1125930  20.9850209
  11.7667683  83.9231571  17.7407046  11.4025890  83.3962192  18.4519968
  12.6234799  83.5330040  17.5673532  17.6716984  75.2125903  25.0038312
  17.3400309  76.0821314  24.7799527  17.0762597  74.8962187  25.6832343
  14.1648503  87.4138449  24.4034225  13.8649226  88.3163488  24.2950032
  13.8199563  87.1470633  25.2555378   7.6160985  83.8652246  20.4370929
   6.6911481  83.7328460  20.6448621   7.8645398  84.6446466  20.9340872
  17.5645647  79.9320990  22.0831662  16.6562524  79.8636398  21.7890423
  17.5133243  80.4092935  22.9113488  11.6386513  81.3510635  30.0266560
  10.8619847  81.9104555  30.0169424  12.2777076  81.8367418  30.5481430
  19.4307293  78.1337428  23.8609536  18.7881674  78.4269961  23.2149331
  18.9262222  78.0190348  24.6662733  17.0847457  81.8800601  14.5495396
  17.9965313  82.1127988  14.3743093  16.5757104  82.4637645  13.9870474
   9.8932885  84.1596089  29.5884527  10.6347570  84.6981133  29.3119350
   9.1869871  84.7862377  29.7456078  15.3688225  86.3025229  28.1856688
  15.7771581  85.8607640  27.4411321  14.6465486  85.7277857  28.4390881
  11.7219295  81.2397836  25.5590245  12.5680490  81.6637249  25.7024894
  11.6617933  80.5831460  26.2528808  15.6917039  86.8626420  21.9408977
  15.0625902  87.0272134  21.2385045  15.3042702  87.2768029  22.7119941
  19.5706271  87.7980858  19.2953341  18.8857310  88.1779759  18.7450374
  19.6550121  88.4076184  20.0285289  14.8718740  78.9002204  27.2171419
  14.6279672  79.6544265  26.6805694  15.1478671  79.2787552  28.0518666
  16.8257203  85.4440817  25.8948684  17.0374098  86.0872576  25.2183065
  16.7786951  84.6103133  25.4270614  14.4283432  78.0558637  22.7985256
  13.5667911  78.3539891  23.0901994  14.4545867  78.2729036  21.8666289
  11.2445001  86.6000828  19.2059062  11.7083347  86.8788531  18.4163685
  10.9801799  85.6984272  19.0232153   8.1369082  86.1472309  22.1438825
   8.7070439  86.5759578  21.5056310   8.7277194  85.8654894  22.8423011
   8.6294249  81.3135737  30.3899837   7.9992910  81.9952018  30.6235233
   8.5230337  81.2018818  29.4452975  17.9403031  88.3212772  24.0671042
  18.7620475  87.9192959  23.7853723  17.9365434  88.2181006  25.0187157
  11.7059634  87.8696815  26.2231752  11.7704067  88.3317222  27.0589924
  10.9970558  87.2394180  26.3514062   2.2076924  81.2338023  23.7480752
   2.4584963  82.1185033  24.0138328   2.7436473  81.0542625  22.9755843
  26.0309024  84.6651520  20.4156013  25.2772732  84.0958919  20.2600018
  26.1656565  84.6314185  21.3626648   7.9074992  75.6156503  32.7525088
   7.5141937  75.0622701  33.4272732   8.7241132  75.9267081  33.1431605
  10.8242953  77.0314382  30.3445344  11.5652666  77.6321535  30.2649807
  11.0560875  76.2892019  29.7863387   5.9684291  82.2170749  28.6223574
   5.8537806  81.3156006  28.9230673   5.1128808  82.4634446  28.2708391
  13.0476128  90.1588489  30.2211075  12.6039983  89.3724868  29.9031979
  13.7093342  90.3467640  29.5554965   7.8063250  91.6884291  24.7471753
   8.3570675  91.5601354  23.9748747   6.9674725  91.9879180  24.3966646
  15.1457366  90.4391289  28.2492476  15.1275842  91.2600170  27.7572745
  16.0677287  90.3145364  28.4742617  11.6030421  87.9535419  29.0915984
  12.1358757  87.1923707  28.8615292  11.0744502  87.6609070  29.8340139
  14.7700116  73.0595485  24.6209626  14.4264385  73.9497126  24.5448737
  15.1379078  72.8697142  23.7579211  12.3197509  77.8953797  18.1867299
  11.4639106  77.5060647  18.0072938  12.7324461  77.9745757  17.3267085
  13.8496656  75.4300140  22.5858859  13.3461452  75.3930275  21.7726664
  14.1427263  76.3392883  22.6455516  10.0939542  75.5138870  21.5925041
  10.9592539  75.3181678  21.2330930  10.1617051  75.2849221  22.5194398
  19.7084672  85.8036450  15.0635235  18.9314115  85.4647610  14.6190397
  20.3876153  85.8089074  14.3890200  14.5236701  80.9231188  14.9541842
  14.2186837  81.2377337  15.8051985  15.4767144  81.0012608  14.9969175
  17.9475979  85.2770432  21.7201843  17.2899654  85.9669693  21.8081971
  18.7516379  85.6666864  22.0635829   7.7001861  77.7441077  18.9641408
   8.2745613  77.5216259  18.2314601   8.2872843  77.8129772  19.7170009
  16.7581438  83.6314804  19.7705784  17.2713320  84.2644796  20.2727494
  17.4082662  83.0316000  19.4049144  10.0024529  74.6182326  17.6916477
   9.3488941  74.3031344  17.0673092   9.9605003  73.9958067  18.4176300
  13.2362269  81.1064260  22.0164125  12.3184830  81.3279207  21.8585813
  13.6522413  81.1810570  21.1575832  14.0197317  82.5055676  17.1466805
  14.7669136  83.0177073  16.8373927  14.2888906  82.1839728  18.0071199
  17.5243234  88.6120806  17.8984927  17.0705561  87.7711716  17.9550117
  16.8937201  89.2482204  18.2359707  16.4676154  79.5412792  19.1285594
  15.7298911  79.0290178  19.4595837  16.7202927  79.1013173  18.3168871
  15.9676174  90.4497302  18.8334745  16.2599148  91.0102360  18.1147111
  16.4774794  90.7425863  19.5887904  16.5687781  72.3189044  19.7227364
  16.8746658  71.4586407  19.4353279  17.2940386  72.9106664  19.5226358
  10.8408861  82.6142837  20.2303555  10.8957471  81.6616673  20.1546031
  10.0300063  82.7702276  20.7144853   8.7801221  81.2319897  17.9893934
   7.9669086  81.5314067  18.3959126   9.2760215  80.8375585  18.7068416
  14.3775433  81.6961721  26.8208827  14.7324820  81.9233194  27.6803293
  15.0247564  82.0280098  26.1986083  20.1073170  84.8180157  17.5258156
  19.9691068  85.0081753  16.5979346  19.7509388  85.5799540  17.9826208
   8.2715296  78.8038252  23.6055169   8.9114675  78.6627011  22.9078132
   7.4392826  78.5172766  23.2293771  20.1342549  86.8856684  22.5369428
  20.5679056  86.7931973  23.3852482  20.8474130  86.8614184  21.8989444
  13.8670444  90.4858778  24.0702529  13.9207466  91.0549714  24.8380245
  12.9985225  90.6560663  23.7056566   5.2743912  78.7738577  18.3828155
   5.5350729  79.6883910  18.2737316   6.0961084  78.3063020  18.5324768
   6.7468837  80.1876334  25.5526980   7.4191891  79.9793696  24.9039629
   5.9198624  79.9898420  25.1132212  20.9958099  86.9280385  25.0702313
  21.1893989  87.8326195  25.3161588  20.8958717  86.4687804  25.9040898
  12.6494409  76.8138275  27.5692641  12.0022324  77.5128225  27.4757117
  13.4195425  77.2474419  27.9368889  16.0573207  87.0787127  30.6443194
  15.9058714  86.8497679  29.7273278  16.0477887  88.0357729  30.6574539
  12.8258544  84.6519040  25.6289460  13.7550604  84.8030200  25.4558428
  12.4049574  84.7403061  24.7738107  11.6246876  88.6769705  23.3987998
  11.4857961  88.3088489  24.2713936  10.8361472  89.1917344  23.2271956
  13.1752091  88.0551307  20.7876836  12.8401923  88.0152077  21.6834486
  12.6756036  87.3896023  20.3147246   7.1496335  83.4618937  26.3129417
   7.0116133  82.7299176  26.9140956   8.0601258  83.3727837  26.0313605
   9.7778635  83.1738897  25.8013097  10.4878254  82.5332089  25.7599715
   9.7347943  83.4251791  26.7239277  17.7665414  90.1106250  28.7219676
  17.7077960  89.4265470  28.0550259  18.1684932  90.8525240  28.2700302
   8.4907569  80.1604114  27.6208736   7.9544926  79.7094853  28.2730332
   7.9024278  80.2950023  26.8779200  17.7682821  88.0745834  26.9533656
  16.8809600  87.7371756  27.0760054  18.3381372  87.3428865  27.1902421
   4.2246691  79.2960122  24.7061731   4.1404879  78.6885792  23.9712141
   3.4029397  79.7869141  24.7071227  11.2983975  92.7347286  23.9194899
  11.2254146  93.5402258  24.4314203  10.8561368  92.9339252  23.0942920
  14.3970404  77.7813686  20.0731926  14.8939104  77.0283648  19.7532996
  13.6257386  77.8178002  19.5075135  22.2500162  83.4854051  21.7150217
  22.2390038  84.3678767  21.3444150  21.3817541  83.1325602  21.5204754
  13.7582658  92.6334120  26.0753057  14.4710630  93.2681585  26.0028959
  13.2672687  92.7297986  25.2593059  15.4800185  86.5385373  17.6470349
  14.5456464  86.6586835  17.4775053  15.6576854  85.6357840  17.3830359
  10.9805373  79.9231069  19.8003610  10.6103161  79.3702109  20.4884516
  11.4764466  79.3189202  19.2478610  18.8672736  82.3802692  18.1820383
  19.3333189  83.2130684  18.1080686  19.3180237  81.9147674  18.8865642
   8.8094572  90.3828564  26.8958628   9.5104031  91.0165047  27.0488022
   8.3389687  90.7243295  26.1354268  16.9348968  88.7246514  15.1806535
  17.2108811  88.6103108  16.0900409  16.0653466  88.3263998  15.1418708
  16.8389399  74.7483279  22.2211285  15.9252479  74.9787506  22.3893491
  17.2682501  74.8321723  23.0725317  16.6095858  82.9373171  24.7211179
  15.9567308  83.1849079  24.0663631  16.9876238  82.1237309  24.3873656
  12.6583431  83.6792982  31.2077216  11.9824068  83.5787112  31.8779591
  13.4811065  83.5232196  31.6713213  11.4006214  94.9859910  25.4434832
  11.9524522  95.1491531  26.2083917  11.7412407  95.5764348  24.7714857
   6.3770707  77.3335059  26.0456716   6.4412033  78.1949890  25.6334114
   6.3137827  76.7209061  25.3129075   5.8522979  79.4058192  29.6929751
   6.4795018  79.0235269  30.3067275   4.9950898  79.1872394  30.0585443
  16.2517088  89.8121167  31.2983486  16.7956992  90.4251125  30.8038441
  15.6703933  90.3700746  31.8150499  14.5374601  92.9341885  22.4298514
  14.4125740  92.1331625  21.9209459  15.1953692  93.4288079  21.9412484
   6.1582769  79.2890618  21.6075654   5.4369355  79.9026585  21.4683127
   6.9476025  79.8248383  21.5292300  16.6009509  90.7350905  24.0578064
  15.6539845  90.6156256  23.9856391  16.9492282  89.8473403  24.1404325
   8.9609083  76.6245044  27.8816306   9.4843484  76.8707341  28.6442615
   8.7421416  77.4565079  27.4619443  13.6055943  90.5303622  20.2582416
  13.4580905  89.6020329  20.4389986  14.4309436  90.5523712  19.7739491
  17.2090064  91.3532180  21.3447289  18.1336612  91.1475042  21.2071740
  17.0405368  91.1048581  22.2536630  10.1661628  77.5658739  25.5665976
   9.8258448  76.7666552  25.9686656   9.4600634  77.8660450  24.9942810
  10.8178099  74.6508052  24.0193299  11.6404169  74.1768530  23.8972190
  11.0616163  75.4298536  24.5191986  13.6017457  78.3841459  15.2514533
  13.8181071  79.2666097  14.9503362  13.1211524  77.9927673  14.5220175
   8.3416678  81.3427172  21.8285278   8.1961259  81.6567475  22.7209559
   7.8641882  81.9612073  21.2756177  10.2013061  78.3329720  21.8766168
  10.1874630  77.4370814  21.5398465  10.9185489  78.3400384  22.5104454
  12.0539192  78.7667061  23.9219295  11.7956970  79.6884131  23.9203625
  11.5224232  78.3697495  24.6119759  16.9985381  91.8717848  16.7009380
  17.1722258  91.3064270  15.9483233  17.4914272  92.6718743  16.5188870
   2.8162340  83.8832517  24.7672939   2.2715808  84.6592325  24.8993213
   3.6941690  84.2303321  24.6092061   9.6049957  77.2144101  17.1453738
   9.7265868  76.2860747  17.3444625   9.3151999  77.2282787  16.2332053
  12.4741147  74.8999011  20.2820458  12.4962844  74.9638344  19.3272437
  12.8909206  74.0603520  20.4760964  22.8524772  84.6354271  18.3199680
  23.2955918  83.8861596  17.9218803  21.9751282  84.6264407  17.9373412
   3.6028362  83.0102413  27.6603096   2.8610098  83.1585048  28.2467726
   3.2821107  83.2710679  26.7969845  19.8851976  88.6384318  15.3293609
  20.4103300  88.9771590  14.6042929  19.7974329  87.7031333  15.1456744
  11.5472025  92.5518391  27.4583486  11.8559151  92.3067538  28.3306186
  12.3447507  92.7565030  26.9702356   9.0891037  78.7276098  31.3543670
   9.1379192  79.6038221  30.9721440   9.6313551  78.1853491  30.7815313
  19.5745882  89.2717221  30.6344807  18.7841426  89.2541360  30.0949307
  19.3379237  89.8105515  31.3893844  19.6943757  86.1209688  27.9477536
  19.7441762  85.9559695  28.8893059  19.5857681  85.2536947  27.5575417
  16.9847520  82.1040616  29.2636843  17.8857382  81.9647081  28.9720840
  17.0595494  82.2695071  30.2035020  11.3190325  79.4807470  28.1090029
  10.4493634  79.7741036  27.8372617  11.5549805  80.0647915  28.8297293
  21.1961954  88.5406629  28.1919557  20.9046762  88.9036610  29.0283018
  20.5834085  87.8273637  28.0132890  22.3957636  86.1059509  20.7122128
  23.2304528  86.5449313  20.8759688  22.5316765  85.6298162  19.8930373
  19.4449142  83.6639244  26.6599615  19.9203264  83.8566890  25.8518467
  18.5214708  83.7198430  26.4142999  14.0229359  75.6987087  25.6255449
  14.5411303  76.4348114  25.3001938  13.6684492  76.0051081  26.4602208
  14.2741953  72.1187370  21.1456346  14.5543707  71.4510559  21.7716772
  15.0592560  72.3116465  20.6331010  18.1450811  80.5405004  24.8927921
  19.0968234  80.6403102  24.9140145  17.9754262  79.7483272  25.4026005
  16.1665191  77.6260587  25.0787322  15.5715123  77.9065600  24.3833811
  15.8814888  78.1154488  25.8504063  20.6238889  83.7611124  24.0070221
  20.5915209  82.8227124  24.1929904  21.2339513  83.8395160  23.2736046
  20.7733378  80.5522167  24.0528504  20.2572426  79.7680624  23.8658433
  21.6573326  80.2240884  24.2175023  18.4344105  74.2963183  20.0124317
  18.2368926  73.9878271  20.8967648  19.0443810  75.0224821  20.1422246
  26.4415439  84.8227130  23.1476257  27.1718828  84.5612419  23.7083961
  25.8322385  84.0855852  23.1878325  24.5230736  82.9634993  23.7450709
  23.7963900  82.8290958  23.1367200  24.1078023  83.2711822  24.5507427
  12.3460913  86.6824923  31.5098082  13.2663922  86.8603522  31.7038128
  12.3110496  85.7380968  31.3577781   5.3422985  84.5925957  24.1520863
   5.5608995  85.5243065  24.1708897   5.7548759  84.2333932  24.9375667
  12.2627203  75.0994043  16.1396551  11.4527931  74.7541128  16.5151797
  12.9511620  74.7901586  16.7284163  14.1917751  74.1772089  17.7620848
  14.7448790  74.5967543  18.4210871  14.4287838  73.2507838  17.8043804
  10.2150850  80.1659163  33.5423612  10.1147577  81.1153520  33.4735703
   9.9972393  79.8377402  32.6699682  17.5696558  76.2872615  17.2699512
  16.9895227  76.9457419  16.8877565  17.3032491  75.4649959  16.8586930
  16.0200125  75.6877672  19.4720832  16.5199903  75.7994207  18.6635151
  16.6635733  75.3838725  20.1121641  10.0782121  83.5956302  32.3588673
   9.5949202  84.3956662  32.5652562  10.1643060  83.6064247  31.4056117
   6.0055458  87.4860837  24.3957107   6.9598712  87.4544779  24.3287039
   5.8067982  87.0251460  25.2107333   6.5954840  86.0561953  26.9627905
   7.4147729  86.5506031  26.9862742   6.8691648  85.1393921  26.9345472
  16.3521436  78.4472705  16.3255860  15.4647291  78.7322356  16.1076055
  16.7675425  78.2866468  15.4783137  19.7035972  78.4719226  20.0410200
  20.4796363  78.9615678  20.3134816  18.9784107  78.8977280  20.4982069
  22.1408531  79.1846845  21.0984140  22.7353022  78.9442581  20.3877449
  22.2135115  78.4653976  21.7257677  16.3262460  83.9627241  16.5406151
  16.2697661  84.4195792  15.7013783  16.8790803  83.2017926  16.3628993
  20.1367266  79.7516973  17.3656270  19.8804200  79.3513608  18.1964478
  19.5120134  80.4660767  17.2406409  24.4479604  82.4913046  19.8727561
  23.8879162  82.5606235  20.6459124  23.8423107  82.3154031  19.1527058
  17.0597239  85.1532022  13.8358680  17.0046043  84.9876294  12.8947124
  16.4343295  85.8608055  13.9920869   1.8489754  80.3900087  27.6620102
   2.4948618  79.8799041  28.1507327   1.6406905  81.1268768  28.2363527
  14.3743147  87.4580934  33.1612243  15.2434306  87.6321586  32.7998877
  13.8949898  88.2775351  33.0387972  10.3693365  74.6540131  13.4143998
  10.3572035  75.5981971  13.5712269  11.2616787  74.4710277  13.1203459
   8.5429327  94.5778035  24.8401676   9.4456573  94.6101645  25.1568171
   8.3166697  93.6478486  24.8548012  14.1845484  71.2482908  17.6689935
  13.4177880  70.6941395  17.8146617  14.5956189  71.3204777  18.5304087
   6.1887245  77.5367704  31.7595116   7.0518707  77.1804508  31.9698441
   5.6152656  77.1981598  32.4470520  26.0335622  99.1669560  22.5657517
  26.6714032  99.0476307  21.8620857  25.9156465 100.1150404  22.6245469
  22.8425329  99.1196988  22.5019042  22.5043840  99.0038053  21.6139577
  23.7115097  98.7188153  22.4820048  23.3245112 100.2731840  28.4605247
  23.3133752  99.8784638  27.5885751  23.4865751  99.5397912  29.0539019
  20.0452373 103.0568952  27.4084431  19.7542239 103.9614582  27.2931098
  20.6809357 103.0985479  28.1228501  20.9708580 100.4345800  23.9985791
  21.5672152 100.2101823  23.2842754  21.0283551  99.6930546  24.6011239
  25.5876891  96.8921014  19.6410725  26.3739980  96.4740437  19.2901142
  25.8515595  97.7967106  19.8092374  30.9885318  96.8296247  20.5443704
  31.7210490  96.2595464  20.7781533  30.2324674  96.4417847  20.9850209
  22.6061438  99.2523489  17.7407046  22.2419645  98.7254109  18.4519968
  23.4628554  98.8621958  17.5673532  28.5110738  90.5417821  25.0038312
  28.1794063  91.4113232  24.7799527  27.9156352  90.2254105  25.6832343
  25.0042258 102.7430367  24.4034225  24.7042981 103.6455406  24.2950032
  24.6593317 102.4762550  25.2555378  18.4554739  99.1944164  20.4370929
  17.5305236  99.0620378  20.6448621  18.7039152  99.9738383  20.9340872
  28.4039402  95.2612907  22.0831662  27.4956279  95.1928316  21.7890423
  28.3526997  95.7384852  22.9113488  22.4780267  96.6802553  30.0266560
  21.7013601  97.2396473  30.0169424  23.1170830  97.1659336  30.5481430
  30.2701048  93.4629346  23.8609536  29.6275428  93.7561879  23.2149331
  29.7655977  93.3482266  24.6662733  27.9241212  97.2092519  14.5495396
  28.8359068  97.4419906  14.3743093  27.4150859  97.7929563  13.9870474
  20.7326640  99.4888006  29.5884527  21.4741324 100.0273050  29.3119350
  20.0263625 100.1154295  29.7456078  26.2081979 101.6317147  28.1856688
  26.6165335 101.1899557  27.4411321  25.4859241 101.0569774  28.4390881
  22.5613049  96.5689753  25.5590245  23.4074245  96.9929167  25.7024894
  22.5011687  95.9123378  26.2528808  26.5310794 102.1918337  21.9408977
  25.9019656 102.3564051  21.2385045  26.1436456 102.6059947  22.7119941
  30.4100026 103.1272775  19.2953341  29.7251064 103.5071677  18.7450374
  30.4943875 103.7368102  20.0285289  25.7112495  94.2294122  27.2171419
  25.4673427  94.9836182  26.6805694  25.9872425  94.6079469  28.0518666
  27.6650957 100.7732734  25.8948684  27.8767853 101.4164494  25.2183065
  27.6180706  99.9395051  25.4270614  25.2677186  93.3850555  22.7985256
  24.4061665  93.6831808  23.0901994  25.2939621  93.6020954  21.8666289
  22.0838756 101.9292745  19.2059062  22.5477101 102.2080448  18.4163685
  21.8195554 101.0276190  19.0232153  18.9762837 101.4764227  22.1438825
  19.5464194 101.9051495  21.5056310  19.5670949 101.1946812  22.8423011
  19.4688003  96.6427654  30.3899837  18.8386664  97.3243935  30.6235233
  19.3624091  96.5310736  29.4452975  28.7796785 103.6504690  24.0671042
  29.6014229 103.2484877  23.7853723  28.7759188 103.5472924  25.0187157
  22.5453389 103.1988733  26.2231752  22.6097821 103.6609140  27.0589924
  21.8364313 102.5686098  26.3514062  13.0470679  96.5629941  23.7480752
  13.2978717  97.4476951  24.0138328  13.5830227  96.3834542  22.9755843
  36.8702778  99.9943438  20.4156013  36.1166487  99.4250836  20.2600018
  37.0050320  99.9606103  21.3626648  18.7468746  90.9448420  32.7525088
  18.3535692  90.3914619  33.4272732  19.5634886  91.2558999  33.1431605
  21.6636707  92.3606299  30.3445344  22.4046421  92.9613453  30.2649807
  21.8954630  91.6183937  29.7863387  16.8078045  97.5462667  28.6223574
  16.6931560  96.6447924  28.9230673  15.9522563  97.7926363  28.2708391
  23.8869883 105.4880407  30.2211075  23.4433737 104.7016785  29.9031979
  24.5487096 105.6759557  29.5554965  18.6457004 107.0176209  24.7471753
  19.1964429 106.8893272  23.9748747  17.8068480 107.3171098  24.3966646
  25.9851121 105.7683207  28.2492476  25.9669596 106.5892088  27.7572745
  26.9071041 105.6437282  28.4742617  22.4424175 103.2827336  29.0915984
  22.9752512 102.5215625  28.8615292  21.9138256 102.9900988  29.8340139
  25.6093870  88.3887402  24.6209626  25.2658139  89.2789044  24.5448737
  25.9772833  88.1989060  23.7579211  23.1591264  93.2245714  18.1867299
  22.3032860  92.8352565  18.0072938  23.5718216  93.3037675  17.3267085
  24.6890410  90.7592057  22.5858859  24.1855206  90.7222193  21.7726664
  24.9821017  91.6684800  22.6455516  20.9333296  90.8430787  21.5925041
  21.7986293  90.6473596  21.2330930  21.0010805  90.6141139  22.5194398
  30.5478427 101.1328368  15.0635235  29.7707870 100.7939528  14.6190397
  31.2269908 101.1380991  14.3890200  25.3630456  96.2523106  14.9541842
  25.0580592  96.5669255  15.8051985  26.3160898  96.3304525  14.9969175
  28.7869734 100.6062349  21.7201843  28.1293408 101.2961611  21.8081971
  29.5910133 100.9958781  22.0635829  18.5395615  93.0732995  18.9641408
  19.1139367  92.8508177  18.2314601  19.1266598  93.1421690  19.7170009
  27.5975193  98.9606722  19.7705784  28.1107074  99.5936714  20.2727494
  28.2476417  98.3607918  19.4049144  20.8418283  89.9474244  17.6916477
  20.1882695  89.6323261  17.0673092  20.7998757  89.3249984  18.4176300
  24.0756023  96.4356178  22.0164125  23.1578585  96.6571125  21.8585813
  24.4916167  96.5102488  21.1575832  24.8591071  97.8347593  17.1466805
  25.6062890  98.3468990  16.8373927  25.1282661  97.5131646  18.0071199
  28.3636989 103.9412723  17.8984927  27.9099316 103.1003633  17.9550117
  27.7330956 104.5774122  18.2359707  27.3069908  94.8704709  19.1285594
  26.5692665  94.3582096  19.4595837  27.5596682  94.4305091  18.3168871
  26.8069928 105.7789220  18.8334745  27.0992902 106.3394277  18.1147111
  27.3168549 106.0717781  19.5887904  27.4081536  87.6480961  19.7227364
  27.7140413  86.7878325  19.4353279  28.1334141  88.2398582  19.5226358
  21.6802615  97.9434755  20.2303555  21.7351225  96.9908591  20.1546031
  20.8693817  98.0994194  20.7144853  19.6194975  96.5611814  17.9893934
  18.8062841  96.8605985  18.3959126  20.1153970  96.1667503  18.7068416
  25.2169187  97.0253639  26.8208827  25.5718575  97.2525112  27.6803293
  25.8641318  97.3572016  26.1986083  30.9466924 100.1472075  17.5258156
  30.8084823 100.3373671  16.5979346  30.5903143 100.9091457  17.9826208
  19.1109050  94.1330170  23.6055169  19.7508429  93.9918929  22.9078132
  18.2786581  93.8464683  23.2293771  30.9736304 102.2148602  22.5369428
  31.4072810 102.1223891  23.3852482  31.6867884 102.1906102  21.8989444
  24.7064199 105.8150696  24.0702529  24.7601221 106.3841632  24.8380245
  23.8378980 105.9852581  23.7056566  16.1137667  94.1030495  18.3828155
  16.3744484  95.0175828  18.2737316  16.9354839  93.6354937  18.5324768
  17.5862592  95.5168252  25.5526980  18.2585645  95.3085614  24.9039629
  16.7592378  95.3190338  25.1132212  31.8351853 102.2572302  25.0702313
  32.0287743 103.1618113  25.3161588  31.7352471 101.7979721  25.9040898
  23.4888164  92.1430193  27.5692641  22.8416079  92.8420143  27.4757117
  24.2589179  92.5766337  27.9368889  26.8966962 102.4079045  30.6443194
  26.7452468 102.1789597  29.7273278  26.8871641 103.3649646  30.6574539
  23.6652298  99.9810958  25.6289460  24.5944358 100.1322117  25.4558428
  23.2443328 100.0694979  24.7738107  22.4640630 104.0061622  23.3987998
  22.3251716 103.6380407  24.2713936  21.6755226 104.5209262  23.2271956
  24.0145845 103.3843225  20.7876836  23.6795678 103.3443995  21.6834486
  23.5149791 102.7187941  20.3147246  17.9890089  98.7910855  26.3129417
  17.8509887  98.0591094  26.9140956  18.8995013  98.7019755  26.0313605
  20.6172390  98.5030814  25.8013097  21.3272008  97.8624006  25.7599715
  20.5741698  98.7543709  26.7239277  28.6059169 105.4398168  28.7219676
  28.5471715 104.7557388  28.0550259  29.0078687 106.1817158  28.2700302
  19.3301324  95.4896032  27.6208736  18.7938681  95.0386771  28.2730332
  18.7418032  95.6241941  26.8779200  28.6076576 103.4037752  26.9533656
  27.7203355 103.0663673  27.0760054  29.1775127 102.6720783  27.1902421
  15.0640445  94.6252040  24.7061731  14.9798634  94.0177709  23.9712141
  14.2423151  95.1161058  24.7071227  22.1377729 108.0639204  23.9194899
  22.0647901 108.8694175  24.4314203  21.6955122 108.2631170  23.0942920
  25.2364159  93.1105603  20.0731926  25.7332858  92.3575566  19.7532996
  24.4651140  93.1469920  19.5075135  33.0893916  98.8145969  21.7150217
  33.0783793  99.6970684  21.3444150  32.2211296  98.4617520  21.5204754
  24.5976413 107.9626038  26.0753057  25.3104385 108.5973503  26.0028959
  24.1066441 108.0589904  25.2593059  26.3193940 101.8677291  17.6470349
  25.3850218 101.9878753  17.4775053  26.4970608 100.9649757  17.3830359
  21.8199128  95.2522986  19.8003610  21.4496915  94.6994027  20.4884516
  22.3158220  94.6481120  19.2478610  29.7066491  97.7094610  18.1820383
  30.1726943  98.5422601  18.1080686  30.1573991  97.2439591  18.8865642
  19.6488326 105.7120481  26.8958628  20.3497786 106.3456964  27.0488022
  19.1783441 106.0535213  26.1354268  27.7742722 104.0538431  15.1806535
  28.0502566 103.9395026  16.0900409  26.9047221 103.6555916  15.1418708
  27.6783154  90.0775197  22.2211285  26.7646233  90.3079424  22.3893491
  28.1076255  90.1613641  23.0725317  27.4489612  98.2665089  24.7211179
  26.7961062  98.5140996  24.0663631  27.8269992  97.4529227  24.3873656
  23.4977185  99.0084900  31.2077216  22.8217822  98.9079029  31.8779591
  24.3204819  98.8524114  31.6713213  22.2399968 110.3151827  25.4434832
  22.7918276 110.4783449  26.2083917  22.5806162 110.9056265  24.7714857
  17.2164461  92.6626977  26.0456716  17.2805788  93.5241808  25.6334114
  17.1531582  92.0500979  25.3129075  16.6916734  94.7350110  29.6929751
  17.3188773  94.3527187  30.3067275  15.8344653  94.5164312  30.0585443
  27.0910842 105.1413085  31.2983486  27.6350746 105.7543043  30.8038441
  26.5097687 105.6992663  31.8150499  25.3768355 108.2633803  22.4298514
  25.2519495 107.4623543  21.9209459  26.0347446 108.7579996  21.9412484
  16.9976524  94.6182535  21.6075654  16.2763109  95.2318503  21.4683127
  17.7869779  95.1540300  21.5292300  27.4403264 106.0642823  24.0578064
  26.4933599 105.9448174  23.9856391  27.7886037 105.1765321  24.1404325
  19.8002837  91.9536962  27.8816306  20.3237239  92.1999258  28.6442615
  19.5815170  92.7856997  27.4619443  24.4449697 105.8595539  20.2582416
  24.2974659 104.9312247  20.4389986  25.2703191 105.8815630  19.7739491
  28.0483819 106.6824098  21.3447289  28.9730366 106.4766959  21.2071740
  27.8799122 106.4340499  22.2536630  21.0055382  92.8950657  25.5665976
  20.6652203  92.0958470  25.9686656  20.2994388  93.1952368  24.9942810
  21.6571854  89.9799969  24.0193299  22.4797923  89.5060448  23.8972190
  21.9009918  90.7590453  24.5191986  24.4411211  93.7133377  15.2514533
  24.6574826  94.5958015  14.9503362  23.9605279  93.3219590  14.5220175
  19.1810433  96.6719090  21.8285278  19.0355013  96.9859393  22.7209559
  18.7035636  97.2903990  21.2756177  21.0406816  93.6621638  21.8766168
  21.0268384  92.7662731  21.5398465  21.7579244  93.6692302  22.5104454
  22.8932946  94.0958978  23.9219295  22.6350724  95.0176049  23.9203625
  22.3617987  93.6989413  24.6119759  27.8379135 107.2009765  16.7009380
  28.0116013 106.6356188  15.9483233  28.3308026 108.0010660  16.5188870
  13.6556095  99.2124434  24.7672939  13.1109563  99.9884242  24.8993213
  14.5335445  99.5595239  24.6092061  20.4443712  92.5436018  17.1453738
  20.5659623  91.6152665  17.3444625  20.1545754  92.5574704  16.2332053
  23.3134902  90.2290929  20.2820458  23.3356599  90.2930262  19.3272437
  23.7302961  89.3895437  20.4760964  33.6918526  99.9646188  18.3199680
  34.1349672  99.2153514  17.9218803  32.8145037  99.9556325  17.9373412
  14.4422117  98.3394331  27.6603096  13.7003853  98.4876966  28.2467726
  14.1214861  98.6002596  26.7969845  30.7245731 103.9676235  15.3293609
  31.2497055 104.3063508  14.6042929  30.6368083 103.0323251  15.1456744
  22.3865779 107.8810309  27.4583486  22.6952906 107.6359456  28.3306186
  23.1841261 108.0856947  26.9702356  19.9284791  94.0568016  31.3543670
  19.9772947  94.9330138  30.9721440  20.4707305  93.5145409  30.7815313
  30.4139637 104.6009139  30.6344807  29.6235180 104.5833278  30.0949307
  30.1772991 105.1397433  31.3893844  30.5337512 101.4501605  27.9477536
  30.5835517 101.2851613  28.8893059  30.4251435 100.5828864  27.5575417
  27.8241274  97.4332533  29.2636843  28.7251137  97.2938998  28.9720840
  27.8989249  97.5986988  30.2035020  22.1584080  94.8099388  28.1090029
  21.2887389  95.1032954  27.8372617  22.3943560  95.3939833  28.8297293
  32.0355709 103.8698547  28.1919557  31.7440517 104.2328527  29.0283018
  31.4227840 103.1565555  28.0132890  33.2351391 101.4351427  20.7122128
  34.0698282 101.8741231  20.8759688  33.3710520 100.9590080  19.8930373
  30.2842897  98.9931161  26.6599615  30.7597018  99.1858808  25.8518467
  29.3608462  99.0490347  26.4142999  24.8623113  91.0279005  25.6255449
  25.3805057  91.7640032  25.3001938  24.5078246  91.3342998  26.4602208
  25.1135708  87.4479288  21.1456346  25.3937461  86.7802477  21.7716772
  25.8986314  87.6408383  20.6331010  28.9844566  95.8696922  24.8927921
  29.9361989  95.9695019  24.9140145  28.8148016  95.0775190  25.4026005
  27.0058945  92.9552505  25.0787322  26.4108877  93.2357517  24.3833811
  26.7208642  93.4446406  25.8504063  31.4632644  99.0903041  24.0070221
  31.4308964  98.1519042  24.1929904  32.0733267  99.1687078  23.2736046
  31.6127132  95.8814085  24.0528504  31.0966181  95.0972541  23.8658433
  32.4967081  95.5532801  24.2175023  29.2737859  89.6255100  20.0124317
  29.0762680  89.3170188  20.8967648  29.8837565  90.3516739  20.1422246
  37.2809194 100.1519048  23.1476257  38.0112582  99.8904336  23.7083961
  36.6716139  99.4147770  23.1878325  35.3624491  98.2926911  23.7450709
  34.6357654  98.1582876  23.1367200  34.9471778  98.6003739  24.5507427
  23.1854667 102.0116840  31.5098082  24.1057677 102.1895439  31.7038128
  23.1504250 101.0672886  31.3577781  16.1816740  99.9217875  24.1520863
  16.4002749 100.8534983  24.1708897  16.5942513  99.5625849  24.9375667
  23.1020957  90.4285960  16.1396551  22.2921686  90.0833045  16.5151797
  23.7905374  90.1193504  16.7284163  25.0311506  89.5064007  17.7620848
  25.5842544  89.9259461  18.4210871  25.2681592  88.5799755  17.8043804
  21.0544605  95.4951081  33.5423612  20.9541332  96.4445438  33.4735703
  20.8366147  95.1669320  32.6699682  28.4090313  91.6164532  17.2699512
  27.8288982  92.2749336  16.8877565  28.1426245  90.7941877  16.8586930
  26.8593879  91.0169590  19.4720832  27.3593658  91.1286125  18.6635151
  27.5029487  90.7130643  20.1121641  20.9175875  98.9248220  32.3588673
  20.4342957  99.7248580  32.5652562  21.0036814  98.9356164  31.4056117
  16.8449212 102.8152754  24.3957107  17.7992466 102.7836697  24.3287039
  16.6461736 102.3543378  25.2107333  17.4348595 101.3853870  26.9627905
  18.2541484 101.8797949  26.9862742  17.7085402 100.4685838  26.9345472
  27.1915191  93.7764623  16.3255860  26.3041046  94.0614273  16.1076055
  27.6069180  93.6158386  15.4783137  30.5429727  93.8011144  20.0410200
  31.3190117  94.2907596  20.3134816  29.8177861  94.2269198  20.4982069
  32.9802286  94.5138763  21.0984140  33.5746776  94.2734499  20.3877449
  33.0528869  93.7945893  21.7257677  27.1656215  99.2919159  16.5406151
  27.1091416  99.7487710  15.7013783  27.7184557  98.5309843  16.3628993
  30.9761020  95.0808890  17.3656270  30.7197955  94.6805526  18.1964478
  30.3513889  95.7952684  17.2406409  35.2873358  97.8204964  19.8727561
  34.7272916  97.8898153  20.6459124  34.6816862  97.6445948  19.1527058
  27.8990994 100.4823940  13.8358680  27.8439798 100.3168211  12.8947124
  27.2737049 101.1899973  13.9920869  12.6883509  95.7192004  27.6620102
  13.3342372  95.2090958  28.1507327  12.4800660  96.4560686  28.2363527
  25.2136901 102.7872852  33.1612243  26.0828061 102.9613504  32.7998877
  24.7343653 103.6067269  33.0387972  21.2087119  89.9832049  13.4143998
  21.1965789  90.9273889  13.5712269  22.1010541  89.8002194  13.1203459
  19.3823081 109.9069953  24.8401676  20.2850328 109.9393563  25.1568171
  19.1560451 108.9770404  24.8548012  25.0239239  86.5774825  17.6689935
  24.2571635  86.0233312  17.8146617  25.4349944  86.6496694  18.5304087
  17.0281000  92.8659621  31.7595116  17.8912461  92.5096426  31.9698441
  16.4546411  92.5273516  32.4470520  36.8729377 114.4961478  22.5657517
  37.5107787 114.3768225  21.8620857  36.7550220 115.4442322  22.6245469
  33.6819083 114.4488906  22.5019042  33.3437595 114.3329970  21.6139577
  34.5508851 114.0480071  22.4820048  34.1638866 115.6023757  28.4605247
  34.1527507 115.2076556  27.5885751  34.3259506 114.8689830  29.0539019
  36.4270645 112.2212931  19.6410725  37.2133735 111.8032355  19.2901142
  36.6909350 113.1259024  19.8092374  41.8279072 112.1588165  20.5443704
  42.5604244 111.5887382  20.7781533  41.0718428 111.7709765  20.9850209
  33.4455192 114.5815406  17.7407046  33.0813399 114.0546027  18.4519968
  34.3022308 114.1913875  17.5673532  39.3504493 105.8709739  25.0038312
  39.0187818 106.7405150  24.7799527  38.7550106 105.5546023  25.6832343
  39.2433156 110.5904825  22.0831662  38.3350033 110.5220233  21.7890423
  39.1920752 111.0676770  22.9113488  33.3174022 112.0094471  30.0266560
  32.5407356 112.5688391  30.0169424  33.9564585 112.4951254  30.5481430
  41.1094802 108.7921263  23.8609536  40.4669183 109.0853797  23.2149331
  40.6049731 108.6774184  24.6662733  38.7634966 112.5384437  14.5495396
  39.6752822 112.7711823  14.3743093  38.2544613 113.1221481  13.9870474
  33.4006804 111.8981671  25.5590245  34.2467999 112.3221085  25.7024894
  33.3405442 111.2415295  26.2528808  36.5506249 109.5586040  27.2171419
  36.3067181 110.3128100  26.6805694  36.8266180 109.9371387  28.0518666
  38.5044712 116.1024652  25.8948684  38.7161607 116.7456412  25.2183065
  38.4574460 115.2686968  25.4270614  36.1070941 108.7142473  22.7985256
  35.2455420 109.0123726  23.0901994  36.1333376 108.9312871  21.8666289
  30.3081758 111.9719572  30.3899837  29.6780418 112.6535853  30.6235233
  30.2017846 111.8602654  29.4452975  47.7096533 115.3235356  20.4156013
  46.9560241 114.7542754  20.2600018  47.8444074 115.2898020  21.3626648
  29.5862501 106.2740338  32.7525088  29.1929446 105.7206537  33.4272732
  30.4028641 106.5850916  33.1431605  32.5030462 107.6898217  30.3445344
  33.2440175 108.2905370  30.2649807  32.7348384 106.9475855  29.7863387
  36.4487625 103.7179320  24.6209626  36.1051894 104.6080962  24.5448737
  36.8166587 103.5280978  23.7579211  33.9985018 108.5537632  18.1867299
  33.1426615 108.1644482  18.0072938  34.4111970 108.6329593  17.3267085
  35.5284165 106.0883975  22.5858859  35.0248961 106.0514110  21.7726664
  35.8214772 106.9976718  22.6455516  31.7727051 106.1722705  21.5925041
  32.6380048 105.9765514  21.2330930  31.8404560 105.9433057  22.5194398
  41.3872181 116.4620286  15.0635235  40.6101624 116.1231445  14.6190397
  42.0663662 116.4672909  14.3890200  36.2024210 111.5815023  14.9541842
  35.8974346 111.8961172  15.8051985  37.1554653 111.6596443  14.9969175
  39.6263488 115.9354267  21.7201843  38.9687163 116.6253528  21.8081971
  40.4303888 116.3250699  22.0635829  29.3789370 108.4024913  18.9641408
  29.9533122 108.1800094  18.2314601  29.9660352 108.4713607  19.7170009
  38.4368947 114.2898640  19.7705784  38.9500829 114.9228632  20.2727494
  39.0870171 113.6899835  19.4049144  31.6812038 105.2766162  17.6916477
  31.0276450 104.9615179  17.0673092  31.6392512 104.6541902  18.4176300
  34.9149778 111.7648095  22.0164125  33.9972339 111.9863042  21.8585813
  35.3309922 111.8394406  21.1575832  35.6984826 113.1639511  17.1466805
  36.4456645 113.6760908  16.8373927  35.9676415 112.8423564  18.0071199
  38.1463663 110.1996627  19.1285594  37.4086420 109.6874013  19.4595837
  38.3990436 109.7597009  18.3168871  38.2475290 102.9772879  19.7227364
  38.5534167 102.1170243  19.4353279  38.9727895 103.5690499  19.5226358
  32.5196370 113.2726672  20.2303555  32.5744980 112.3200509  20.1546031
  31.7087572 113.4286111  20.7144853  30.4588730 111.8903732  17.9893934
  29.6456595 112.1897903  18.3959126  30.9547724 111.4959421  18.7068416
  36.0562942 112.3545556  26.8208827  36.4112329 112.5817030  27.6803293
  36.7035073 112.6863933  26.1986083  41.7860679 115.4763992  17.5258156
  41.6478577 115.6665588  16.5979346  41.4296897 116.2383375  17.9826208
  29.9502805 109.4622088  23.6055169  30.5902184 109.3210847  22.9078132
  29.1180335 109.1756601  23.2293771  41.8130058 117.5440519  22.5369428
  42.2466565 117.4515808  23.3852482  42.5261639 117.5198020  21.8989444
  26.9531421 109.4322412  18.3828155  27.2138238 110.3467746  18.2737316
  27.7748593 108.9646855  18.5324768  28.4256346 110.8460170  25.5526980
  29.0979400 110.6377532  24.9039629  27.5986133 110.6482256  25.1132212
  42.6745608 117.5864220  25.0702313  42.8681498 118.4910031  25.3161588
  42.5746226 117.1271639  25.9040898  34.3281918 107.4722111  27.5692641
  33.6809833 108.1712060  27.4757117  35.0982934 107.9058255  27.9368889
  34.5046053 115.3102875  25.6289460  35.4338113 115.4614035  25.4558428
  34.0837083 115.3986896  24.7738107  31.4566144 113.8322732  25.8013097
  32.1665763 113.1915924  25.7599715  31.4135452 114.0835627  26.7239277
  30.1695078 110.8187950  27.6208736  29.6332435 110.3678688  28.2730332
  29.5811787 110.9533859  26.8779200  25.9034200 109.9543958  24.7061731
  25.8192388 109.3469627  23.9712141  25.0816906 110.4452976  24.7071227
  36.0757913 108.4397521  20.0731926  36.5726613 107.6867483  19.7532996
  35.3044895 108.4761838  19.5075135  43.9287671 114.1437887  21.7150217
  43.9177547 115.0262602  21.3444150  43.0605050 113.7909437  21.5204754
  32.6592882 110.5814904  19.8003610  32.2890670 110.0285944  20.4884516
  33.1551975 109.9773038  19.2478610  40.5460245 113.0386528  18.1820383
  41.0120698 113.8714519  18.1080686  40.9967746 112.5731509  18.8865642
  38.5176908 105.4067115  22.2211285  37.6039988 105.6371341  22.3893491
  38.9470010 105.4905559  23.0725317  38.2883367 113.5957007  24.7211179
  37.6354817 113.8432914  24.0663631  38.6663747 112.7821145  24.3873656
  34.3370940 114.3376818  31.2077216  33.6611577 114.2370947  31.8779591
  35.1598574 114.1816031  31.6713213  28.0558216 107.9918895  26.0456716
  28.1199542 108.8533726  25.6334114  27.9925336 107.3792896  25.3129075
  27.5310488 110.0642027  29.6929751  28.1582527 109.6819105  30.3067275
  26.6738407 109.8456229  30.0585443  27.8370278 109.9474453  21.6075654
  27.1156864 110.5610421  21.4683127  28.6263534 110.4832218  21.5292300
  30.6396592 107.2828880  27.8816306  31.1630993 107.5291176  28.6442615
  30.4208925 108.1148914  27.4619443  31.8449137 108.2242575  25.5665976
  31.5045957 107.4250388  25.9686656  31.1388143 108.5244286  24.9942810
  32.4965608 105.3091887  24.0193299  33.3191678 104.8352365  23.8972190
  32.7403672 106.0882371  24.5191986  35.2804966 109.0425295  15.2514533
  35.4968580 109.9249932  14.9503362  34.7999033 108.6511508  14.5220175
  30.0204187 112.0011008  21.8285278  29.8748768 112.3151311  22.7209559
  29.5429391 112.6195908  21.2756177  31.8800570 108.9913556  21.8766168
  31.8662139 108.0954649  21.5398465  32.5972998 108.9984219  22.5104454
  33.7326701 109.4250896  23.9219295  33.4744479 110.3467967  23.9203625
  33.2011741 109.0281330  24.6119759  31.2837466 107.8727936  17.1453738
  31.4053377 106.9444582  17.3444625  30.9939508 107.8866622  16.2332053
  34.1528656 105.5582846  20.2820458  34.1750353 105.6222180  19.3272437
  34.5696715 104.7187355  20.4760964  44.5312281 115.2938106  18.3199680
  44.9743427 114.5445431  17.9218803  43.6538791 115.2848242  17.9373412
  30.7678546 109.3859933  31.3543670  30.8166701 110.2622056  30.9721440
  31.3101060 108.8437326  30.7815313  41.3731266 116.7793523  27.9477536
  41.4229271 116.6143530  28.8893059  41.2645190 115.9120782  27.5575417
  38.6635029 112.7624451  29.2636843  39.5644891 112.6230916  28.9720840
  38.7383003 112.9278906  30.2035020  32.9977834 110.1391306  28.1090029
  32.1281143 110.4324872  27.8372617  33.2337314 110.7231751  28.8297293
  44.0745145 116.7643344  20.7122128  44.9092037 117.2033148  20.8759688
  44.2104274 116.2881998  19.8930373  41.1236651 114.3223079  26.6599615
  41.5990773 114.5150725  25.8518467  40.2002217 114.3782265  26.4142999
  35.7016868 106.3570923  25.6255449  36.2198812 107.0931950  25.3001938
  35.3472001 106.6634916  26.4602208  35.9529462 102.7771205  21.1456346
  36.2331216 102.1094394  21.7716772  36.7380069 102.9700301  20.6331010
  39.8238320 111.1988839  24.8927921  40.7755743 111.2986937  24.9140145
  39.6541771 110.4067108  25.4026005  37.8452700 108.2844422  25.0787322
  37.2502632 108.5649435  24.3833811  37.5602397 108.7738323  25.8504063
  42.3026398 114.4194959  24.0070221  42.2702718 113.4810960  24.1929904
  42.9127022 114.4978996  23.2736046  42.4520887 111.2106002  24.0528504
  41.9359935 110.4264459  23.8658433  43.3360835 110.8824719  24.2175023
  40.1131614 104.9547018  20.0124317  39.9156435 104.6462106  20.8967648
  40.7231319 105.6808657  20.1422246  48.1202948 115.4810966  23.1476257
  48.8506337 115.2196254  23.7083961  47.5109894 114.7439688  23.1878325
  46.2018245 113.6218828  23.7450709  45.4751409 113.4874793  23.1367200
  45.7865532 113.9295657  24.5507427  33.9414712 105.7577878  16.1396551
  33.1315440 105.4124963  16.5151797  34.6299129 105.4485422  16.7284163
  35.8705260 104.8355925  17.7620848  36.4236299 105.2551378  18.4210871
  36.1075347 103.9091673  17.8043804  31.8938359 110.8242998  33.5423612
  31.7935086 111.7737355  33.4735703  31.6759901 110.4961237  32.6699682
  39.2484067 106.9456450  17.2699512  38.6682736 107.6041254  16.8877565
  38.9820000 106.1233795  16.8586930  37.6987634 106.3461508  19.4720832
  38.1987412 106.4578042  18.6635151  38.3423242 106.0422561  20.1121641
  38.0308945 109.1056540  16.3255860  37.1434800 109.3906191  16.1076055
  38.4462934 108.9450304  15.4783137  41.3823481 109.1303061  20.0410200
  42.1583872 109.6199514  20.3134816  40.6571616 109.5561116  20.4982069
  43.8196040 109.8430681  21.0984140  44.4140531 109.6026416  20.3877449
  43.8922624 109.1237811  21.7257677  38.0049969 114.6211076  16.5406151
  37.9485170 115.0779628  15.7013783  38.5578312 113.8601761  16.3628993
  41.8154775 110.4100808  17.3656270  41.5591709 110.0097444  18.1964478
  41.1907643 111.1244602  17.2406409  46.1267113 113.1496881  19.8727561
  45.5666671 113.2190071  20.6459124  45.5210616 112.9737866  19.1527058
  38.7384748 115.8115858  13.8358680  38.6833552 115.6460129  12.8947124
  38.1130804 116.5191890  13.9920869  23.5277263 111.0483922  27.6620102
  24.1736127 110.5382876  28.1507327  23.3194414 111.7852604  28.2363527
  32.0480874 105.3123967  13.4143998  32.0359544 106.2565806  13.5712269
  32.9404296 105.1294112  13.1203459  35.8632993 101.9066743  17.6689935
  35.0965389 101.3525230  17.8146617  36.2743698 101.9788612  18.5304087
  27.8674754 108.1951539  31.7595116  28.7306216 107.8388344  31.9698441
  27.2940165 107.8565434  32.4470520  47.2881379 119.0471238  24.6209626
  46.9445648 119.9372879  24.5448737  47.6560342 118.8572895  23.7579211
  49.0869045 118.3064797  19.7227364  49.3927922 117.4462160  19.4353279
  49.8121650 118.8982417  19.5226358  46.7923217 118.1063123  21.1456346
  47.0724970 117.4386312  21.7716772  47.5773823 118.2992219  20.6331010
  50.9525368 120.2838936  20.0124317  50.7550189 119.9754024  20.8967648
  51.5625074 121.0100575  20.1422246  46.7026748 117.2358661  17.6689935
  45.9359144 116.6817148  17.8146617  47.1137453 117.3080530  18.5304087
   6.9271661  51.7876455  15.4464983   6.8684207  51.1035675  14.7795566
   7.3291179  52.5295445  14.9945609   5.4123335  51.4891372  18.0228793
   5.9563239  52.1021330  17.5283748   4.8310180  52.0470951  18.5395806
   8.7352129  50.9487426  17.3590114   7.9447673  50.9311565  16.8194613
   8.4985484  51.4875720  18.1139151  10.3568201  50.2176834  14.9164864
  10.0653009  50.5806815  15.7528325   9.7440332  49.5043842  14.7378196
   3.5349393  49.1351139  19.8857549   4.4040553  49.3091791  19.5244184
   3.0556145  49.9545556  19.7633279  15.1941869  60.8439765   9.2902824
  15.8320279  60.7246512   8.5866164  15.0762712  61.7920609   9.3490776
  12.0031575  60.7967193   9.2264349  11.6650087  60.6808258   8.3384883
  12.8721344  60.3958358   9.2065355  12.4851358  61.9502045  15.1850554
  12.4739999  61.5554843  14.3131058  12.6471998  61.2168117  15.7784326
   9.2058619  64.7339157  14.1329738   8.9148485  65.6384787  14.0176404
   9.8415604  64.7755684  14.8473808  10.1314826  62.1116005  10.7231098
  10.7278399  61.8872027  10.0088061  10.1889798  61.3700751  11.3256546
  20.1491565  58.5066452   7.2689010  20.8816737  57.9365669   7.5026840
  19.3930920  58.1188052   7.7095516  17.6716985  52.2188026  11.7283619
  17.3400310  53.0883437  11.5044834  17.0762598  51.9024310  12.4077649
  14.1648505  64.4200572  11.1279532  13.8649228  65.3225611  11.0195339
  13.8199564  64.1532755  11.9800685  17.5645648  56.9383112   8.8076969
  16.6562526  56.8698521   8.5135730  17.5133244  57.4155057   9.6358795
  11.6386514  58.3572758  16.7511866  10.8619848  58.9166678  16.7414731
  12.2777077  58.8429541  17.2726736  19.4307295  55.1399551  10.5854843
  18.7881675  55.4332084   9.9394638  18.9262223  55.0252471  11.3908040
   9.8932886  61.1658211  16.3129833  10.6347571  61.7043255  16.0364657
   9.1869872  61.7924500  16.4701385  15.3688226  63.3087352  14.9101995
  15.7771582  62.8669762  14.1656627  14.6465488  62.7339979  15.1636188
  11.7219296  58.2459958  12.2835552  12.5680491  58.6699372  12.4270201
  11.6617934  57.5893583  12.9774115  15.6917041  63.8688542   8.6654284
  15.0625903  64.0334256   7.9630352  15.3042703  64.2830152   9.4365248
  19.5706273  64.8042980   6.0198647  18.8857311  65.1841881   5.4695681
  19.6550122  65.4138307   6.7530595  14.8718741  55.9064327  13.9416725
  14.6279673  56.6606387  13.4051001  15.1478672  56.2849674  14.7763972
  16.8257204  62.4502939  12.6193991  17.0374099  63.0934699  11.9428372
  16.7786952  61.6165256  12.1515921   8.1369084  63.1534432   8.8684132
   8.7070441  63.5821700   8.2301617   8.7277196  62.8717017   9.5668318
   8.6294250  58.3197859  17.1145143   7.9992911  59.0014140  17.3480540
   8.5230338  58.2080941  16.1698282  17.9403032  65.3274895  10.7916348
  18.7620476  64.9255082  10.5099030  17.9365435  65.2243129  11.7432464
  11.7059636  64.8758938  12.9477059  11.7704068  65.3379345  13.7835231
  10.9970559  64.2456303  13.0759369  26.0309025  61.6713643   7.1401320
  25.2772734  61.1021041   6.9845324  26.1656566  61.6376308   8.0871954
   7.9074993  52.6218625  19.4770394   7.5141938  52.0684824  20.1518039
   8.7241133  52.9329204  19.8676912  10.8242954  54.0376504  17.0690651
  11.5652667  54.6383657  16.9895113  11.0560877  53.2954142  16.5108693
   5.9684292  59.2232872  15.3468881   5.8537807  58.3218129  15.6475980
   5.1128810  59.4696568  14.9953697  13.0476130  67.1650612  16.9456381
  12.6039984  66.3786990  16.6277286  13.7093343  67.3529762  16.2800272
   7.8063251  68.6946413  11.4717060   8.3570676  68.5663477  10.6994054
   6.9674727  68.9941302  11.1211953  15.1457368  67.4453412  14.9737782
  15.1275843  68.2662293  14.4818052  16.0677288  67.3207487  15.1987924
  11.6030422  64.9597541  15.8161291  12.1358759  64.1985829  15.5860599
  11.0744503  64.6671193  16.5585445  17.9475981  62.2832554   8.4447149
  17.2899655  62.9731816   8.5327278  18.7516380  62.6728986   8.7881136
  16.7581439  60.6376927   6.4951091  17.2713321  61.2706919   6.9972801
  17.4082663  60.0378122   6.1294451  13.2362270  58.1126382   8.7409431
  12.3184832  58.3341329   8.5831120  13.6522414  58.1872693   7.8821139
  17.5243236  65.6182928   4.6230234  17.0705563  64.7773838   4.6795424
  16.8937202  66.2544327   4.9605014  15.9676175  67.4559425   5.5580052
  16.2599149  68.0164482   4.8392417  16.4774795  67.7487986   6.3133211
  14.3775434  58.7023844  13.5454134  14.7324822  58.9295317  14.4048600
  15.0247565  59.0342220  12.9231389  20.1073171  61.8242280   4.2503463
  19.9691069  62.0143876   3.3224652  19.7509390  62.5861662   4.7071514
  20.1342550  63.8918807   9.2614735  20.5679057  63.7994096  10.1097789
  20.8474131  63.8676307   8.6234751  13.8670445  67.4920901  10.7947835
  13.9207468  68.0611837  11.5625551  12.9985227  67.6622786  10.4301872
   6.7468839  57.1938457  12.2772287   7.4191892  56.9855819  11.6284935
   5.9198625  56.9960543  11.8377519  20.9958100  63.9342507  11.7947620
  21.1893990  64.8388318  12.0406895  20.8958718  63.4749926  12.6286205
  12.6494411  53.8200398  14.2937947  12.0022326  54.5190347  14.2002424
  13.4195426  54.2536542  14.6614196  16.0573209  64.0849250  17.3688501
  15.9058715  63.8559802  16.4518584  16.0477888  65.0419851  17.3819846
  12.8258545  61.6581163  12.3534767  13.7550605  61.8092322  12.1803734
  12.4049575  61.7465184  11.4983414  11.6246877  65.6831827  10.1233305
  11.4857963  65.3150612  10.9959243  10.8361473  66.1979467   9.9517263
  13.1752092  65.0613430   7.5122143  12.8401925  65.0214200   8.4079792
  12.6756038  64.3958146   7.0392553   7.1496336  60.4681060  13.0374724
   7.0116134  59.7361299  13.6386263   8.0601259  60.3789960  12.7558911
   9.7778637  60.1801019  12.5258403  10.4878255  59.5394211  12.4845022
   9.7347945  60.4313914  13.4484584  17.7665415  67.1168373  15.4464983
  17.7077961  66.4327593  14.7795566  18.1684934  67.8587363  14.9945609
   8.4907571  57.1666237  14.3454043   7.9544928  56.7156976  14.9975639
   7.9024279  57.3012146  13.6024507  17.7682823  65.0807956  13.6778962
  16.8809601  64.7433878  13.8005361  18.3381374  64.3490988  13.9147728
  11.2983976  69.7409409  10.6440205  11.2254147  70.5464380  11.1559510
  10.8561369  69.9401375   9.8188227  22.2500163  60.4916174   8.4395524
  22.2390039  61.3740889   8.0689457  21.3817543  60.1387725   8.2450061
  13.7582659  69.6396243  12.7998364  14.4710632  70.2743708  12.7274266
  13.2672688  69.7360109  11.9838366   8.8094573  67.3890686  13.6203935
   9.5104032  68.0227169  13.7733329   8.3389688  67.7305418  12.8599574
  16.6095859  59.9435294  11.4456485  15.9567309  60.1911201  10.7908938
  16.9876239  59.1299432  11.1118963  12.6583432  60.6855105  17.9322522
  11.9824069  60.5849234  18.6024898  13.4811066  60.5294319  18.3958520
  11.4006215  71.9922032  12.1680138  11.9524523  72.1553654  12.9329224
  11.7412408  72.5826470  11.4960163   5.8522981  56.4120315  16.4175057
   6.4795019  56.0297392  17.0312582   4.9950899  56.1934517  16.7830750
  16.2517089  66.8183290  18.0228793  16.7956993  67.4313248  17.5283748
  15.6703934  67.3762868  18.5395806  14.5374602  69.9404008   9.1543820
  14.4125742  69.1393748   8.6454766  15.1953693  70.4350201   8.6657790
  16.6009511  67.7413028  10.7823371  15.6539846  67.6218379  10.7101697
  16.9492284  66.8535526  10.8649632   8.9609084  53.6307167  14.6061612
   9.4843486  53.8769463  15.3687922   8.7421417  54.4627202  14.1864750
  13.6055944  67.5365744   6.9827723  13.4580906  66.6082452   7.1635293
  14.4309437  67.5585835   6.4984798  17.2090066  68.3594303   8.0692596
  18.1336613  68.1537164   7.9317047  17.0405369  68.1110704   8.9781937
  10.1661629  54.5720862  12.2911283   9.8258449  53.7728675  12.6931963
   9.4600635  54.8722573  11.7188116  12.0539193  55.7729183  10.6464602
  11.7956971  56.6946254  10.6448932  11.5224233  55.3759618  11.3365066
  16.9985382  68.8779970   3.4254687  17.1722259  68.3126393   2.6728539
  17.4914273  69.6780865   3.2434177   2.8162342  60.8894639  11.4918246
   2.2715810  61.6654447  11.6238520   3.6941692  61.2365444  11.3337367
  22.8524773  61.6416393   5.0444987  23.2955919  60.8923718   4.6464110
  21.9751283  61.6326530   4.6618719   3.6028364  60.0164536  14.3848403
   2.8610100  60.1647171  14.9713033   3.2821108  60.2772801  13.5215152
  19.8851977  65.6446440   2.0538916  20.4103302  65.9833713   1.3288236
  19.7974330  64.7093456   1.8702051  11.5472026  69.5580514  14.1828793
  11.8559153  69.3129661  15.0551492  12.3447508  69.7627152  13.6947663
   9.0891038  55.7338221  18.0788977   9.1379193  56.6100343  17.6966747
   9.6313552  55.1915614  17.5060620  19.5745884  66.2779344  17.3590114
  18.7841427  66.2603483  16.8194613  19.3379238  66.8167638  18.1139151
  19.6943759  63.1271810  14.6722843  19.7441764  62.9621818  15.6138365
  19.5857682  62.2599069  14.2820723  16.9847521  59.1102738  15.9882149
  17.8857384  58.9709203  15.6966147  17.0595496  59.2757193  16.9280327
  11.3190326  56.4869593  14.8335336  10.4493636  56.7803159  14.5617924
  11.5549807  57.0710038  15.5542599  21.1961955  65.5468752  14.9164864
  20.9046764  65.9098732  15.7528325  20.5834087  64.8335760  14.7378196
  22.3957638  63.1121632   7.4367434  23.2304529  63.5511436   7.6004995
  22.5316767  62.6360285   6.6175680  19.4449144  60.6701366  13.3844922
  19.9203265  60.8629013  12.5763773  18.5214709  60.7260552  13.1388306
  14.0229360  52.7049210  12.3500756  14.5411304  53.4410237  12.0247245
  13.6684493  53.0113203  13.1847515  18.1450813  57.5467126  11.6173228
  19.0968236  57.6465224  11.6385452  17.9754263  56.7545395  12.1271312
  16.1665192  54.6322710  11.8032629  15.5715124  54.9127722  11.1079117
  15.8814889  55.1216611  12.5749370  20.6238890  60.7673246  10.7315527
  20.5915211  59.8289247  10.9175211  21.2339514  60.8457283   9.9981352
  20.7733379  57.5584290  10.7773811  20.2572428  56.7742746  10.5903739
  21.6573327  57.2303006  10.9420330  26.4415440  61.8289253   9.8721564
  27.1718829  61.5674541  10.4329267  25.8322386  61.0917975   9.9123632
  24.5230737  59.9697116  10.4696015  23.7963901  59.8353081   9.8612507
  24.1078024  60.2773944  11.2752733  12.3460914  63.6887045  18.2343388
  13.2663923  63.8665644  18.4283435  12.3110497  62.7443091  18.0823088
   5.3422986  61.5988080  10.8766170   5.5608996  62.5305188  10.8954203
   5.7548760  61.2396054  11.6620973  10.2150852  57.1721286  20.2668918
  10.1147579  58.1215643  20.1981010   9.9972394  56.8439525  19.3944989
  10.0782122  60.6018425  19.0833980   9.5949203  61.4018785  19.2897869
  10.1643061  60.6126369  18.1301424   6.0055459  64.4922959  11.1202414
   6.9598713  64.4606902  11.0532345   5.8067983  64.0313583  11.9352640
   6.5954841  63.0624075  13.6873212   7.4147730  63.5568154  13.7108049
   6.8691649  62.1456043  13.6590779  22.1408532  56.1908968   7.8229447
  22.7353023  55.9504704   7.1122755  22.2135116  55.4716098   8.4502983
  24.4479605  59.4975169   6.5972868  23.8879163  59.5668358   7.3704430
  23.8423108  59.3216153   5.8772364   1.8489756  57.3962209  14.3865409
   2.4948619  56.8861163  14.8752634   1.6406907  58.1330891  14.9608834
  14.3743148  64.4643057  19.8857549  15.2434307  64.6383709  19.5244184
  13.8949899  65.2837473  19.7633279   8.5429328  71.5840158  11.5646983
   9.4456575  71.6163768  11.8813478   8.3166698  70.6540609  11.5793319
   6.1887247  54.5429826  18.4840423   7.0518708  54.1866631  18.6943747
   5.6152657  54.2043721  19.1715827  26.0335624  76.1731683   9.2902824
  26.6714034  76.0538430   8.5866164  25.9156466  77.1212527   9.3490776
  22.8425330  76.1259111   9.2264349  22.5043841  76.0100175   8.3384883
  23.7115098  75.7250276   9.2065355  23.3245113  77.2793962  15.1850554
  23.3133754  76.8846761  14.3131058  23.4865752  76.5460035  15.7784326
  20.0452374  80.0631074  14.1329738  19.7542240  80.9676705  14.0176404
  20.6809358  80.1047602  14.8473808  20.9708581  77.4407923  10.7231098
  21.5672153  77.2163945  10.0088061  21.0283552  76.6992668  11.3256546
  25.5876892  73.8983136   6.3656032  26.3739981  73.4802560   6.0146449
  25.8515596  74.8029229   6.5337680  30.9885319  73.8358370   7.2689010
  31.7210491  73.2657586   7.5026840  30.2324675  73.4479970   7.7095516
  22.6061439  76.2585611   4.4652353  22.2419646  75.7316232   5.1765274
  23.4628555  75.8684080   4.2918838  28.5110740  67.5479944  11.7283619
  28.1794064  68.4175355  11.5044834  27.9156353  67.2316228  12.4077649
  25.0042259  79.7492490  11.1279532  24.7042982  80.6517529  11.0195339
  24.6593319  79.4824673  11.9800685  18.4554741  76.2006287   7.1616236
  17.5305237  76.0682501   7.3693928  18.7039154  76.9800506   7.6586179
  28.4039403  72.2675030   8.8076969  27.4956280  72.1990438   8.5135730
  28.3526999  72.7446975   9.6358795  22.4780269  73.6864675  16.7511866
  21.7013603  74.2458596  16.7414731  23.1170832  74.1721458  17.2726736
  30.2701049  70.4691468  10.5854843  29.6275429  70.7624001   9.9394638
  29.7655978  70.3544389  11.3908040  27.9241213  74.2154641   1.2740702
  28.8359069  74.4482028   1.0988400  27.4150860  74.7991686   0.7115781
  20.7326641  76.4950129  16.3129833  21.4741325  77.0335173  16.0364657
  20.0263626  77.1216418  16.4701385  26.2081981  78.6379269  14.9101995
  26.6165337  78.1961680  14.1656627  25.4859242  78.0631897  15.1636188
  22.5613051  73.5751876  12.2835552  23.4074246  73.9991290  12.4270201
  22.5011688  72.9185500  12.9774115  26.5310795  79.1980460   8.6654284
  25.9019658  79.3626174   7.9630352  26.1436457  79.6122069   9.4365248
  30.4100027  80.1334898   6.0198647  29.7251065  80.5133799   5.4695681
  30.4943876  80.7430224   6.7530595  25.7112496  71.2356244  13.9416725
  25.4673428  71.9898305  13.4051001  25.9872426  71.6141592  14.7763972
  27.6650959  77.7794857  12.6193991  27.8767854  78.4226617  11.9428372
  27.6180707  76.9457173  12.1515921  25.2677188  70.3912677   9.5230563
  24.4061667  70.6893931   9.8147301  25.2939622  70.6083076   8.5911596
  22.0838757  78.9354868   5.9304369  22.5477103  79.2142571   5.1408991
  21.8195555  78.0338313   5.7477459  18.9762838  78.4826350   8.8684132
  19.5464195  78.9113618   8.2301617  19.5670950  78.2008934   9.5668318
  19.4688005  73.6489777  17.1145143  18.8386665  74.3306058  17.3480540
  19.3624093  73.5372859  16.1698282  28.7796787  80.6566812  10.7916348
  29.6014230  80.2547000  10.5099030  28.7759190  80.5535046  11.7432464
  22.5453390  80.2050856  12.9477059  22.6097823  80.6671263  13.7835231
  21.8364314  79.5748220  13.0759369  13.0470680  73.5692064  10.4726058
  13.2978719  74.4539073  10.7383634  13.5830228  73.3896665   9.7001150
  36.8702780  77.0005561   7.1401320  36.1166488  76.4312959   6.9845324
  37.0050321  76.9668225   8.0871954  18.7468747  67.9510543  19.4770394
  18.3535693  67.3976741  20.1518039  19.5634888  68.2621121  19.8676912
  21.6636708  69.3668422  17.0690651  22.4046422  69.9675575  16.9895113
  21.8954631  68.6246060  16.5108693  16.8078046  74.5524789  15.3468881
  16.6931562  73.6510046  15.6475980  15.9522564  74.7988486  14.9953697
  23.8869884  82.4942530  16.9456381  23.4433738  81.7078908  16.6277286
  24.5487098  82.6821680  16.2800272  18.6457005  84.0238331  11.4717060
  19.1964430  83.8955394  10.6994054  17.8068481  84.3233220  11.1211953
  25.9851122  82.7745329  14.9737782  25.9669598  83.5954211  14.4818052
  26.9071042  82.6499405  15.1987924  22.4424176  80.2889459  15.8161291
  22.9752513  79.5277747  15.5860599  21.9138257  79.9963111  16.5585445
  25.6093871  65.3949525  11.3454933  25.2658141  66.2851167  11.2694043
  25.9772834  65.2051183  10.4824518  23.1591265  70.2307837   4.9112606
  22.3032861  69.8414687   4.7318245  23.5718217  70.3099798   4.0512392
  24.6890412  67.7654180   9.3104166  24.1855207  67.7284315   8.4971971
  24.9821019  68.6746923   9.3700823  20.9333298  67.8492910   8.3170348
  21.7986294  67.6535718   7.9576237  21.0010807  67.6203262   9.2439704
  30.5478428  78.1390491   1.7880541  29.7707871  77.8001650   1.3435703
  31.2269909  78.1443114   1.1135506  25.3630457  73.2585228   1.6787149
  25.0580593  73.5731377   2.5297292  26.3160899  73.3366648   1.7214482
  28.7869735  77.6124472   8.4447149  28.1293410  78.3023733   8.5327278
  29.5910134  78.0020904   8.7881136  18.5395617  70.0795118   5.6886714
  19.1139369  69.8570299   4.9559907  19.1266599  70.1483812   6.4415316
  27.5975194  75.9668845   6.4951091  28.1107076  76.5998836   6.9972801
  28.2476418  75.3670040   6.1294451  20.8418284  66.9536367   4.4161784
  20.1882697  66.6385384   3.7918399  20.7998759  66.3312107   5.1421607
  24.0756025  73.4418300   8.7409431  23.1578586  73.6633247   8.5831120
  24.4916168  73.5164611   7.8821139  24.8591073  74.8409716   3.8712112
  25.6062891  75.3531113   3.5619234  25.1282662  74.5193769   4.7316505
  28.3636990  80.9474846   4.6230234  27.9099317  80.1065756   4.6795424
  27.7330957  81.5836244   4.9605014  27.3069910  71.8766832   5.8530901
  26.5692666  71.3644218   6.1841144  27.5596683  71.4367214   5.0414178
  26.8069929  82.7851343   5.5580052  27.0992904  83.3456400   4.8392417
  27.3168550  83.0779904   6.3133211  27.4081537  64.6543084   6.4472670
  27.7140414  63.7940448   6.1598585  28.1334142  65.2460704   6.2471664
  21.6802617  74.9496877   6.9548861  21.7351227  73.9970714   6.8791338
  20.8693819  75.1056316   7.4390160  19.6194977  73.5673937   4.7139240
  18.8062842  73.8668107   5.1204432  20.1153971  73.1729626   5.4313722
  25.2169188  74.0315761  13.5454134  25.5718576  74.2587235  14.4048600
  25.8641320  74.3634138  12.9231389  30.9466925  77.1534197   4.2503463
  30.8084824  77.3435793   3.3224652  30.5903144  77.9153580   4.7071514
  19.1109051  71.1392292  10.3300475  19.7508431  70.9981052   9.6323438
  18.2786582  70.8526806   9.9539077  30.9736305  79.2210724   9.2614735
  31.4072812  79.1286013  10.1097789  31.6867886  79.1968225   8.6234751
  24.7064200  82.8212818  10.7947835  24.7601222  83.3903755  11.5625551
  23.8378981  82.9914703  10.4301872  16.1137668  71.1092617   5.1073462
  16.3744485  72.0237951   4.9982622  16.9354840  70.6417060   5.2570075
  17.5862593  72.5230375  12.2772287  18.2585647  72.3147737  11.6284935
  16.7592380  72.3252461  11.8377519  31.8351854  79.2634425  11.7947620
  32.0287745  80.1680235  12.0406895  31.7352473  78.8041844  12.6286205
  23.4888165  69.1492316  14.2937947  22.8416080  69.8482265  14.2002424
  24.2589181  69.5828459  14.6614196  26.8966963  79.4141168  17.3688501
  26.7452470  79.1851719  16.4518584  26.8871643  80.3711769  17.3819846
  23.6652300  76.9873080  12.3534767  24.5944360  77.1384240  12.1803734
  23.2443330  77.0757101  11.4983414  22.4640631  81.0123745  10.1233305
  22.3251717  80.6442529  10.9959243  21.6755228  81.5271384   9.9517263
  24.0145846  80.3905348   7.5122143  23.6795679  80.3506117   8.4079792
  23.5149792  79.7250063   7.0392553  17.9890090  75.7972978  13.0374724
  17.8509888  75.0653216  13.6386263  18.8995014  75.7081878  12.7558911
  20.6172391  75.5092937  12.5258403  21.3272010  74.8686129  12.4845022
  20.5741699  75.7605832  13.4484584  28.6059170  82.4460290  15.4464983
  28.5471716  81.7619510  14.7795566  29.0078688  83.1879280  14.9945609
  19.3301325  72.4958155  14.3454043  18.7938682  72.0448893  14.9975639
  18.7418034  72.6304064  13.6024507  28.6076577  80.4099874  13.6778962
  27.7203356  80.0725796  13.8005361  29.1775128  79.6782905  13.9147728
  15.0640446  71.6314162  11.4307037  14.9798635  71.0239832  10.6957447
  14.2423153  72.1223181  11.4316534  22.1377730  85.0701327  10.6440205
  22.0647902  85.8756298  11.1559510  21.6955124  85.2693292   9.8188227
  25.2364160  70.1167726   6.7977232  25.7332860  69.3637688   6.4778303
  24.4651142  70.1532043   6.2320442  33.0893918  75.8208092   8.4395524
  33.0783794  76.7032807   8.0689457  32.2211297  75.4679642   8.2450061
  24.5976414  84.9688161  12.7998364  25.3104386  85.6035625  12.7274266
  24.1066443  85.0652027  11.9838366  26.3193941  78.8739413   4.3715656
  25.3850220  78.9940876   4.2020360  26.4970609  77.9711880   4.1075666
  21.8199129  72.2585109   6.5248917  21.4496916  71.7056149   7.2129823
  22.3158221  71.6543242   5.9723917  29.7066492  74.7156732   4.9065690
  30.1726944  75.5484724   4.8325993  30.1573993  74.2501714   5.6110948
  19.6488327  82.7182604  13.6203935  20.3497787  83.3519087  13.7733329
  19.1783442  83.0597336  12.8599574  27.7742723  81.0600554   1.9051842
  28.0502567  80.9457148   2.8145716  26.9047222  80.6618039   1.8664015
  27.6783155  67.0837319   8.9456591  26.7646235  67.3141546   9.1138798
  28.1076256  67.1675764   9.7970624  27.4489613  75.2727211  11.4456485
  26.7961064  75.5203119  10.7908938  27.8269993  74.4591350  11.1118963
  23.4977186  76.0147023  17.9322522  22.8217823  75.9141152  18.6024898
  24.3204820  75.8586236  18.3958520  22.2399969  87.3213950  12.1680138
  22.7918277  87.4845571  12.9329224  22.5806163  87.9118388  11.4960163
  17.2164463  69.6689100  12.7702023  17.2805789  70.5303931  12.3579421
  17.1531583  69.0563101  12.0374382  16.6916735  71.7412232  16.4175057
  17.3188774  71.3589310  17.0312582  15.8344654  71.5226434  16.7830750
  27.0910844  82.1475207  18.0228793  27.6350748  82.7605166  17.5283748
  26.5097689  82.7054786  18.5395806  25.3768357  85.2695925   9.1543820
  25.2519496  84.4685665   8.6454766  26.0347448  85.7642119   8.6657790
  16.9976525  71.6244658   8.3320961  16.2763111  72.2380626   8.1928434
  17.7869781  72.1602423   8.2537607  27.4403265  83.0704946  10.7823371
  26.4933601  82.9510297  10.7101697  27.7886038  82.1827444  10.8649632
  19.8002838  68.9599084  14.6061612  20.3237240  69.2061381  15.3687922
  19.5815172  69.7919119  14.1864750  24.4449698  82.8657662   6.9827723
  24.2974661  81.9374369   7.1635293  25.2703192  82.8877752   6.4984798
  28.0483820  83.6886221   8.0692596  28.9730368  83.4829082   7.9317047
  27.8799124  83.4402622   8.9781937  21.0055383  69.9012780  12.2911283
  20.6652204  69.1020593  12.6931963  20.2994390  70.2014490  11.7188116
  21.6571855  66.9862092  10.7438606  22.4797925  66.5122570  10.6217496
  21.9009919  67.7652576  11.2437292  24.4411213  70.7195499   1.9759840
  24.6574827  71.6020137   1.6748668  23.9605280  70.3281713   1.2465482
  19.1810434  73.6781213   8.5530585  19.0355015  73.9921516   9.4454866
  18.7035638  74.2966113   8.0001483  21.0406817  70.6683761   8.6011474
  21.0268386  69.7724854   8.2643772  21.7579245  70.6754424   9.2349760
  22.8932948  71.1021101  10.6464602  22.6350725  72.0238171  10.6448932
  22.3617988  70.7051535  11.3365066  27.8379136  84.2071888   3.4254687
  28.0116014  83.6418310   2.6728539  28.3308028  85.0072783   3.2434177
  13.6556096  76.2186557  11.4918246  13.1109564  76.9946365  11.6238520
  14.5335446  76.5657362  11.3337367  20.4443713  69.5498141   3.8699044
  20.5659624  68.6214787   4.0689932  20.1545755  69.5636827   2.9577360
  23.3134903  67.2353051   7.0065764  23.3356600  67.2992384   6.0517744
  23.7302962  66.3957560   7.2006270  33.6918528  76.9708311   5.0444987
  34.1349674  76.2215636   4.6464110  32.8145038  76.9618447   4.6618719
  14.4422118  75.3456453  14.3848403  13.7003854  75.4939089  14.9713033
  14.1214862  75.6064719  13.5215152  30.7245732  80.9738358   2.0538916
  31.2497056  81.3125631   1.3288236  30.6368085  80.0385373   1.8702051
  22.3865781  84.8872432  14.1828793  22.6952907  84.6421578  15.0551492
  23.1841263  85.0919070  13.6947663  19.9284792  71.0630138  18.0788977
  19.9772948  71.9392261  17.6966747  20.4707307  70.5207531  17.5060620
  30.4139638  81.6071262  17.3590114  29.6235182  81.5895400  16.8194613
  30.1772993  82.1459555  18.1139151  30.5337513  78.4563728  14.6722843
  30.5835518  78.2913735  15.6138365  30.4251436  77.5890987  14.2820723
  27.8241275  74.4394656  15.9882149  28.7251138  74.3001121  15.6966147
  27.8989250  74.6049111  16.9280327  22.1584081  71.8161511  14.8335336
  21.2887390  72.1095077  14.5617924  22.3943561  72.4001956  15.5542599
  32.0355710  80.8760669  14.9164864  31.7440518  81.2390650  15.7528325
  31.4227841  80.1627678  14.7378196  33.2351392  78.4413549   7.4367434
  34.0698284  78.8803353   7.6004995  33.3710521  77.9652202   6.6175680
  30.2842898  75.9993284  13.3844922  30.7597020  76.1920930  12.5763773
  29.3608464  76.0552470  13.1388306  24.8623115  68.0341128  12.3500756
  25.3805059  68.7702155  12.0247245  24.5078247  68.3405121  13.1847515
  25.1135709  64.4541410   7.8701653  25.3937463  63.7864599   8.4962079
  25.8986316  64.6470506   7.3576316  28.9844567  72.8759044  11.6173228
  29.9361990  72.9757142  11.6385452  28.8148018  72.0837313  12.1271312
  27.0058947  69.9614627  11.8032629  26.4108879  70.2419640  11.1079117
  26.7208643  70.4508528  12.5749370  31.4632645  76.0965164  10.7315527
  31.4308965  75.1581165  10.9175211  32.0733269  76.1749201   9.9981352
  31.6127133  72.8876207  10.7773811  31.0966182  72.1034664  10.5903739
  32.4967082  72.5594924  10.9420330  29.2737860  66.6317223   6.7369623
  29.0762681  66.3232311   7.6212955  29.8837566  67.3578862   6.8667553
  37.2809195  77.1581171   9.8721564  38.0112583  76.8966459  10.4329267
  36.6716140  76.4209893   9.9123632  35.3624492  75.2989033  10.4696015
  34.6357655  75.1644998   9.8612507  34.9471779  75.6065862  11.2752733
  23.1854668  79.0178963  18.2343388  24.1057678  79.1957562  18.4283435
  23.1504251  78.0735008  18.0823088  16.1816741  76.9279998  10.8766170
  16.4002751  77.8597105  10.8954203  16.5942515  76.5687972  11.6620973
  23.1020959  67.4348083   2.8641858  22.2921687  67.0895168   3.2397104
  23.7905376  67.1255627   3.4529469  25.0311507  66.5126130   4.4866155
  25.5842546  66.9321583   5.1456178  25.2681593  65.5861878   4.5289111
  21.0544606  72.5013203  20.2668918  20.9541333  73.4507560  20.1981010
  20.8366148  72.1731442  19.3944989  28.4090314  68.6226655   3.9944819
  27.8288983  69.2811459   3.6122871  28.1426247  67.8003999   3.5832236
  26.8593880  68.0231713   6.1966139  27.3593659  68.1348247   5.3880458
  27.5029488  67.7192765   6.8366948  20.9175876  75.9310342  19.0833980
  20.4342958  76.7310702  19.2897869  21.0036815  75.9418287  18.1301424
  16.8449214  79.8214877  11.1202414  17.7992467  79.7898819  11.0532345
  16.6461737  79.3605501  11.9352640  17.4348596  78.3915993  13.6873212
  18.2541485  78.8860072  13.7108049  17.7085404  77.4747961  13.6590779
  27.1915192  70.7826745   3.0501167  26.3041047  71.0676396   2.8321362
  27.6069181  70.6220509   2.2028444  30.5429728  70.8073266   6.7655506
  31.3190118  71.2969719   7.0380123  29.8177862  71.2331320   7.2227376
  32.9802287  71.5200885   7.8229447  33.5746778  71.2796621   7.1122755
  33.0528871  70.8008016   8.4502983  27.1656216  76.2981281   3.2651457
  27.1091417  76.7549833   2.4259090  27.7184558  75.5371966   3.0874300
  30.9761022  72.0871013   4.0901577  30.7197956  71.6867649   4.9209784
  30.3513890  72.8014807   3.9651716  35.2873360  74.8267086   6.5972868
  34.7272918  74.8960276   7.3704430  34.6816863  74.6508071   5.8772364
  27.8990995  77.4886062   0.5603986  27.8439799  77.3230334  -0.3807569
  27.2737050  78.1962095   0.7166176  12.6883510  72.7254127  14.3865409
  13.3342374  72.2153081  14.8752634  12.4800661  73.4622808  14.9608834
  25.2136902  79.7934974  19.8857549  26.0828062  79.9675627  19.5244184
  24.7343654  80.6129391  19.7633279  21.2087121  66.9894171   0.1389305
  21.1965790  67.9336011   0.2957576  22.1010542  66.8064317  -0.1551234
  19.3823083  86.9132075  11.5646983  20.2850329  86.9455686  11.8813478
  19.1560453  85.9832526  11.5793319  25.0239240  63.5836948   4.3935242
  24.2571636  63.0295435   4.5391924  25.4349945  63.6558817   5.2549393
  17.0281001  69.8721744  18.4840423  17.8912463  69.5158549  18.6943747
  16.4546412  69.5335639  19.1715827  36.8729378  91.5023600   9.2902824
  37.5107788  91.3830348   8.5866164  36.7550221  92.4504444   9.3490776
  33.6819084  91.4551028   9.2264349  33.3437596  91.3392093   8.3384883
  34.5508853  91.0542193   9.2065355  34.1638867  92.6085880  15.1850554
  34.1527508  92.2138678  14.3131058  34.3259507  91.8751953  15.7784326
  30.8846128  95.3922992  14.1329738  30.5935994  96.2968623  14.0176404
  31.5203113  95.4339519  14.8473808  31.8102335  92.7699840  10.7231098
  32.4065908  92.5455863  10.0088061  31.8677307  92.0284586  11.3256546
  36.4270647  89.2275054   6.3656032  37.2133736  88.8094477   6.0146449
  36.6909351  90.1321146   6.5337680  41.8279074  89.1650287   7.2689010
  42.5604246  88.5949504   7.5026840  41.0718429  88.7771888   7.7095516
  33.4455193  91.5877529   4.4652353  33.0813401  91.0608150   5.1765274
  34.3022309  91.1975998   4.2918838  39.3504494  82.8771861  11.7283619
  39.0187819  83.7467272  11.5044834  38.7550107  82.5608145  12.4077649
  35.8436014  95.0784407  11.1279532  35.5436737  95.9809446  11.0195339
  35.4987073  94.8116591  11.9800685  29.2948495  91.5298204   7.1616236
  28.3698991  91.3974418   7.3693928  29.5432908  92.3092423   7.6586179
  39.2433157  87.5966948   8.8076969  38.3350035  87.5282356   8.5135730
  39.1920753  88.0738893   9.6358795  33.3174023  89.0156593  16.7511866
  32.5407357  89.5750513  16.7414731  33.9564586  89.5013376  17.2726736
  41.1094804  85.7983386  10.5854843  40.4669184  86.0915919   9.9394638
  40.6049732  85.6836306  11.3908040  38.7634967  89.5446559   1.2740702
  39.6752824  89.7773946   1.0988400  38.2544614  90.1283603   0.7115781
  31.5720395  91.8242047  16.3129833  32.3135080  92.3627090  16.0364657
  30.8657381  92.4508335  16.4701385  37.0475735  93.9671187  14.9101995
  37.4559091  93.5253598  14.1656627  36.3252997  93.3923815  15.1636188
  33.4006805  88.9043794  12.2835552  34.2468000  89.3283207  12.4270201
  33.3405443  88.2477418  12.9774115  37.3704550  94.5272378   8.6654284
  36.7413412  94.6918092   7.9630352  36.9830212  94.9413987   9.4365248
  41.2493782  95.4626815   6.0198647  40.5644820  95.8425717   5.4695681
  41.3337631  96.0722142   6.7530595  36.5506250  86.5648162  13.9416725
  36.3067182  87.3190223  13.4051001  36.8266181  86.9433510  14.7763972
  38.5044713  93.1086774  12.6193991  38.7161608  93.7518534  11.9428372
  38.4574461  92.2749091  12.1515921  36.1070942  85.7204595   9.5230563
  35.2455421  86.0185849   9.8147301  36.1333377  85.9374994   8.5911596
  32.9232512  94.2646786   5.9304369  33.3870857  94.5434489   5.1408991
  32.6589310  93.3630230   5.7477459  29.8156593  93.8118267   8.8684132
  30.3857950  94.2405536   8.2301617  30.4064704  93.5300852   9.5668318
  30.3081759  88.9781695  17.1145143  29.6780420  89.6597976  17.3480540
  30.2017847  88.8664776  16.1698282  39.6190541  95.9858730  10.7916348
  40.4407985  95.5838917  10.5099030  39.6152944  95.8826964  11.7432464
  33.3847145  95.5342773  12.9477059  33.4491577  95.9963180  13.7835231
  32.6758068  94.9040138  13.0759369  23.8864435  88.8983981  10.4726058
  24.1372473  89.7830991  10.7383634  24.4223983  88.7188583   9.7001150
  47.7096534  92.3297478   7.1401320  46.9560243  91.7604876   6.9845324
  47.8444075  92.2960143   8.0871954  29.5862502  83.2802461  19.4770394
  29.1929447  82.7268659  20.1518039  30.4028642  83.5913039  19.8676912
  32.5030463  84.6960340  17.0690651  33.2440176  85.2967493  16.9895113
  32.7348386  83.9537977  16.5108693  27.6471801  89.8816707  15.3468881
  27.5325316  88.9801964  15.6475980  26.7916319  90.1280404  14.9953697
  34.7263639  97.8234447  16.9456381  34.2827493  97.0370826  16.6277286
  35.3880852  98.0113598  16.2800272  29.4850760  99.3530249  11.4717060
  30.0358185  99.2247312  10.6994054  28.6462236  99.6525138  11.1211953
  36.8244877  98.1037247  14.9737782  36.8063352  98.9246128  14.4818052
  37.7464797  97.9791322  15.1987924  33.2817931  95.6181377  15.8161291
  33.8146268  94.8569665  15.5860599  32.7532012  95.3255028  16.5585445
  36.4487626  80.7241443  11.3454933  36.1051895  81.6143084  11.2694043
  36.8166588  80.5343100  10.4824518  33.9985020  85.5599754   4.9112606
  33.1426616  85.1706605   4.7318245  34.4111971  85.6391715   4.0512392
  35.5284166  83.0946098   9.3104166  35.0248962  83.0576233   8.4971971
  35.8214773  84.0038840   9.3700823  31.7727052  83.1784827   8.3170348
  32.6380049  82.9827636   7.9576237  31.8404561  82.9495179   9.2439704
  41.3872183  93.4682408   1.7880541  40.6101625  93.1293568   1.3435703
  42.0663664  93.4735031   1.1135506  36.2024212  88.5877146   1.6787149
  35.8974347  88.9023295   2.5297292  37.1554654  88.6658566   1.7214482
  39.6263490  92.9416390   8.4447149  38.9687164  93.6315651   8.5327278
  40.4303889  93.3312822   8.7881136  29.3789371  85.4087035   5.6886714
  29.9533123  85.1862217   4.9559907  29.9660354  85.4775730   6.4415316
  38.4368948  91.2960762   6.4951091  38.9500830  91.9290754   6.9972801
  39.0870172  90.6961958   6.1294451  31.6812039  82.2828284   4.4161784
  31.0276451  81.9677301   3.7918399  31.6392513  81.6604025   5.1421607
  34.9149779  88.7710218   8.7409431  33.9972341  88.9925165   8.5831120
  35.3309923  88.8456528   7.8821139  35.6984827  90.1701634   3.8712112
  36.4456646  90.6823031   3.5619234  35.9676417  89.8485686   4.7316505
  39.2030745  96.2766764   4.6230234  38.7493072  95.4357674   4.6795424
  38.5724711  96.9128162   4.9605014  38.1463664  87.2058750   5.8530901
  37.4086421  86.6936136   6.1841144  38.3990438  86.7659131   5.0414178
  37.6463684  98.1143260   5.5580052  37.9386658  98.6748318   4.8392417
  38.1562304  98.4071821   6.3133211  38.2475291  79.9835002   6.4472670
  38.5534168  79.1232365   6.1598585  38.9727896  80.5752622   6.2471664
  32.5196371  90.2788795   6.9548861  32.5744981  89.3262631   6.8791338
  31.7087573  90.4348234   7.4390160  30.4588731  88.8965855   4.7139240
  29.6456597  89.1960025   5.1204432  30.9547725  88.5021543   5.4313722
  36.0562943  89.3607679  13.5454134  36.4112331  89.5879152  14.4048600
  36.7035074  89.6926056  12.9231389  41.7860680  92.4826115   4.2503463
  41.6478578  92.6727711   3.3224652  41.4296899  93.2445498   4.7071514
  29.9502806  86.4684210  10.3300475  30.5902185  86.3272969   9.6323438
  29.1180336  86.1818723   9.9539077  41.8130059  94.5502642   9.2614735
  42.2466566  94.4577931  10.1097789  42.5261640  94.5260142   8.6234751
  35.5457954  98.1504736  10.7947835  35.5994977  98.7195672  11.5625551
  34.6772736  98.3206621  10.4301872  26.9531422  86.4384535   5.1073462
  27.2138240  87.3529868   4.9982622  27.7748595  85.9708978   5.2570075
  28.4256348  87.8522292  12.2772287  29.0979401  87.6439654  11.6284935
  27.5986134  87.6544378  11.8377519  42.6745609  94.5926343  11.7947620
  42.8681499  95.4972153  12.0406895  42.5746227  94.1333762  12.6286205
  34.3281920  84.4784233  14.2937947  33.6809835  85.1774183  14.2002424
  35.0982935  84.9120377  14.6614196  37.7360718  94.7433085  17.3688501
  37.5846224  94.5143637  16.4518584  37.7265397  95.7003687  17.3819846
  34.5046054  92.3164998  12.3534767  35.4338114  92.4676158  12.1803734
  34.0837084  92.4049019  11.4983414  33.3034386  96.3415663  10.1233305
  33.1645471  95.9734447  10.9959243  32.5148982  96.8563302   9.9517263
  34.8539601  95.7197265   7.5122143  34.5189434  95.6798035   8.4079792
  34.3543547  95.0541981   7.0392553  28.8283845  91.1264895  13.0374724
  28.6903643  90.3945134  13.6386263  29.7388768  91.0373795  12.7558911
  31.4566146  90.8384855  12.5258403  32.1665764  90.1978047  12.4845022
  31.4135454  91.0897749  13.4484584  39.4452924  97.7752208  15.4464983
  39.3865470  97.0911428  14.7795566  39.8472443  98.5171198  14.9945609
  30.1695080  87.8250072  14.3454043  29.6332437  87.3740811  14.9975639
  29.5811788  87.9595981  13.6024507  39.4470332  95.7391792  13.6778962
  38.5597110  95.4017714  13.8005361  40.0168883  95.0074823  13.9147728
  25.9034201  86.9606080  11.4307037  25.8192390  86.3531750  10.6957447
  25.0816907  87.4515098  11.4316534  32.9771485 100.3993244  10.6440205
  32.9041656 101.2048216  11.1559510  32.5348878 100.5985210   9.8188227
  36.0757915  85.4459644   6.7977232  36.5726614  84.6929606   6.4778303
  35.3044896  85.4823960   6.2320442  43.9287672  91.1500009   8.4395524
  43.9177548  92.0324725   8.0689457  43.0605051  90.7971560   8.2450061
  35.4370168 100.2980078  12.7998364  36.1498141 100.9327543  12.7274266
  34.9460197 100.3943944  11.9838366  37.1587695  94.2031331   4.3715656
  36.2243974  94.3232793   4.2020360  37.3364364  93.3003798   4.1075666
  32.6592883  87.5877027   6.5248917  32.2890671  87.0348067   7.2129823
  33.1551976  86.9835160   5.9723917  40.5460247  90.0448650   4.9065690
  41.0120699  90.8776642   4.8325993  40.9967747  89.5793632   5.6110948
  30.4882082  98.0474522  13.6203935  31.1891541  98.6811005  13.7733329
  30.0177197  98.3889253  12.8599574  38.6136478  96.3892471   1.9051842
  38.8896322  96.2749066   2.8145716  37.7440977  95.9909956   1.8664015
  38.5176909  82.4129237   8.9456591  37.6039989  82.6433464   9.1138798
  38.9470011  82.4967681   9.7970624  38.2883368  90.6019129  11.4456485
  37.6354818  90.8495037  10.7908938  38.6663748  89.7883267  11.1118963
  34.3370941  91.3438940  17.9322522  33.6611578  91.2433070  18.6024898
  35.1598575  91.1878154  18.3958520  33.0793724 102.6505868  12.1680138
  33.6312032 102.8137489  12.9329224  33.4199917 103.2410305  11.4960163
  28.0558217  84.9981017  12.7702023  28.1199544  85.8595848  12.3579421
  27.9925337  84.3855019  12.0374382  27.5310490  87.0704150  16.4175057
  28.1582528  86.6881227  17.0312582  26.6738408  86.8518352  16.7830750
  37.9304598  97.4767125  18.0228793  38.4744502  98.0897083  17.5283748
  37.3491443  98.0346704  18.5395806  36.2162111 100.5987843   9.1543820
  36.0913251  99.7977583   8.6454766  36.8741202 101.0934037   8.6657790
  27.8370279  86.9536576   8.3320961  27.1156865  87.5672543   8.1928434
  28.6263535  87.4894340   8.2537607  38.2797020  98.3996863  10.7823371
  37.3327355  98.2802214  10.7101697  38.6279793  97.5119361  10.8649632
  30.6396593  84.2891002  14.6061612  31.1630995  84.5353299  15.3687922
  30.4208926  85.1211037  14.1864750  35.2843453  98.1949579   6.9827723
  35.1368415  97.2666287   7.1635293  36.1096946  98.2169670   6.4984798
  38.8877575  99.0178138   8.0692596  39.8124122  98.8121000   7.9317047
  38.7192878  98.7694539   8.9781937  31.8449138  85.2304697  12.2911283
  31.5045958  84.4312510  12.6931963  31.1388144  85.5306408  11.7188116
  32.4965610  82.3154010  10.7438606  33.3191679  81.8414488  10.6217496
  32.7403673  83.0944493  11.2437292  35.2804967  86.0487417   1.9759840
  35.4968582  86.9312055   1.6748668  34.7999034  85.6573631   1.2465482
  30.0204188  89.0073130   8.5530585  29.8748769  89.3213433   9.4454866
  29.5429392  89.6258031   8.0001483  31.8800571  85.9975678   8.6011474
  31.8662140  85.1016772   8.2643772  32.5972999  86.0046342   9.2349760
  33.7326702  86.4313019  10.6464602  33.4744480  87.3530089  10.6448932
  33.2011742  86.0343453  11.3365066  38.6772891  99.5363806   3.4254687
  38.8509768  98.9710228   2.6728539  39.1701782 100.3364701   3.2434177
  24.4949851  91.5478475  11.4918246  23.9503319  92.3238283  11.6238520
  25.3729201  91.8949279  11.3337367  31.2837467  84.8790059   3.8699044
  31.4053379  83.9506705   4.0689932  30.9939510  84.8928745   2.9577360
  34.1528658  82.5644969   7.0065764  34.1750355  82.6284302   6.0517744
  34.5696717  81.7249478   7.2006270  44.5312282  92.3000229   5.0444987
  44.9743428  91.5507554   4.6464110  43.6538792  92.2910365   4.6618719
  25.2815873  90.6748371  14.3848403  24.5397609  90.8231006  14.9713033
  24.9608617  90.9356637  13.5215152  41.5639486  96.3030276   2.0538916
  42.0890811  96.6417548   1.3288236  41.4761839  95.3677291   1.8702051
  33.2259535 100.2164349  14.1828793  33.5346662  99.9713496  15.0551492
  34.0235017 100.4210988  13.6947663  30.7678547  86.3922056  18.0788977
  30.8166702  87.2684179  17.6966747  31.3101061  85.8499449  17.5060620
  41.2533393  96.9363179  17.3590114  40.4628936  96.9187318  16.8194613
  41.0166747  97.4751473  18.1139151  41.3731268  93.7855646  14.6722843
  41.4229273  93.6205653  15.6138365  41.2645191  92.9182905  14.2820723
  38.6635030  89.7686574  15.9882149  39.5644893  89.6293038  15.6966147
  38.7383004  89.9341028  16.9280327  32.9977835  87.1453428  14.8335336
  32.1281145  87.4386994  14.5617924  33.2337316  87.7293873  15.5542599
  42.8749464  96.2052587  14.9164864  42.5834273  96.5682568  15.7528325
  42.2621596  95.4919595  14.7378196  44.0745147  93.7705467   7.4367434
  44.9092038  94.2095271   7.6004995  44.2104276  93.2944120   6.6175680
  41.1236653  91.3285202  13.3844922  41.5990774  91.5212848  12.5763773
  40.2002218  91.3844388  13.1388306  35.7016869  83.3633045  12.3500756
  36.2198813  84.0994072  12.0247245  35.3472002  83.6697039  13.1847515
  35.9529463  79.7833328   7.8701653  36.2331217  79.1156517   8.4962079
  36.7380070  79.9762423   7.3576316  39.8238322  88.2050962  11.6173228
  40.7755745  88.3049059  11.6385452  39.6541772  87.4129230  12.1271312
  37.8452701  85.2906545  11.8032629  37.2502633  85.5711558  11.1079117
  37.5602398  85.7800446  12.5749370  42.3026399  91.4257082  10.7315527
  42.2702720  90.4873082  10.9175211  42.9127023  91.5041118   9.9981352
  42.4520888  88.2168125  10.7773811  41.9359937  87.4326582  10.5903739
  43.3360836  87.8886842  10.9420330  40.1131615  81.9609141   6.7369623
  39.9156436  81.6524229   7.6212955  40.7231320  82.6870779   6.8667553
  48.1202949  92.4873088   9.8721564  48.8506338  92.2258376  10.4329267
  47.5109895  91.7501810   9.9123632  46.2018246  90.6280951  10.4696015
  45.4751410  90.4936916   9.8612507  45.7865533  90.9357780  11.2752733
  34.0248423  94.3470881  18.2343388  34.9451432  94.5249480  18.4283435
  33.9898006  93.4026926  18.0823088  27.0210495  92.2571915  10.8766170
  27.2396505  93.1889023  10.8954203  27.4336269  91.8979890  11.6620973
  33.9414713  82.7640001   2.8641858  33.1315441  82.4187086   3.2397104
  34.6299130  82.4547544   3.4529469  35.8705261  81.8418047   4.4866155
  36.4236300  82.2613501   5.1456178  36.1075348  80.9153796   4.5289111
  31.8938361  87.8305121  20.2668918  31.7935088  88.7799478  20.1981010
  31.6759903  87.5023360  19.3944989  39.2484069  83.9518573   3.9944819
  38.6682738  84.6103377   3.6122871  38.9820001  83.1295917   3.5832236
  37.6987635  83.3523630   6.1966139  38.1987413  83.4640165   5.3880458
  38.3423243  83.0484683   6.8366948  31.7569631  91.2602260  19.0833980
  31.2736712  92.0602620  19.2897869  31.8430570  91.2710205  18.1301424
  27.6842968  95.1506795  11.1202414  28.6386222  95.1190737  11.0532345
  27.4855492  94.6897418  11.9352640  28.2742350  93.7207911  13.6873212
  29.0935239  94.2151989  13.7108049  28.5479158  92.8039879  13.6590779
  38.0308947  86.1118663   3.0501167  37.1434802  86.3968314   2.8321362
  38.4462936  85.9512426   2.2028444  41.3823483  86.1365184   6.7655506
  42.1583873  86.6261636   7.0380123  40.6571617  86.5623238   7.2227376
  43.8196041  86.8492803   7.8229447  44.4140532  86.6088539   7.1122755
  43.8922625  86.1299934   8.4502983  38.0049970  91.6273199   3.2651457
  37.9485172  92.0841750   2.4259090  38.5578313  90.8663883   3.0874300
  41.8154776  87.4162931   4.0901577  41.5591710  87.0159566   4.9209784
  41.1907644  88.1306725   3.9651716  46.1267114  90.1559004   6.5972868
  45.5666672  90.2252193   7.3704430  45.5210617  89.9799989   5.8772364
  38.7384750  92.8177980   0.5603986  38.6833553  92.6522252  -0.3807569
  38.1130805  93.5254013   0.7166176  23.5277265  88.0546044  14.3865409
  24.1736128  87.5444998  14.8752634  23.3194416  88.7914726  14.9608834
  36.0530657  95.1226892  19.8857549  36.9221816  95.2967544  19.5244184
  35.5737408  95.9421309  19.7633279  32.0480875  82.3186089   0.1389305
  32.0359545  83.2627929   0.2957576  32.9404297  82.1356235  -0.1551234
  30.2216837 102.2423993  11.5646983  31.1244084 102.2747603  11.8813478
  29.9954207 101.3124444  11.5793319  35.8632995  78.9128866   4.3935242
  35.0965390  78.3587352   4.5391924  36.2743700  78.9850735   5.2549393
  27.8674756  85.2013662  18.4840423  28.7306217  84.8450466  18.6943747
  27.2940166  84.8627556  19.1715827  47.7123133 106.8315518   9.2902824
  48.3501542 106.7122265   8.5866164  47.5943975 107.7796362   9.3490776
  44.5212839 106.7842946   9.2264349  44.1831350 106.6684011   8.3384883
  45.3902607 106.3834111   9.2065355  45.0032622 107.9377798  15.1850554
  44.9921263 107.5430596  14.3131058  45.1653261 107.2043870  15.7784326
  41.7239883 110.7214910  14.1329738  41.4329749 111.6260540  14.0176404
  42.3596867 110.7631437  14.8473808  42.6496090 108.0991758  10.7231098
  43.2459662 107.8747780  10.0088061  42.7071061 107.3576504  11.3256546
  50.1898248  98.2063779  11.7283619  49.8581573  99.0759190  11.5044834
  49.5943862  97.8900063  12.4077649  46.6829768 110.4076325  11.1279532
  46.3830491 111.3101364  11.0195339  46.3380828 110.1408508  11.9800685
  40.1342249 106.8590122   7.1616236  39.2092746 106.7266336   7.3693928
  40.3826663 107.6384341   7.6586179  50.0826912 102.9258865   8.8076969
  49.1743789 102.8574274   8.5135730  50.0314508 103.4030810   9.6358795
  44.1567778 104.3448511  16.7511866  43.3801112 104.9042431  16.7414731
  44.7958341 104.8305294  17.2726736  51.9488558 101.1275304  10.5854843
  51.3062938 101.4207837   9.9394638  51.4443487 101.0128224  11.3908040
  42.4114150 107.1533964  16.3129833  43.1528834 107.6919008  16.0364657
  41.7051135 107.7800253  16.4701385  47.8869490 109.2963105  14.9101995
  48.2952846 108.8545515  14.1656627  47.1646751 108.7215732  15.1636188
  44.2400560 104.2335711  12.2835552  45.0861755 104.6575125  12.4270201
  44.1799197 103.5769336  12.9774115  47.3900005 101.8940080  13.9416725
  47.1460937 102.6482140  13.4051001  47.6659935 102.2725427  14.7763972
  49.3438468 108.4378692  12.6193991  49.5555363 109.0810452  11.9428372
  49.2968216 107.6041009  12.1515921  46.9464697 101.0496513   9.5230563
  46.0849176 101.3477766   9.8147301  46.9727131 101.2666912   8.5911596
  40.6550347 109.1410185   8.8684132  41.2251704 109.5697453   8.2301617
  41.2458459 108.8592770   9.5668318  41.1475514 104.3073612  17.1145143
  40.5174174 104.9889893  17.3480540  41.0411602 104.1956694  16.1698282
  44.2240899 110.8634691  12.9477059  44.2885332 111.3255098  13.7835231
  43.5151823 110.2332056  13.0759369  34.7258189 104.2275899  10.4726058
  34.9766227 105.1122909  10.7383634  35.2617737 104.0480500   9.7001150
  40.4256256  98.6094378  19.4770394  40.0323202  98.0560577  20.1518039
  41.2422397  98.9204957  19.8676912  43.3424217 100.0252257  17.0690651
  44.0833931 100.6259410  16.9895113  43.5742140  99.2829895  16.5108693
  38.4865555 105.2108625  15.3468881  38.3719071 104.3093882  15.6475980
  37.6310073 105.4572321  14.9953697  45.5657393 113.1526365  16.9456381
  45.1221247 112.3662743  16.6277286  46.2274607 113.3405515  16.2800272
  40.3244514 114.6822166  11.4717060  40.8751939 114.5539230  10.6994054
  39.4855990 114.9817055  11.1211953  47.6638631 113.4329165  14.9737782
  47.6457107 114.2538046  14.4818052  48.5858551 113.3083240  15.1987924
  44.1211685 110.9473294  15.8161291  44.6540022 110.1861582  15.5860599
  43.5925766 110.6546946  16.5585445  47.2881380  96.0533360  11.3454933
  46.9445650  96.9435002  11.2694043  47.6560343  95.8635018  10.4824518
  44.8378774 100.8891672   4.9112606  43.9820370 100.4998523   4.7318245
  45.2505726 100.9683633   4.0512392  46.3677921  98.4238015   9.3104166
  45.8642716  98.3868151   8.4971971  46.6608528  99.3330758   9.3700823
  42.6120807  98.5076745   8.3170348  43.4773803  98.3119554   7.9576237
  42.6798315  98.2787097   9.2439704  40.2183126 100.7378953   5.6886714
  40.7926878 100.5154135   4.9559907  40.8054108 100.8067648   6.4415316
  42.5205793  97.6120202   4.4161784  41.8670206  97.2969219   3.7918399
  42.4786268  96.9895942   5.1421607  45.7543534 104.1002135   8.7409431
  44.8366095 104.3217083   8.5831120  46.1703677 104.1748446   7.8821139
  49.0869046  95.3126919   6.4472670  49.3927923  94.4524283   6.1598585
  49.8121651  95.9044540   6.2471664  43.3590126 105.6080713   6.9548861
  43.4138735 104.6554549   6.8791338  42.5481328 105.7640152   7.4390160
  41.2982486 104.2257772   4.7139240  40.4850351 104.5251943   5.1204432
  41.7941480 103.8313461   5.4313722  46.8956697 104.6899597  13.5454134
  47.2506085 104.9171070  14.4048600  47.5428829 105.0217974  12.9231389
  40.7896560 101.7976128  10.3300475  41.4295940 101.6564887   9.6323438
  39.9574091 101.5110641   9.9539077  37.7925177 101.7676453   5.1073462
  38.0531994 102.6821786   4.9982622  38.6142349 101.3000895   5.2570075
  39.2650102 103.1814210  12.2772287  39.9373156 102.9731572  11.6284935
  38.4379889 102.9836296  11.8377519  45.1675674  99.8076151  14.2937947
  44.5203589 100.5066101  14.2002424  45.9376690 100.2412295  14.6614196
  48.5754472 110.0725003  17.3688501  48.4239979 109.8435555  16.4518584
  48.5659152 111.0295604  17.3819846  45.3439809 107.6456916  12.3534767
  46.2731869 107.7968075  12.1803734  44.9230839 107.7340937  11.4983414
  44.1428140 111.6707580  10.1233305  44.0039226 111.3026365  10.9959243
  43.3542737 112.1855220   9.9517263  39.6677599 106.4556813  13.0374724
  39.5297397 105.7237052  13.6386263  40.5782523 106.3665713  12.7558911
  42.2959900 106.1676772  12.5258403  43.0059519 105.5269964  12.4845022
  42.2529208 106.4189667  13.4484584  50.2846679 113.1044126  15.4464983
  50.2259225 112.4203346  14.7795566  50.6866197 113.8463116  14.9945609
  41.0088834 103.1541990  14.3454043  40.4726191 102.7032729  14.9975639
  40.4205542 103.2887899  13.6024507  50.2864086 111.0683710  13.6778962
  49.3990865 110.7309631  13.8005361  50.8562637 110.3366741  13.9147728
  36.7427955 102.2897998  11.4307037  36.6586144 101.6823667  10.6957447
  35.9210662 102.7807016  11.4316534  46.9151669 100.7751561   6.7977232
  47.4120369 100.0221524   6.4778303  46.1438651 100.8115878   6.2320442
  43.4986638 102.9168944   6.5248917  43.1284425 102.3639985   7.2129823
  43.9945730 102.3127078   5.9723917  41.3275836 113.3766439  13.6203935
  42.0285296 114.0102922  13.7733329  40.8570951 113.7181171  12.8599574
  49.3570664  97.7421155   8.9456591  48.4433744  97.9725382   9.1138798
  49.7863765  97.8259599   9.7970624  49.1277122 105.9311047  11.4456485
  48.4748573 106.1786954  10.7908938  49.5057502 105.1175185  11.1118963
  45.1764695 106.6730858  17.9322522  44.5005332 106.5724987  18.6024898
  45.9992329 106.5170072  18.3958520  38.8951972 100.3272935  12.7702023
  38.9593298 101.1887766  12.3579421  38.8319092  99.7146937  12.0374382
  38.3704244 102.3996068  16.4175057  38.9976283 102.0173145  17.0312582
  37.5132163 102.1810270  16.7830750  48.7698353 112.8059043  18.0228793
  49.3138257 113.4189001  17.5283748  48.1885198 113.3638621  18.5395806
  38.6764034 102.2828493   8.3320961  37.9550620 102.8964461   8.1928434
  39.4657290 102.8186258   8.2537607  41.4790347  99.6182920  14.6061612
  42.0024749  99.8645216  15.3687922  41.2602681 100.4502955  14.1864750
  42.6842892 100.5596615  12.2911283  42.3439713  99.7604428  12.6931963
  41.9781899 100.8598326  11.7188116  43.3359364  97.6445927  10.7438606
  44.1585434  97.1706406  10.6217496  43.5797428  98.4236411  11.2437292
  40.8597943 104.3365048   8.5530585  40.7142524 104.6505351   9.4454866
  40.3823147 104.9549948   8.0001483  42.7194326 101.3267596   8.6011474
  42.7055895 100.4308689   8.2643772  43.4366754 101.3338260   9.2349760
  44.5720457 101.7604936  10.6464602  44.3138234 102.6822007  10.6448932
  44.0405497 101.3635371  11.3365066  35.3343605 106.8770392  11.4918246
  34.7897073 107.6530200  11.6238520  36.2122955 107.2241197  11.3337367
  42.1231222 100.2081976   3.8699044  42.2447133  99.2798622   4.0689932
  41.8333264 100.2220662   2.9577360  44.9922412  97.8936887   7.0065764
  45.0144109  97.9576220   6.0517744  45.4090471  97.0541395   7.2006270
  36.1209627 106.0040289  14.3848403  35.3791363 106.1522924  14.9713033
  35.8002371 106.2648554  13.5215152  44.0653290 115.5456267  14.1828793
  44.3740416 115.3005414  15.0551492  44.8628772 115.7502905  13.6947663
  41.6072301 101.7213974  18.0788977  41.6560457 102.5976096  17.6966747
  42.1494816 101.1791367  17.5060620  52.0927147 112.2655097  17.3590114
  51.3022691 112.2479236  16.8194613  51.8560502 112.8043391  18.1139151
  52.2125022 109.1147563  14.6722843  52.2623027 108.9497571  15.6138365
  52.1038945 108.2474822  14.2820723  49.5028784 105.0978491  15.9882149
  50.4038647 104.9584956  15.6966147  49.5776759 105.2632946  16.9280327
  43.8371590 102.4745346  14.8335336  42.9674899 102.7678912  14.5617924
  44.0731070 103.0585791  15.5542599  53.7143219 111.5344505  14.9164864
  53.4228027 111.8974485  15.7528325  53.1015350 110.8211513  14.7378196
  51.9630407 106.6577119  13.3844922  52.4384529 106.8504766  12.5763773
  51.0395973 106.7136305  13.1388306  46.5410624  98.6924963  12.3500756
  47.0592567  99.4285990  12.0247245  46.1865756  98.9988956  13.1847515
  46.7923218  95.1125246   7.8701653  47.0724972  94.4448435   8.4962079
  47.5773825  95.3054341   7.3576316  50.6632076 103.5342879  11.6173228
  51.6149499 103.6340977  11.6385452  50.4935527 102.7421148  12.1271312
  48.6846456 100.6198463  11.8032629  48.0896388 100.9003475  11.1079117
  48.3996152 101.1092364  12.5749370  53.2914642 103.5460043  10.7773811
  52.7753691 102.7618499  10.5903739  54.1754591 103.2178759  10.9420330
  50.9525369  97.2901058   6.7369623  50.7550190  96.9816146   7.6212955
  51.5625075  98.0162697   6.8667553  44.8642177 109.6762798  18.2343388
  45.7845187 109.8541397  18.4283435  44.8291760 108.7318844  18.0823088
  37.8604250 107.5863833  10.8766170  38.0790260 108.5180941  10.8954203
  38.2730024 107.2271807  11.6620973  44.7808468  98.0931918   2.8641858
  43.9709196  97.7479003   3.2397104  45.4692885  97.7839462   3.4529469
  46.7099016  97.1709965   4.4866155  47.2630055  97.5905418   5.1456178
  46.9469102  96.2445713   4.5289111  42.7332115 103.1597039  20.2668918
  42.6328842 104.1091396  20.1981010  42.5153657 102.8315278  19.3944989
  48.5381389  98.6815548   6.1966139  49.0381168  98.7932082   5.3880458
  49.1816997  98.3776601   6.8366948  42.5963385 106.5894178  19.0833980
  42.1130467 107.3894538  19.2897869  42.6824324 106.6002122  18.1301424
  38.5236723 110.4798712  11.1202414  39.4779976 110.4482655  11.0532345
  38.3249246 110.0189336  11.9352640  39.1136105 109.0499828  13.6873212
  39.9328994 109.5443907  13.7108049  39.3872913 108.1331796  13.6590779
  34.3671019 103.3837962  14.3865409  35.0129883 102.8736916  14.8752634
  34.1588170 104.1206644  14.9608834  46.8924411 110.4518810  19.8857549
  47.7615571 110.6259462  19.5244184  46.4131163 111.2713226  19.7633279
  41.0610592 117.5715911  11.5646983  41.9637838 117.6039521  11.8813478
  40.8347962 116.6416362  11.5793319  46.7026749  94.2420783   4.3935242
  45.9359145  93.6879270   4.5391924  47.1137454  94.3142652   5.2549393
  38.7068510 100.5305579  18.4840423  39.5699972 100.1742384  18.6943747
  38.1333921 100.1919474  19.1715827  51.2650011 113.9386296  19.4770394
  50.8716956 113.3852494  20.1518039  52.0816151 114.2496874  19.8676912
  54.1817972 115.3544175  17.0690651  54.9227685 115.9551328  16.9895113
  54.4135895 114.6121813  16.5108693  49.2097999 117.7287985  16.4175057
  49.8370037 117.3465063  17.0312582  48.3525917 117.5102187  16.7830750
  52.4466056 117.0505891  18.0788977  52.4954211 117.9268014  17.6966747
  52.9888570 116.5083284  17.5060620  53.5725870 118.4888956  20.2668918
  53.4722597 119.4383313  20.1981010  53.3547412 118.1607195  19.3944989
  45.2064774 118.7129880  14.3865409  45.8523637 118.2028834  14.8752634
  44.9981925 119.4498561  14.9608834  49.5462265 115.8597497  18.4840423
  50.4093726 115.5034302  18.6943747  48.9727675 115.5211392  19.1715827
  28.6059171  59.4522413   2.1710289  28.5471717  58.7681633   1.5040872
  29.0078689  60.1941403   1.7190915  27.0910845  59.1537330   4.7474099
  27.6350749  59.7667288   4.2529054  26.5097690  59.7116908   5.2641112
  30.4139639  58.6133384   4.0835421  29.6235183  58.5957523   3.5439920
  30.1772994  59.1521678   4.8384457  32.0355711  57.8822792   1.6410171
  31.7440519  58.2452773   2.4773632  31.4227842  57.1689800   1.4623503
  25.2136904  56.7997097   6.6102856  26.0828063  56.9737749   6.2489491
  24.7343655  57.6191514   6.4878585  36.8729379  68.5085723  -3.9851870
  37.5107789  68.3892470  -4.6888529  36.7550222  69.4566567  -3.9263917
  33.6819086  68.4613151  -4.0490345  33.3437597  68.3454216  -4.9369810
  34.5508854  68.0604316  -4.0689339  34.1638869  69.6148003   1.9095861
  34.1527509  69.2200801   1.0376364  34.3259508  68.8814075   2.5029632
  30.8846130  72.3985114   0.8575045  30.5935996  73.3030745   0.7421711
  31.5203114  72.4401642   1.5719114  31.8102337  69.7761963  -2.5523596
  32.4065909  69.5517985  -3.2666633  31.8677308  69.0346708  -1.9498148
  41.8279075  66.1712410  -6.0065683  42.5604247  65.6011627  -5.7727853
  41.0718431  65.7834010  -5.5659177  39.3504495  59.8833984  -1.5471074
  39.0187820  60.7529395  -1.7709859  38.7550109  59.5670268  -0.8677044
  35.8436015  72.0846530  -2.1475162  35.5436738  72.9871569  -2.2559354
  35.4987074  71.8178713  -1.2954009  39.2433159  64.6029070  -4.4677724
  38.3350036  64.5344479  -4.7618963  39.1920754  65.0801015  -3.6395899
  33.3174024  66.0218716   3.4757173  32.5407358  66.5812636   3.4660038
  33.9564587  66.5075499   3.9972043  41.1094805  62.8045509  -2.6899850
  40.4669185  63.0978042  -3.3360056  40.6049734  62.6898429  -1.8846654
  31.5720397  68.8304169   3.0375140  32.3135081  69.3689213   2.7609964
  30.8657382  69.4570458   3.1946692  37.0475736  70.9733310   1.6347301
  37.4559092  70.5315720   0.8901934  36.3252998  70.3985937   1.8881494
  33.4006806  65.9105916  -0.9919142  34.2468002  66.3345330  -0.8484493
  33.3405444  65.2539541  -0.2980579  37.3704551  71.5334500  -4.6100410
  36.7413413  71.6980214  -5.3124342  36.9830213  71.9476110  -3.8389446
  41.2493783  72.4688938  -7.2556046  40.5644821  72.8487839  -7.8059013
  41.3337632  73.0784265  -6.5224098  36.5506252  63.5710285   0.6662032
  36.3067184  64.3252345   0.1296308  36.8266182  63.9495632   1.5009279
  38.5044714  70.1148897  -0.6560702  38.7161610  70.7580657  -1.3326321
  38.4574463  69.2811214  -1.1238772  29.8156594  70.8180390  -4.4070561
  30.3857951  71.2467658  -5.0453077  30.4064706  70.5362975  -3.7086376
  30.3081760  65.9843817   3.8390450  29.6780421  66.6660098   4.0725847
  30.2017848  65.8726899   2.8943588  39.6190542  72.9920853  -2.4838345
  40.4407986  72.5901040  -2.7655663  39.6152945  72.8889087  -1.5322229
  33.3847146  72.5404896  -0.3277635  33.4491578  73.0025303   0.5080537
  32.6758070  71.9102261  -0.1995325  47.7096535  69.3359601  -6.1353374
  46.9560244  68.7666999  -6.2909369  47.8444077  69.3022265  -5.1882739
  29.5862503  60.2864583   6.2015701  29.1929449  59.7330782   6.8763345
  30.4028643  60.5975162   6.5922219  32.5030464  61.7022462   3.7935958
  33.2440178  62.3029615   3.7140420  32.7348387  60.9600100   3.2354000
  27.6471802  66.8878830   2.0714187  27.5325317  65.9864087   2.3721286
  26.7916320  67.1342526   1.7199004  34.7263640  74.8296570   3.6701688
  34.2827494  74.0432948   3.3522592  35.3880853  75.0175720   3.0045579
  29.4850761  76.3592371  -1.8037634  30.0358186  76.2309435  -2.5760640
  28.6462237  76.6587260  -2.1542741  36.8244878  75.1099370   1.6983089
  36.8063353  75.9308251   1.2063358  37.7464798  74.9853445   1.9233230
  33.2817932  72.6243499   2.5406597  33.8146269  71.8631787   2.3105905
  32.7532013  72.3317151   3.2830752  39.6263491  69.9478512  -4.8307544
  38.9687165  70.6377774  -4.7427416  40.4303890  70.3374944  -4.4873558
  38.4368950  68.3022885  -6.7803602  38.9500831  68.9352877  -6.2781893
  39.0870174  67.7024080  -7.1460242  34.9149780  65.7772340  -4.5345262
  33.9972342  65.9987287  -4.6923574  35.3309924  65.8518651  -5.3933555
  39.2030746  73.2828886  -8.6524460  38.7493073  72.4419796  -8.5959269
  38.5724713  73.9190285  -8.3149680  37.6463685  75.1205383  -7.7174642
  37.9386659  75.6810440  -8.4362276  38.1562306  75.4133944  -6.9621483
  36.0562944  66.3669802   0.2699441  36.4112332  66.5941275   1.1293906
  36.7035075  66.6988178  -0.3523304  41.7860681  69.4888238  -9.0251230
  41.6478580  69.6789834  -9.9530041  41.4296900  70.2507620  -8.5683179
  41.8130061  71.5564765  -4.0139959  42.2466567  71.4640054  -3.1656905
  42.5261641  71.5322265  -4.6519943  35.5457956  75.1566859  -2.4806858
  35.5994978  75.7257795  -1.7129142  34.6772737  75.3268744  -2.8452821
  28.4256349  64.8584415  -0.9982407  29.0979402  64.6501777  -1.6469758
  27.5986135  64.6606501  -1.4377175  42.6745610  71.5988465  -1.4807073
  42.8681500  72.5034276  -1.2347798  42.5746228  71.1395884  -0.6468488
  34.3281921  61.4846356   1.0183254  33.6809836  62.1836305   0.9247730
  35.0982936  61.9182500   1.3859502  37.7360719  71.7495208   4.0933807
  37.5846225  71.5205760   3.1763891  37.7265398  72.7065809   4.1065152
  34.5046055  69.3227121  -0.9219926  35.4338115  69.4738280  -1.0950959
  34.0837085  69.4111141  -1.7771280  33.3034387  73.3477785  -3.1521389
  33.1645473  72.9796570  -2.2795451  32.5148983  73.8625425  -3.3237431
  34.8539602  72.7259388  -5.7632551  34.5189435  72.6860158  -4.8674901
  34.3543548  72.0604104  -6.2362141  28.8283846  68.1327018  -0.2379970
  28.6903644  67.4007257   0.3631569  29.7388770  68.0435918  -0.5195782
  31.4566147  67.8446977  -0.7496290  32.1665765  67.2040169  -0.7909672
  31.4135455  68.0959872   0.1729891  39.4452926  74.7814330   2.1710289
  39.3865472  74.0973551   1.5040872  39.8472444  75.5233320   1.7190915
  30.1695081  64.8312195   1.0699349  29.6332438  64.3802933   1.7220946
  29.5811789  64.9658104   0.3269814  39.4470333  72.7453914   0.4024269
  38.5597112  72.4079836   0.5250668  40.0168884  72.0136946   0.6393034
  32.9771486  77.4055367  -2.6314488  32.9041658  78.2110338  -2.1195183
  32.5348879  77.6047333  -3.4566467  43.9287673  68.1562132  -4.8359170
  43.9177550  69.0386847  -5.2065236  43.0605053  67.8033683  -5.0304632
  35.4370170  77.3042201  -0.4756329  36.1498142  77.9389666  -0.5480428
  34.9460198  77.4006067  -1.2916327  30.4882083  75.0536644   0.3449242
  31.1891543  75.6873127   0.4978636  30.0177198  75.3951376  -0.4155119
  38.2883369  67.6081252  -1.8298208  37.6354819  67.8557159  -2.4845755
  38.6663749  66.7945390  -2.1635731  34.3370942  68.3501063   4.6567829
  33.6611579  68.2495192   5.3270204  35.1598576  68.1940277   5.1203826
  33.0793725  79.6567990  -1.1074555  33.6312033  79.8199612  -0.3425470
  33.4199919  80.2472428  -1.7794530  27.5310491  64.0766273   3.1420364
  28.1582530  63.6943350   3.7557888  26.6738410  63.8580475   3.5076056
  37.9304599  74.4829248   4.7474099  38.4744503  75.0959206   4.2529054
  37.3491444  75.0408826   5.2641112  36.2162112  77.6049966  -4.1210873
  36.0913252  76.8039706  -4.6299927  36.8741203  78.0996159  -4.6096903
  38.2797021  75.4058986  -2.4931323  37.3327356  75.2864337  -2.5652996
  38.6279794  74.5181484  -2.4105061  30.6396594  61.2953125   1.3306919
  31.1630996  61.5415421   2.0933228  30.4208927  62.1273160   0.9110056
  35.2843454  75.2011702  -6.2926971  35.1368416  74.2728409  -6.1119401
  36.1096948  75.2231793  -6.7769895  38.8877576  76.0240261  -5.2062098
  39.8124123  75.8183122  -5.3437647  38.7192879  75.7756662  -4.2972756
  31.8449139  62.2366820  -0.9843410  31.5045960  61.4374633  -0.5822730
  31.1388145  62.5368531  -1.5566577  33.7326703  63.4375141  -2.6290092
  33.4744481  64.3592212  -2.6305761  33.2011744  63.0405576  -1.9389628
  38.6772892  76.5425928  -9.8500006  38.8509770  75.9772351 -10.6026154
  39.1701783  77.3426823 -10.0320516  24.4949852  68.5540597  -1.7836448
  23.9503320  69.3300405  -1.6516173  25.3729202  68.9011402  -1.9417326
  44.5312283  69.3062351  -8.2309707  44.9743429  68.5569676  -8.6290583
  43.6538794  69.2972488  -8.6135975  25.2815874  67.6810494   1.1093709
  24.5397610  67.8293129   1.6958340  24.9608618  67.9418759   0.2460459
  41.5639488  73.3092398 -11.2215777  42.0890812  73.6479671 -11.9466457
  41.4761840  72.3739414 -11.4052643  33.2259536  77.2226472   0.9074099
  33.5346663  76.9775619   1.7796799  34.0235018  77.4273110   0.4192970
  30.7678548  63.3984179   4.8034284  30.8166704  64.2746301   4.4212053
  31.3101062  62.8561572   4.2305927  41.2533394  73.9425302   4.0835421
  40.4628937  73.9249441   3.5439920  41.0166748  74.4813596   4.8384457
  41.3731269  70.7917768   1.3968149  41.4229274  70.6267776   2.3383672
  41.2645192  69.9245027   1.0066030  38.6635031  66.7748696   2.7127456
  39.5644894  66.6355161   2.4211454  38.7383006  66.9403151   3.6525633
  32.9977837  64.1515551   1.5580642  32.1281146  64.4449117   1.2863231
  33.2337317  64.7355996   2.2787906  42.8749466  73.2114710   1.6410171
  42.5834274  73.5744690   2.4773632  42.2621597  72.4981718   1.4623503
  44.0745148  70.7767589  -5.8387259  44.9092039  71.2157394  -5.6749699
  44.2104277  70.3006243  -6.6579013  41.1236654  68.3347324   0.1090229
  41.5990775  68.5274971  -0.6990920  40.2002219  68.3906510  -0.1366388
  35.7016870  60.3695168  -0.9253937  36.2198814  61.1056195  -1.2507449
  35.3472003  60.6759161  -0.0907178  39.8238323  65.2113084  -1.6581466
  40.7755746  65.3111182  -1.6369242  39.6541773  64.4191353  -1.1483381
  37.8452702  62.2968668  -1.4722065  37.2502634  62.5773680  -2.1675576
  37.5602399  62.7862569  -0.7005324  42.3026401  68.4319204  -2.5439166
  42.2702721  67.4935205  -2.3579482  42.9127024  68.5103241  -3.2773341
  42.4520889  65.2230248  -2.4980883  41.9359938  64.4388704  -2.6850954
  43.3360838  64.8948964  -2.3334363  48.1202951  69.4935211  -3.4033129
  48.8506339  69.2320499  -2.8425426  47.5109896  68.7563933  -3.3631061
  46.2018248  67.6343074  -2.8058678  45.4751411  67.4999038  -3.4142186
  45.7865535  67.9419902  -2.0001960  34.0248424  71.3533003   4.9588695
  34.9451434  71.5311602   5.1528741  33.9898007  70.4089049   4.8068394
  27.0210497  69.2634038  -2.3988524  27.2396506  70.1951146  -2.3800490
  27.4336270  68.9042012  -1.6133720  31.8938362  64.8367244   6.9914225
  31.7935089  65.7861601   6.9226316  31.6759904  64.5085483   6.1190295
  31.7569632  68.2664382   5.8079287  31.2736714  69.0664743   6.0143176
  31.8430571  68.2772327   4.8546731  27.6842969  72.1568917  -2.1552279
  28.6386223  72.1252860  -2.2222348  27.4855493  71.6959541  -1.3402054
  28.2742352  70.7270033   0.4118518  29.0935241  71.2214112   0.4353355
  28.5479159  69.8102001   0.3836086  43.8196043  63.8554926  -5.4525246
  44.4140533  63.6150662  -6.1631938  43.8922626  63.1362056  -4.8251710
  46.1267115  67.1621127  -6.6781825  45.5666673  67.2314316  -5.9050263
  45.5210619  66.9862111  -7.3982329  23.5277266  65.0608167   1.1110715
  24.1736129  64.5507121   1.5997940  23.3194417  65.7976849   1.6854140
  36.0530658  72.1289015   6.6102856  36.9221818  72.3029667   6.2489491
  35.5737410  72.9483431   6.4878585  30.2216838  79.2486116  -1.7107711
  31.1244085  79.2809726  -1.3941216  29.9954208  78.3186567  -1.6961375
  27.8674757  62.2075784   5.2085729  28.7306218  61.8512589   5.4189054
  27.2940168  61.8689679   5.8961134  47.7123134  83.8377641  -3.9851870
  48.3501544  83.7184388  -4.6888529  47.5943977  84.7858484  -3.9263917
  44.5212840  83.7905069  -4.0490345  44.1831352  83.6746133  -4.9369810
  45.3902608  83.3896234  -4.0689339  45.0032623  84.9439920   1.9095861
  44.9921264  84.5492719   1.0376364  45.1653263  84.2105993   2.5029632
  41.7239884  87.7277032   0.8575045  41.4329750  88.6322663   0.7421711
  42.3596869  87.7693560   1.5719114  42.6496091  85.1053881  -2.5523596
  43.2459663  84.8809903  -3.2666633  42.7071063  84.3638626  -1.9498148
  50.1898250  75.2125902  -1.5471074  49.8581575  76.0821313  -1.7709859
  49.5943863  74.8962186  -0.8677044  46.6829769  87.4138448  -2.1475162
  46.3830492  88.3163486  -2.2559354  46.3380829  87.1470631  -1.2954009
  40.1342251  83.8652245  -6.1138457  39.2092747  83.7328459  -5.9060765
  40.3826664  84.6446464  -5.6168515  50.0826913  79.9320988  -4.4677724
  49.1743790  79.8636396  -4.7618963  50.0314509  80.4092933  -3.6395899
  44.1567779  81.3510633   3.4757173  43.3801113  81.9104554   3.4660038
  44.7958342  81.8367416   3.9972043  51.9488559  78.1337426  -2.6899850
  51.3062940  78.4269959  -3.3360056  51.4443488  78.0190347  -1.8846654
  42.4114151  84.1596087   3.0375140  43.1528836  84.6981131   2.7609964
  41.7051137  84.7862376   3.1946692  47.8869491  86.3025227   1.6347301
  48.2952847  85.8607638   0.8901934  47.1646752  85.7277855   1.8881494
  44.2400561  81.2397834  -0.9919142  45.0861756  81.6637248  -0.8484493
  44.1799199  80.5831458  -0.2980579  47.3900006  78.9002202   0.6662032
  47.1460938  79.6544263   0.1296308  47.6659937  79.2787550   1.5009279
  49.3438469  85.4440815  -0.6560702  49.5555364  86.0872575  -1.3326321
  49.2968217  84.6103131  -1.1238772  46.9464698  78.0558635  -3.7524130
  46.0849177  78.3539889  -3.4607393  46.9727133  78.2729034  -4.6843098
  40.6550348  86.1472308  -4.4070561  41.2251705  86.5759576  -5.0453077
  41.2458460  85.8654892  -3.7086376  41.1475515  81.3135735   3.8390450
  40.5174175  81.9952016   4.0725847  41.0411603  81.2018817   2.8943588
  44.2240900  87.8696813  -0.3277635  44.2885333  88.3317221   0.5080537
  43.5151824  87.2394178  -0.1995325  34.7258190  81.2338021  -2.8028635
  34.9766229  82.1185031  -2.5371059  35.2617739  81.0542623  -3.5753543
  40.4256258  75.6156501   6.2015701  40.0323203  75.0622699   6.8763345
  41.2422398  75.9267079   6.5922219  43.3424219  77.0314380   3.7935958
  44.0833932  77.6321533   3.7140420  43.5742141  76.2892018   3.2354000
  38.4865557  82.2170747   2.0714187  38.3719072  81.3156004   2.3721286
  37.6310074  82.4634444   1.7199004  45.5657394  90.1588487   3.6701688
  45.1221249  89.3724866   3.3522592  46.2274608  90.3467638   3.0045579
  40.3244516  91.6884289  -1.8037634  40.8751941  91.5601352  -2.5760640
  39.4855991  91.9879178  -2.1542741  47.6638632  90.4391287   1.6983089
  47.6457108  91.2600168   1.2063358  48.5858552  90.3145363   1.9233230
  44.1211687  87.9535417   2.5406597  44.6540023  87.1923705   2.3105905
  43.5925768  87.6609069   3.2830752  47.2881382  73.0595483  -1.9299761
  46.9445651  73.9497125  -2.0060650  47.6560344  72.8697140  -2.7930176
  44.8378775  77.8953795  -8.3642087  43.9820372  77.5060645  -8.5436449
  45.2505727  77.9745756  -9.2242302  46.3677922  75.4300138  -3.9650528
  45.8642718  75.3930273  -4.7782722  46.6608529  76.3392881  -3.9053871
  42.6120808  75.5138868  -4.9584346  43.4773805  75.3181676  -5.3178456
  42.6798317  75.2849219  -4.0314989  40.2183127  77.7441076  -7.5867979
  40.7926879  77.5216257  -8.3194786  40.8054109  77.8129770  -6.8339378
  42.5205795  74.6182325  -8.8592910  41.8670207  74.3031342  -9.4836295
  42.4786269  73.9958065  -8.1333087  45.7543535  81.1064258  -4.5345262
  44.8366096  81.3279205  -4.6923574  46.1703679  81.1810569  -5.3933555
  49.0869047  72.3189042  -6.8282023  49.3927924  71.4586405  -7.1156108
  49.8121652  72.9106662  -7.0283029  43.3590127  82.6142835  -6.3205832
  43.4138737  81.6616672  -6.3963355  42.5481329  82.7702274  -5.8364534
  41.2982487  81.2319895  -8.5615453  40.4850352  81.5314065  -8.1550261
  41.7941481  80.8375584  -7.8440971  46.8956699  81.6961719   0.2699441
  47.2506086  81.9233192   1.1293906  47.5428830  82.0280096  -0.3523304
  40.7896562  78.8038250  -2.9454218  41.4295941  78.6627009  -3.6431255
  39.9574092  78.5172764  -3.3215616  37.7925178  78.7738575  -8.1681231
  38.0531995  79.6883909  -8.2772071  38.6142350  78.3063018  -8.0184619
  39.2650103  80.1876333  -0.9982407  39.9373157  79.9793695  -1.6469758
  38.4379890  79.9898419  -1.4377175  45.1675675  76.8138273   1.0183254
  44.5203590  77.5128223   0.9247730  45.9376691  77.2474417   1.3859502
  48.5754473  87.0787126   4.0933807  48.4239980  86.8497677   3.1763891
  48.5659153  88.0357727   4.1065152  45.3439810  84.6519038  -0.9219926
  46.2731870  84.8030198  -1.0950959  44.9230840  84.7403059  -1.7771280
  44.1428142  88.6769703  -3.1521389  44.0039227  88.3088487  -2.2795451
  43.3542738  89.1917342  -3.3237431  39.6677601  83.4618936  -0.2379970
  39.5297399  82.7299174   0.3631569  40.5782524  83.3727836  -0.5195782
  42.2959901  83.1738895  -0.7496290  43.0059520  82.5332087  -0.7909672
  42.2529209  83.4251790   0.1729891  50.2846680  90.1106248   2.1710289
  50.2259226  89.4265468   1.5040872  50.6866198  90.8525238   1.7190915
  41.0088835  80.1604113   1.0699349  40.4726192  79.7094851   1.7220946
  40.4205544  80.2950022   0.3269814  50.2864087  88.0745832   0.4024269
  49.3990866  87.7371754   0.5250668  50.8562638  87.3428863   0.6393034
  36.7427957  79.2960120  -1.8447656  36.6586145  78.6885790  -2.5797246
  35.9210663  79.7869139  -1.8438160  46.9151670  77.7813684  -6.4777461
  47.4120370  77.0283646  -6.7976391  46.1438652  77.8178001  -7.0434252
  43.4986639  79.9231067  -6.7505776  43.1284427  79.3702107  -6.0624871
  43.9945732  79.3189200  -7.3030776  41.3275838  90.3828562   0.3449242
  42.0285297  91.0165045   0.4978636  40.8570953  90.7243293  -0.4155119
  49.3570665  74.7483277  -4.3298102  48.4433745  74.9787504  -4.1615895
  49.7863767  74.8321722  -3.4784070  49.1277124  82.9373169  -1.8298208
  48.4748574  83.1849077  -2.4845755  49.5057504  82.1237308  -2.1635731
  45.1764697  83.6792980   4.6567829  44.5005334  83.5787110   5.3270204
  45.9992331  83.5232194   5.1203826  38.8951973  77.3335058  -0.5052670
  38.9593299  78.1949889  -0.9175273  38.8319093  76.7209059  -1.2380312
  38.3704245  79.4058190   3.1420364  38.9976284  79.0235268   3.7557888
  37.5132164  79.1872392   3.5076056  48.7698354  89.8121165   4.7474099
  49.3138258  90.4251124   4.2529054  48.1885199  90.3700744   5.2641112
  38.6764035  79.2890616  -4.9433733  37.9550621  79.9026584  -5.0826259
  39.4657291  79.8248381  -5.0217087  41.4790349  76.6245042   1.3306919
  42.0024750  76.8707339   2.0933228  41.2602682  77.4565077   0.9110056
  42.6842894  77.5658738  -0.9843410  42.3439714  76.7666551  -0.5822730
  41.9781900  77.8660448  -1.5566577  43.3359365  74.6508050  -2.5316087
  44.1585435  74.1768528  -2.6537197  43.5797429  75.4298534  -2.0317401
  40.8597944  81.3427171  -4.7224109  40.7142525  81.6567474  -3.8299827
  40.3823148  81.9612071  -5.2753210  42.7194327  78.3329719  -4.6743219
  42.7055896  77.4370812  -5.0110921  43.4366755  78.3400382  -4.0404933
  44.5720458  78.7667059  -2.6290092  44.3138236  79.6884129  -2.6305761
  44.0405498  78.3697493  -1.9389628  35.3343606  83.8832515  -1.7836448
  34.7897074  84.6592323  -1.6516173  36.2122956  84.2303319  -1.9417326
  42.1231223  77.2144099  -9.4055649  42.2447134  76.2860745  -9.2064762
  41.8333265  77.2282785 -10.3177334  44.9922413  74.8999009  -6.2688929
  45.0144110  74.9638342  -7.2236950  45.4090472  74.0603518  -6.0748423
  36.1209628  83.0102411   1.1093709  35.3791364  83.1585047   1.6958340
  35.8002373  83.2710677   0.2460459  44.0653291  92.5518389   0.9074099
  44.3740417  92.3067536   1.7796799  44.8628773  92.7565028   0.4192970
  41.6072303  78.7276096   4.8034284  41.6560458  79.6038219   4.4212053
  42.1494817  78.1853489   4.2305927  52.0927148  89.2717219   4.0835421
  51.3022692  89.2541358   3.5439920  51.8560503  89.8105513   4.8384457
  52.2125023  86.1209686   1.3968149  52.2623028  85.9559693   2.3383672
  52.1038947  85.2536945   1.0066030  49.5028786  82.1040614   2.7127456
  50.4038648  81.9647079   2.4211454  49.5776760  82.2695069   3.6525633
  43.8371591  79.4807469   1.5580642  42.9674900  79.7741035   1.2863231
  44.0731071  80.0647914   2.2787906  53.7143220  88.5406627   1.6410171
  53.4228028  88.9036608   2.4773632  53.1015351  87.8273636   1.4623503
  51.9630408  83.6639242   0.1090229  52.4384530  83.8566888  -0.6990920
  51.0395974  83.7198428  -0.1366388  46.5410625  75.6987086  -0.9253937
  47.0592569  76.4348112  -1.2507449  46.1865758  76.0051079  -0.0907178
  46.7923219  72.1187368  -5.4053041  47.0724973  71.4510557  -4.7792614
  47.5773826  72.3116464  -5.9178377  50.6632077  80.5405002  -1.6581466
  51.6149500  80.6403100  -1.6369242  50.4935528  79.7483271  -1.1483381
  48.6846457  77.6260585  -1.4722065  48.0896389  77.9065598  -2.1675576
  48.3996154  78.1154486  -0.7005324  53.2914644  80.5522165  -2.4980883
  52.7753692  79.7680622  -2.6850954  54.1754592  80.2240882  -2.3334363
  50.9525371  74.2963181  -6.5385070  50.7550192  73.9878269  -5.6541738
  51.5625076  75.0224820  -6.4087140  44.8642179  86.6824921   4.9588695
  45.7845188  86.8603520   5.1528741  44.8291762  85.7380966   4.8068394
  37.8604251  84.5925956  -2.3988524  38.0790261  85.5243063  -2.3800490
  38.2730025  84.2333930  -1.6133720  44.7808469  75.0994041 -10.4112835
  43.9709197  74.7541126 -10.0357589  45.4692886  74.7901585  -9.8225224
  46.7099017  74.1772088  -8.7888539  47.2630056  74.5967541  -8.1298516
  46.9469104  73.2507836  -8.7465583  42.7332116  80.1659161   6.9914225
  42.6328843  81.1153518   6.9226316  42.5153658  79.8377400   6.1190295
  48.5381391  75.6877671  -7.0788554  49.0381169  75.7994205  -7.8874235
  49.1816999  75.3838723  -6.4387746  42.5963386  83.5956300   5.8079287
  42.1130468  84.3956660   6.0143176  42.6824326  83.6064245   4.8546731
  38.5236724  87.4860835  -2.1552279  39.4779978  87.4544777  -2.2222348
  38.3249248  87.0251459  -1.3402054  39.1136106  86.0561951   0.4118518
  39.9328995  86.5506030   0.4353355  39.3872914  85.1393919   0.3836086
  34.3671020  80.3900085   1.1110715  35.0129884  79.8799039   1.5997940
  34.1588171  81.1268766   1.6854140  46.8924413  87.4580932   6.6102856
  47.7615572  87.6321585   6.2489491  46.4131164  88.2775349   6.4878585
  41.0610593  94.5778033  -1.7107711  41.9637839  94.6101644  -1.3941216
  40.8347963  93.6478484  -1.6961375  46.7026750  71.2482906  -8.8819452
  45.9359146  70.6941393  -8.7362769  47.1137455  71.3204775  -8.0205300
  38.7068511  77.5367702   5.2085729  39.5699973  77.1804507   5.4189054
  38.1333922  77.1981597   5.8961134  51.2650012  90.9448418   6.2015701
  50.8716958  90.3914617   6.8763345  52.0816152  91.2558997   6.5922219
  54.1817973  92.3606298   3.7935958  54.9227686  92.9613451   3.7140420
  54.4135896  91.6183935   3.2354000  49.2098000  94.7350108   3.1420364
  49.8370039  94.3527185   3.7557888  48.3525919  94.5164310   3.5076056
  52.4466057  94.0568014   4.8034284  52.4954213  94.9330137   4.4212053
  52.9888571  93.5145407   4.2305927  53.5725871  95.4951079   6.9914225
  53.4722598  96.4445436   6.9226316  53.3547413  95.1669318   6.1190295
  45.2064775  95.7192002   1.1110715  45.8523638  95.2090956   1.5997940
  44.9981926  96.4560684   1.6854140  49.5462266  92.8659620   5.2085729
  50.4093727  92.5096424   5.4189054  48.9727676  92.5273514   5.8961134
  50.2846681  67.1168371 -11.1044404  50.2259227  66.4327591 -11.7713821
  50.6866200  67.8587361 -11.5563778  48.7698355  66.8183288  -8.5280594
  49.3138259  67.4313246  -9.0225639  48.1885200  67.3762866  -8.0113581
  52.0927150  66.2779342  -9.1919273  51.3022693  66.2603481  -9.7314773
  51.8560504  66.8167636  -8.4370236  53.7143221  65.5468750 -11.6344523
  53.4228030  65.9098731 -10.7981062  53.1015353  64.8335758 -11.8131191
  46.8924414  64.4643055  -6.6651838  47.7615573  64.6383707  -7.0265203
  46.4131165  65.2837472  -6.7876108  51.2650013  67.9510541  -7.0738992
  50.8716959  67.3976740  -6.3991348  52.0816154  68.2621120  -6.6832475
  54.1817974  69.3668420  -9.4818736  54.9227688  69.9675573  -9.5614273
  54.4135897  68.6246058 -10.0400693  49.2098001  71.7412231 -10.1334329
  49.8370040  71.3589308  -9.5196805  48.3525920  71.5226432  -9.7678637
  52.4466058  71.0630137  -8.4720410  52.4954214  71.9392259  -8.8542640
  52.9888573  70.5207530  -9.0448767  53.5725872  72.5013202  -6.2840468
  53.4722599  73.4507559  -6.3528377  53.3547414  72.1731440  -7.1564398
  45.2064776  72.7254125 -12.1643978  45.8523640  72.2153079 -11.6756753
  44.9981927  73.4622807 -11.5900553  49.5462267  69.8721742  -8.0668964
  50.4093729  69.5158547  -7.8565639  48.9727678  69.5335637  -7.3793560
 122.0037154 122.0037154 122.0037154 109.4712190 109.4712190 109.4712190
